Membrane in water
40167
    1TCq1    O1    1   0.118   3.509  11.073  0.1019 -0.1875  0.5605
    1TCq1    C1    2   4.715   3.533  11.016 -0.7377  0.0729  0.3776
    1TCq1    O2    3   4.704   3.535  10.894  0.3501  0.0997 -0.3021
    1TCq1    C2    4   4.609   3.483  11.102  0.3265 -0.2965 -0.5349
    1TCq1    C3    5   4.488   3.471  11.033 -0.3232  0.2748 -0.5241
    1TCq1    C4    6   4.379   3.456  11.117 -0.3131 -0.1537 -0.2738
    1TCq1    C5    7   4.391   3.448  11.252  0.5232 -0.0091 -0.7404
    1TCq1    C6    8   4.513   3.461  11.314  0.9993  0.0649 -0.4581
    1TCq1    C7    9   4.628   3.481  11.240  0.1762  0.1885 -0.2487
    1TCq1    C8   10   4.531   3.382  11.435  0.2282  0.4234  0.6740
    1TCq1    O4   11   4.431   3.357  11.497  0.2766  0.3633 -0.1044
    1TCq1    C9   12   4.253   3.436  11.053  0.0581 -0.1847  0.2079
    1TCq1    O5   13   4.155   3.416  11.126  0.2738 -0.4793  0.0653
    1TCq1    O6   14   4.243   3.487  10.942 -0.0019  0.5446  0.1540
    1TCq1    H1   15   0.119   3.483  11.168  1.0544 -1.4663  0.1952
    1TCq1    H2   16   4.490   3.487  10.926  1.2951 -0.7830 -0.6696
    1TCq1    H3   17   4.303   3.437  11.314  0.1555  1.6037 -0.9883
    1TCq1    H4   18   4.721   3.507  11.290 -0.7664  0.5671  1.2857
    2MPD2     C   19   0.060   3.002  11.676 -0.1107  0.0384  0.2572
    2MPD2    C1   20   4.666   3.069  11.713  0.7954  0.5099  0.0436
    2MPD2    C2   21   4.619   3.159  11.619 -0.3108  0.8077 -0.2789
    2MPD2    C3   22   4.689   3.201  11.509  0.6296  0.2904 -0.0224
    2MPD2    C4   23   0.088   3.140  11.481  0.1552 -0.2801  0.2556
    2MPD2    C5   24   0.133   3.038  11.568 -0.4790  0.6321 -1.4902
    2MPD2     H   25   4.524   3.209  11.637 -0.8850  0.0911 -1.3098
    2MPD2    H1   26   0.152   3.164  11.397  0.3617 -1.9105 -0.0399
    2MPD2    H2   27   0.106   2.924  11.735 -0.1777  0.7351  1.2271
    2MPD2    H3   28   0.222   2.986  11.536  0.2322  0.2950  1.0138
    2MPD2     N   29   4.646   3.305  11.425 -0.3091  0.9024  0.2458
    2MPD2    H5   30   4.711   3.333  11.353 -0.3677 -0.5640 -0.3778
    2MPD2    N1   31   4.602   3.062  11.842 -1.1109  0.3214  0.6078
    2MPD2    H7   32   4.510   3.100  11.857 -1.8284 -0.9939 -0.4184
    3TCq1    O1   33   4.246   0.107  10.230  0.3005  0.0525 -0.1094
    3TCq1    C1   34   4.118   0.150  10.207 -0.0464 -0.1560  0.3990
    3TCq1    O2   35   4.083   0.268  10.189  0.0205  0.0943 -0.2315
    3TCq1    C2   36   4.034   0.044  10.252  0.8157 -0.1159  0.5525
    3TCq1    C3   37   3.909   0.065  10.209 -0.1671 -0.3741 -0.3854
    3TCq1    C4   38   3.815   0.000  10.279 -0.0857  0.2165  0.0234
    3TCq1    C5   39   3.841   4.627  10.375  0.1293  0.1314  0.1805
    3TCq1    C6   40   3.977   4.611  10.418 -0.6489  0.3915  0.8354
    3TCq1    C7   41   4.073   4.677  10.351 -0.9962  0.2971 -0.0724
    3TCq1    C8   42   4.007   4.506  10.513  0.5512  0.1405 -0.9761
    3TCq1    O4   43   4.102   4.427  10.492  0.8736  0.7842  0.4241
    3TCq1    C9   44   3.676   0.042  10.263  0.2552 -0.2128  0.4563
    3TCq1    O5   45   3.649   0.120  10.166  0.0776 -0.6593  0.2192
    3TCq1    O6   46   3.611   0.012  10.367 -0.4960 -0.4810  0.5523
    3TCq1    H1   47   4.257   0.009  10.226  0.8463  0.0845  0.6641
    3TCq1    H2   48   3.880   0.144  10.142  2.1448  1.2144  0.5054
    3TCq1    H3   49   3.761   4.567  10.417  0.1843  1.4239  2.1272
    3TCq1    H4   50   4.176   4.667  10.384 -0.9051 -1.5692 -0.9126
    4MPD2     C   51   3.801   4.175  10.837  0.3174  0.5288  0.3923
    4MPD2    C1   52   3.747   4.298  10.864 -0.1705 -0.1496 -0.2997
    4MPD2    C2   53   3.794   4.410  10.799  0.0357 -0.0814 -0.3024
    4MPD2    C3   54   3.891   4.397  10.698 -0.2471  0.1031  0.7495
    4MPD2    C4   55   3.954   4.277  10.683  0.4685 -0.4714  0.0477
    4MPD2    C5   56   3.911   4.170  10.755  0.4344 -0.1237 -0.0007
    4MPD2     H   57   3.729   4.496  10.810  1.4873  0.7787  1.5654
    4MPD2    H1   58   4.046   4.262  10.629  0.1012 -0.2753 -0.6362
    4MPD2    H2   59   3.774   4.081  10.884 -1.3963  0.2675 -1.1225
    4MPD2    H3   60   3.949   4.070  10.746  1.1811  0.2282 -0.7135
    4MPD2     N   61   3.910   4.504  10.612  0.5685  0.1854 -0.0596
    4MPD2    H5   62   3.843   4.580  10.608 -0.9394 -1.0656  0.8147
    4MPD2    N1   63   3.644   4.314  10.958 -0.1512 -0.1209 -0.6780
    4MPD2    H7   64   3.625   4.413  10.971 -0.7846 -0.0556 -2.1180
    5TCq1    O1   65   4.008   0.968  12.010  0.0043 -0.1221  0.2043
    5TCq1    C1   66   3.969   0.914  11.890  0.3453 -0.4738 -0.1507
    5TCq1    O2   67   3.866   0.854  11.874 -0.5355  0.0034  0.1175
    5TCq1    C2   68   4.074   0.927  11.788  0.0385 -0.3660  0.1154
    5TCq1    C3   69   4.194   0.873  11.818 -0.5154 -0.5034 -0.0314
    5TCq1    C4   70   4.285   0.848  11.720  0.3440  0.2088  0.8829
    5TCq1    C5   71   4.254   0.864  11.588 -0.3977  0.0127  0.1228
    5TCq1    C6   72   4.127   0.908  11.556  0.0146 -0.4737 -0.6547
    5TCq1    C7   73   4.041   0.953  11.654  0.2223 -0.4865 -0.4829
    5TCq1    C8   74   4.112   0.939  11.420 -0.8968  0.9273 -0.0241
    5TCq1    O4   75   4.194   0.881  11.344  0.4970  0.6347  0.1809
    5TCq1    C9   76   4.409   0.773  11.747 -0.0255 -0.1995 -0.0572
    5TCq1    O5   77   4.406   0.709  11.860 -0.4214  0.3124  0.0339
    5TCq1    O6   78   4.501   0.765  11.660 -0.3272  0.0317  0.3027
    5TCq1    H1   79   4.094   1.016  12.006 -0.7683  1.4563  2.4246
    5TCq1    H2   80   4.216   0.844  11.920 -0.1994  2.8119  0.8421
    5TCq1    H3   81   4.325   0.816  11.521 -0.6774 -4.7884  3.2276
    5TCq1    H4   82   3.943   0.992  11.628 -0.0044 -1.3512 -0.9076
    6MPD2     C   83   3.851   1.143  11.259 -0.2856 -0.0130 -0.7956
    6MPD2    C1   84   3.962   1.061  11.267  0.1854  0.2166  0.1759
    6MPD2    C2   85   4.005   0.985  11.158 -0.1645  0.2393 -0.3705
    6MPD2    C3   86   3.941   1.001  11.038  0.1371 -0.6158 -0.9321
    6MPD2    C4   87   3.831   1.094  11.031 -0.2488 -0.3098  0.5194
    6MPD2    C5   88   3.784   1.157  11.140  0.4295  0.1888  0.2765
    6MPD2     H   89   4.081   0.908  11.160  0.3525  0.7985  2.2380
    6MPD2    H1   90   3.779   1.105  10.936  0.5667  0.4362  0.1584
    6MPD2    H2   91   3.815   1.193  11.348 -0.5817  1.2913 -1.6442
    6MPD2    H3   92   3.692   1.215  11.143  0.3995  0.0579  1.6813
    6MPD2     N   93   3.977   0.926  10.928  0.8866 -0.2428  0.3201
    6MPD2    H5   94   3.912   0.927  10.850  0.4990 -0.4232  0.6438
    6MPD2    N1   95   4.012   1.029  11.393  0.1697  0.2220  0.5749
    6MPD2    H7   96   3.973   1.088  11.466 -1.1625  2.2917 -1.8208
    7TCq1    O1   97   3.122   0.452  14.032 -0.3174 -0.0174 -0.6999
    7TCq1    C1   98   3.029   0.370  13.975 -0.4039 -0.6311  0.3485
    7TCq1    O2   99   3.051   0.260  13.924  0.3228  0.0228 -0.1949
    7TCq1    C2  100   2.914   0.447  13.938 -0.2442  0.4170 -0.1614
    7TCq1    C3  101   2.859   0.544  14.022 -0.7187  0.4362  0.2073
    7TCq1    C4  102   2.730   0.587  13.980  0.6664 -0.2988  0.2494
    7TCq1    C5  103   2.670   0.549  13.867 -0.5914 -0.2789 -0.3785
    7TCq1    C6  104   2.732   0.455  13.791  0.4722  0.0599 -0.6946
    7TCq1    C7  105   2.854   0.404  13.821 -0.1807 -0.7277  0.0059
    7TCq1    C8  106   2.656   0.391  13.682 -0.8008 -1.5509  0.0590
    7TCq1    O4  107   2.538   0.382  13.699 -0.7890  0.4921  0.0335
    7TCq1    C9  108   2.653   0.679  14.062 -0.1148 -0.2493 -0.5351
    7TCq1    O5  109   2.528   0.674  14.057 -0.1084 -0.0920  0.4983
    7TCq1    O6  110   2.719   0.742  14.143  0.5086  0.4622 -0.2712
    7TCq1    H1  111   3.093   0.545  14.042  0.1061 -0.1376  1.4980
    7TCq1    H2  112   2.899   0.580  14.116 -1.0492 -1.7969  1.2119
    7TCq1    H3  113   2.589   0.610  13.829 -2.1074 -1.0222  1.6544
    7TCq1    H4  114   2.906   0.324  13.769 -0.6460 -1.0422  0.0307
    8MPD2     C  115   2.661   0.047  13.309 -0.9063 -0.3509  0.2674
    8MPD2    C1  116   2.561   0.077  13.404  0.2944  0.0419  0.0151
    8MPD2    C2  117   2.582   0.182  13.489 -0.1808  0.0564  0.1926
    8MPD2    C3  118   2.702   0.239  13.494  0.2699  0.0324  0.5173
    8MPD2    C4  119   2.806   0.210  13.406 -0.0093 -0.8902 -0.6210
    8MPD2    C5  120   2.785   0.114  13.313  0.4777  0.0202 -0.0137
    8MPD2     H  121   2.503   0.219  13.553 -0.7142  3.4878 -2.4297
    8MPD2    H1  122   2.903   0.257  13.407 -0.3716 -0.1621  1.7497
    8MPD2    H2  123   2.642   4.705  13.225  0.8974 -0.8325  0.2321
    8MPD2    H3  124   2.862   0.084  13.243 -0.6548  0.2592 -1.3414
    8MPD2     N  125   2.736   0.342  13.582 -0.1689 -0.4680 -0.1133
    8MPD2    H5  126   2.833   0.373  13.582 -0.5679  0.7791 -0.4377
    8MPD2    N1  127   2.443   0.000  13.406  0.2228 -0.5815 -0.0878
    8MPD2    H7  128   2.434   4.643  13.345  3.9176 -0.2694 -1.0754
    9TCq1    O1  129   4.566   4.101  10.377 -0.8057  0.2687 -0.7367
    9TCq1    C1  130   4.573   4.177  10.485 -0.4522  0.0454 -0.2020
    9TCq1    O2  131   4.656   4.260  10.517 -0.1110 -0.2461  0.2117
    9TCq1    C2  132   4.531   4.084  10.587  0.8294 -0.0371 -0.4027
    9TCq1    C3  133   4.403   4.022  10.589 -0.3056  0.2282  0.2923
    9TCq1    C4  134   4.376   3.930  10.681 -0.2656  0.2555 -0.2101
    9TCq1    C5  135   4.461   3.899  10.776 -0.8201 -0.2857 -0.3166
    9TCq1    C6  136   4.584   3.946  10.776 -0.5188 -0.2772  0.0920
    9TCq1    C7  137   4.623   4.038  10.680  0.3337  0.3213 -0.5328
    9TCq1    C8  138   4.674   3.919  10.881 -0.2836 -0.0405 -0.2653
    9TCq1    O4  139   0.066   3.954  10.867 -0.7029 -0.8219  0.0407
    9TCq1    C9  140   4.246   3.865  10.676  0.2884  0.5027 -0.7506
    9TCq1    O5  141   4.179   3.878  10.566  0.1462  0.2704 -0.3275
    9TCq1    O6  142   4.224   3.781  10.767 -1.0803 -0.0108  0.3642
    9TCq1    H1  143   4.546   4.007  10.393 -0.1372 -0.0617 -1.8035
    9TCq1    H2  144   4.335   4.051  10.509  1.1428 -1.6993 -1.6311
    9TCq1    H3  145   4.426   3.832  10.853 -0.8654  1.4441  1.1581
    9TCq1    H4  146   4.722   4.082  10.675 -0.4853  2.3346  1.1414
   10MPD2     C  147   0.095   3.838  11.122  0.0077 -0.3252  0.5711
   10MPD2    C1  148   4.680   3.856  11.119  0.1224 -0.5018 -0.1428
   10MPD2    C2  149   4.613   3.842  11.236 -0.2224 -0.5905 -0.0806
   10MPD2    C3  150   4.679   3.807  11.354 -0.4001 -0.0067 -0.0335
   10MPD2    C4  151   0.095   3.806  11.359 -0.4601  0.3559  0.3858
   10MPD2    C5  152   0.160   3.814  11.240  0.3256  0.1472  0.0953
   10MPD2     H  153   4.506   3.857  11.245  0.0356 -0.3058  2.4338
   10MPD2    H1  154   0.148   3.791  11.453 -0.1284 -2.6295 -0.2873
   10MPD2    H2  155   0.150   3.840  11.029 -2.2208  1.1008 -0.7260
   10MPD2    H3  156   0.267   3.796  11.240  0.4707  0.9635  3.9268
   10MPD2     N  157   4.610   3.782  11.474 -0.1378 -0.4521 -0.3020
   10MPD2    H5  158   4.661   3.762  11.559 -0.3234 -2.3832 -0.6382
   10MPD2    N1  159   4.608   3.882  11.001  0.5522  0.3095  0.1510
   10MPD2    H7  160   4.508   3.895  11.004  0.0457 -2.6754 -3.1576
   11TCq1    O1  161   0.545   3.975  13.746 -0.0125 -0.2397 -0.0200
   11TCq1    C1  162   0.492   3.917  13.852  1.2917 -0.6474 -0.1236
   11TCq1    O2  163   0.471   3.799  13.860  0.1520 -0.2675 -0.2185
   11TCq1    C2  164   0.448   4.011  13.955  0.7180  0.0849 -0.1838
   11TCq1    C3  165   0.520   4.128  13.975 -0.3802  0.5565 -0.0323
   11TCq1    C4  166   0.455   4.229  14.034  0.2864 -0.3298 -0.6781
   11TCq1    C5  167   0.332   4.211  14.097 -0.1306 -0.1900 -0.2775
   11TCq1    C6  168   0.275   4.088  14.085 -0.2131  0.3420  0.3423
   11TCq1    C7  169   0.328   3.983  14.014  0.5731 -0.5638 -0.1752
   11TCq1    C8  170   0.141   4.064  14.154  0.1912 -0.7096 -0.3278
   11TCq1    O4  171   0.080   4.159  14.200  0.0782 -0.7520  0.8315
   11TCq1    C9  172   0.520   4.357  14.051 -0.5195  0.2140  0.1053
   11TCq1    O5  173   0.452   4.450  14.106 -0.7764 -0.0528 -0.1460
   11TCq1    O6  174   0.629   4.368  13.989 -0.2052  0.1213  0.2895
   11TCq1    H1  175   0.560   4.072  13.753  0.7374 -0.1456 -2.7890
   11TCq1    H2  176   0.620   4.144  13.936  0.1538 -0.0331  1.0874
   11TCq1    H3  177   0.300   4.287  14.167  3.2871  1.1462 -0.1512
   11TCq1    H4  178   0.260   3.904  13.983  2.1340 -1.8267 -0.3925
   12MPD2     C  179   4.606   3.944  14.230 -0.4452 -0.2709 -0.0977
   12MPD2    C1  180   0.002   3.868  14.220 -0.5961  0.0241 -0.7858
   12MPD2    C2  181   4.716   3.734  14.228  0.2172  0.0851  0.1641
   12MPD2    C3  182   4.597   3.676  14.258 -1.4981  0.4307  0.3866
   12MPD2    C4  183   4.479   3.753  14.276  0.2502 -0.1886  0.5280
   12MPD2    C5  184   4.482   3.890  14.254  0.6245  0.1150  0.7647
   12MPD2     H  185   0.073   3.663  14.207 -0.0314 -0.1824  0.1264
   12MPD2    H1  186   4.383   3.718  14.310  0.3262 -0.7923  0.1227
   12MPD2    H2  187   4.605   4.048  14.201  2.7397 -0.3074 -0.3481
   12MPD2    H3  188   4.393   3.952  14.257  0.8188  0.3491  1.5540
   12MPD2     N  189   4.586   3.532  14.248  0.1922  0.8719  0.2151
   12MPD2    H5  190   4.653   3.483  14.189 -0.5921  1.0644 -0.8440
   12MPD2    N1  191   0.121   3.927  14.171 -0.4269 -0.3278 -0.2798
   12MPD2    H7  192   0.186   3.857  14.139 -2.1815 -1.6944 -0.8656
   13TCq1    O1  193   3.003   2.416  11.401  0.4905 -0.4973  0.1403
   13TCq1    C1  194   2.997   2.362  11.279 -0.6111  0.4810 -0.0501
   13TCq1    O2  195   2.902   2.301  11.231  0.2818 -0.3255  0.0936
   13TCq1    C2  196   3.126   2.376  11.209 -0.2174 -0.8690  0.0994
   13TCq1    C3  197   3.142   2.296  11.098  0.7697  0.2570  0.6879
   13TCq1    C4  198   3.253   2.313  11.027  0.1068 -0.0594 -0.1142
   13TCq1    C5  199   3.350   2.399  11.072  0.3936  0.6024 -0.8098
   13TCq1    C6  200   3.323   2.475  11.179 -0.2860 -0.1488  0.4026
   13TCq1    C7  201   3.202   2.478  11.245  0.1320 -0.2651  0.1682
   13TCq1    C8  202   3.400   2.599  11.193  0.5654  0.0644  0.4529
   13TCq1    O4  203   3.398   2.652  11.307 -0.4516  0.2318  0.1090
   13TCq1    C9  204   3.274   2.217  10.920  0.3852  0.2009  0.1293
   13TCq1    O5  205   3.200   2.115  10.915  0.4447  0.0418  0.0048
   13TCq1    O6  206   3.394   2.211  10.894  0.4043  0.0502  0.0502
   13TCq1    H1  207   3.095   2.433  11.429  0.1547  0.1596  0.8153
   13TCq1    H2  208   3.067   2.221  11.075 -0.1433  1.1293  0.8418
   13TCq1    H3  209   3.447   2.394  11.024  0.6680  2.8248 -0.5075
   13TCq1    H4  210   3.164   2.555  11.311  0.7817  0.6017 -0.4633
   14MPD2     C  211   3.616   2.720  10.932  0.3215  0.0108  0.6848
   14MPD2    C1  212   3.545   2.729  11.050 -0.1014  0.4893 -0.9659
   14MPD2    C2  213   3.564   2.836  11.134 -0.1035 -0.2342 -0.7454
   14MPD2    C3  214   3.650   2.940  11.103  0.7696  0.0041  0.5914
   14MPD2    C4  215   3.715   2.932  10.985  0.3770 -0.6443  0.1254
   14MPD2    C5  216   3.701   2.822  10.901 -1.0362 -0.0261 -0.7535
   14MPD2     H  217   3.509   2.846  11.227 -0.0778  1.5122 -0.9244
   14MPD2    H1  218   3.779   3.014  10.956  1.0429 -2.4504 -3.3941
   14MPD2    H2  219   3.600   2.637  10.864  1.5905 -0.1431  0.5736
   14MPD2    H3  220   3.753   2.824  10.806 -2.2306 -0.6273 -1.4208
   14MPD2     N  221   3.656   3.052  11.184  0.0414 -0.1713  0.5259
   14MPD2    H5  222   3.603   3.037  11.270  1.0544 -0.3607  1.1194
   14MPD2    N1  223   3.453   2.628  11.072 -0.4788  0.1616 -0.0086
   14MPD2    H7  224   3.436   2.574  10.988  0.9946  0.3795 -0.4446
   15TCq1    O1  225   1.122   3.199   1.609  0.1987  0.2729  0.4216
   15TCq1    C1  226   1.236   3.264   1.591  0.1655  0.3576 -0.2222
   15TCq1    O2  227   1.256   3.372   1.650  0.0370 -0.1716 -0.2216
   15TCq1    C2  228   1.249   3.252   1.447 -0.3364 -0.0971  0.6423
   15TCq1    C3  229   1.213   3.365   1.378 -0.4698 -0.2344  0.1647
   15TCq1    C4  230   1.188   3.349   1.242  0.7797 -0.2331  0.1752
   15TCq1    C5  231   1.204   3.228   1.184 -0.7785 -0.1150 -0.5307
   15TCq1    C6  232   1.242   3.119   1.255 -0.0176 -0.0661 -0.3290
   15TCq1    C7  233   1.259   3.130   1.392 -0.1171  0.4706  0.1732
   15TCq1    C8  234   1.250   2.981   1.204  0.1270  0.4145 -0.2985
   15TCq1    O4  235   1.317   2.906   1.275  0.5747 -0.1616  0.5172
   15TCq1    C9  236   1.156   3.456   1.159 -0.3038  0.0692 -0.6297
   15TCq1    O5  237   1.135   3.571   1.217 -0.4101  0.4994 -0.4790
   15TCq1    O6  238   1.130   3.436   1.036 -0.1683 -0.4313 -0.0708
   15TCq1    H1  239   1.097   3.133   1.541 -0.1799 -1.2710  2.0768
   15TCq1    H2  240   1.198   3.462   1.424  1.1925  0.0123  0.1605
   15TCq1    H3  241   1.201   3.227   1.076 -1.6647  1.2948 -0.5155
   15TCq1    H4  242   1.285   3.048   1.458  0.0317  0.4701  0.1152
   16MPD2     C  243   1.062   2.815   0.938  0.5879 -0.3030  0.7860
   16MPD2    C1  244   1.158   2.830   1.031  0.5519  0.0760 -0.0541
   16MPD2    C2  245   1.224   2.718   1.080 -1.0527  0.4112  0.0893
   16MPD2    C3  246   1.194   2.584   1.049  0.2533  0.4959  0.1717
   16MPD2    C4  247   1.098   2.569   0.959  0.6505  0.1688  0.0883
   16MPD2    C5  248   1.038   2.685   0.905  0.0385 -0.2465 -0.6313
   16MPD2     H  249   1.307   2.722   1.150 -2.6701  1.1569  1.9475
   16MPD2    H1  250   1.069   2.474   0.916  3.0029 -0.6707  0.3535
   16MPD2    H2  251   1.012   2.901   0.893 -1.1261 -1.7598 -0.0938
   16MPD2    H3  252   0.958   2.681   0.833 -0.5807 -0.6036  0.0748
   16MPD2     N  253   1.266   2.483   1.116  0.0954 -0.5686 -0.2206
   16MPD2    H5  254   1.345   2.517   1.170  0.5825 -2.0156 -0.0423
   16MPD2    N1  255   1.191   2.958   1.083 -0.7210 -0.2690 -0.4711
   16MPD2    H7  256   1.129   3.032   1.052  0.0707 -0.7718 -3.2457
   17TCq1    O1  257   3.471   2.684  12.195 -0.7658 -0.0608 -0.2295
   17TCq1    C1  258   3.565   2.779  12.207  0.8380 -0.7949  0.5633
   17TCq1    O2  259   3.640   2.777  12.301 -0.5082 -0.3397  0.1521
   17TCq1    C2  260   3.618   2.794  12.071  0.9167 -0.3091 -0.8085
   17TCq1    C3  261   3.550   2.759  11.959  0.0083 -0.0638 -0.6401
   17TCq1    C4  262   3.616   2.772  11.836 -0.3502  0.8923 -0.1846
   17TCq1    C5  263   3.747   2.810  11.821 -0.6826  0.7560  0.2410
   17TCq1    C6  264   3.806   2.856  11.940  0.0242 -0.1062  0.2017
   17TCq1    C7  265   3.744   2.850  12.060  0.1713 -0.1092  0.6684
   17TCq1    C8  266   3.953   2.873  11.941  0.0093  0.7771  0.3686
   17TCq1    O4  267   4.006   2.881  12.053 -0.0421  0.5382 -0.5443
   17TCq1    C9  268   3.544   2.738  11.717 -0.1187 -0.2173 -0.7983
   17TCq1    O5  269   3.430   2.692  11.737  0.1506  0.2084  0.2303
   17TCq1    O6  270   3.598   2.749  11.603  0.1040 -0.2181  0.4103
   17TCq1    H1  271   3.402   2.709  12.129 -1.5841 -0.9435  0.2927
   17TCq1    H2  272   3.451   2.714  11.966 -0.2800  0.8722  1.1558
   17TCq1    H3  273   3.796   2.811  11.725 -2.0776  1.5316 -0.4544
   17TCq1    H4  274   3.796   2.880  12.151  0.7483  0.0376  0.2868
   18MPD2     C  275   4.227   2.831  11.865 -0.2962 -0.2337 -0.1961
   18MPD2    C1  276   4.141   2.901  11.785 -0.0015  0.9660 -0.1749
   18MPD2    C2  277   4.180   2.953  11.665 -0.1193  0.9262  0.1614
   18MPD2    C3  278   4.307   2.925  11.619  0.1637 -0.2513 -0.6105
   18MPD2    C4  279   4.394   2.849  11.696 -0.5446  0.1759 -0.4634
   18MPD2    C5  280   4.351   2.803  11.823  0.3695  0.1699  0.1338
   18MPD2     H  281   4.107   3.003  11.602  1.4778  0.4306 -2.1040
   18MPD2    H1  282   4.494   2.818  11.670  0.7090  2.9321  1.1156
   18MPD2    H2  283   4.192   2.778  11.952 -0.0093  1.5516  0.9998
   18MPD2    H3  284   4.410   2.737  11.885 -0.9179 -1.0071  0.0839
   18MPD2     N  285   4.357   2.963  11.494  0.3453 -0.2342 -0.4071
   18MPD2    H5  286   4.450   2.931  11.470  2.0042  4.4784 -0.1289
   18MPD2    N1  287   4.005   2.908  11.822  0.7479  0.1647 -0.4379
   18MPD2    H7  288   3.942   2.966  11.768 -0.2341 -0.9310 -0.4891
   19TMC2    C1  289   1.297   3.820  13.601  0.4863  0.2575 -0.6304
   19TMC2    C2  290   1.241   3.915  13.521  0.1231 -1.2098 -0.0282
   19TMC2    C3  291   1.112   3.895  13.492  0.1679 -0.4519 -0.0142
   19TMC2    C4  292   1.238   3.707  13.640  0.2642 -0.1069  0.4896
   19TMC2    C5  293   1.107   3.704  13.627 -0.1797  0.1123 -0.2326
   19TMC2    C6  294   1.039   3.795  13.551  0.3337 -0.1317  0.0839
   19TMC2     C  295   1.434   3.848  13.641  0.6055 -0.1781  0.2781
   19TMC2     O  296   1.490   3.936  13.577 -0.1232 -1.1284 -0.0505
   19TMC2     H  297   1.287   4.011  13.501 -2.7934  0.5470  1.6974
   19TMC2    H1  298   1.287   3.627  13.694  0.5776  0.2491  0.7404
   19TMC2    H2  299   0.933   3.787  13.532  0.2780 -1.9008  1.1561
   19TMC2    C7  300   1.037   3.591  13.691  0.4775  0.0799  0.4253
   19TMC2    C8  301   1.027   4.001  13.437  0.5560 -0.1070  0.6566
   19TMC2    O1  302   1.101   3.492  13.702 -0.0699  0.8696 -0.0758
   19TMC2    O2  303   0.912   4.024  13.469 -0.3283  0.2583 -0.1382
   19TMC2    O5  304   1.109   4.082  13.359 -0.3000 -0.3575 -0.6949
   19TMC2    H5  305   1.201   4.051  13.348 -0.4369 -1.2484  0.7045
   20MPD2     C  306   1.711   3.843  13.725 -0.0732  0.3132  0.0632
   20MPD2    C1  307   1.603   3.788  13.801 -0.0575  0.2199  0.2010
   20MPD2    C2  308   1.644   3.713  13.914 -0.3544 -0.1814  0.1213
   20MPD2    C3  309   1.775   3.705  13.950  0.8318  0.2261  0.8023
   20MPD2    C4  310   1.872   3.771  13.886  0.5147  0.3098  0.1962
   20MPD2    C5  311   1.839   3.842  13.772 -0.4498 -0.2917  0.1789
   20MPD2     H  312   1.569   3.647  13.956 -1.2420 -0.0797 -1.2904
   20MPD2    H1  313   1.976   3.769  13.918  0.0815  2.0459  1.7000
   20MPD2    H2  314   1.693   3.900  13.634  0.2137 -0.0032 -0.1930
   20MPD2    H3  315   1.916   3.897  13.720 -1.9613  1.3402 -0.3694
   20MPD2     N  316   1.814   3.637  14.066  0.1291  0.7055  0.0881
   20MPD2    H5  317   1.905   3.657  14.106  1.1155 -0.8093 -1.3782
   20MPD2    N1  318   1.473   3.788  13.756  0.4305  0.5827 -0.4806
   20MPD2    H7  319   1.406   3.742  13.817  0.7811  1.1783  0.3501
   21MPD2     C  320   4.078   4.304  14.470 -0.3957 -0.7575  0.6147
   21MPD2    C1  321   4.102   4.201  14.373  0.0641  0.3215  0.2384
   21MPD2    C2  322   4.026   4.206  14.263  0.7811 -0.4843  0.2101
   21MPD2    C3  323   3.924   4.304  14.249  0.5563  0.4789  0.0728
   21MPD2    C4  324   3.911   4.407  14.345  0.3870  0.8941 -0.4892
   21MPD2    C5  325   3.987   4.405  14.455  0.2311  0.3604  0.1673
   21MPD2     H  326   4.048   4.133  14.186  0.4319 -0.8457  0.4535
   21MPD2    H1  327   3.846   4.492  14.330 -1.2889  0.1397  2.5470
   21MPD2    H2  328   4.148   4.302  14.553  0.8939  3.2941 -0.3563
   21MPD2    H3  329   3.982   4.491  14.521 -3.5202  0.8184 -0.7128
   21MPD2     N  330   3.829   4.303  14.142  0.1248 -0.2460  0.2486
   21MPD2    H5  331   3.750   4.366  14.148  2.4486  2.6974  0.0159
   21MPD2    N1  332   4.178   4.088  14.404  0.2522 -0.7321 -0.0639
   21MPD2    H7  333   4.156   4.005  14.351 -0.9418 -0.6328  0.2621
   22TCq2    C1  334   3.821   4.207  14.041 -0.7258 -0.1118  0.1292
   22TCq2    O2  335   3.900   4.122  14.009  0.0732  0.2787 -0.3822
   22TCq2    C2  336   3.709   4.244  13.959  0.7316  0.6365 -0.4779
   22TCq2    C3  337   3.625   4.137  13.950  0.0159 -0.3213 -0.3382
   22TCq2    C4  338   3.493   4.143  13.965  0.3859  0.0644  0.8143
   22TCq2    C5  339   3.437   4.267  13.983  0.2477  0.5613 -0.9337
   22TCq2    C6  340   3.518   4.371  14.000 -0.4893 -0.2273 -0.0462
   22TCq2    C7  341   3.655   4.367  13.977  0.0042  0.0080 -0.2318
   22TCq2    C8  342   3.481   4.471  14.099  0.3130 -0.7454  0.3368
   22TCq2    O4  343   3.578   4.521  14.159  0.2794  0.2087 -0.6427
   22TCq2    C9  344   3.406   4.021  13.960  0.6606  0.3143  0.1010
   22TCq2    O5  345   3.462   3.912  13.961  0.1018  0.1759  0.3895
   22TCq2    O6  346   3.282   4.038  13.960 -0.0798  0.0171 -0.2451
   22TCq2    H2  347   3.674   4.044  13.922  0.2098  0.1179 -1.4575
   22TCq2    H3  348   3.330   4.260  13.997  0.7533 -1.4547  1.9031
   22TCq2    H4  349   3.716   4.456  13.987  3.7069 -2.6866  0.7994
   23MPD2     C  350   0.705   0.692  14.978  0.0675 -0.5567 -0.8286
   23MPD2    C1  351   0.596   0.643  15.044 -0.2330  0.2100  0.0072
   23MPD2    C2  352   0.483   0.600  14.981 -0.2467 -0.1588  0.2186
   23MPD2    C3  353   0.471   0.633  14.846  0.3507 -0.1226  0.6422
   23MPD2    C4  354   0.579   0.680  14.773 -0.1299 -0.1717  0.2912
   23MPD2    C5  355   0.695   0.711  14.839  0.0042 -0.2883 -0.5115
   23MPD2     H  356   0.402   0.571  15.046 -0.6111  1.2593  0.3946
   23MPD2    H1  357   0.575   0.705  14.668 -1.1659 -2.4085 -0.2065
   23MPD2    H2  358   0.804   0.706  15.019 -0.3693  0.0436  0.0361
   23MPD2    H3  359   0.774   0.759  14.782 -1.1111  1.3215 -0.6754
   23MPD2     N  360   0.349   0.610  14.776  0.1178  0.2674 -0.6331
   23MPD2    H5  361   0.353   0.609  14.674 -0.5448  1.1870 -0.6634
   23MPD2    N1  362   0.603   0.614  15.182  0.6907  0.0482  0.1716
   23MPD2    H7  363   0.534   0.549  15.219  0.9747  0.3416  1.2023
   24TCq2    C1  364   0.234   0.563  14.827 -0.4101  0.3014 -1.0215
   24TCq2    O2  365   0.197   0.519  14.935  0.3621 -0.0527  0.3145
   24TCq2    C2  366   0.143   0.563  14.715 -0.0957 -0.0920  0.2262
   24TCq2    C3  367   0.035   0.482  14.733 -0.0246 -0.5887 -0.6504
   24TCq2    C4  368   4.687   0.449  14.619  0.1455 -0.3621  0.1584
   24TCq2    C5  369   0.003   0.491  14.495  0.4626 -0.6164  0.0809
   24TCq2    C6  370   0.105   0.584  14.481 -0.0164 -0.6651  0.5347
   24TCq2    C7  371   0.175   0.615  14.592 -0.0800 -0.7053 -0.1541
   24TCq2    C8  372   0.119   0.664  14.360  0.8795  0.1584  0.7640
   24TCq2    O4  373   0.227   0.717  14.353  0.5591 -0.3946  0.1816
   24TCq2    C9  374   4.570   0.363  14.635  0.5350  0.2601 -0.4811
   24TCq2    O5  375   4.540   0.316  14.752 -0.0660 -1.0872  0.7683
   24TCq2    O6  376   4.518   0.340  14.524  0.4171  0.1104 -0.0378
   24TCq2    H2  377   0.005   0.434  14.825  3.4077 -0.4626  0.5429
   24TCq2    H3  378   4.677   0.448  14.408 -0.8087 -1.0807  1.0206
   24TCq2    H4  379   0.245   0.697  14.580 -0.3889 -0.0351  2.7175
   25TMC2    C1  380   3.781   1.927  11.295  0.1468  0.4733 -0.0900
   25TMC2    C2  381   3.908   1.908  11.242  0.0059  0.4558 -0.4904
   25TMC2    C3  382   3.999   2.010  11.263 -0.6227 -0.3905 -0.1582
   25TMC2    C4  383   3.749   2.038  11.370 -0.0775 -0.1097 -0.2621
   25TMC2    C5  384   3.841   2.131  11.389 -0.4505 -0.3728  0.3572
   25TMC2    C6  385   3.968   2.121  11.335  0.3544 -0.1809 -0.2404
   25TMC2     C  386   3.683   1.815  11.300  0.8232 -0.0588 -0.1289
   25TMC2     O  387   3.600   1.822  11.392 -0.5024 -0.0725 -0.4973
   25TMC2     H  388   3.941   1.825  11.180  0.7347  1.7067 -1.7984
   25TMC2    H1  389   3.649   2.046  11.410  0.7476  0.9261  1.5690
   25TMC2    H2  390   4.048   2.191  11.354  0.3932 -0.2117 -0.2903
   25TMC2    C7  391   3.824   2.229  11.504  0.1986 -0.1241 -0.7286
   25TMC2    C8  392   4.081   2.043  11.148  0.2564 -0.2019  0.2911
   25TMC2    O1  393   3.716   2.217  11.561 -0.5954  0.3735  0.1991
   25TMC2    O2  394   4.176   2.112  11.156 -0.0703  0.7339  0.7053
   25TMC2    O5  395   4.003   2.037  11.038  0.3615  0.5011  0.4742
   25TMC2    H5  396   3.916   2.006  11.071 -0.6200 -0.1715 -2.7631
   26MPD2     C  397   3.492   1.380  11.105 -0.5961 -0.0741  0.1677
   26MPD2    C1  398   3.484   1.428  11.236 -0.3445 -0.1307 -0.2728
   26MPD2    C2  399   3.552   1.545  11.272 -0.0433  0.5287 -0.1755
   26MPD2    C3  400   3.617   1.621  11.169  0.3238  0.5665 -0.3010
   26MPD2    C4  401   3.621   1.565  11.036 -0.0545 -0.0696 -0.6073
   26MPD2    C5  402   3.563   1.445  11.005  0.3124  0.0118  0.6503
   26MPD2     H  403   3.556   1.581  11.374 -0.6966 -2.7418  1.0346
   26MPD2    H1  404   3.676   1.618  10.960  0.7444 -2.3911 -1.6526
   26MPD2    H2  405   3.441   1.287  11.082 -1.6249  0.7957 -1.0951
   26MPD2    H3  406   3.573   1.402  10.906  0.4257  0.3143  0.5283
   26MPD2     N  407   3.695   1.735  11.194 -0.4181  0.0851  0.0728
   26MPD2    H5  408   3.765   1.767  11.129  0.8716 -4.1457 -0.6196
   26MPD2    N1  409   3.413   1.347  11.327 -0.2895  0.5999  0.0231
   26MPD2    H7  410   3.361   1.265  11.297 -0.7230  1.4901 -1.6548
   27TMC2    C1  411   2.799   4.199  11.990  0.3784 -0.4478 -0.3509
   27TMC2    C2  412   2.691   4.251  11.920  0.0915  0.3939 -0.8974
   27TMC2    C3  413   2.697   4.384  11.899 -0.1804 -0.3166 -0.0906
   27TMC2    C4  414   2.908   4.278  12.017  0.7283  0.0339 -1.0728
   27TMC2    C5  415   2.903   4.413  11.994  0.2349 -0.4102 -0.1082
   27TMC2    C6  416   2.803   4.468  11.922 -0.2624 -0.9270  0.1861
   27TMC2     C  417   2.763   4.115  12.104  0.1676  0.0813 -0.2230
   27TMC2     O  418   2.838   4.026  12.141 -0.2014 -0.2599 -0.0099
   27TMC2     H  419   2.606   4.196  11.882 -1.3304 -0.3301  3.2940
   27TMC2    H1  420   2.997   4.225  12.049 -0.3289 -1.4085 -0.5276
   27TMC2    H2  421   2.803   4.574  11.899  2.8519 -1.1382 -0.8162
   27TMC2    C7  422   2.906   4.466  12.125  0.0961 -0.8857  0.6915
   27TMC2    C8  423   2.589   4.433  11.816 -0.7888 -0.4159  0.2103
   27TMC2    O1  424   2.919   4.386  12.217  0.2613 -0.1751  0.1235
   27TMC2    O2  425   2.569   4.552  11.820  0.1831 -0.0935 -0.1010
   27TMC2    O5  426   2.600   4.364  11.701 -0.0453  0.0257 -0.8700
   27TMC2    H5  427   2.640   4.274  11.706 -1.0480 -0.4851 -1.8959
   28MPD2     C  428   2.470   3.979  12.497 -0.3691  0.1201  0.0589
   28MPD2    C1  429   2.438   4.107  12.471 -0.1174  0.0914 -0.6375
   28MPD2    C2  430   2.510   4.172  12.371  0.5825  0.0200 -0.4712
   28MPD2    C3  431   2.606   4.104  12.298 -0.5986 -0.0992  0.2979
   28MPD2    C4  432   2.640   3.977  12.336 -0.1123 -0.4807  0.3398
   28MPD2    C5  433   2.569   3.913  12.430  0.8247  0.2196  0.0531
   28MPD2     H  434   2.471   4.264  12.329 -1.7701 -1.2399 -1.0408
   28MPD2    H1  435   2.709   3.922  12.272  0.7897 -1.4093  2.1071
   28MPD2    H2  436   2.414   3.922  12.570 -0.3452 -1.2088 -0.9683
   28MPD2    H3  437   2.589   3.811  12.461  1.1944  1.1927  3.0663
   28MPD2     N  438   2.660   4.166  12.177 -0.4760 -1.0756 -0.0280
   28MPD2    H5  439   2.615   4.250  12.144 -1.0706  0.7050  5.3318
   28MPD2    N1  440   2.320   4.163  12.539 -0.3465  0.4383  0.5625
   28MPD2    H7  441   2.259   4.099  12.589  0.0448  0.5574  1.1927
   29MPD2     C  442   2.514   1.942  13.841 -0.4209  0.2657 -0.0915
   29MPD2    C1  443   2.602   1.903  13.942  0.0017  0.1018  0.0832
   29MPD2    C2  444   2.643   1.996  14.035 -0.5610 -0.9530  0.1779
   29MPD2    C3  445   2.597   2.128  14.025  0.0536  0.2623  0.4866
   29MPD2    C4  446   2.518   2.167  13.922 -0.1503  0.5942 -0.0074
   29MPD2    C5  447   2.471   2.069  13.841  0.0354  0.3343  0.5610
   29MPD2     H  448   2.698   1.962  14.122  0.7532 -1.9838 -1.0661
   29MPD2    H1  449   2.481   2.268  13.908 -1.0147 -0.0953 -2.6373
   29MPD2    H2  450   2.461   1.882  13.767 -1.3474 -2.7137  2.9941
   29MPD2    H3  451   2.409   2.103  13.759  2.6504 -1.2279 -2.1032
   29MPD2     N  452   2.649   2.223  14.112 -0.3610  0.9946  0.1675
   29MPD2    H5  453   2.619   2.319  14.097 -2.4271  0.2241 -0.6682
   29MPD2    N1  454   2.639   1.768  13.964  1.0950 -0.1674  0.3806
   29MPD2    H7  455   2.699   1.753  14.044  2.0208  0.7754 -0.1350
   30TCq2    C1  456   2.738   2.206  14.215 -0.0703 -0.4324 -0.9612
   30TCq2    O2  457   2.806   2.107  14.240 -0.2759  0.2440 -0.4402
   30TCq2    C2  458   2.757   2.321  14.306 -1.3921 -0.3133  0.4454
   30TCq2    C3  459   2.881   2.325  14.363  0.7843  0.0779 -0.0291
   30TCq2    C4  460   2.900   2.402  14.473 -0.4545  0.0201  0.5388
   30TCq2    C5  461   2.803   2.490  14.515  0.3928 -0.0574 -0.8203
   30TCq2    C6  462   2.686   2.492  14.449 -0.1148 -0.4519  0.5571
   30TCq2    C7  463   2.653   2.401  14.347 -0.3954 -0.1582 -0.0518
   30TCq2    C8  464   2.595   2.598  14.467 -0.5652 -0.2076  0.3120
   30TCq2    O4  465   2.478   2.572  14.441  0.1758  0.4077  0.4181
   30TCq2    C9  466   3.032   2.404  14.526  0.6505  0.0281 -0.1730
   30TCq2    O5  467   3.131   2.349  14.467  0.3330 -0.1066  0.3229
   30TCq2    O6  468   3.041   2.466  14.632 -0.0846  0.2211 -0.3428
   30TCq2    H2  469   2.958   2.258  14.326  0.4297  1.0446 -2.5187
   30TCq2    H3  470   2.823   2.535  14.612 -0.9094 -2.3900  0.5498
   30TCq2    H4  471   2.558   2.392  14.297 -1.3882 -1.3401  2.0520
   31MPD2     C  472   0.616   1.444  15.032 -0.4209 -0.2582  0.0437
   31MPD2    C1  473   0.500   1.512  15.004  0.1274  0.1201 -0.2939
   31MPD2    C2  474   0.381   1.488  15.072  0.1456  0.1626  0.8161
   31MPD2    C3  475   0.374   1.380  15.164  0.6294  0.9050 -0.7509
   31MPD2    C4  476   0.484   1.301  15.182 -0.2176 -0.3825  0.2679
   31MPD2    C5  477   0.603   1.336  15.118 -0.2211 -0.1551  0.3833
   31MPD2     H  478   0.298   1.556  15.054 -0.1009  0.1028  1.7078
   31MPD2    H1  479   0.483   1.211  15.243  3.1608 -0.2674  0.5145
   31MPD2    H2  480   0.704   1.458  14.971  0.3607 -0.0603  1.2089
   31MPD2    H3  481   0.695   1.279  15.129  1.1804  2.0220  0.0566
   31MPD2     N  482   0.253   1.339  15.232  0.3173  0.0039 -0.7666
   31MPD2    H5  483   0.264   1.258  15.293 -1.2214  0.6650  0.3935
   31MPD2    N1  484   0.511   1.602  14.895 -0.4335  0.0962 -0.3871
   31MPD2    H7  485   0.596   1.597  14.841 -0.1397  0.0738  0.0732
   32TCq2    C1  486   0.122   1.376  15.206 -0.2446 -0.8321  0.7728
   32TCq2    O2  487   0.089   1.465  15.132  0.1084  0.4609 -0.4363
   32TCq2    C2  488   0.027   1.301  15.274  0.1567  0.2284 -0.7822
   32TCq2    C3  489   4.625   1.319  15.226  0.1329  0.0553  0.4937
   32TCq2    C4  490   4.522   1.270  15.308  0.2363  0.1916  0.6695
   32TCq2    C5  491   4.543   1.235  15.439  0.0335  0.5021  0.1876
   32TCq2    C6  492   4.671   1.218  15.480  0.3449 -0.6379  0.3601
   32TCq2    C7  493   0.055   1.245  15.395  0.4396  0.5876 -0.3783
   32TCq2    C8  494   4.699   1.171  15.612 -0.0840 -0.0591 -0.0486
   32TCq2    O4  495   0.082   1.117  15.640  0.2194  0.2103  0.9234
   32TCq2    C9  496   4.396   1.256  15.257 -0.2987  0.2072 -0.1242
   32TCq2    O5  497   4.378   1.306  15.144  0.3683 -0.4569  0.0711
   32TCq2    O6  498   4.315   1.185  15.321  0.5899 -0.2547  0.3240
   32TCq2    H2  499   4.611   1.355  15.124  0.1969  4.4231  2.0125
   32TCq2    H3  500   4.448   1.217  15.486  0.1478 -0.0054  0.2185
   32TCq2    H4  501   0.160   1.237  15.423  0.4624  2.6399  0.1596
   33MPD2     C  502   4.110   2.996  10.684  0.0338  0.4206  0.1793
   33MPD2    C1  503   4.229   3.062  10.696  0.4593  0.2372 -0.6151
   33MPD2    C2  504   4.292   3.107  10.580 -0.0825 -0.1386  0.5020
   33MPD2    C3  505   4.249   3.073  10.457 -0.0418 -0.2454  0.4060
   33MPD2    C4  506   4.134   2.991  10.450  0.5148 -0.1146 -0.3804
   33MPD2    C5  507   4.063   2.957  10.556  0.4902 -0.6219  0.0312
   33MPD2     H  508   4.385   3.158  10.602  1.8856 -2.9044 -1.3016
   33MPD2    H1  509   4.105   2.946  10.356  1.5145  0.4733 -0.9713
   33MPD2    H2  510   4.058   2.967  10.775  0.4022 -0.0742  0.2324
   33MPD2    H3  511   3.979   2.889  10.545 -0.9770  1.2985 -0.6427
   33MPD2     N  512   4.315   3.100  10.333  0.2001 -0.3798 -0.3038
   33MPD2    H5  513   4.267   3.058  10.253  1.4080 -1.4847 -0.4591
   33MPD2    N1  514   4.277   3.103  10.824 -0.2889  0.3305  0.2897
   33MPD2    H7  515   4.355   3.167  10.817  1.1274 -1.4056  0.1904
   34TCq2    C1  516   4.423   3.186  10.314  0.2804 -0.0238  0.0038
   34TCq2    O2  517   4.476   3.260  10.398 -0.2185 -0.2570  0.0211
   34TCq2    C2  518   4.482   3.183  10.181 -0.6527 -0.3800 -0.5256
   34TCq2    C3  519   4.445   3.084  10.095 -0.4024 -0.4679  0.3415
   34TCq2    C4  520   4.495   3.092   9.968  0.3010 -0.8387 -0.3266
   34TCq2    C5  521   4.598   3.173   9.930  0.3544  0.1232  0.7420
   34TCq2    C6  522   4.641   3.267  10.024  0.3888 -0.3428  0.1466
   34TCq2    C7  523   4.578   3.272  10.149 -0.2702 -0.4471 -0.1277
   34TCq2    C8  524   4.714   3.386   9.974  0.1432 -0.2959 -0.2653
   34TCq2    O4  525   4.712   3.492  10.037  0.2856 -0.4406  0.2952
   34TCq2    C9  526   4.454   2.988   9.877 -0.9362  0.1575  0.4887
   34TCq2    O5  527   4.391   2.892   9.934  0.1620  0.7534  0.3808
   34TCq2    O6  528   4.519   2.981   9.770  0.0036 -0.1165 -0.4812
   34TCq2    H2  529   4.365   3.016  10.123  0.3041 -1.6400 -0.5163
   34TCq2    H3  530   4.620   3.176   9.824  0.6610 -0.4553  0.7875
   34TCq2    H4  531   4.619   3.348  10.215 -2.2126  2.3266 -2.0762
   35MPD2     C  532   1.838   0.176  11.732 -0.2140  0.0546 -1.0158
   35MPD2    C1  533   1.804   0.062  11.802  0.1470 -0.1672 -0.2402
   35MPD2    C2  534   1.679   4.717  11.783  0.1273  0.2960 -0.0584
   35MPD2    C3  535   1.585   0.055  11.707  0.7851 -0.4788  0.1634
   35MPD2    C4  536   1.621   0.165  11.629  1.2100 -0.9313 -0.3004
   35MPD2    C5  537   1.746   0.219  11.643  0.4770 -0.4502 -0.5256
   35MPD2     H  538   1.651   4.643  11.857 -1.7574  1.1352  0.0727
   35MPD2    H1  539   1.550   0.216  11.565  2.6081 -0.0514 -1.1633
   35MPD2    H2  540   1.929   0.232  11.744  0.8854 -2.3651  1.9026
   35MPD2    H3  541   1.773   0.309  11.588 -0.7854 -1.0974 -2.2091
   35MPD2     N  542   1.455   0.005  11.726 -0.2261  0.2942 -0.6065
   35MPD2    H5  543   1.434   4.645  11.782  1.0231  1.4284  1.5161
   35MPD2    N1  544   1.897   0.024  11.904  0.2004  0.0768 -0.5426
   35MPD2    H7  545   1.952   0.096  11.951 -1.3597 -0.5942  2.3028
   36TCq2    C1  546   1.348   0.054  11.655  0.7752  0.1453  0.0942
   36TCq2    O2  547   1.343   0.125  11.556 -0.5749  0.0288 -1.0997
   36TCq2    C2  548   1.221   0.026  11.722  0.2231  0.0297 -0.5852
   36TCq2    C3  549   1.119   0.117  11.713  0.4422  0.5936  1.2428
   36TCq2    C4  550   0.996   0.081  11.743 -0.0546  0.3282 -0.2274
   36TCq2    C5  551   0.964   4.678  11.803 -0.1628  0.3910 -0.8989
   36TCq2    C6  552   1.071   4.598  11.828  0.3680  0.5057  0.0931
   36TCq2    C7  553   1.202   4.631  11.786 -0.5194  0.2982  0.2631
   36TCq2    C8  554   1.048   4.457  11.828 -0.3196 -0.4789 -0.2474
   36TCq2    O4  555   0.942   4.423  11.774  0.1999 -0.0165 -0.2272
   36TCq2    C9  556   0.883   0.176  11.720  1.0167 -1.1605 -0.5613
   36TCq2    O5  557   0.915   0.291  11.674  0.1761  0.3956  0.7507
   36TCq2    O6  558   0.763   0.140  11.738  0.0260  0.1041 -0.0910
   36TCq2    H2  559   1.137   0.214  11.667  1.1092 -0.7323 -1.3113
   36TCq2    H3  560   0.864   4.657  11.839  1.3406 -2.8339  1.4667
   36TCq2    H4  561   1.284   4.562  11.802 -1.0274  0.1499  2.2462
   37TMC2    C1  562   3.632   3.978  11.911  0.3610  0.1302  0.2928
   37TMC2    C2  563   3.619   3.862  11.846  0.3825 -0.4478  0.4669
   37TMC2    C3  564   3.710   3.819  11.754  0.5048 -0.3607  0.7932
   37TMC2    C4  565   3.745   4.056  11.886  0.1272 -0.0493  0.0051
   37TMC2    C5  566   3.838   4.011  11.799  0.2819  0.3138  0.3466
   37TMC2    C6  567   3.828   3.880  11.735  0.4612  0.1584 -0.5702
   37TMC2     C  568   3.525   4.046  11.970  0.2226  0.1425 -0.5323
   37TMC2     O  569   3.420   3.994  11.952  0.3444  0.1726 -0.3334
   37TMC2     H  570   3.522   3.815  11.853  0.5565 -0.5695  2.0926
   37TMC2    H1  571   3.746   4.159  11.918 -0.3488  0.6208 -2.1715
   37TMC2    H2  572   3.907   3.832  11.679 -0.1604  1.1442 -2.3240
   37TMC2    C7  573   3.926   4.110  11.749  0.1655  0.0113  0.8757
   37TMC2    C8  574   3.681   3.704  11.673  0.2477  0.0421  0.4309
   37TMC2    O1  575   3.929   4.217  11.806 -0.3912 -0.3266  0.4029
   37TMC2    O2  576   3.569   3.646  11.669 -0.2570  0.1179  0.5379
   37TMC2    O5  577   3.792   3.654  11.610  0.1277 -0.6370 -0.0776
   37TMC2    H5  578   3.877   3.702  11.618 -0.6328  0.7541 -0.3053
   38MPD2     C  579   3.298   4.378  12.287  0.4815  0.4206 -0.0646
   38MPD2    C1  580   3.432   4.357  12.321  0.0196 -0.2967  0.0294
   38MPD2    C2  581   3.516   4.282  12.237  0.6778  0.3661  0.0531
   38MPD2    C3  582   3.476   4.216  12.130  0.2375  0.4880  0.5424
   38MPD2    C4  583   3.343   4.239  12.090  0.4640 -0.3046 -0.0800
   38MPD2    C5  584   3.255   4.316  12.168 -0.1776  0.0618 -0.1689
   38MPD2     H  585   3.613   4.260  12.282  1.2462  0.3495 -1.1813
   38MPD2    H1  586   3.295   4.187  12.008  0.2778 -2.0819  1.1634
   38MPD2    H2  587   3.231   4.435  12.349  0.7661  0.5643  0.1094
   38MPD2    H3  588   3.149   4.329  12.151 -0.2348 -0.3102 -0.0855
   38MPD2     N  589   3.564   4.138  12.058  0.1497 -0.5743  0.1120
   38MPD2    H5  590   3.663   4.160  12.066  0.3279 -0.9743 -1.0786
   38MPD2    N1  591   3.480   4.398  12.452 -0.3425  0.0827 -0.2343
   38MPD2    H7  592   3.570   4.361  12.481  0.2181 -1.7678 -4.2096
   39MPD2     C  593   1.687   1.605   1.459 -0.7999 -0.4198  0.3568
   39MPD2    C1  594   1.675   1.732   1.516 -0.5619  0.0649  0.1797
   39MPD2    C2  595   1.550   1.794   1.521  0.3775 -0.2321 -0.7812
   39MPD2    C3  596   1.442   1.729   1.467  0.9192  0.0079  0.6002
   39MPD2    C4  597   1.449   1.599   1.416  0.2715 -0.2151  0.0008
   39MPD2    C5  598   1.576   1.538   1.412 -0.4172  1.0841  0.2990
   39MPD2     H  599   1.547   1.898   1.552  0.0513 -0.7041  0.7778
   39MPD2    H1  600   1.370   1.556   1.355  1.9507  0.2482 -2.4722
   39MPD2    H2  601   1.781   1.555   1.442  0.4371  2.1083 -0.2473
   39MPD2    H3  602   1.582   1.441   1.365 -0.2734  0.7786  0.9484
   39MPD2     N  603   1.318   1.795   1.465  0.4892 -0.2888 -0.2808
   39MPD2    H5  604   1.242   1.733   1.441 -0.1343  0.0015  0.9822
   39MPD2    N1  605   1.793   1.791   1.567 -0.5604 -0.0625 -0.4442
   39MPD2    H7  606   1.880   1.749   1.535 -0.8162 -1.4751  0.6887
   40TCq2    C1  607   1.797   1.920   1.621 -0.1993 -0.1303  0.2546
   40TCq2    O2  608   1.721   1.973   1.700 -0.8696 -0.1119 -0.5295
   40TCq2    C2  609   1.928   1.978   1.606 -0.2274  0.1489  0.0036
   40TCq2    C3  610   2.013   1.930   1.511  0.0088 -0.3446  0.4336
   40TCq2    C4  611   2.143   1.959   1.526 -0.1919 -0.1182  0.9609
   40TCq2    C5  612   2.193   2.049   1.621 -0.4354 -0.5703 -0.2938
   40TCq2    C6  613   2.099   2.110   1.702  0.3020  0.0009 -0.6492
   40TCq2    C7  614   1.969   2.065   1.703 -0.5642  0.1970  0.2369
   40TCq2    C8  615   2.128   2.225   1.793  0.5049 -0.3805  0.0009
   40TCq2    O4  616   2.059   2.235   1.897  0.7609 -0.4748 -0.2133
   40TCq2    C9  617   2.239   1.906   1.431 -0.3532 -0.3710 -0.2966
   40TCq2    O5  618   2.350   1.956   1.421  0.0616 -0.5045 -0.5004
   40TCq2    O6  619   2.216   1.795   1.371 -0.1376  0.3104 -0.7803
   40TCq2    H2  620   1.987   1.868   1.426 -0.9655 -0.5740  0.8882
   40TCq2    H3  621   2.298   2.076   1.621 -0.9300  1.3099 -0.0003
   40TCq2    H4  622   1.898   2.127   1.757 -0.8792  0.0507 -0.0093
   41TMC2    C1  623   1.115   1.361  12.898  0.3910  0.6649 -0.6319
   41TMC2    C2  624   1.081   1.404  12.770 -0.3373 -0.4762 -0.2239
   41TMC2    C3  625   1.087   1.318  12.672  0.8242 -0.6947  0.1679
   41TMC2    C4  626   1.141   1.232  12.923 -0.3559 -0.2722  0.0119
   41TMC2    C5  627   1.133   1.144  12.824 -0.0041  0.2569  0.6271
   41TMC2    C6  628   1.097   1.183  12.693  0.6277  0.0200  0.2490
   41TMC2     C  629   1.099   1.456  13.001  0.3051  0.3464 -0.4402
   41TMC2     O  630   1.033   1.552  12.977  0.3718 -0.0349  0.1367
   41TMC2     H  631   1.060   1.506  12.739  2.0379  0.2780  0.6120
   41TMC2    H1  632   1.185   1.204  13.018 -0.1706 -1.0846 -0.3195
   41TMC2    H2  633   1.075   1.119  12.608  2.2748  1.4200 -1.2492
   41TMC2    C7  634   1.151   1.004  12.853 -0.8026  0.5784  0.0456
   41TMC2    C8  635   1.031   1.378  12.551 -0.2863  0.4226 -0.1822
   41TMC2    O1  636   1.190   0.977  12.963 -0.1994 -0.3853 -0.0565
   41TMC2    O2  637   0.933   1.447  12.553  0.4080 -0.4489  0.0278
   41TMC2    O5  638   1.081   1.311  12.451  0.0274 -0.0738 -0.2018
   41TMC2    H5  639   1.178   1.297  12.457 -0.0989 -1.4731 -1.3522
   42MPD2     C  640   1.055   1.595  13.266 -0.1131 -0.0598 -0.5583
   42MPD2    C1  641   1.152   1.501  13.233 -0.3462  0.4937 -0.1743
   42MPD2    C2  642   1.254   1.480  13.325 -0.1273  0.0821  0.0507
   42MPD2    C3  643   1.260   1.544  13.447 -0.7243 -0.0681 -0.0014
   42MPD2    C4  644   1.160   1.629  13.479  0.0515 -0.0253 -0.7827
   42MPD2    C5  645   1.052   1.643  13.396  0.3040 -0.2963  0.2318
   42MPD2     H  646   1.325   1.402  13.298 -1.6137 -1.0743 -0.5228
   42MPD2    H1  647   1.148   1.669  13.579  0.0320 -0.7101 -0.5101
   42MPD2    H2  648   0.968   1.613  13.204  0.0751  0.6260 -0.6305
   42MPD2    H3  649   0.967   1.703  13.425  0.5508  0.4492 -0.5586
   42MPD2     N  650   1.357   1.525  13.541 -0.6054 -0.3038  0.3063
   42MPD2    H5  651   1.342   1.558  13.636  0.7516  0.0824  0.3969
   42MPD2    N1  652   1.166   1.430  13.115 -0.2877 -0.4804  0.0355
   42MPD2    H7  653   1.234   1.355  13.119  2.5104  2.0869  0.1283
   43MPD2     C  654   3.050   3.080   0.912 -0.0734 -0.6327 -0.3999
   43MPD2    C1  655   2.920   3.049   0.886 -0.3524  0.0841 -1.0661
   43MPD2    C2  656   2.825   3.065   0.983  0.0824  0.8103 -0.0523
   43MPD2    C3  657   2.856   3.134   1.103  0.0445  0.2227 -0.0782
   43MPD2    C4  658   2.993   3.155   1.124  0.3742 -0.2073 -0.0120
   43MPD2    C5  659   3.090   3.122   1.032 -0.1854 -0.3569  0.4044
   43MPD2     H  660   2.724   3.037   0.956  0.2443 -0.0700  0.2702
   43MPD2    H1  661   3.035   3.198   1.215 -0.7167  0.3832  0.2182
   43MPD2    H2  662   3.134   3.055   0.849  0.7916  1.0125  0.1034
   43MPD2    H3  663   3.193   3.149   1.049 -0.3140  0.1700  0.3368
   43MPD2     N  664   2.759   3.178   1.198  0.3035  0.3050  0.1809
   43MPD2    H5  665   2.788   3.239   1.274 -0.7606  0.1137  0.7453
   43MPD2    N1  666   2.878   2.997   0.757  0.2537 -0.3161 -0.6317
   43MPD2    H7  667   2.780   2.975   0.743  0.4577 -1.3239 -0.4801
   44TCq2    C1  668   2.308   3.134   1.566  0.7513 -0.3198 -0.2716
   44TCq2    O2  669   2.334   3.010   1.555  0.0613  0.0914 -0.4180
   44TCq2    C2  670   2.376   3.220   1.468 -0.3109 -0.2072 -0.0192
   44TCq2    C3  671   2.420   3.345   1.513 -0.3331 -0.6017 -0.8293
   44TCq2    C4  672   2.524   3.408   1.442 -0.1828 -0.8595 -0.5431
   44TCq2    C5  673   2.596   3.335   1.355 -0.0829  0.3415 -0.8877
   44TCq2    C6  674   2.555   3.209   1.312  0.1290 -0.8880  0.8573
   44TCq2    C7  675   2.440   3.149   1.366 -0.0444 -0.1331 -0.2441
   44TCq2    C8  676   2.628   3.138   1.200  0.2571 -0.7129 -0.8828
   44TCq2    O4  677   2.583   3.031   1.158 -0.9348  0.2679  0.2516
   44TCq2    C9  678   2.568   3.537   1.488  0.0128 -0.1825  0.7111
   44TCq2    O5  679   2.485   3.607   1.549  0.8256  0.0919 -0.3073
   44TCq2    O6  680   2.690   3.559   1.474 -0.7814 -0.7338  0.2720
   44TCq2    H2  681   2.375   3.392   1.600  4.0199  0.3592  0.9131
   44TCq2    H3  682   2.685   3.388   1.325  1.3369 -2.2827 -1.2711
   44TCq2    H4  683   2.423   3.045   1.344  2.3868 -0.7608  0.9028
   45TMC2    C1  684   3.278   0.520   9.692 -0.3101  0.3879  0.5656
   45TMC2    C2  685   3.282   0.640   9.626  0.6053 -1.1042 -0.1824
   45TMC2    C3  686   3.350   0.750   9.678  0.3054  0.4598 -0.4191
   45TMC2    C4  687   3.336   0.508   9.818 -0.0180 -0.4547 -0.0589
   45TMC2    C5  688   3.389   0.621   9.866  0.6035  0.3983 -0.6611
   45TMC2    C6  689   3.399   0.741   9.805  0.0966 -0.2594  0.3187
   45TMC2     C  690   3.217   0.408   9.629  0.9603  0.1029  0.0911
   45TMC2     O  691   3.178   0.429   9.514  0.5449 -0.1768 -0.8379
   45TMC2     H  692   3.243   0.646   9.526  0.9183  0.9771 -0.1877
   45TMC2    H1  693   3.320   0.422   9.881 -2.1175  1.3313  1.8508
   45TMC2    H2  694   3.452   0.829   9.841  1.7953 -1.3909  0.5417
   45TMC2    C7  695   3.422   0.605  10.014  0.1805 -0.3816 -0.1098
   45TMC2    C8  696   3.355   0.873   9.604  0.2368  0.1961  0.3409
   45TMC2    O1  697   3.410   0.497  10.074  0.1529  0.1278 -0.6873
   45TMC2    O2  698   3.373   0.982   9.660  0.1878  0.3117  0.8941
   45TMC2    O5  699   3.347   0.853   9.470 -0.3331 -0.2429 -0.0082
   45TMC2    H5  700   3.359   0.759   9.444  1.1751 -0.0385 -0.0756
   46MPD2     C  701   3.182   0.057   9.741  0.0897 -0.5793  0.1016
   46MPD2    C1  702   3.164   0.170   9.660 -0.0793 -0.1060 -0.1085
   46MPD2    C2  703   3.068   0.163   9.562 -0.2747  0.6547 -0.1523
   46MPD2    C3  704   2.991   0.052   9.542 -0.1840  0.5868 -0.0849
   46MPD2    C4  705   3.010   4.661   9.618  0.1640 -0.4058  0.2994
   46MPD2    C5  706   3.110   4.668   9.706  0.2303 -0.0538 -0.2134
   46MPD2     H  707   3.048   0.245   9.493  0.0781  1.2169  0.4230
   46MPD2    H1  708   2.960   4.565   9.613 -0.5950  0.0689 -1.5089
   46MPD2    H2  709   3.261   0.040   9.813  0.3492  0.0248 -0.0351
   46MPD2    H3  710   3.123   4.576   9.762 -0.2319  0.2094  0.3268
   46MPD2     N  711   2.880   0.062   9.453 -0.2302  0.3294  0.1160
   46MPD2    H5  712   2.861   0.156   9.418 -0.9893 -0.2946 -1.1320
   46MPD2    N1  713   3.230   0.290   9.697  0.5562  1.0587  0.0727
   46MPD2    H7  714   3.280   0.293   9.785 -0.8540  0.2605  0.8955
   47TMC2    C1  715   4.453   0.475   9.137 -0.0684 -0.2138  1.0004
   47TMC2    C2  716   4.520   0.506   9.023 -0.5337  0.5316 -0.5464
   47TMC2    C3  717   4.464   0.448   8.910 -0.1767 -0.0782  0.1194
   47TMC2    C4  718   4.338   0.402   9.140  0.1264 -0.3438  1.0032
   47TMC2    C5  719   4.295   0.336   9.026  0.1824 -0.6219 -0.5131
   47TMC2    C6  720   4.352   0.362   8.907  0.0711  0.9345 -0.3989
   47TMC2     C  721   4.497   0.541   9.259 -0.3204 -0.3655 -0.5409
   47TMC2     O  722   4.411   0.613   9.309  0.3682  0.1313  0.0511
   47TMC2     H  723   4.601   0.577   9.012  0.5047 -0.7545 -1.2520
   47TMC2    H1  724   4.272   0.392   9.226  1.2968 -1.6114  1.7541
   47TMC2    H2  725   4.309   0.326   8.814 -0.0351 -1.2370  0.4716
   47TMC2    C7  726   4.176   0.254   9.043  0.1897 -0.5574  0.6099
   47TMC2    C8  727   4.529   0.470   8.780 -0.0479 -0.3627  0.0346
   47TMC2    O1  728   4.102   0.289   9.133 -0.3656  0.0529  0.0521
   47TMC2    O2  729   4.469   0.447   8.675 -0.0412  0.0125 -0.0062
   47TMC2    O5  730   4.662   0.475   8.803  0.1562 -0.4333  0.3507
   47TMC2    H5  731   4.678   0.452   8.897  1.7240 -0.6222  0.0274
   48MPD2     C  732   4.628   0.693   9.477 -0.2717 -0.2497 -0.3417
   48MPD2    C1  733   4.692   0.600   9.393  0.7450  0.9076 -0.0797
   48MPD2    C2  734   0.095   0.565   9.424 -0.6349  0.3216 -0.2562
   48MPD2    C3  735   0.157   0.612   9.538  0.7083 -0.2754 -0.1128
   48MPD2    C4  736   0.099   0.704   9.617 -0.4914 -0.4127  0.1289
   48MPD2    C5  737   4.696   0.743   9.581 -0.2027  0.2902 -0.4063
   48MPD2     H  738   0.148   0.500   9.356 -2.3454 -1.4061  0.0693
   48MPD2    H1  739   0.146   0.746   9.705 -0.7325 -0.0963  0.1083
   48MPD2    H2  740   4.528   0.732   9.462 -0.6469 -1.5805 -1.2970
   48MPD2    H3  741   4.639   0.808   9.645  0.2952  0.5917 -0.2637
   48MPD2     N  742   0.280   0.549   9.567 -0.1116 -0.5476  0.2767
   48MPD2    H5  743   0.305   0.474   9.503  2.0427  1.6480 -1.4516
   48MPD2    N1  744   4.625   0.531   9.291  0.3200  0.6663 -0.0127
   48MPD2    H7  745   4.684   0.465   9.241  1.3409  1.3015  0.3535
   49MPD2     C  746   3.070   2.462   9.476  0.4537  0.3939  0.1194
   49MPD2    C1  747   3.137   2.384   9.574  0.5858 -0.0459 -0.5371
   49MPD2    C2  748   3.225   2.440   9.670  0.3063  0.6558 -0.0621
   49MPD2    C3  749   3.239   2.577   9.673 -0.1119  0.7633  0.1345
   49MPD2    C4  750   3.182   2.654   9.571 -0.3572 -0.5111  0.0717
   49MPD2    C5  751   3.098   2.596   9.479  0.1654 -0.0119 -0.4415
   49MPD2     H  752   3.266   2.374   9.746 -1.1800 -0.7301 -0.4591
   49MPD2    H1  753   3.198   2.760   9.560  3.8476 -1.4926 -3.6269
   49MPD2    H2  754   3.004   2.421   9.400 -4.0880  2.3072  3.0445
   49MPD2    H3  755   3.039   2.650   9.407  1.3417  0.1111 -1.3132
   49MPD2     N  756   3.314   2.639   9.775 -0.4200  0.2178  0.5038
   49MPD2    H5  757   3.339   2.737   9.759  1.2403 -0.1920  0.5453
   49MPD2    N1  758   3.114   2.242   9.590 -0.1130  0.0163  0.2382
   49MPD2    H7  759   3.167   2.202   9.667  0.2350 -0.7431 -0.4040
   50TCq2    C1  760   3.036   2.162   9.514 -0.1499 -0.2832  0.2113
   50TCq2    O2  761   2.966   2.191   9.417 -0.3474  0.7821 -0.3800
   50TCq2    C2  762   3.028   2.022   9.562 -0.2216 -0.2061 -0.4127
   50TCq2    C3  763   2.984   1.922   9.476  0.0233  0.0996 -0.0789
   50TCq2    C4  764   3.008   1.794   9.503 -1.0504  0.0644 -0.4033
   50TCq2    C5  765   3.058   1.750   9.624  0.1089 -0.9455  0.3974
   50TCq2    C6  766   3.087   1.848   9.713  0.6338  0.5477 -0.0549
   50TCq2    C7  767   3.071   1.983   9.689 -0.1615  0.7634 -0.6970
   50TCq2    C8  768   3.111   1.805   9.854  0.3160 -0.2517 -0.4273
   50TCq2    O4  769   3.074   1.690   9.885  0.1456 -0.0843 -0.8403
   50TCq2    C9  770   2.999   1.697   9.402 -0.3212 -0.3471  0.2643
   50TCq2    O5  771   2.921   1.717   9.305 -0.2986 -0.2426 -0.9273
   50TCq2    O6  772   3.033   1.578   9.428  0.1566 -0.7736  0.8858
   50TCq2    H2  773   2.946   1.945   9.377  1.8710  0.6678 -0.6608
   50TCq2    H3  774   3.082   1.648   9.652 -0.3606 -1.3978 -0.8773
   50TCq2    H4  775   3.098   2.062   9.759 -0.8589  0.7471 -0.4117
   51MPD2     C  776   4.298   1.977   0.799 -0.2359 -0.6659  0.4879
   51MPD2    C1  777   4.247   1.852   0.808 -0.1047 -0.1473 -0.0331
   51MPD2    C2  778   4.329   1.743   0.849 -0.1108 -0.0762 -0.3407
   51MPD2    C3  779   4.461   1.775   0.889 -0.0793  0.5702 -0.2036
   51MPD2    C4  780   4.499   1.907   0.899  0.4742  0.4240  0.3292
   51MPD2    C5  781   4.421   2.003   0.847  0.0659 -0.2369 -0.0010
   51MPD2     H  782   4.290   1.642   0.855 -1.8044  0.6161  0.1438
   51MPD2    H1  783   4.599   1.942   0.923  0.3184  0.4342  0.9807
   51MPD2    H2  784   4.230   2.060   0.784  0.7029 -0.1746 -1.0582
   51MPD2    H3  785   4.455   2.104   0.864 -1.1596  0.2889 -0.6481
   51MPD2     N  786   4.550   1.677   0.945  0.0429  0.5083  0.6610
   51MPD2    H5  787   4.636   1.712   0.987  2.0562  0.3329 -3.2378
   51MPD2    N1  788   4.117   1.835   0.767 -0.4541 -0.3488  0.2504
   51MPD2    H7  789   4.069   1.910   0.718 -0.5130  0.0322  0.8934
   52TCq2    C1  790   4.534   1.539   0.943 -0.0290  0.1326 -0.1279
   52TCq2    O2  791   4.449   1.472   0.883  0.1937  0.3577  0.5971
   52TCq2    C2  792   4.628   1.464   1.032 -0.5030 -0.1786 -0.4035
   52TCq2    C3  793   4.613   1.332   1.047  0.2774 -0.2903 -0.1352
   52TCq2    C4  794   4.698   1.268   1.135  0.2375  0.3862 -0.6572
   52TCq2    C5  795   0.062   1.335   1.218  0.0791  0.3024 -0.2653
   52TCq2    C6  796   0.073   1.469   1.204 -0.0152 -0.7515 -0.0545
   52TCq2    C7  797   4.716   1.536   1.110  0.0988  0.8068 -0.1176
   52TCq2    C8  798   0.133   1.551   1.308  0.8502  0.2390  0.0886
   52TCq2    O4  799   0.139   1.672   1.293 -0.4773  0.3937  0.1878
   52TCq2    C9  800   4.675   1.124   1.164 -0.4811  0.0779 -0.1104
   52TCq2    O5  801   4.587   1.071   1.092 -0.6988  0.1702 -0.3924
   52TCq2    O6  802   4.714   1.083   1.278 -0.1148  0.1803  0.2474
   52TCq2    H2  803   4.529   1.282   1.001  0.3021 -0.4802  0.0286
   52TCq2    H3  804   0.131   1.280   1.282  0.0860  0.0332 -0.5017
   52TCq2    H4  805   4.717   1.644   1.095 -1.4274  0.5409 -2.1001
   53TMC2    C1  806   4.261   4.651  11.346 -0.2965 -0.8718  0.6841
   53TMC2    C2  807   4.282   4.718  11.229 -0.0723 -0.1012 -0.3031
   53TMC2    C3  808   4.248   0.126  11.220  0.3880  0.7407 -0.0285
   53TMC2    C4  809   4.210   0.001  11.454  0.2851 -0.2785  0.0422
   53TMC2    C5  810   4.180   0.136  11.442  0.0283 -0.1572 -0.3068
   53TMC2    C6  811   4.194   0.199  11.323  0.5172  0.4491 -0.6323
   53TMC2     C  812   4.283   4.513  11.366 -0.4034 -0.3905 -0.1542
   53TMC2     O  813   4.341   4.466  11.270 -0.1867 -0.3806  0.0800
   53TMC2     H  814   4.319   4.666  11.142  0.6337  0.3986 -0.2997
   53TMC2    H1  815   4.211   4.684  11.555  0.6352 -1.2604 -0.3524
   53TMC2    H2  816   4.169   0.304  11.307  0.3921  0.2877 -1.5276
   53TMC2    C7  817   4.113   0.194  11.561 -0.5788 -0.2165 -0.6206
   53TMC2    C8  818   4.257   0.199  11.091 -0.4263 -0.5165  0.0262
   53TMC2    O1  819   4.098   0.113  11.654  0.0205 -0.0642 -0.2781
   53TMC2    O2  820   4.278   0.321  11.073  0.2574 -0.1588  0.6321
   53TMC2    O5  821   4.236   0.119  10.982  0.1833  0.7860 -0.3390
   53TMC2    H5  822   4.203   0.030  11.005  2.0386  0.1059 -0.3523
   54MPD2     C  823   4.317   4.229  11.434  0.2268 -0.2858  0.3700
   54MPD2    C1  824   4.217   4.309  11.489  0.3110 -0.3725 -0.0021
   54MPD2    C2  825   4.119   4.252  11.573 -0.0867 -0.2085 -0.1489
   54MPD2    C3  826   4.116   4.115  11.592  0.1245 -0.2052 -0.3015
   54MPD2    C4  827   4.209   4.038  11.523  0.6435 -0.2722  0.3406
   54MPD2    C5  828   4.296   4.092  11.437  0.3271 -0.4117  0.5917
   54MPD2     H  829   4.034   4.311  11.607 -0.4150  1.0620 -3.2117
   54MPD2    H1  830   4.198   3.930  11.520  1.7435 -0.4441  2.7703
   54MPD2    H2  831   4.391   4.276  11.370 -2.0011  0.7498 -1.4636
   54MPD2    H3  832   4.359   4.034  11.370  2.1822  0.3534  1.6758
   54MPD2     N  833   4.022   4.055  11.672 -0.1092 -0.0288 -0.2278
   54MPD2    H5  834   4.017   3.955  11.654  0.4263 -0.2712  1.0156
   54MPD2    N1  835   4.210   4.447  11.465 -0.8605 -0.5030  0.1481
   54MPD2    H7  836   4.148   4.507  11.519 -1.9485  0.1392 -1.8108
   55MPD2     C  837   0.505   2.681   0.516  1.2014 -0.9703 -0.1617
   55MPD2    C1  838   0.400   2.761   0.508 -0.7645  0.2417 -0.7890
   55MPD2    C2  839   0.413   2.869   0.422 -0.9351  0.6743  0.0735
   55MPD2    C3  840   0.528   2.889   0.355 -0.5195  0.3899  0.1668
   55MPD2    C4  841   0.641   2.805   0.377 -0.2877 -0.0141 -0.5600
   55MPD2    C5  842   0.624   2.701   0.465 -0.1659  0.3475 -0.4531
   55MPD2     H  843   0.327   2.934   0.409 -0.6846  1.2966  1.5537
   55MPD2    H1  844   0.739   2.799   0.331 -0.1297 -0.9330 -0.1060
   55MPD2    H2  845   0.494   2.593   0.579 -2.3589 -0.8546 -0.5941
   55MPD2    H3  846   0.711   2.644   0.494  0.0809  1.4507  1.0067
   55MPD2     N  847   0.541   2.980   0.256  0.0472 -0.3605  0.2907
   55MPD2    H5  848   0.633   2.996   0.215 -0.0467 -2.3214 -0.6806
   55MPD2    N1  849   0.286   2.733   0.586 -0.3693 -0.4737 -0.6419
   55MPD2    H7  850   0.285   2.653   0.649 -2.9159  0.7097  0.8296
   56TCq2    C1  851   0.190   2.828   0.606 -1.0105 -0.0648  0.2823
   56TCq2    O2  852   0.166   2.939   0.560  0.1071  0.0228 -0.0759
   56TCq2    C2  853   0.114   2.814   0.729  0.0412 -0.1898  0.0214
   56TCq2    C3  854   0.055   2.690   0.760  0.1691 -0.5905  0.2818
   56TCq2    C4  855   4.723   2.686   0.885  0.1370 -0.5298 -0.4485
   56TCq2    C5  856   0.008   2.787   0.978  0.3401  0.6744  0.1300
   56TCq2    C6  857   0.074   2.902   0.945  0.3497  0.2553 -0.5155
   56TCq2    C7  858   0.116   2.923   0.813 -0.2742 -0.0494  0.2424
   56TCq2    C8  859   0.131   2.991   1.050  0.8174  0.5708 -0.2971
   56TCq2    O4  860   0.141   2.943   1.163 -0.1004 -0.1533  0.2530
   56TCq2    C9  861   4.660   2.568   0.928 -0.3187 -0.3134 -1.0706
   56TCq2    O5  862   4.568   2.575   1.008 -0.1455 -0.1384 -0.3032
   56TCq2    O6  863   4.709   2.460   0.892  0.0600 -0.4081 -0.1751
   56TCq2    H2  864   0.053   2.609   0.688  0.8904  0.2205 -0.6494
   56TCq2    H3  865   4.697   2.759   1.078  0.6710  0.8487  0.2899
   56TCq2    H4  866   0.175   3.009   0.784 -0.5124 -1.1910 -3.6907
   57TMC2    C1  867   4.371   3.618  13.565  0.0508 -0.4399 -0.4096
   57TMC2    C2  868   4.393   3.481  13.590  1.4475 -0.5801  0.6070
   57TMC2    C3  869   4.519   3.446  13.594 -0.4639 -0.5642 -0.2467
   57TMC2    C4  870   4.470   3.706  13.531 -0.3146 -0.0299  0.1841
   57TMC2    C5  871   4.598   3.653  13.527  0.4257  0.2274 -0.1718
   57TMC2    C6  872   4.629   3.526  13.557  0.3625  0.2506 -0.7186
   57TMC2     C  873   4.240   3.674  13.566 -0.3407  0.8378  1.0996
   57TMC2     O  874   4.237   3.794  13.574 -0.2941 -0.1179  0.1877
   57TMC2     H  875   4.313   3.413  13.616  0.5323  0.7746  1.3541
   57TMC2    H1  876   4.451   3.810  13.506 -1.7720 -0.1604  0.7178
   57TMC2    H2  877   0.007   3.488  13.564 -0.7198 -2.3751  0.7409
   57TMC2    C7  878   4.697   3.731  13.441  0.5075  0.0599 -0.2809
   57TMC2    C8  879   4.538   3.303  13.606 -0.2564  0.4133 -0.7409
   57TMC2    O1  880   4.656   3.835  13.396  0.1091 -0.4518 -0.7972
   57TMC2    O2  881   4.506   3.244  13.707 -0.2547  0.2372 -0.0037
   57TMC2    O5  882   4.625   3.265  13.516  0.3982 -0.3118  0.4891
   57TMC2    H5  883   4.614   3.320  13.436  3.3279 -1.4948 -0.7275
   58MPD2     C  884   3.729   3.639  13.559 -0.4014 -0.8970 -0.2813
   58MPD2    C1  885   3.811   3.745  13.559 -0.0480  0.3466  0.3972
   58MPD2    C2  886   3.947   3.728  13.550 -0.3147  0.2894 -0.0888
   58MPD2    C3  887   4.005   3.601  13.542  0.4540 -0.1116 -0.5501
   58MPD2    C4  888   3.912   3.495  13.532  0.2647 -0.4451 -0.0271
   58MPD2    C5  889   3.778   3.514  13.543 -0.0740 -0.2432 -0.1428
   58MPD2     H  890   4.017   3.811  13.545 -0.1461  0.1985  0.8374
   58MPD2    H1  891   3.954   3.396  13.518 -0.7604 -0.5118 -2.6191
   58MPD2    H2  892   3.622   3.651  13.546 -0.5412 -1.5860  0.2368
   58MPD2    H3  893   3.718   3.426  13.525  0.3890 -0.8451  1.2595
   58MPD2     N  894   4.141   3.576  13.555 -0.2138  0.3665 -0.4027
   58MPD2    H5  895   4.172   3.481  13.535  0.2840  0.2761  0.8111
   58MPD2    N1  896   3.768   3.880  13.572  0.5636 -0.1076  0.2724
   58MPD2    H7  897   3.844   3.944  13.594 -1.1812  2.1411 -0.2032
   59MPD2     C  898   1.858   3.842  13.241 -0.1830  0.5828 -0.4546
   59MPD2    C1  899   1.970   3.827  13.151  1.0946 -0.0585  0.1518
   59MPD2    C2  900   2.094   3.864  13.196  1.0326 -0.0709  0.0684
   59MPD2    C3  901   2.110   3.910  13.330  0.1711 -0.3453 -0.3196
   59MPD2    C4  902   2.002   3.922  13.413 -0.6646 -0.1543  0.0296
   59MPD2    C5  903   1.888   3.871  13.373 -0.4395 -0.1358  0.9695
   59MPD2     H  904   2.178   3.850  13.128  1.4457 -0.0870  0.5783
   59MPD2    H1  905   2.019   3.962  13.512 -1.2050  1.7765 -0.6678
   59MPD2    H2  906   1.754   3.821  13.219 -0.6957  3.1269 -0.5245
   59MPD2    H3  907   1.817   3.879  13.455 -0.5089  2.2429  0.6746
   59MPD2     N  908   2.233   3.964  13.379 -0.0799  0.1825 -0.5713
   59MPD2    H5  909   2.239   4.033  13.453 -1.4252 -1.3521  0.9870
   59MPD2    N1  910   1.955   3.781  13.010 -1.1145 -0.0156 -0.5802
   59MPD2    H7  911   2.039   3.780  12.952 -1.1031  1.1860 -0.5750
   60TCq2    C1  912   1.842   3.729  12.960  0.2080  0.2824  1.2470
   60TCq2    O2  913   1.739   3.697  13.021 -0.1407  0.2870  0.2130
   60TCq2    C2  914   1.856   3.688  12.823 -0.1203  0.1682 -0.4223
   60TCq2    C3  915   1.811   3.560  12.802  0.5027  0.4295 -0.0413
   60TCq2    C4  916   1.869   3.483  12.702  0.0993 -0.4056 -0.3148
   60TCq2    C5  917   1.966   3.535  12.615 -0.2426  0.1151 -0.1416
   60TCq2    C6  918   2.006   3.659  12.636 -0.1035  0.1931 -0.9021
   60TCq2    C7  919   1.965   3.732  12.744  0.6890  0.6708 -0.3760
   60TCq2    C8  920   2.102   3.708  12.538  0.3871 -0.2938 -0.8069
   60TCq2    O4  921   2.190   3.640  12.490  0.0370  0.1931 -0.2061
   60TCq2    C9  922   1.834   3.345  12.696 -0.2565  0.4038  0.7254
   60TCq2    O5  923   1.782   3.303  12.800 -0.6051 -0.0521 -0.5955
   60TCq2    O6  924   1.891   3.274  12.614 -0.1073  0.0020  0.1449
   60TCq2    H2  925   1.740   3.510  12.868  1.7762  1.0594  1.8132
   60TCq2    H3  926   2.013   3.478  12.536  0.8772  0.1737  0.4700
   60TCq2    H4  927   2.002   3.834  12.749  1.3896  0.3136  1.9545
   61MPD2     C  928   1.901   0.768  15.497  0.2576 -0.1159 -0.0245
   61MPD2    C1  929   1.803   0.849  15.447  0.8055  0.0616  1.2353
   61MPD2    C2  930   1.797   0.867  15.314  0.0975 -0.2032 -0.2025
   61MPD2    C3  931   1.880   0.800  15.224 -0.4541 -0.0946 -0.1456
   61MPD2    C4  932   1.977   0.716  15.276  0.3699 -0.4651  0.3823
   61MPD2    C5  933   1.984   0.700  15.412  0.3103  0.7887 -0.2383
   61MPD2     H  934   1.717   0.928  15.272 -0.2342  0.0752  0.8370
   61MPD2    H1  935   2.047   0.665  15.211 -1.0949 -0.5105 -1.1512
   61MPD2    H2  936   1.921   0.745  15.601  1.3243  0.9145 -0.0006
   61MPD2    H3  937   2.063   0.643  15.459  0.2628  0.8130 -0.1288
   61MPD2     N  938   1.874   0.822  15.086  0.5646  0.0134 -0.7697
   61MPD2    H5  939   1.937   0.761  15.035  0.3012 -0.6038 -0.3549
   61MPD2    N1  940   1.698   0.902  15.518  0.1902 -0.4730  0.2550
   61MPD2    H7  941   1.632   0.957  15.464  0.5088  0.5650  0.9275
   62TCq2    C1  942   1.692   0.906  15.650  0.4025  0.4071  0.5288
   62TCq2    O2  943   1.733   0.823  15.734  0.0390 -0.1090  0.4370
   62TCq2    C2  944   1.601   1.007  15.703  0.7438  0.1149  0.0553
   62TCq2    C3  945   1.575   0.982  15.837  0.2607 -0.0249 -0.2306
   62TCq2    C4  946   1.549   1.093  15.919  0.2793  0.3917 -0.1027
   62TCq2    C5  947   1.554   1.223  15.867  0.7951  0.0725  0.2065
   62TCq2    C6  948   1.594   1.241  15.734 -0.6110 -0.1506  0.1421
   62TCq2    C7  949   1.618   1.134  15.658  0.2645 -0.0215 -0.0204
   62TCq2    C8  950   1.618   1.380  15.682  0.1532  0.1472 -0.7998
   62TCq2    O4  951   1.652   1.396  15.565  0.1235 -0.1270 -0.2014
   62TCq2    C9  952   1.504   1.065  16.055 -0.2157 -0.4580  0.4537
   62TCq2    O5  953   1.448   1.159  16.113 -0.4087  0.0540  0.1599
   62TCq2    O6  954   1.499   0.945  16.091 -0.2451  0.0580  0.2908
   62TCq2    H2  955   1.566   0.878  15.865  2.6759 -0.3790 -0.7884
   62TCq2    H3  956   1.546   1.306  15.936  0.4881 -0.8417  1.2789
   62TCq2    H4  957   1.649   1.151  15.555  0.3750  0.9734  0.1770
   63TMC2    C1  958   0.985   0.640  10.760  0.1034 -0.0865  0.4201
   63TMC2    C2  959   1.117   0.640  10.794  0.0791  0.2108 -0.4714
   63TMC2    C3  960   1.201   0.714  10.706 -0.1139  0.3779  0.5527
   63TMC2    C4  961   0.938   0.694  10.639  0.1722 -0.1097 -0.3287
   63TMC2    C5  962   1.024   0.763  10.557 -0.0159  0.0752  0.8114
   63TMC2    C6  963   1.159   0.781  10.595 -0.0030  0.5753 -0.7443
   63TMC2     C  964   0.902   0.577  10.855 -0.1298 -0.0601  0.1355
   63TMC2     O  965   0.958   0.546  10.959 -0.5562 -0.3661 -0.2034
   63TMC2     H  966   1.149   0.596  10.887  0.5588 -1.9562 -1.6480
   63TMC2    H1  967   0.834   0.717  10.621  0.7888  3.2148  0.4819
   63TMC2    H2  968   1.241   0.824  10.539  1.1158 -1.0756 -0.3786
   63TMC2    C7  969   0.975   0.825  10.443  0.0283  0.1798 -0.1329
   63TMC2    C8  970   1.341   0.736  10.729  0.1734  0.2433 -0.9839
   63TMC2    O1  971   0.864   0.785  10.407 -0.3444  0.4201  0.1564
   63TMC2    O2  972   1.406   0.836  10.696 -0.3148  0.0672  0.4120
   63TMC2    O5  973   1.365   0.671  10.845 -0.2785  0.2837  0.0588
   63TMC2    H5  974   1.317   0.586  10.858  1.3418 -0.9652 -1.9953
   64MPD2     C  975   0.519   0.247  10.963  0.3253  0.6377 -0.3716
   64MPD2    C1  976   0.516   0.268  10.830  0.1374  0.7963  0.5245
   64MPD2    C2  977   0.597   0.370  10.777 -0.1614  0.7806  0.4142
   64MPD2    C3  978   0.689   0.437  10.858 -0.6050 -0.4628 -0.1722
   64MPD2    C4  979   0.696   0.407  10.990  0.2224  0.0305 -0.3151
   64MPD2    C5  980   0.608   0.316  11.043 -0.9028 -0.0375  0.5352
   64MPD2     H  981   0.586   0.399  10.673  0.0458 -2.7504 -0.5935
   64MPD2    H1  982   0.776   0.454  11.046  0.3818  0.2854 -0.7522
   64MPD2    H2  983   0.447   0.180  11.009  1.2276 -0.0580  0.0261
   64MPD2    H3  984   0.608   0.298  11.150  2.0355  0.2421  0.5713
   64MPD2     N  985   0.776   0.534  10.806  0.4360  0.4275  0.4601
   64MPD2    H5  986   0.759   0.561  10.710  0.3898 -1.8753 -0.1921
   64MPD2    N1  987   0.440   0.192  10.742  0.0738 -0.4173  0.1673
   64MPD2    H7  988   0.452   0.205  10.642 -0.7232  0.4597  0.1934
   65MPD2     C  989   2.172   0.359  15.847 -1.0016 -0.7650 -0.4447
   65MPD2    C1  990   2.206   0.362  15.716 -0.3312 -0.0712 -0.2809
   65MPD2    C2  991   2.196   0.250  15.636  0.6682 -0.8412  0.1547
   65MPD2    C3  992   2.149   0.130  15.684 -0.1976 -0.4669 -0.5055
   65MPD2    C4  993   2.107   0.134  15.816  0.5906 -0.5715  0.2222
   65MPD2    C5  994   2.124   0.240  15.894  0.6479  0.2331 -0.1011
   65MPD2     H  995   2.221   0.260  15.531  0.4809 -1.7018  0.0271
   65MPD2    H1  996   2.059   0.048  15.862 -0.8849  0.4628  0.5996
   65MPD2    H2  997   2.173   0.448  15.909  0.3445 -0.6298 -0.6441
   65MPD2    H3  998   2.089   0.226  15.995 -0.6641 -1.1683 -0.7423
   65MPD2     N  999   2.117   0.021  15.601 -0.5620 -0.0618  0.3364
   65MPD2    H5 1000   2.059   4.675  15.648 -1.7464  1.5627  1.2418
   65MPD2    N1 1001   2.264   0.474  15.651 -0.3757  1.1324  0.0438
   65MPD2    H7 1002   2.310   0.445  15.565  0.5115  2.5841  0.0282
   66TCq2    C1 1003   2.245   0.603  15.688 -0.3926 -0.1067  0.2326
   66TCq2    O2 1004   2.172   0.650  15.778 -0.3438 -0.0979 -0.3217
   66TCq2    C2 1005   2.296   0.686  15.577  0.2113  0.0068  0.2608
   66TCq2    C3 1006   2.364   0.636  15.472  0.0712  0.1034  0.1730
   66TCq2    C4 1007   2.369   0.712  15.359 -0.0359 -0.0439  0.3037
   66TCq2    C5 1008   2.332   0.842  15.366 -0.6242  0.1759  0.1111
   66TCq2    C6 1009   2.273   0.892  15.478  0.0583  0.0790  0.3303
   66TCq2    C7 1010   2.246   0.807  15.586 -0.0373 -0.2125  0.0836
   66TCq2    C8 1011   2.252   1.035  15.491  0.7234 -0.4175  0.1732
   66TCq2    O4 1012   2.288   1.090  15.388 -1.3125 -0.0865 -0.0177
   66TCq2    C9 1013   2.431   0.669  15.241  0.0999 -0.4939  0.3087
   66TCq2    O5 1014   2.458   0.547  15.234 -0.1137  0.0563 -0.3880
   66TCq2    O6 1015   2.417   0.747  15.141 -0.1847  0.1825 -1.0716
   66TCq2    H2 1016   2.414   0.540  15.477  0.2533  0.1684 -0.5148
   66TCq2    H3 1017   2.336   0.900  15.274  1.3870 -1.6078 -0.9101
   66TCq2    H4 1018   2.212   0.851  15.679  2.3390  0.5422  0.6142
   67MPD2     C 1019   1.844   4.089  14.202 -0.8608 -0.5985  0.3192
   67MPD2    C1 1020   1.835   4.225  14.220  0.3995 -0.1809  0.4376
   67MPD2    C2 1021   1.736   4.301  14.165 -0.2657  0.2909 -0.4912
   67MPD2    C3 1022   1.643   4.241  14.074  0.2932 -0.6680  0.4483
   67MPD2    C4 1023   1.660   4.100  14.054  0.2536 -0.1538  0.0407
   67MPD2    C5 1024   1.756   4.029  14.114  0.6473  0.1407  0.1324
   67MPD2     H 1025   1.734   4.403  14.201  0.5978  0.6053 -1.3346
   67MPD2    H1 1026   1.584   4.047  13.999 -0.7629 -0.5369  1.8032
   67MPD2    H2 1027   1.916   4.023  14.248  1.3077  1.1493 -0.5327
   67MPD2    H3 1028   1.757   3.921  14.104 -0.1244  0.0389  1.1533
   67MPD2     N 1029   1.533   4.314  14.018  0.0961 -0.4417 -0.1442
   67MPD2    H5 1030   1.464   4.255  13.971 -3.6396  5.4999 -2.0752
   67MPD2    N1 1031   1.921   4.291  14.306 -0.0033 -0.0961 -0.0166
   67MPD2    H7 1032   1.901   4.385  14.341 -0.8166 -0.6199  0.9299
   68TCq2    C1 1033   2.052   4.254  14.332 -0.0490  0.2252 -0.1704
   68TCq2    O2 1034   2.111   4.158  14.289  0.1817 -0.3751 -0.6385
   68TCq2    C2 1035   2.119   4.346  14.424  0.6330 -0.0258 -0.0451
   68TCq2    C3 1036   2.061   4.459  14.479 -0.8666 -0.3030  0.6983
   68TCq2    C4 1037   2.131   4.540  14.564  0.1842 -0.5148 -0.2792
   68TCq2    C5 1038   2.260   4.509  14.589  0.4064  0.7444 -0.1248
   68TCq2    C6 1039   2.317   4.400  14.524  0.0813 -0.0858 -0.5072
   68TCq2    C7 1040   2.247   4.310  14.453  0.2977  0.0039 -0.5337
   68TCq2    C8 1041   2.426   4.330  14.591 -0.2902  0.0501  0.3413
   68TCq2    O4 1042   2.470   4.239  14.531 -0.0763 -0.1624  0.1165
   68TCq2    C9 1043   2.065   4.654  14.619 -0.2651 -0.1596 -0.5240
   68TCq2    O5 1044   1.945   4.658  14.596  0.1132  0.5492  0.2661
   68TCq2    O6 1045   2.135   0.009  14.684 -0.1263  0.2007 -0.4714
   68TCq2    H2 1046   1.955   4.478  14.478 -1.1891 -2.0521  1.5699
   68TCq2    H3 1047   2.313   4.576  14.655  1.2724 -0.0646 -0.0097
   68TCq2    H4 1048   2.300   4.238  14.392 -0.2073 -1.5379  0.8587
   69TMC2    C1 1049   4.184   4.483  12.253 -0.4050 -1.0904 -0.3012
   69TMC2    C2 1050   4.072   4.406  12.235 -0.3761  0.7741  0.9678
   69TMC2    C3 1051   4.070   4.325  12.127 -0.3499  0.1418 -0.7421
   69TMC2    C4 1052   4.271   4.498  12.147 -0.9634  0.0616 -0.3728
   69TMC2    C5 1053   4.260   4.423  12.035  0.7288 -0.0216 -0.1095
   69TMC2    C6 1054   4.165   4.327  12.030  0.9149 -0.2454 -0.7393
   69TMC2     C 1055   4.202   4.561  12.377 -0.1972  0.1430 -0.2417
   69TMC2     O 1056   4.318   4.585  12.410  0.3753  0.0627  0.2634
   69TMC2     H 1057   4.000   4.400  12.316 -0.5482  3.1307  0.9847
   69TMC2    H1 1058   4.351   4.570  12.163 -0.6450 -0.8917  2.3643
   69TMC2    H2 1059   4.161   4.254  11.949 -0.6986  1.1094 -1.8662
   69TMC2    C7 1060   4.329   4.458  11.913 -0.5124  0.3629 -0.4255
   69TMC2    C8 1061   3.957   4.233  12.110  0.6237  0.1109  0.0196
   69TMC2    O1 1062   4.367   4.373  11.840 -0.8630  0.2063  0.2572
   69TMC2    O2 1063   3.930   4.150  12.198 -0.3662 -0.0317  0.1952
   69TMC2    O5 1064   3.862   4.316  12.074  0.2273  0.2671 -0.1670
   69TMC2    H5 1065   3.891   4.377  12.003  1.5201  0.8954  0.9061
   70MPD2     C 1066   3.945   4.709  12.591 -0.0463  0.1741  0.0157
   70MPD2    C1 1067   4.070   4.662  12.556  0.2823  0.2704 -0.1199
   70MPD2    C2 1068   4.179   4.686  12.645  0.9383 -0.0353 -0.2576
   70MPD2    C3 1069   4.154   0.034  12.764  0.5916 -0.7401 -0.1144
   70MPD2    C4 1070   4.035   0.089  12.780  0.4976  0.0433  0.6432
   70MPD2    C5 1071   3.929   0.069  12.695 -0.1662 -0.3569 -0.0564
   70MPD2     H 1072   4.275   4.643  12.620  0.6014 -2.1539  2.0198
   70MPD2    H1 1073   4.011   0.153  12.865 -2.0778 -0.3816  0.2296
   70MPD2    H2 1074   3.860   4.686  12.529  1.5748 -0.5782 -1.9223
   70MPD2    H3 1075   3.836   0.122  12.713  0.0623 -0.6016  1.8211
   70MPD2     N 1076   4.257   0.052  12.860  0.6624  0.1002  0.0720
   70MPD2    H5 1077   4.218   0.093  12.944 -0.9158 -0.5024 -0.3672
   70MPD2    N1 1078   4.082   4.598  12.434 -0.1031  0.0994  0.0612
   70MPD2    H7 1079   4.000   4.583  12.376 -0.6319  2.9511  0.0914
   71TMC2    C1 1080   1.483   0.727   1.670 -0.0603  0.9991 -0.3571
   71TMC2    C2 1081   1.525   0.603   1.701  0.5685 -0.2057 -0.5157
   71TMC2    C3 1082   1.481   0.550   1.822 -0.0307 -0.8856  0.0191
   71TMC2    C4 1083   1.398   0.802   1.742  0.2253 -0.3759  0.0443
   71TMC2    C5 1084   1.353   0.740   1.856 -0.1936 -0.0268  0.1122
   71TMC2    C6 1085   1.407   0.621   1.908 -0.1609  0.0742 -0.0185
   71TMC2     C 1086   1.522   0.793   1.546 -0.1076 -0.5659 -0.4698
   71TMC2     O 1087   1.450   0.883   1.504 -0.2131  0.6185  0.0828
   71TMC2     H 1088   1.591   0.544   1.638  0.7517  1.1638 -1.5913
   71TMC2    H1 1089   1.371   0.902   1.709  1.0879  0.1723  0.9705
   71TMC2    H2 1090   1.372   0.593   2.007 -2.6533 -0.0969 -0.9550
   71TMC2    C7 1091   1.230   0.785   1.913  0.3294 -0.0150 -0.3532
   71TMC2    C8 1092   1.499   0.407   1.854 -0.2290  0.4736 -0.7510
   71TMC2    O1 1093   1.194   0.732   2.016  0.3057 -0.3487 -0.0154
   71TMC2    O2 1094   1.412   0.339   1.912  0.0610 -0.0045 -0.0135
   71TMC2    O5 1095   1.599   0.348   1.789  0.2345 -0.1333 -0.2930
   71TMC2    H5 1096   1.668   0.409   1.754 -0.8285  1.2655  0.0375
   72MPD2     C 1097   1.808   0.846   1.123  0.8871 -0.4815 -0.3169
   72MPD2    C1 1098   1.680   0.884   1.145  0.0899 -0.6403  0.2431
   72MPD2    C2 1099   1.615   0.848   1.267  0.1723 -0.0887 -0.4482
   72MPD2    C3 1100   1.687   0.777   1.360 -0.2027  0.3009  0.0950
   72MPD2    C4 1101   1.818   0.727   1.334  0.6895 -0.1032  0.4876
   72MPD2    C5 1102   1.873   0.768   1.215  0.0288 -0.5788 -0.1389
   72MPD2     H 1103   1.510   0.870   1.282 -0.2934 -2.4333 -0.2193
   72MPD2    H1 1104   1.872   0.670   1.408 -0.7184  0.8846  2.2792
   72MPD2    H2 1105   1.855   0.862   1.027  0.0992 -2.4594 -1.0324
   72MPD2    H3 1106   1.975   0.742   1.190 -0.5551 -0.1683 -2.9229
   72MPD2     N 1107   1.635   0.739   1.489 -0.9631 -0.0710  0.0904
   72MPD2    H5 1108   1.685   0.676   1.550 -3.4302 -0.4606  1.7314
   72MPD2    N1 1109   1.602   0.958   1.048 -0.4864  0.1847 -0.2001
   72MPD2    H7 1110   1.512   0.992   1.081 -1.0284 -1.0633 -0.4102
   73TMC2    C1 1111   1.368   2.925  13.698 -0.5807  0.0653  0.0452
   73TMC2    C2 1112   1.332   2.971  13.825  0.1397 -0.1335  0.2997
   73TMC2    C3 1113   1.320   2.875  13.920  0.3825 -0.1841 -0.2782
   73TMC2    C4 1114   1.396   2.796  13.674  0.2545  0.5049  0.1952
   73TMC2    C5 1115   1.394   2.701  13.772  0.6916  0.0149 -0.4008
   73TMC2    C6 1116   1.343   2.743  13.896  0.2053 -0.4354  0.1768
   73TMC2     C 1117   1.464   3.013  13.632  0.1036 -0.9263  0.1092
   73TMC2     O 1118   1.562   2.958  13.584 -0.1659  0.3155  0.1441
   73TMC2     H 1119   1.323   3.077  13.845 -0.4498  0.5030 -3.3762
   73TMC2    H1 1120   1.432   2.775  13.573  1.6165 -0.1505  0.8120
   73TMC2    H2 1121   1.346   2.674  13.980  5.6042 -0.8370 -0.3585
   73TMC2    C7 1122   1.518   2.626  13.783  0.5034  0.6470  0.4073
   73TMC2    C8 1123   1.328   2.928  14.057 -0.9672 -0.0594 -0.1637
   73TMC2    O1 1124   1.521   2.528  13.851 -0.3346 -0.5066 -0.4423
   73TMC2    O2 1125   1.345   3.049  14.073  0.4021  0.4955  0.3391
   73TMC2    O5 1126   1.256   2.844  14.125  0.1472 -0.3481  0.5909
   73TMC2    H5 1127   1.214   2.778  14.066 -1.8008  0.5417  0.9635
   74MPD2     C 1128   1.694   3.479  13.547 -0.0079 -0.0324  0.3770
   74MPD2    C1 1129   1.755   3.355  13.569 -0.7535  0.6057 -0.6376
   74MPD2    C2 1130   1.660   3.252  13.590  0.5708  0.4783  0.4133
   74MPD2    C3 1131   1.523   3.262  13.598  0.4710 -0.3186  0.1512
   74MPD2    C4 1132   1.478   3.396  13.596  0.7625 -0.1440  0.0894
   74MPD2    C5 1133   1.559   3.502  13.560  0.6006 -0.1274 -0.2859
   74MPD2     H 1134   1.698   3.150  13.599 -0.7701  0.0636  1.3699
   74MPD2    H1 1135   1.372   3.407  13.618  0.4610 -0.0751 -1.3950
   74MPD2    H2 1136   1.764   3.560  13.536 -0.4512  0.5215  1.5601
   74MPD2    H3 1137   1.524   3.605  13.564  0.3318 -0.2490  0.4207
   74MPD2     N 1138   1.435   3.152  13.625 -0.2137  0.0821 -0.3302
   74MPD2    H5 1139   1.345   3.178  13.666  0.5646 -0.7813  1.9287
   74MPD2    N1 1140   1.895   3.341  13.566  0.3999 -0.3460 -0.2225
   74MPD2    H7 1141   1.960   3.415  13.540  0.4724  0.3248  1.8098
   75TCq2    C1 1142   1.519   4.450  14.010 -0.4476  0.0973  0.2175
   75TCq2    O2 1143   1.601   4.538  14.032 -0.4032  0.5520  0.4551
   75TCq2    C2 1144   1.390   4.483  13.946  0.1088  0.3094  0.0544
   75TCq2    C3 1145   1.280   4.400  13.955  0.6086 -0.5407  0.1391
   75TCq2    C4 1146   1.159   4.446  13.912  0.1452 -0.0346 -0.5152
   75TCq2    C5 1147   1.143   4.570  13.859 -0.7540  0.3733  0.0804
   75TCq2    C6 1148   1.255   4.648  13.845  0.2181 -0.6905  0.4234
   75TCq2    C7 1149   1.382   4.605  13.888 -1.1041  0.7964  0.5515
   75TCq2    C8 1150   1.259   4.722  13.717 -0.0712  0.6298 -0.0836
   75TCq2    O4 1151   1.361   0.067  13.690 -0.4905 -0.0366  0.1147
   75TCq2    C9 1152   1.041   4.361  13.920 -0.2536 -0.4083 -0.4465
   75TCq2    O5 1153   0.934   4.400  13.872 -0.2003  0.6312  0.1399
   75TCq2    O6 1154   1.065   4.242  13.950 -0.0005  0.2090  0.0292
   75TCq2    H2 1155   1.280   4.304  14.006 -1.0989 -0.5148  0.1792
   75TCq2    H3 1156   1.045   4.591  13.820 -0.5482  0.1455 -0.5574
   75TCq2    H4 1157   1.468   4.668  13.869 -1.7207  1.4989  0.0686
   76MPD2     C 1158   0.590   4.605  11.401  0.5052 -0.1177 -0.2198
   76MPD2    C1 1159   0.506   4.497  11.414 -0.0798 -0.3513  0.0206
   76MPD2    C2 1160   0.540   4.400  11.512 -0.1261 -1.2905 -0.2463
   76MPD2    C3 1161   0.645   4.417  11.596 -0.0179  0.4244  0.1326
   76MPD2    C4 1162   0.723   4.527  11.580  0.3672  0.4231  0.0621
   76MPD2    C5 1163   0.697   4.622  11.486 -0.3314  0.1872 -0.5086
   76MPD2     H 1164   0.483   4.308  11.521  1.1745 -1.8476  2.0387
   76MPD2    H1 1165   0.811   4.540  11.641  1.6128  3.0526 -2.2805
   76MPD2    H2 1166   0.568   4.693  11.342  2.1307 -0.9255 -2.0351
   76MPD2    H3 1167   0.768   4.704  11.495 -0.0155 -0.4780  3.2848
   76MPD2     N 1168   0.677   4.334  11.705  0.2574 -0.4443 -0.4732
   76MPD2    H5 1169   0.767   4.352  11.748 -0.8904 -0.7788  2.0596
   76MPD2    N1 1170   0.389   4.475  11.336 -0.5691  0.1086 -0.0854
   76MPD2    H7 1171   0.326   4.397  11.354  0.3768 -0.3382  1.2575
   77TCq2    C1 1172   0.606   4.231  11.751 -0.5189  0.2689 -0.1104
   77TCq2    O2 1173   0.500   4.190  11.706 -0.1296 -1.0034 -0.5351
   77TCq2    C2 1174   0.644   4.181  11.882  0.3689 -0.7888 -0.7819
   77TCq2    C3 1175   0.553   4.098  11.940 -0.0545  0.1008 -0.2362
   77TCq2    C4 1176   0.576   4.052  12.070 -0.5094  0.0111 -0.2670
   77TCq2    C5 1177   0.689   4.094  12.134  0.2175 -0.1754 -0.2034
   77TCq2    C6 1178   0.770   4.186  12.074  0.1317 -0.9602 -0.1020
   77TCq2    C7 1179   0.749   4.238  11.949 -0.1446  0.4577  0.8869
   77TCq2    C8 1180   0.867   4.249  12.155  0.2044  0.3338  0.2363
   77TCq2    O4 1181   0.921   4.178  12.238 -0.1022  0.0106  0.3037
   77TCq2    C9 1182   0.483   3.959  12.129  0.2634 -0.2663 -0.4247
   77TCq2    O5 1183   0.366   3.964  12.091  0.3830  0.2331 -0.5064
   77TCq2    O6 1184   0.520   3.895  12.226  0.1358 -0.9987 -0.2679
   77TCq2    H2 1185   0.467   4.067  11.882  1.3503 -1.2005 -1.6395
   77TCq2    H3 1186   0.709   4.075  12.238 -0.2833 -1.3140 -0.3093
   77TCq2    H4 1187   0.835   4.296  11.917 -0.3401 -0.3826 -1.1794
   78MPD1     C 1188   0.982   1.510   2.144  0.2471  0.5275 -0.2760
   78MPD1    C1 1189   1.023   1.494   2.013  0.2269  0.2244  0.6748
   78MPD1    C2 1190   1.096   1.387   1.986 -0.5459 -0.3184  0.3708
   78MPD1    C3 1191   1.163   1.311   2.085 -0.5067 -0.0940 -0.2457
   78MPD1    C4 1192   1.121   1.330   2.216  0.6167  1.2292  0.0316
   78MPD1    C5 1193   1.025   1.422   2.243  0.2967  0.0651 -0.3357
   78MPD1     H 1194   1.097   1.363   1.880  0.8947  0.1421  0.2868
   78MPD1    H1 1195   1.159   1.269   2.297 -1.5752 -1.3845 -0.9159
   78MPD1    H2 1196   0.922   1.596   2.173 -0.6225  0.3317 -1.4823
   78MPD1    H3 1197   0.977   1.435   2.339 -0.9791 -2.5222 -0.6393
   78MPD1     N 1198   1.271   1.223   2.063  0.2308 -0.0975 -0.4252
   78MPD1    H5 1199   1.323   1.185   2.141 -1.9451 -0.4230  0.8465
   78MPD1    N1 1200   0.970   1.578   1.911  0.2366 -0.2856  0.0371
   78MPD1    H6 1201   1.038   1.580   1.835 -1.1839 -0.1399 -1.2291
   78MPD1    H7 1202   0.948   1.668   1.952  1.4853  0.0795 -0.0951
   79TCq2    C1 1203   1.319   1.183   1.942 -0.0517 -0.6914 -0.2657
   79TCq2    O2 1204   1.278   1.207   1.831  0.5094  0.1758  0.1234
   79TCq2    C2 1205   1.435   1.092   1.954 -0.6846  0.5680  0.2239
   79TCq2    C3 1206   1.461   1.018   2.071  0.0558  0.1312 -0.4103
   79TCq2    C4 1207   1.562   0.925   2.055 -0.1475 -0.1734 -0.0442
   79TCq2    C5 1208   1.655   0.926   1.948 -0.0108  0.4340  0.3377
   79TCq2    C6 1209   1.632   1.013   1.843  0.5181  0.1386 -0.2796
   79TCq2    C7 1210   1.524   1.095   1.846 -0.8110 -0.2565  0.0994
   79TCq2    C8 1211   1.736   1.017   1.734 -0.3085 -0.3618  0.3959
   79TCq2    O4 1212   1.824   0.932   1.749  0.1652 -0.1231 -0.2218
   79TCq2    C9 1213   1.593   0.846   2.171 -0.0767 -0.4503  0.0352
   79TCq2    O5 1214   1.691   0.772   2.176  0.5198  0.2114  0.2831
   79TCq2    O6 1215   1.515   0.863   2.269 -0.0431 -0.3771 -0.0501
   79TCq2    H2 1216   1.398   1.018   2.159 -0.1385  0.6443 -0.5500
   79TCq2    H3 1217   1.736   0.854   1.944  0.5006  1.1182 -1.6407
   79TCq2    H4 1218   1.511   1.180   1.781  0.6466  0.2455  0.4636
   80MPD2     C 1219   4.309   4.344  12.836 -0.0050  0.5867 -0.0840
   80MPD2    C1 1220   4.230   4.327  12.724 -0.4096 -0.1054 -0.4108
   80MPD2    C2 1221   4.092   4.340  12.731  0.3781 -0.4294  0.1189
   80MPD2    C3 1222   4.029   4.381  12.843 -0.3491  0.0376  0.1001
   80MPD2    C4 1223   4.103   4.407  12.956  0.2049  0.2804 -0.1380
   80MPD2    C5 1224   4.240   4.378  12.954  0.1553  0.2416 -0.0196
   80MPD2     H 1225   4.036   4.319  12.641  0.5680  1.3167 -0.4251
   80MPD2    H1 1226   4.057   4.454  13.042 -0.0576 -0.0291 -0.1101
   80MPD2    H2 1227   4.416   4.328  12.843  0.0937  1.7701  1.1379
   80MPD2    H3 1228   4.295   4.384  13.047  1.8815  0.3918 -1.0436
   80MPD2     N 1229   3.897   4.397  12.858 -0.1014  0.6098  0.1522
   80MPD2    H5 1230   3.866   4.426  12.950  0.8460 -0.7846  0.9114
   80MPD2    N1 1231   4.293   4.288  12.595 -0.4386 -0.3574  0.1436
   80MPD2    H7 1232   4.235   4.273  12.513  1.4718  0.9249 -1.4306
   81TCq2    C1 1233   4.430   4.273  12.579 -0.5549 -0.0200 -0.5575
   81TCq2    O2 1234   4.521   4.324  12.645  0.4145  0.7929 -0.2403
   81TCq2    C2 1235   4.451   4.244  12.433 -0.4956  0.0972 -0.2741
   81TCq2    C3 1236   4.544   4.318  12.365 -0.6178  0.1093  0.0014
   81TCq2    C4 1237   4.572   4.284  12.236  0.0333  0.2498 -0.1975
   81TCq2    C5 1238   4.495   4.190  12.177  0.6897  0.2508 -0.4100
   81TCq2    C6 1239   4.386   4.136  12.240  0.4500  0.0743 -0.0822
   81TCq2    C7 1240   4.369   4.157  12.371  0.3603 -0.6230  0.3320
   81TCq2    C8 1241   4.291   4.055  12.166 -0.2262  0.4907  0.0438
   81TCq2    O4 1242   4.299   4.054  12.043 -0.0674  0.3409  0.1205
   81TCq2    C9 1243   4.686   4.342  12.165  0.1286  0.0430  0.5079
   81TCq2    O5 1244   0.034   4.442  12.209 -0.1342 -0.3893  0.1268
   81TCq2    O6 1245   4.705   4.293  12.049 -0.2977  0.5622  0.5456
   81TCq2    H2 1246   4.622   4.379  12.409  1.0498 -0.9710 -1.4528
   81TCq2    H3 1247   4.513   4.151  12.078 -1.0745 -1.8576  0.1162
   81TCq2    H4 1248   4.303   4.100  12.435  0.2385 -0.3807  0.4208
   82MPD2     C 1249   2.794   4.008  10.324 -0.2199  0.5299 -0.5926
   82MPD2    C1 1250   2.715   3.951  10.422  0.2216 -0.8747  0.2053
   82MPD2    C2 1251   2.767   3.946  10.553 -0.2887 -0.0015  0.2919
   82MPD2    C3 1252   2.901   3.962  10.571 -0.2093  0.1103 -0.2770
   82MPD2    C4 1253   2.984   4.002  10.471 -0.1917 -0.6743  0.0761
   82MPD2    C5 1254   2.928   4.033  10.346 -0.6650 -0.3411  0.0451
   82MPD2     H 1255   2.708   3.916  10.638  0.4567  0.5386  0.9936
   82MPD2    H1 1256   3.091   3.992  10.481 -0.0970 -0.2062 -0.4808
   82MPD2    H2 1257   2.762   4.022  10.221 -0.6364 -1.9427 -0.8000
   82MPD2    H3 1258   2.986   4.065  10.260  0.2531  1.1729  1.2068
   82MPD2     N 1259   2.966   3.931  10.692  0.3738 -0.3428  0.0166
   82MPD2    H5 1260   3.065   3.913  10.680  0.0205 -1.3949 -1.3127
   82MPD2    N1 1261   2.578   3.917  10.391 -0.5081  0.1098 -0.1687
   82MPD2    H7 1262   2.553   3.941  10.296 -0.7100 -1.1539 -0.4339
   83TCq2    C1 1263   2.905   3.920  10.806 -0.0232  0.0519  0.2777
   83TCq2    O2 1264   2.795   3.964  10.833  0.5021  0.1115 -0.6487
   83TCq2    C2 1265   2.954   3.812  10.890  0.2961 -0.3044  0.2652
   83TCq2    C3 1266   3.087   3.788  10.909  0.6550 -0.1535 -0.5780
   83TCq2    C4 1267   3.122   3.659  10.940  0.2367 -0.0026  0.0693
   83TCq2    C5 1268   3.031   3.560  10.952 -0.2395 -0.3140  0.8313
   83TCq2    C6 1269   2.902   3.589  10.922 -0.4551 -0.1069 -0.3579
   83TCq2    C7 1270   2.862   3.713  10.892 -0.0838  0.0039 -1.2699
   83TCq2    C8 1271   2.798   3.496  10.951  0.1531  0.9813 -0.0269
   83TCq2    O4 1272   2.823   3.422  11.045 -0.3357 -0.0267  0.2584
   83TCq2    C9 1273   3.264   3.631  10.990 -0.3341 -0.0747 -0.3580
   83TCq2    O5 1274   3.355   3.714  10.963 -0.0488  0.5841 -0.0146
   83TCq2    O6 1275   3.290   3.521  11.050 -0.6781 -0.5497 -0.1975
   83TCq2    H2 1276   3.161   3.867  10.911 -1.0384  1.4510 -1.0153
   83TCq2    H3 1277   3.064   3.459  10.976 -0.8157 -0.5510  0.6355
   83TCq2    H4 1278   2.759   3.741  10.877 -0.2176  1.7010  2.9744
   84TCq2    C1 1279   3.355   2.577   9.892 -0.1320 -0.1648  0.0548
   84TCq2    O2 1280   3.324   2.466   9.935  0.1123  0.6989  0.4132
   84TCq2    C2 1281   3.442   2.662   9.975 -0.3651  0.9227 -0.4742
   84TCq2    C3 1282   3.548   2.734   9.919  0.8059 -0.3539 -0.2337
   84TCq2    C4 1283   3.627   2.807   9.998 -1.2211 -0.7011  0.4245
   84TCq2    C5 1284   3.617   2.798  10.135 -0.2101  0.0765  0.0399
   84TCq2    C6 1285   3.526   2.714  10.190 -0.9118 -0.0488  0.3043
   84TCq2    C7 1286   3.439   2.647  10.109  0.9929  0.2738 -0.4872
   84TCq2    C8 1287   3.487   2.739  10.324 -0.4085  1.2093  0.1159
   84TCq2    O4 1288   3.505   2.854  10.371 -0.3345  0.4422 -0.2564
   84TCq2    C9 1289   3.732   2.888   9.937 -1.0446 -0.0816  0.3614
   84TCq2    O5 1290   3.752   2.876   9.817 -0.2765 -0.1149 -0.1368
   84TCq2    O6 1291   3.811   2.952  10.009  0.4245 -0.6013  0.2205
   84TCq2    H2 1292   3.539   2.737   9.811 -1.6029 -0.8089 -0.0445
   84TCq2    H3 1293   3.672   2.869  10.196  0.6360  0.3544 -1.0435
   84TCq2    H4 1294   3.354   2.588  10.144  1.0621  0.1817 -0.4747
   85MPD2     C 1295   4.281   1.128  16.449 -0.0357 -0.3817  0.2735
   85MPD2    C1 1296   4.157   1.165  16.403  0.5698 -0.7232 -0.3099
   85MPD2    C2 1297   4.147   1.285  16.347 -0.4328  0.0595  0.4672
   85MPD2    C3 1298   4.250   1.375  16.344  0.6869 -0.9325 -0.2174
   85MPD2    C4 1299   4.374   1.336  16.388 -0.3243 -0.2571 -0.6685
   85MPD2    C5 1300   4.384   1.209  16.439  1.4256  0.2125 -0.7214
   85MPD2     H 1301   4.057   1.332  16.308  1.9329  1.1804 -3.6712
   85MPD2    H1 1302   4.459   1.402  16.389  0.7552 -1.5927 -4.1807
   85MPD2    H2 1303   4.307   1.037  16.503  0.4957 -0.8369 -0.7458
   85MPD2    H3 1304   4.483   1.186  16.477  0.4575  2.8444  3.4085
   85MPD2     N 1305   4.226   1.503  16.303  0.2618  0.1311  0.5496
   85MPD2    H5 1306   4.133   1.519  16.266  1.1743 -0.9529 -2.1856
   85MPD2    N1 1307   4.036   1.094  16.429  0.5565  0.3083 -0.0471
   85MPD2    H7 1308   3.949   1.136  16.399  0.2119  0.0812  0.6344
   86TCq2    C1 1309   4.323   1.600  16.287  0.0207 -0.0630 -1.0558
   86TCq2    O2 1310   4.443   1.601  16.314 -0.2110  0.2285  0.3054
   86TCq2    C2 1311   4.276   1.719  16.217 -0.3182 -0.5005 -0.5312
   86TCq2    C3 1312   4.160   1.782  16.260  0.4297  0.0066  0.4132
   86TCq2    C4 1313   4.126   1.903  16.211 -0.6103 -0.8031  0.2324
   86TCq2    C5 1314   4.200   1.958  16.109 -0.2091 -0.1026  0.2074
   86TCq2    C6 1315   4.309   1.899  16.071  0.2995 -0.2864 -0.2954
   86TCq2    C7 1316   4.352   1.781  16.136  0.0281 -0.1161 -0.7223
   86TCq2    C8 1317   4.388   1.942  15.964  0.2282 -0.5045 -0.2518
   86TCq2    O4 1318   4.493   1.885  15.943 -0.4092  0.2979 -0.3419
   86TCq2    C9 1319   4.012   1.973  16.259  0.8537 -0.4586 -0.1554
   86TCq2    O5 1320   3.955   1.924  16.360 -0.1068  0.0070 -0.2148
   86TCq2    O6 1321   3.968   2.073  16.196  0.2564  0.0603 -0.1674
   86TCq2    H2 1322   4.104   1.745  16.345 -1.3923  0.4979 -0.5813
   86TCq2    H3 1323   4.178   2.056  16.069  0.2140 -0.1094 -0.0404
   86TCq2    H4 1324   4.440   1.731  16.098  1.1518  1.0105  0.3822
   87MPD2     C 1325   1.204   0.336   1.687 -0.4215 -0.2650 -0.9634
   87MPD2    C1 1326   1.280   0.341   1.575  0.3247  0.7089  0.0553
   87MPD2    C2 1327   1.273   0.444   1.485 -0.2255 -0.7094  0.8385
   87MPD2    C3 1328   1.183   0.544   1.497  0.0207  0.8966  0.3764
   87MPD2    C4 1329   1.109   0.545   1.606  0.1191 -0.1405 -0.3565
   87MPD2    C5 1330   1.129   0.447   1.712  0.5404 -0.1259 -0.5102
   87MPD2     H 1331   1.334   0.445   1.395 -0.9030 -2.2492  0.3633
   87MPD2    H1 1332   1.033   0.621   1.617  1.7593  1.3585  0.6690
   87MPD2    H2 1333   1.214   0.261   1.765 -0.5347 -0.2941 -0.9758
   87MPD2    H3 1334   1.062   0.447   1.798 -0.1569  0.6436 -1.0543
   87MPD2     N 1335   1.148   0.641   1.396 -0.1713  0.3274  0.3296
   87MPD2    H5 1336   1.091   0.720   1.425 -1.1612 -0.2852  0.0251
   87MPD2    N1 1337   1.351   0.224   1.549  0.2852  0.3034 -0.2615
   87MPD2    H7 1338   1.357   0.163   1.629  0.6987 -0.5290 -0.9320
   88TCq2    C1 1339   1.419   0.190   1.433 -0.8859  0.0035 -0.2983
   88TCq2    O2 1340   1.436   0.256   1.331  0.0986 -0.0320  0.0392
   88TCq2    C2 1341   1.450   0.050   1.434  0.7260 -0.2247  0.0414
   88TCq2    C3 1342   1.354   4.690   1.496  0.3410 -0.3944 -0.3559
   88TCq2    C4 1343   1.348   4.561   1.457  0.0626 -0.0576 -0.4516
   88TCq2    C5 1344   1.428   4.507   1.360 -0.6552  0.2803  0.1165
   88TCq2    C6 1345   1.525   4.585   1.310 -0.6251 -0.0753 -0.0589
   88TCq2    C7 1346   1.532   4.720   1.339  0.5970 -0.3549 -0.6010
   88TCq2    C8 1347   1.635   4.525   1.227 -0.0075  0.4842  0.7989
   88TCq2    O4 1348   1.708   4.607   1.163 -0.1950 -0.0279  0.0421
   88TCq2    C9 1349   1.252   4.474   1.516  0.1038  0.6372  0.0042
   88TCq2    O5 1350   1.284   4.349   1.515  0.4709 -0.0143  0.0770
   88TCq2    O6 1351   1.173   4.533   1.595  0.1393  0.1037  0.7541
   88TCq2    H2 1352   1.273   0.009   1.554  0.3879 -0.3869 -0.2961
   88TCq2    H3 1353   1.423   4.404   1.326 -0.0922  0.1618  0.3885
   88TCq2    H4 1354   1.591   0.058   1.271  1.1259 -1.3161 -1.0127
   89MPD2     C 1355   2.260   2.459   1.935 -0.3793 -0.1920  0.2451
   89MPD2    C1 1356   2.285   2.420   1.809  0.1295 -0.4915 -0.0381
   89MPD2    C2 1357   2.370   2.505   1.732  0.5372 -0.2115  0.2601
   89MPD2    C3 1358   2.415   2.630   1.767 -0.7551  0.0530  0.1175
   89MPD2    C4 1359   2.376   2.668   1.896  0.3310 -0.2158 -0.2703
   89MPD2    C5 1360   2.295   2.586   1.978  0.3941  0.4975 -0.1358
   89MPD2     H 1361   2.407   2.456   1.643  0.7040  1.6332 -0.6859
   89MPD2    H1 1362   2.417   2.761   1.935  0.0018  0.2698 -1.0926
   89MPD2    H2 1363   2.206   2.395   2.004 -0.4170  0.8562  1.1884
   89MPD2    H3 1364   2.266   2.629   2.073 -2.7252  0.5509 -1.1046
   89MPD2     N 1365   2.513   2.701   1.688 -0.1718 -0.0223 -0.4498
   89MPD2    H5 1366   2.542   2.663   1.598 -0.4701 -0.2260 -0.4593
   89MPD2    N1 1367   2.236   2.297   1.750 -0.2884  0.0084  0.0601
   89MPD2    H7 1368   2.273   2.263   1.661 -0.3646 -0.5206  0.2313
   90TCq2    C1 1369   2.575   2.823   1.725 -0.2484 -0.7159 -0.6000
   90TCq2    O2 1370   2.567   2.887   1.829  0.0346 -0.0100 -0.1634
   90TCq2    C2 1371   2.663   2.865   1.617  0.3647 -0.1001 -0.1877
   90TCq2    C3 1372   2.781   2.931   1.651  0.3919  0.0609 -0.7732
   90TCq2    C4 1373   2.866   2.948   1.552  0.6683  0.2073 -0.8435
   90TCq2    C5 1374   2.860   2.884   1.429 -0.7871 -0.0758  0.1786
   90TCq2    C6 1375   2.738   2.824   1.400 -0.5570  0.4897  0.0482
   90TCq2    C7 1376   2.634   2.820   1.495 -0.5731 -0.2819 -0.1344
   90TCq2    C8 1377   2.722   2.751   1.278 -0.3989  0.0720  0.6148
   90TCq2    O4 1378   2.608   2.702   1.255  0.3595  0.1417 -0.1199
   90TCq2    C9 1379   2.977   3.035   1.566  0.1512 -0.3662 -0.4674
   90TCq2    O5 1380   3.035   3.070   1.460  0.2698 -0.8377 -0.0397
   90TCq2    O6 1381   3.018   3.058   1.676  0.6221 -0.3627  0.0373
   90TCq2    H2 1382   2.790   2.985   1.745  0.2183 -0.2612 -0.5703
   90TCq2    H3 1383   2.936   2.899   1.354 -0.1830  1.3922  1.0811
   90TCq2    H4 1384   2.532   2.790   1.472 -0.9237  0.5336  0.3523
   91TMC2    C1 1385   4.535   2.257  16.636  0.3834  0.3313 -0.0524
   91TMC2    C2 1386   4.546   2.189  16.516  0.0141  0.0021 -0.0166
   91TMC2    C3 1387   4.428   2.137  16.461  0.2746  0.4219  1.0409
   91TMC2    C4 1388   4.412   2.282  16.693  0.0862 -0.0442  0.0242
   91TMC2    C5 1389   4.302   2.232  16.624 -0.4815 -0.5072  0.2255
   91TMC2    C6 1390   4.305   2.150  16.514 -0.2302 -0.0309 -0.1327
   91TMC2     C 1391   4.651   2.302  16.714  0.0178 -0.0068 -0.4399
   91TMC2     O 1392   4.630   2.308  16.836  0.1956 -0.5635  0.9398
   91TMC2     H 1393   4.637   2.182  16.458 -0.3853 -0.4684 -0.5794
   91TMC2    H1 1394   4.400   2.359  16.768  0.1887 -0.4211  0.4318
   91TMC2    H2 1395   4.226   2.103  16.458 -0.1892  0.4231 -0.5740
   91TMC2    C7 1396   4.172   2.274  16.666 -0.3169  0.1785  0.1265
   91TMC2    C8 1397   4.415   2.125  16.315  0.9605  0.0473 -0.0936
   91TMC2    O1 1398   4.150   2.313  16.776  0.5048  0.4678  0.2334
   91TMC2    O2 1399   4.333   2.191  16.252  0.1483 -0.2332  0.1780
   91TMC2    O5 1400   4.540   2.098  16.268 -0.4130  0.2135  0.0270
   91TMC2    H5 1401   4.592   2.041  16.329 -0.7698 -0.5016 -0.3261
   92MPD2     C 1402   0.185   2.375  16.830 -0.5929 -0.0770  0.6779
   92MPD2    C1 1403   0.154   2.400  16.697  0.4357 -0.0966  0.3550
   92MPD2    C2 1404   0.247   2.450  16.611  0.2282  0.0011  0.3232
   92MPD2    C3 1405   0.370   2.494  16.667 -0.8035 -0.1217 -1.0032
   92MPD2    C4 1406   0.396   2.474  16.798  0.7297 -0.3251  0.1063
   92MPD2    C5 1407   0.300   2.427  16.881  0.0386 -0.4662  0.4581
   92MPD2     H 1408   0.222   2.455  16.506 -1.3552 -1.7014  0.6181
   92MPD2    H1 1409   0.493   2.503  16.837  0.3040  0.0799  0.8477
   92MPD2    H2 1410   0.115   2.336  16.902 -0.5873 -1.3743 -0.0270
   92MPD2    H3 1411   0.317   2.425  16.988 -0.1362 -0.1008  0.4907
   92MPD2     N 1412   0.464   2.548  16.570 -0.3836  0.1693  0.0824
   92MPD2    H5 1413   0.437   2.564  16.473 -0.8699 -0.3097  0.1403
   92MPD2    N1 1414   0.031   2.356  16.639 -0.6212  0.6189  0.2015
   92MPD2    H7 1415   0.023   2.348  16.538 -1.1756  0.2504  0.2733
   93MPD2     C 1416   1.816   2.187  13.993  0.2236  0.6711  0.2362
   93MPD2    C1 1417   1.786   2.315  14.034  0.0565 -0.0564 -0.4350
   93MPD2    C2 1418   1.656   2.351  14.073 -0.8102  0.3652 -1.1379
   93MPD2    C3 1419   1.565   2.257  14.050  0.4686  0.2958 -0.1432
   93MPD2    C4 1420   1.591   2.131  14.008  0.4785 -0.1874  0.1983
   93MPD2    C5 1421   1.717   2.092  13.978  0.1350 -0.6326  0.0175
   93MPD2     H 1422   1.636   2.449  14.114  0.0498 -0.1407  0.5170
   93MPD2    H1 1423   1.508   2.064  13.988 -0.9821  2.0869 -1.3746
   93MPD2    H2 1424   1.917   2.150  13.980  0.9262  2.0572  1.7311
   93MPD2    H3 1425   1.730   2.003  13.917  0.1673  0.1392 -1.1191
   93MPD2     N 1426   1.423   2.279  14.069  0.5345 -0.0671  0.5764
   93MPD2    H5 1427   1.360   2.201  14.054 -0.3627  0.6206  0.7378
   93MPD2    N1 1428   1.883   2.412  14.055 -0.9740  0.0150  0.0966
   93MPD2    H7 1429   1.855   2.503  14.090  0.2030  0.8538 -1.1518
   94TCq2    C1 1430   2.020   2.381  14.055 -0.6085 -0.2519  0.1795
   94TCq2    O2 1431   2.089   2.282  14.041  0.4503  0.1231 -0.1734
   94TCq2    C2 1432   2.102   2.504  14.047 -0.0728 -0.2400 -0.0744
   94TCq2    C3 1433   2.056   2.631  14.026  0.1211 -0.1531 -0.3799
   94TCq2    C4 1434   2.140   2.737  14.036  0.7578  0.8454  0.4348
   94TCq2    C5 1435   2.270   2.721  14.037  0.3284  0.6986 -0.6212
   94TCq2    C6 1436   2.321   2.597  14.054 -0.4269  0.2115  0.7382
   94TCq2    C7 1437   2.238   2.486  14.047 -0.8279 -0.3718  0.0793
   94TCq2    C8 1438   2.464   2.569  14.069 -0.1570  0.1843  0.2060
   94TCq2    O4 1439   2.506   2.458  14.043  0.8171 -0.4051  0.4399
   94TCq2    C9 1440   2.088   2.868  14.029  0.2816 -0.8185  0.1407
   94TCq2    O5 1441   2.165   2.966  14.044  0.6092 -0.6536 -0.2281
   94TCq2    O6 1442   1.965   2.889  14.019  0.1502 -0.4429  0.0666
   94TCq2    H2 1443   1.951   2.656  14.018 -0.2045 -2.1417 -2.4817
   94TCq2    H3 1444   2.328   2.811  14.050 -0.9349  1.7281 -2.2074
   94TCq2    H4 1445   2.286   2.391  14.065 -1.1288 -0.0845  2.4136
   95TMC2    C1 1446   1.223   4.119  15.668 -0.3682  1.4013  0.5260
   95TMC2    C2 1447   1.266   3.991  15.665  0.0272  0.2862  0.0909
   95TMC2    C3 1448   1.164   3.896  15.679 -0.7166 -0.2068 -0.2764
   95TMC2    C4 1449   1.095   4.159  15.691 -0.3334 -0.0202 -0.2895
   95TMC2    C5 1450   1.004   4.060  15.708 -0.1330  0.4066 -0.5333
   95TMC2    C6 1451   1.034   3.925  15.703  0.8006 -0.1149 -0.4225
   95TMC2     C 1452   1.326   4.215  15.637 -0.1735  0.1327  0.3065
   95TMC2     O 1453   1.422   4.174  15.571 -0.2787  0.7114  0.1644
   95TMC2     H 1454   1.364   3.965  15.625  0.9905  0.2592  2.5010
   95TMC2    H1 1455   1.058   4.258  15.666  0.0383 -0.2868 -1.8716
   95TMC2    H2 1456   0.961   3.846  15.693  2.2086 -1.3650 -0.9448
   95TMC2    C7 1457   0.867   4.108  15.700  0.3120 -0.1237  0.5239
   95TMC2    C8 1458   1.197   3.762  15.629  0.6881 -0.0575 -0.0612
   95TMC2    O1 1459   0.847   4.227  15.726 -0.4640  0.5312 -0.2699
   95TMC2    O2 1460   1.106   3.684  15.594  0.1490  0.1487 -0.4298
   95TMC2    O5 1461   1.292   3.716  15.706 -0.1995  0.7412  0.0175
   95TMC2    H5 1462   1.344   3.791  15.744  0.4699 -0.1210  0.7856
   96MPD2     C 1463   1.507   4.689  15.611  0.3458  0.1940 -0.0010
   96MPD2    C1 1464   1.552   4.574  15.551 -0.2167  0.1403  0.0243
   96MPD2    C2 1465   1.474   4.462  15.558 -0.5727 -0.0308  0.2345
   96MPD2    C3 1466   1.362   4.468  15.640 -0.5325  0.1264  0.1191
   96MPD2    C4 1467   1.316   4.581  15.701 -0.3132 -0.2048 -0.0092
   96MPD2    C5 1468   1.390   4.695  15.682  0.3405 -0.4051 -0.0938
   96MPD2     H 1469   1.518   4.372  15.516  0.4999  0.9404 -0.7275
   96MPD2    H1 1470   1.226   4.588  15.762  0.3699  0.1605  0.9519
   96MPD2    H2 1471   1.552   0.063  15.591  0.1579  0.5997  1.5896
   96MPD2    H3 1472   1.354   0.059  15.735 -2.4755 -0.6401 -1.6118
   96MPD2     N 1473   1.292   4.346  15.679  0.1669 -0.0567  0.1762
   96MPD2    H5 1474   1.227   4.357  15.755 -0.8633  0.6789 -0.8234
   96MPD2    N1 1475   1.682   4.576  15.493  0.1801 -1.2484 -0.0397
   96MPD2    H7 1476   1.729   4.664  15.509  0.4150 -1.3546 -0.1511
   97MPD2     C 1477   3.787   1.843   1.073  1.0423  0.0755  0.2972
   97MPD2    C1 1478   3.652   1.828   1.034  0.7117 -0.0391 -0.7097
   97MPD2    C2 1479   3.613   1.891   0.917  0.1513  0.1471 -0.3069
   97MPD2    C3 1480   3.705   1.960   0.830  0.0805  0.0816 -0.1744
   97MPD2    C4 1481   3.836   1.962   0.871 -0.1892 -0.6046 -0.0628
   97MPD2    C5 1482   3.876   1.904   0.993 -0.2083  0.5165  0.1193
   97MPD2     H 1483   3.511   1.886   0.881  1.2073 -0.6627 -3.1407
   97MPD2    H1 1484   3.905   2.009   0.802  0.3221  0.4137  1.1375
   97MPD2    H2 1485   3.838   1.802   1.159 -0.0497 -0.3737  0.7320
   97MPD2    H3 1486   3.981   1.917   1.015  0.0670 -0.3888 -0.6318
   97MPD2     N 1487   3.678   2.022   0.703 -0.4369  0.0746  0.0929
   97MPD2    H5 1488   3.754   2.064   0.651 -2.5850  1.0821 -2.2719
   97MPD2    N1 1489   3.571   1.768   1.135  0.2317  0.2857 -0.4700
   97MPD2    H7 1490   3.610   1.707   1.206  0.5669 -1.0381 -1.7969
   98TCq2    C1 1491   3.556   2.019   0.639  0.0942  0.2109  0.4145
   98TCq2    O2 1492   3.454   1.956   0.655  0.3920  0.0456 -0.1422
   98TCq2    C2 1493   3.546   2.117   0.539  0.2525  0.5155 -0.9216
   98TCq2    C3 1494   3.435   2.116   0.460 -0.6400 -0.6978  0.1107
   98TCq2    C4 1495   3.388   2.231   0.400 -0.5372  0.1882 -0.5691
   98TCq2    C5 1496   3.451   2.350   0.420  0.2202 -0.4013 -0.4920
   98TCq2    C6 1497   3.559   2.354   0.501  0.1647 -0.1150 -0.1903
   98TCq2    C7 1498   3.610   2.241   0.560 -0.0899  0.2338  0.3713
   98TCq2    C8 1499   3.649   2.467   0.503  0.1122 -0.1389  0.0443
   98TCq2    O4 1500   3.746   2.474   0.576 -0.2608 -0.3363 -0.2265
   98TCq2    C9 1501   3.271   2.239   0.311 -0.3397 -0.0352 -0.6603
   98TCq2    O5 1502   3.233   2.131   0.263 -0.2757 -0.3274 -0.5901
   98TCq2    O6 1503   3.222   2.350   0.284  0.0741 -0.5753  0.0769
   98TCq2    H2 1504   3.376   2.029   0.435 -0.8662 -0.2944 -0.7791
   98TCq2    H3 1505   3.394   2.437   0.389 -0.1177 -0.1587  0.8146
   98TCq2    H4 1506   3.699   2.250   0.621  1.2223 -1.6785 -1.2227
   99MPD2     C 1507   2.085   3.022   2.014 -0.4162 -0.2273 -0.0076
   99MPD2    C1 1508   2.059   3.152   1.985  0.6591 -0.1573 -0.0855
   99MPD2    C2 1509   2.109   3.213   1.870  0.4285  0.2244  0.7771
   99MPD2    C3 1510   2.191   3.136   1.786 -0.5016 -0.4090  0.1325
   99MPD2    C4 1511   2.224   3.005   1.821  0.5372  0.1768 -0.5745
   99MPD2    C5 1512   2.169   2.953   1.933  0.4064 -0.2584  0.5692
   99MPD2     H 1513   2.086   3.316   1.849  0.4538 -0.5337 -3.0059
   99MPD2    H1 1514   2.281   2.934   1.762  1.1458  0.1252  0.0746
   99MPD2    H2 1515   2.040   2.970   2.098  0.0879 -0.3477  0.1846
   99MPD2    H3 1516   2.202   2.853   1.960 -0.6963 -0.5692  0.7503
   99MPD2     N 1517   2.238   3.198   1.664 -0.1011 -0.3861  0.1830
   99MPD2    H5 1518   2.211   3.294   1.645  0.8731 -0.2551 -0.4776
   99MPD2    N1 1519   1.984   3.236   2.071 -0.5311  0.0184 -0.2998
   99MPD2    H7 1520   1.965   3.330   2.037 -0.3813 -0.3166 -1.2927
  100TCq2    C1 1521   1.948   3.200   2.204 -0.1946  0.5379 -0.4476
  100TCq2    O2 1522   1.996   3.117   2.280  0.6654  0.1526 -0.1198
  100TCq2    C2 1523   1.862   3.308   2.267  0.1119 -0.3378  0.3083
  100TCq2    C3 1524   1.878   3.328   2.399 -0.8327 -0.6972  0.9628
  100TCq2    C4 1525   1.782   3.408   2.461  0.5141 -0.3508 -0.1834
  100TCq2    C5 1526   1.682   3.478   2.388  0.2357  0.2116 -0.2554
  100TCq2    C6 1527   1.680   3.458   2.252  0.0410  0.7002  0.1280
  100TCq2    C7 1528   1.770   3.375   2.195 -0.2802  0.2762 -0.3888
  100TCq2    C8 1529   1.574   3.535   2.175  0.6693  0.6657  1.1412
  100TCq2    O4 1530   1.502   3.614   2.237  0.7386  0.0437  0.0350
  100TCq2    C9 1531   1.790   3.438   2.601  0.1770  0.2247  0.8000
  100TCq2    O5 1532   1.688   3.493   2.649  0.2423 -0.0836 -0.6889
  100TCq2    O6 1533   1.899   3.410   2.661 -0.1015  0.1537 -0.2769
  100TCq2    H2 1534   1.964   3.281   2.446  2.1603  1.1519 -2.6665
  100TCq2    H3 1535   1.619   3.554   2.433 -1.8660 -0.7948 -1.5029
  100TCq2    H4 1536   1.775   3.355   2.088  1.3462 -0.0206 -0.2588
  101MPD2     C 1537   2.985   4.433  12.829 -0.5182  0.2323 -0.4097
  101MPD2    C1 1538   2.905   4.516  12.908  0.4592  0.2046 -0.5273
  101MPD2    C2 1539   2.845   4.468  13.023  0.1786 -0.4918 -0.1057
  101MPD2    C3 1540   2.862   4.339  13.068  0.2800 -0.5442  0.5163
  101MPD2    C4 1541   2.930   4.257  12.984 -0.1270  0.1156  0.8843
  101MPD2    C5 1542   2.998   4.303  12.870  0.4925  0.4619 -0.0808
  101MPD2     H 1543   2.801   4.544  13.088 -1.2239 -1.1595 -0.2836
  101MPD2    H1 1544   2.941   4.150  12.999 -3.5337  0.0265  2.7981
  101MPD2    H2 1545   3.024   4.460  12.732  1.6817  2.8675  1.2023
  101MPD2    H3 1546   3.064   4.234  12.819  1.1983 -0.4340  2.0719
  101MPD2     N 1547   2.788   4.291  13.180  0.0093 -0.6505 -0.6913
  101MPD2    H5 1548   2.728   4.360  13.224 -1.7924 -1.1366 -2.3890
  101MPD2    N1 1549   2.897   4.650  12.870 -0.1324 -0.0770 -0.2469
  101MPD2    H7 1550   2.942   4.669  12.781  3.1856 -1.7984  1.0419
  102TCq2    C1 1551   3.008   0.281  12.557 -0.6166 -0.0991 -0.8237
  102TCq2    O2 1552   3.100   0.204  12.561  0.4211  0.1829 -0.2432
  102TCq2    C2 1553   2.912   0.277  12.668  0.2535  0.4954 -0.0162
  102TCq2    C3 1554   2.798   0.354  12.664  0.5427 -0.0369 -0.6848
  102TCq2    C4 1555   2.697   0.326  12.745  0.4190 -0.4973  0.0875
  102TCq2    C5 1556   2.702   0.215  12.834  0.5638  0.3801  0.6071
  102TCq2    C6 1557   2.813   0.143  12.830 -0.4948 -0.7066 -0.6499
  102TCq2    C7 1558   2.924   0.173  12.755  0.1701 -0.4952 -0.1041
  102TCq2    C8 1559   2.815   0.027  12.917 -1.0964 -0.7521 -0.3146
  102TCq2    O4 1560   2.730   0.034  13.006 -0.0141  0.2669  0.4485
  102TCq2    C9 1561   2.585   0.428  12.756  0.4274  0.6059  0.2145
  102TCq2    O5 1562   2.479   0.379  12.801 -0.3142 -0.0776  0.8038
  102TCq2    O6 1563   2.613   0.551  12.737 -0.3382  0.1316 -0.1766
  102TCq2    H2 1564   2.794   0.436  12.594  2.9962 -0.2824 -1.1235
  102TCq2    H3 1565   2.617   0.215  12.902 -0.2194  1.9280 -0.3815
  102TCq2    H4 1566   3.018   0.119  12.756 -0.4815 -1.6481 -1.0011
  103TMC2    C1 1567   0.955   0.320  12.134  0.3844  0.4194  0.3107
  103TMC2    C2 1568   0.943   0.381  12.014 -0.0066  0.8760 -0.3440
  103TMC2    C3 1569   0.984   0.509  12.004  0.1562  0.0905  0.5572
  103TMC2    C4 1570   0.996   0.383  12.247  0.1432 -0.1375  0.3258
  103TMC2    C5 1571   1.053   0.504  12.228  0.0567 -0.2101  0.6301
  103TMC2    C6 1572   1.049   0.572  12.112 -0.2836  0.0486  0.1400
  103TMC2     C 1573   0.912   0.185  12.149 -0.2510 -1.1304 -0.3463
  103TMC2     O 1574   0.818   0.143  12.080 -0.3907  0.3556 -0.3072
  103TMC2     H 1575   0.900   0.330  11.928  2.3359  0.3879 -1.2334
  103TMC2    H1 1576   0.984   0.337  12.345 -1.7005  1.7944  1.0103
  103TMC2    H2 1577   1.095   0.670  12.106  1.5201 -0.8783 -1.2908
  103TMC2    C7 1578   1.062   0.585  12.351  0.0560 -0.0291 -0.6797
  103TMC2    C8 1579   0.959   0.597  11.885 -0.7593 -0.0912  0.1359
  103TMC2    O1 1580   1.072   0.704  12.332 -0.2087 -0.0369 -0.7778
  103TMC2    O2 1581   0.972   0.717  11.892 -0.1702  0.3577 -0.6461
  103TMC2    O5 1582   0.949   0.527  11.770  0.1172  0.0182  0.1257
  103TMC2    H5 1583   0.974   0.433  11.774  0.8666  0.2577  1.0024
  104MPD2     C 1584   1.120   4.645  12.323 -0.0090 -0.3924  0.3935
  104MPD2    C1 1585   1.014   4.699  12.251 -0.4750  0.3680 -0.5799
  104MPD2    C2 1586   0.934   4.606  12.189 -0.1166 -0.4357 -0.2129
  104MPD2    C3 1587   0.952   4.472  12.206  0.3486  0.2638  0.5925
  104MPD2    C4 1588   1.057   4.423  12.282 -0.2406 -0.4366 -0.3304
  104MPD2    C5 1589   1.144   4.515  12.337 -0.2932 -0.0223  0.2127
  104MPD2     H 1590   0.849   4.644  12.135  1.1056  1.7594 -0.5826
  104MPD2    H1 1591   1.077   4.321  12.311  4.3521  0.1797 -1.2335
  104MPD2    H2 1592   1.195   4.706  12.371 -2.5794  3.0671 -0.0162
  104MPD2    H3 1593   1.232   4.479  12.389 -1.2234 -0.9742  1.1073
  104MPD2     N 1594   0.861   4.382  12.143  0.1790  0.0496  0.2533
  104MPD2    H5 1595   0.798   4.423  12.075 -1.9720 -2.1543  0.8936
  104MPD2    N1 1596   0.999   0.119  12.236 -0.2608  0.2377 -0.5609
  104MPD2    H7 1597   1.070   0.173  12.284 -0.7315  0.0020  0.3994
  105MPD2     C 1598   2.800   4.088   0.197  0.4263  0.1046  0.4733
  105MPD2    C1 1599   2.749   4.217   0.181 -0.4153 -0.4766  0.5054
  105MPD2    C2 1600   2.671   4.274   0.281  0.7276 -0.1543  0.1315
  105MPD2    C3 1601   2.638   4.206   0.397  0.1440  0.9202  0.1715
  105MPD2    C4 1602   2.692   4.079   0.411  0.4872  0.7344 -0.0483
  105MPD2    C5 1603   2.775   4.027   0.317 -0.2874  0.0104 -0.0946
  105MPD2     H 1604   2.632   4.374   0.265  3.4448  0.6073 -1.7468
  105MPD2    H1 1605   2.678   4.005   0.490  0.2805  2.3049  1.3778
  105MPD2    H2 1606   2.847   4.023   0.125  1.0058 -0.8367  1.7017
  105MPD2    H3 1607   2.791   3.920   0.324  1.2491  0.2569  0.0948
  105MPD2     N 1608   2.540   4.263   0.486  0.4662 -0.3149  0.5705
  105MPD2    H5 1609   2.507   4.356   0.462  0.8114 -0.4959 -0.5889
  105MPD2    N1 1610   2.790   4.290   0.066  0.2304 -0.6067 -0.0657
  105MPD2    H7 1611   2.756   4.385   0.055 -0.0182 -0.5108  1.5530
  106TCq2    C1 1612   2.499   4.199   0.601  0.9198  0.0883 -0.3388
  106TCq2    O2 1613   2.525   4.094   0.655  0.2270  0.4120 -0.0523
  106TCq2    C2 1614   2.418   4.290   0.686 -0.0504 -0.3742  0.6542
  106TCq2    C3 1615   2.403   4.413   0.636  0.5493 -0.4605 -0.0798
  106TCq2    C4 1616   2.306   4.489   0.689 -0.5222 -0.0835  0.5719
  106TCq2    C5 1617   2.213   4.436   0.779 -0.2338  0.1614  0.6884
  106TCq2    C6 1618   2.224   4.305   0.817  0.1892 -0.1911 -0.1239
  106TCq2    C7 1619   2.329   4.229   0.774  0.0414 -0.1047 -0.5435
  106TCq2    C8 1620   2.170   4.252   0.944 -0.8620 -0.3836  0.4617
  106TCq2    O4 1621   2.226   4.156   0.986 -0.4254  0.6500 -0.3633
  106TCq2    C9 1622   2.287   4.625   0.642 -1.2589  0.0868 -0.3628
  106TCq2    O5 1623   2.217   4.704   0.709  0.5391 -0.7371 -0.0719
  106TCq2    O6 1624   2.369   4.655   0.554 -0.1696  0.1572  0.0114
  106TCq2    H2 1625   2.480   4.468   0.582  0.3754 -0.1378  0.0006
  106TCq2    H3 1626   2.129   4.492   0.818  0.3917  2.1484 -0.8519
  106TCq2    H4 1627   2.336   4.125   0.806 -0.2576 -0.0734 -0.3767
  107TMC2    C1 1628   3.323   3.166  11.145  0.0216 -0.0950  0.5810
  107TMC2    C2 1629   3.388   3.255  11.068 -0.4551  0.0896  0.5404
  107TMC2    C3 1630   3.411   3.228  10.938  0.0401  0.4973 -0.2472
  107TMC2    C4 1631   3.274   3.052  11.095 -0.3884 -0.3691  0.0950
  107TMC2    C5 1632   3.292   3.029  10.961  0.7394  0.0864  0.0883
  107TMC2    C6 1633   3.359   3.117  10.872 -0.7341 -0.6356 -0.1259
  107TMC2     C 1634   3.251   3.210  11.268 -0.1893 -0.3262 -0.1632
  107TMC2     O 1635   3.218   3.133  11.361 -0.4558  0.0578 -0.0248
  107TMC2     H 1636   3.441   3.336  11.116  1.2562 -1.6710  1.6114
  107TMC2    H1 1637   3.220   2.980  11.156  2.1186 -1.1494  1.3833
  107TMC2    H2 1638   3.389   3.090  10.772 -1.2686 -1.1733 -0.1428
  107TMC2    C7 1639   3.250   2.896  10.908  0.0821  0.2219  0.8732
  107TMC2    C8 1640   3.504   3.312  10.866  0.5982 -1.0680  0.3813
  107TMC2    O1 1641   3.190   2.831  10.991 -0.4560  0.3840 -0.7014
  107TMC2    O2 1642   3.569   3.269  10.771 -0.8110 -0.1470 -0.3182
  107TMC2    O5 1643   3.476   3.444  10.884 -0.6425 -0.3139 -0.0657
  107TMC2    H5 1644   3.409   3.471  10.950 -0.3384  0.9129 -0.2605
  108MPD2     C 1645   3.254   3.563  11.363 -0.2702 -0.4085  0.1657
  108MPD2    C1 1646   3.245   3.430  11.386  0.4444 -0.4797 -0.3105
  108MPD2    C2 1647   3.224   3.383  11.515  0.0029 -0.2603  0.4319
  108MPD2    C3 1648   3.223   3.479  11.619  0.4889 -0.4963  0.3147
  108MPD2    C4 1649   3.244   3.613  11.589 -0.7941  0.5043  0.1387
  108MPD2    C5 1650   3.260   3.659  11.458 -0.0144  0.0452  0.6578
  108MPD2     H 1651   3.188   3.282  11.526 -0.9990  0.2949  2.1244
  108MPD2    H1 1652   3.234   3.686  11.668  0.1948  0.6163  0.1537
  108MPD2    H2 1653   3.261   3.602  11.262 -1.7343 -1.1722 -0.2450
  108MPD2    H3 1654   3.264   3.764  11.432  1.5921 -0.3155 -0.5651
  108MPD2     N 1655   3.193   3.447  11.760  0.3935  0.7745  0.0555
  108MPD2    H5 1656   3.186   3.528  11.820 -0.3869  2.2654 -2.0301
  108MPD2    N1 1657   3.241   3.345  11.272  0.1169  0.1270 -0.0025
  108MPD2    H7 1658   3.250   3.391  11.182  2.8663  0.2717  0.3606
  109MPD2     C 1659   2.621   0.816   1.965  0.2279 -0.6264 -0.5818
  109MPD2    C1 1660   2.690   0.905   1.882 -0.1729  0.0044  0.3379
  109MPD2    C2 1661   2.826   0.902   1.893  0.2819 -0.6661 -0.5947
  109MPD2    C3 1662   2.893   0.857   2.004  0.1804  0.6137 -0.5076
  109MPD2    C4 1663   2.822   0.776   2.091  0.1589 -0.6673 -0.3924
  109MPD2    C5 1664   2.685   0.746   2.064 -0.0698 -0.1879 -0.5475
  109MPD2     H 1665   2.887   0.972   1.836  0.4523 -0.6528 -0.3978
  109MPD2    H1 1666   2.869   0.743   2.183  0.7419 -1.7998 -1.0955
  109MPD2    H2 1667   2.516   0.792   1.952  0.3135 -1.3165 -0.0464
  109MPD2    H3 1668   2.628   0.675   2.122 -0.2794 -2.0821 -3.0761
  109MPD2     N 1669   3.030   0.892   2.024 -0.7176 -0.1129 -0.1834
  109MPD2    H5 1670   3.081   0.952   1.960 -0.1163 -1.4801 -1.0035
  109MPD2    N1 1671   2.609   0.983   1.792 -0.4980  0.0294  0.0616
  109MPD2    H7 1672   2.511   0.957   1.795  0.0805 -2.1073  0.2277
  110TCq2    C1 1673   3.100   0.851   2.136  0.3667 -0.5285 -0.1071
  110TCq2    O2 1674   3.086   0.761   2.213  0.1537 -0.1645 -0.6988
  110TCq2    C2 1675   3.232   0.913   2.130  0.7266  0.4883  0.2406
  110TCq2    C3 1676   3.333   0.851   2.203  0.3012 -0.3574 -0.2150
  110TCq2    C4 1677   3.463   0.886   2.185 -0.5081  0.4944 -0.7850
  110TCq2    C5 1678   3.503   0.968   2.090 -0.0503  0.2139  0.8201
  110TCq2    C6 1679   3.403   1.034   2.024  0.5872  0.1600 -0.3075
  110TCq2    C7 1680   3.272   1.015   2.046 -0.4151  0.1225 -0.8373
  110TCq2    C8 1681   3.443   1.127   1.921 -0.1841 -1.3732  0.3364
  110TCq2    O4 1682   3.351   1.184   1.868  0.1204 -0.7546 -0.2397
  110TCq2    C9 1683   3.564   0.836   2.280 -0.1166 -0.2706  0.2559
  110TCq2    O5 1684   3.682   0.888   2.275  0.3116  0.5104  0.1734
  110TCq2    O6 1685   3.520   0.763   2.374  0.1691 -0.0952 -0.4545
  110TCq2    H2 1686   3.305   0.781   2.281 -0.5288 -1.7516 -1.7652
  110TCq2    H3 1687   3.608   0.988   2.072  0.2570 -0.0336  2.3510
  110TCq2    H4 1688   3.196   1.078   2.002 -0.1929  0.9517 -0.0362
  111TMC2    C1 1689   2.559   4.677  11.402 -0.2195  0.1641  0.5149
  111TMC2    C2 1690   2.506   0.061  11.470  0.1822  0.4032  0.0994
  111TMC2    C3 1691   2.574   0.122  11.573  0.3159  0.2924  0.0096
  111TMC2    C4 1692   2.679   4.613  11.438 -0.2133  0.1240  0.0657
  111TMC2    C5 1693   2.742   4.677  11.539 -0.5133 -0.2037  0.3544
  111TMC2    C6 1694   2.693   0.062  11.613  0.8971 -0.2466  0.0099
  111TMC2     C 1695   2.509   4.645  11.273 -0.1854  0.1144  0.8858
  111TMC2     O 1696   2.586   4.593  11.198 -0.3854  0.7470  0.1016
  111TMC2     H 1697   2.422   0.114  11.427  0.3597  0.9577  0.4435
  111TMC2    H1 1698   2.729   4.535  11.382 -1.3387 -0.1098 -0.6053
  111TMC2    H2 1699   2.759   0.113  11.682  2.2189 -0.2029 -1.2903
  111TMC2    C7 1700   2.874   4.629  11.591 -0.5250 -0.0269 -0.0014
  111TMC2    C8 1701   2.539   0.260  11.596  0.1995  0.6903 -0.2370
  111TMC2    O1 1702   2.943   4.716  11.649  0.4095  0.1284 -0.0920
  111TMC2    O2 1703   2.473   0.328  11.521 -0.1684  0.0152 -0.7015
  111TMC2    O5 1704   2.560   0.288  11.725  0.2656  0.0219 -0.6871
  111TMC2    H5 1705   2.616   0.227  11.777 -0.5964  1.7691  2.2943
  112MPD2     C 1706   2.143   4.634  10.931 -1.0180  0.0225 -0.4219
  112MPD2    C1 1707   2.279   4.639  10.908 -0.1369  0.7837 -0.2052
  112MPD2    C2 1708   2.361   4.641  11.017  0.4141 -0.5842 -0.4334
  112MPD2    C3 1709   2.302   4.658  11.143  0.0524  0.1256 -0.3755
  112MPD2    C4 1710   2.164   4.659  11.162 -0.9521 -0.9115  0.1149
  112MPD2    C5 1711   2.084   4.653  11.053  0.3210  0.2249  0.2976
  112MPD2     H 1712   2.469   4.636  11.003  0.5413  0.6039  0.1506
  112MPD2    H1 1713   2.123   4.668  11.262  0.1908 -0.6273  0.5581
  112MPD2    H2 1714   2.083   4.607  10.845 -1.9516  2.3719 -0.5005
  112MPD2    H3 1715   1.977   4.657  11.063  0.4854  1.1140  1.6104
  112MPD2     N 1716   2.374   4.674  11.259 -0.1085 -0.1457 -0.2244
  112MPD2    H5 1717   2.322   4.699  11.342 -0.3637 -0.0488 -0.4115
  112MPD2    N1 1718   2.334   4.622  10.778  0.8980  0.4001  0.1073
  112MPD2    H7 1719   2.435   4.622  10.766  0.7050  1.6056 -1.5019
  113MPD2     C 1720   1.849   2.866   0.898 -0.6253  0.0900  0.5823
  113MPD2    C1 1721   1.880   3.002   0.897 -0.4884  0.6024 -0.1154
  113MPD2    C2 1722   1.801   3.080   0.815 -0.1117  0.0913  0.3780
  113MPD2    C3 1723   1.715   3.028   0.727  0.5755 -0.1023 -0.0813
  113MPD2    C4 1724   1.703   2.896   0.709  0.2234  0.1084 -0.0191
  113MPD2    C5 1725   1.773   2.817   0.795  0.1731 -0.3681 -0.0329
  113MPD2     H 1726   1.807   3.186   0.838 -0.4225 -0.2071  1.8378
  113MPD2    H1 1727   1.643   2.854   0.629  0.5785  0.8926 -0.6954
  113MPD2    H2 1728   1.893   2.795   0.967  0.9935  1.5721  1.0701
  113MPD2    H3 1729   1.755   2.710   0.795  2.1135 -0.7045  0.3828
  113MPD2     N 1730   1.637   3.113   0.639 -0.0162  0.3390  0.1247
  113MPD2    H5 1731   1.568   3.074   0.575 -0.9394  0.0320  1.2893
  113MPD2    N1 1732   1.962   3.062   0.996  0.3169  0.1694  0.6543
  113MPD2    H7 1733   1.953   3.162   1.012  0.8915  0.3474 -0.1056
  114TCq2    C1 1734   1.658   3.246   0.629 -0.2329  0.3764 -0.4098
  114TCq2    O2 1735   1.757   3.312   0.663 -0.5769 -0.1567 -0.4347
  114TCq2    C2 1736   1.563   3.316   0.544  0.0104 -0.5517 -0.2504
  114TCq2    C3 1737   1.598   3.435   0.489  0.5999  0.7358 -0.2127
  114TCq2    C4 1738   1.500   3.503   0.413 -0.6792 -0.1465  0.8474
  114TCq2    C5 1739   1.375   3.448   0.395 -0.3936 -0.5584 -0.5042
  114TCq2    C6 1740   1.346   3.328   0.445  0.1231  0.2335 -0.2969
  114TCq2    C7 1741   1.435   3.259   0.527  0.4183  0.5990  0.7229
  114TCq2    C8 1742   1.210   3.287   0.421 -0.3940  0.0881  0.4037
  114TCq2    O4 1743   1.161   3.298   0.309  0.4353  0.6402 -0.2625
  114TCq2    C9 1744   1.529   3.635   0.361 -0.1235 -0.3145 -0.0049
  114TCq2    O5 1745   1.653   3.668   0.356  0.0981 -0.1010  0.2085
  114TCq2    O6 1746   1.440   3.695   0.299  0.5005 -0.2091  0.4827
  114TCq2    H2 1747   1.688   3.491   0.513  0.2620  1.2209 -0.0718
  114TCq2    H3 1748   1.303   3.504   0.337  0.9638  0.8905 -0.7870
  114TCq2    H4 1749   1.409   3.161   0.566  0.4101 -0.0834 -0.9570
  115TMC2    C1 1750   1.842   1.425   0.238  0.3988 -0.0277 -0.3248
  115TMC2    C2 1751   1.837   1.418   0.375 -0.1578  0.3579 -0.2482
  115TMC2    C3 1752   1.749   1.504   0.439 -0.3397 -0.9302  0.3033
  115TMC2    C4 1753   1.772   1.523   0.170 -0.4268 -0.6100  0.0822
  115TMC2    C5 1754   1.677   1.593   0.236 -0.7203  0.2304 -0.0215
  115TMC2    C6 1755   1.660   1.587   0.374 -0.3081 -0.5534 -0.4184
  115TMC2     C 1756   1.894   1.319   0.158 -1.2543  0.2413 -0.2466
  115TMC2     O 1757   1.853   1.310   0.043  0.3586 -0.2129 -0.1210
  115TMC2     H 1758   1.885   1.341   0.433  1.2087  1.6618  0.3689
  115TMC2    H1 1759   1.770   1.530   0.062  1.5969  0.8352  0.1416
  115TMC2    H2 1760   1.589   1.652   0.422  1.0968  0.1648  0.6847
  115TMC2    C7 1761   1.633   1.717   0.174  0.0582  0.0151  0.1833
  115TMC2    C8 1762   1.721   1.498   0.582 -0.2064  0.6538 -0.2200
  115TMC2    O1 1763   1.546   1.778   0.236  0.5367 -0.0281 -0.4897
  115TMC2    O2 1764   1.673   1.587   0.650  0.0570 -0.3763 -0.2735
  115TMC2    O5 1765   1.748   1.375   0.620 -0.7739 -0.0578 -0.4060
  115TMC2    H5 1766   1.768   1.304   0.554  2.1036  0.4163 -0.0482
  116MPD2     C 1767   2.176   0.890   0.130 -0.0968  0.6892  0.7065
  116MPD2    C1 1768   2.079   0.942   0.042  0.0687 -0.2401  0.1825
  116MPD2    C2 1769   2.009   1.057   0.081  0.0737 -0.4710  0.0613
  116MPD2    C3 1770   2.038   1.114   0.205  0.0059  0.5142  0.7799
  116MPD2    C4 1771   2.132   1.057   0.288 -0.5165  1.0449  0.0058
  116MPD2    C5 1772   2.204   0.950   0.250  0.6395  0.3125  0.0691
  116MPD2     H 1773   1.923   1.090   0.024 -2.1967 -2.0893  2.5820
  116MPD2    H1 1774   2.160   1.097   0.385  0.9802 -0.1545  0.0650
  116MPD2    H2 1775   2.215   0.792   0.106 -0.3853  0.1638  2.3492
  116MPD2    H3 1776   2.277   0.909   0.318 -1.1968 -1.9550  0.6738
  116MPD2     N 1777   1.968   1.239   0.243  0.1071  0.5861 -0.4855
  116MPD2    H5 1778   1.984   1.274   0.337 -0.6303 -0.3415 -0.0179
  116MPD2    N1 1779   2.034   0.865  17.636 -0.4978  0.1034 -0.3056
  116MPD2    H7 1780   2.082   0.777  17.620  0.4056  0.1866  1.8637
  117TMC2    C1 1781   0.682   2.854  13.886  0.1429  0.0043  0.8361
  117TMC2    C2 1782   0.774   2.751  13.881 -0.1530  0.7485  0.0190
  117TMC2    C3 1783   0.902   2.786  13.924  0.4961  0.0747 -0.1651
  117TMC2    C4 1784   0.711   2.981  13.938 -0.4077 -0.4493 -0.1290
  117TMC2    C5 1785   0.845   3.013  13.954  0.2471  0.1465 -0.3487
  117TMC2    C6 1786   0.937   2.910  13.951  0.1810 -1.0310  0.6085
  117TMC2     C 1787   0.551   2.826  13.837  0.3352 -0.3657  0.3674
  117TMC2     O 1788   0.537   2.745  13.751 -0.3387 -0.1154  0.8268
  117TMC2     H 1789   0.740   2.650  13.862  1.8859  0.6752 -3.2174
  117TMC2    H1 1790   0.646   3.066  13.920 -0.6037 -0.6871 -0.5474
  117TMC2    H2 1791   1.042   2.935  13.957  0.1879 -0.9997  0.3625
  117TMC2    C7 1792   0.890   3.149  13.956  0.0013 -0.6613  0.8378
  117TMC2    C8 1793   1.017   2.704  13.903 -0.3305 -0.3158  0.1203
  117TMC2    O1 1794   0.999   3.164  13.901 -0.0628  0.4862  0.0985
  117TMC2    O2 1795   1.096   2.674  13.992  0.2220 -0.4225  0.3158
  117TMC2    O5 1796   1.045   2.727  13.770  0.3710 -0.2022 -0.6094
  117TMC2    H5 1797   0.972   2.734  13.705  0.4300 -0.2509 -0.6806
  118MPD2     C 1798   0.694   3.442  14.061 -0.0875 -0.4187 -0.0622
  118MPD2    C1 1799   0.791   3.370  13.991 -0.1817 -0.4999  0.9116
  118MPD2    C2 1800   0.862   3.435  13.890 -0.0699 -0.3392 -0.2347
  118MPD2    C3 1801   0.849   3.565  13.863  0.5835  0.0801  0.0229
  118MPD2    C4 1802   0.763   3.638  13.934 -0.3816  0.7099  0.5842
  118MPD2    C5 1803   0.686   3.576  14.027  0.4632 -0.4007  0.3779
  118MPD2     H 1804   0.934   3.380  13.831 -0.0141  0.4483 -0.9149
  118MPD2    H1 1805   0.752   3.745  13.924  0.1732  0.5770 -1.5270
  118MPD2    H2 1806   0.620   3.394  14.125  0.4078 -1.3945 -0.2228
  118MPD2    H3 1807   0.611   3.636  14.079  2.3466  0.8691  1.6538
  118MPD2     N 1808   0.932   3.638  13.767 -0.4444  0.7850  0.2422
  118MPD2    H5 1809   0.906   3.735  13.754 -1.9511  0.2738 -0.5317
  118MPD2    N1 1810   0.802   3.230  14.023 -0.1754  0.3150 -0.2278
  118MPD2    H7 1811   0.736   3.184  14.084 -1.7958 -0.1251 -2.3166
  119MPD2     C 1812   4.066   4.229  13.370 -0.1243 -0.4239  0.4863
  119MPD2    C1 1813   3.936   4.253  13.394  0.4268  0.1383 -0.6209
  119MPD2    C2 1814   3.837   4.192  13.322  0.2455 -0.0231  0.1894
  119MPD2    C3 1815   3.870   4.078  13.245  0.3270 -0.2120  0.1623
  119MPD2    C4 1816   3.999   4.046  13.229 -0.3383 -0.4498  0.1398
  119MPD2    C5 1817   4.103   4.123  13.286 -0.1454  0.4750 -0.3215
  119MPD2     H 1818   3.732   4.219  13.325 -0.5304 -2.6985 -2.0449
  119MPD2    H1 1819   4.016   3.956  13.171  0.9763  0.1695 -0.4311
  119MPD2    H2 1820   4.141   4.286  13.425 -0.7359  1.7770 -0.9443
  119MPD2    H3 1821   4.206   4.091  13.275 -0.1779  0.5018 -0.7022
  119MPD2     N 1822   3.772   3.998  13.190  0.4026 -0.7578 -0.1230
  119MPD2    H5 1823   3.813   3.917  13.145  1.9286  0.5750 -1.1775
  119MPD2    N1 1824   3.907   4.360  13.479 -0.5286 -0.0278  0.1508
  119MPD2    H7 1825   3.985   4.424  13.487 -0.1756 -0.5269  0.6522
  120TCq2    C1 1826   3.634   3.999  13.209 -0.5200  0.3862  0.1330
  120TCq2    O2 1827   3.555   4.082  13.250 -0.3340  0.2986 -0.0750
  120TCq2    C2 1828   3.577   3.878  13.169  0.4742  0.4100 -0.7258
  120TCq2    C3 1829   3.659   3.778  13.136 -0.0411 -0.0880  0.8619
  120TCq2    C4 1830   3.622   3.648  13.155  0.0813 -0.5632  1.0803
  120TCq2    C5 1831   3.508   3.617  13.224  0.8259 -0.0672 -0.1668
  120TCq2    C6 1832   3.431   3.720  13.268  0.1348 -0.2072 -0.4643
  120TCq2    C7 1833   3.467   3.851  13.240  0.4499  0.4220  0.1259
  120TCq2    C8 1834   3.302   3.691  13.327  0.0252  0.1824 -0.2153
  120TCq2    O4 1835   3.238   3.605  13.270 -0.0973 -0.6706  0.6762
  120TCq2    C9 1836   3.707   3.542  13.107 -0.7841 -0.3814  0.1554
  120TCq2    O5 1837   3.823   3.568  13.062  0.7742 -0.3348  0.1675
  120TCq2    O6 1838   3.675   3.421  13.125  0.1117  0.4590  0.0657
  120TCq2    H2 1839   3.750   3.790  13.079  0.0419 -3.1480  0.3227
  120TCq2    H3 1840   3.473   3.515  13.237  0.8536  0.0011  0.4519
  120TCq2    H4 1841   3.408   3.937  13.271 -0.3367  0.0400 -0.2949
  121TMC2    C1 1842   1.210   1.574  14.198 -0.2932 -0.2227  0.1367
  121TMC2    C2 1843   1.130   1.580  14.310 -0.4151 -0.3899 -0.7932
  121TMC2    C3 1844   1.001   1.620  14.296  0.4401 -0.6828 -0.2900
  121TMC2    C4 1845   1.153   1.616  14.077 -0.2810  0.9532  0.2182
  121TMC2    C5 1846   1.024   1.649  14.070 -0.3432 -0.4456  0.7375
  121TMC2    C6 1847   0.947   1.663  14.178 -0.6981 -0.1069  0.6790
  121TMC2     C 1848   1.357   1.578  14.208  0.1059  0.0773 -0.9242
  121TMC2     O 1849   1.408   1.523  14.302  0.2782  0.2129  0.3865
  121TMC2     H 1850   1.161   1.546  14.408 -0.7590 -0.5072 -0.7237
  121TMC2    H1 1851   1.207   1.593  13.986  0.1784  1.1777  0.4328
  121TMC2    H2 1852   0.845   1.695  14.162  0.7875  4.1352 -0.3448
  121TMC2    C7 1853   0.976   1.721  13.947 -0.1634  0.1125  0.6966
  121TMC2    C8 1854   0.915   1.609  14.419 -0.4650 -0.4538 -0.4057
  121TMC2    O1 1855   1.063   1.770  13.879  0.4257 -0.2026  0.2901
  121TMC2    O2 1856   0.802   1.556  14.409 -0.1628  0.2441 -0.0580
  121TMC2    O5 1857   0.994   1.625  14.525  0.4431 -0.3096  0.0771
  121TMC2    H5 1858   1.070   1.680  14.496 -0.2233  0.5008 -0.1248
  122MPD2     C 1859   1.648   1.605  14.156 -0.0788 -0.4299  0.4014
  122MPD2    C1 1860   1.548   1.647  14.072 -0.1010  0.2504  0.4071
  122MPD2    C2 1861   1.588   1.687  13.940 -0.0180  0.3989  0.3765
  122MPD2    C3 1862   1.720   1.683  13.898 -0.2347  0.2079 -0.4240
  122MPD2    C4 1863   1.816   1.651  13.995 -0.4467  0.1676 -0.3382
  122MPD2    C5 1864   1.780   1.614  14.125 -0.6210  0.0966  0.7850
  122MPD2     H 1865   1.515   1.738  13.879  0.0633  0.6523  0.4895
  122MPD2    H1 1866   1.916   1.633  13.958  0.1888  0.3541  1.3099
  122MPD2    H2 1867   1.637   1.566  14.256 -2.5713  0.2815  0.3817
  122MPD2    H3 1868   1.863   1.595  14.192  1.3541  0.7973 -1.4870
  122MPD2     N 1869   1.765   1.715  13.776  0.1487 -0.1135  0.1703
  122MPD2    H5 1870   1.865   1.703  13.761 -0.1340  0.0094 -1.7188
  122MPD2    N1 1871   1.408   1.646  14.098  0.0277  0.1227 -0.2566
  122MPD2    H7 1872   1.349   1.677  14.022  2.2516 -0.0339 -2.0492
  123MPD2     C 1873   2.495   3.948   9.304  1.0199 -0.2373 -0.9976
  123MPD2    C1 1874   2.608   3.910   9.376 -0.2003  0.4124 -0.2956
  123MPD2    C2 1875   2.732   3.952   9.335  0.0704  0.2247 -0.3046
  123MPD2    C3 1876   2.745   4.037   9.226 -0.8293  0.1658 -0.3186
  123MPD2    C4 1877   2.633   4.061   9.150  0.2584 -0.1021 -0.2885
  123MPD2    C5 1878   2.511   4.013   9.187 -0.4416 -0.6307  0.1707
  123MPD2     H 1879   2.823   3.940   9.392 -1.6810  2.4558  2.9577
  123MPD2    H1 1880   2.628   4.113   9.055 -0.3296  3.0355  1.4722
  123MPD2    H2 1881   2.397   3.928   9.346  0.7939  0.5690 -1.1417
  123MPD2    H3 1882   2.424   4.046   9.131  0.3058 -1.5113 -1.4958
  123MPD2     N 1883   2.873   4.077   9.187  0.0944  0.1416  0.0355
  123MPD2    H5 1884   2.937   4.045   9.258  0.5656 -0.4996 -0.6831
  123MPD2    N1 1885   2.590   3.834   9.496  0.2606 -0.2447  0.0296
  123MPD2    H7 1886   2.496   3.809   9.523 -0.0247 -2.6152 -3.1471
  124TCq2    C1 1887   2.919   4.144   9.076 -1.0698  0.0638  0.1320
  124TCq2    O2 1888   2.851   4.183   8.984  0.5483 -0.1139  0.0150
  124TCq2    C2 1889   3.060   4.164   9.072 -0.7166  0.6397 -0.6913
  124TCq2    C3 1890   3.113   4.219   8.959  0.2064 -0.7060 -0.4707
  124TCq2    C4 1891   3.243   4.198   8.930 -0.2070 -0.1935 -0.3086
  124TCq2    C5 1892   3.330   4.132   9.013  0.5664 -0.0010 -0.2443
  124TCq2    C6 1893   3.271   4.079   9.124 -0.0266  0.3965  0.3053
  124TCq2    C7 1894   3.138   4.093   9.154 -0.3423 -0.1655  0.5480
  124TCq2    C8 1895   3.344   3.977   9.202 -0.8159  0.0911 -0.1545
  124TCq2    O4 1896   3.289   3.921   9.298  0.9403 -0.7785  0.2213
  124TCq2    C9 1897   3.297   4.251   8.802  0.0073 -0.3278 -0.3562
  124TCq2    O5 1898   3.230   4.337   8.740  0.8240 -0.0630 -0.0784
  124TCq2    O6 1899   3.407   4.203   8.769  0.2862  0.6633  0.6698
  124TCq2    H2 1900   3.045   4.259   8.885  1.8593  0.0678 -1.5658
  124TCq2    H3 1901   3.431   4.114   8.981  1.6169  3.1830  1.2857
  124TCq2    H4 1902   3.097   4.035   9.236 -1.6449  0.1419  0.1260
  125TMC2    C1 1903   3.271   4.686   9.193  0.0966 -0.2942  0.1896
  125TMC2    C2 1904   3.269   0.086   9.255 -0.2692 -0.2565 -0.1921
  125TMC2    C3 1905   3.389   0.151   9.271  0.6950  0.4299 -0.1128
  125TMC2    C4 1906   3.385   4.622   9.171  0.0780 -0.0015 -0.0909
  125TMC2    C5 1907   3.501   4.692   9.177 -0.3025 -0.0519  0.3431
  125TMC2    C6 1908   3.506   0.104   9.222 -0.6310  0.0227 -0.3889
  125TMC2     C 1909   3.148   4.621   9.143  0.0444 -0.4393 -0.2108
  125TMC2     O 1910   3.150   4.503   9.108 -0.0077 -0.4010  0.4459
  125TMC2     H 1911   3.177   0.128   9.295 -1.1262 -0.3104 -2.1126
  125TMC2    H1 1912   3.376   4.526   9.122  1.2464 -0.2413  0.1729
  125TMC2    H2 1913   3.593   0.164   9.247 -1.1355 -0.1796  1.7887
  125TMC2    C7 1914   3.617   4.640   9.107 -0.1292 -0.2793 -1.4441
  125TMC2    C8 1915   3.387   0.279   9.332 -0.3688  0.0016 -0.2633
  125TMC2    O1 1916   3.621   4.518   9.090  0.4924 -0.2074 -0.0594
  125TMC2    O2 1917   3.484   0.318   9.397 -0.1618  0.1099  0.2853
  125TMC2    O5 1918   3.359   0.345   9.221 -0.1006  0.5106  0.0154
  125TMC2    H5 1919   3.301   0.294   9.160  2.7034 -0.9738 -1.3922
  126MPD1     C 1920   2.670   4.623   8.984 -0.3731  0.3119  0.8509
  126MPD1    C1 1921   2.698   0.029   9.022 -0.2455  0.4584  0.4783
  126MPD1    C2 1922   2.827   0.057   9.073  0.0507 -0.0323 -0.2901
  126MPD1    C3 1923   2.914   4.678   9.091 -0.2527  0.2129  0.0940
  126MPD1    C4 1924   2.869   4.550   9.071  0.7839  0.5047 -0.0949
  126MPD1    C5 1925   2.752   4.519   9.016  0.0470 -0.0226 -0.4744
  126MPD1     H 1926   2.855   0.161   9.086  1.5877 -0.4034 -0.7471
  126MPD1    H1 1927   2.928   4.469   9.112 -0.9235  0.3030  1.9118
  126MPD1    H2 1928   2.580   4.604   8.926 -0.4373 -0.5288  1.2253
  126MPD1    H3 1929   2.708   4.424   8.989  2.7797 -0.8877 -1.8472
  126MPD1     N 1930   3.046   4.712   9.142 -0.4158 -0.1032  0.2492
  126MPD1    H5 1931   3.065   0.086   9.165 -0.5344  0.5106 -2.2804
  126MPD1    N1 1932   2.618   0.139   8.984 -0.0606 -0.0596 -0.2009
  126MPD1    H6 1933   2.519   0.124   8.996 -0.0053 -0.0032  0.3423
  126MPD1    H7 1934   2.643   0.228   9.027 -0.3204 -0.0696 -0.0332
  127MPD2     C 1935   0.536   4.352   9.503 -0.3115 -0.3217  0.2337
  127MPD2    C1 1936   0.585   4.380   9.628  0.2669 -0.2562 -0.7329
  127MPD2    C2 1937   0.604   4.514   9.673  0.1333 -0.1938  0.1499
  127MPD2    C3 1938   0.578   4.613   9.588 -0.4536  0.1559 -0.4100
  127MPD2    C4 1939   0.539   4.584   9.459  0.3264 -0.2652 -0.0574
  127MPD2    C5 1940   0.522   4.451   9.416 -0.1700  0.1796 -0.0355
  127MPD2     H 1941   0.645   4.541   9.770  2.2526  1.3431 -1.1762
  127MPD2    H1 1942   0.517   4.664   9.389  0.9801  0.5185  0.6305
  127MPD2    H2 1943   0.509   4.252   9.470  1.6308 -0.4056 -1.1376
  127MPD2    H3 1944   0.481   4.436   9.317 -0.0731  0.5052 -0.1229
  127MPD2     N 1945   0.587   0.020   9.635  1.0075  0.1267 -0.4033
  127MPD2    H5 1946   0.639   0.045   9.718 -1.5895  1.4409  0.8335
  127MPD2    N1 1947   0.582   4.270   9.715  0.3546 -0.3707 -0.2253
  127MPD2    H7 1948   0.546   4.187   9.669  0.7215 -0.4263 -0.4124
  128TCq2    C1 1949   0.617   4.267   9.850  0.4523 -0.2648 -0.1655
  128TCq2    O2 1950   0.665   4.356   9.920  0.1530 -0.2228 -0.9281
  128TCq2    C2 1951   0.586   4.136   9.910 -0.1522  0.2208  0.3515
  128TCq2    C3 1952   0.568   4.143  10.043  0.3839 -0.0825 -0.1684
  128TCq2    C4 1953   0.523   4.024  10.101  0.0314  1.3032  0.1249
  128TCq2    C5 1954   0.487   3.922  10.025 -0.8994  0.0770 -0.2977
  128TCq2    C6 1955   0.494   3.926   9.886 -0.7829 -0.1457  0.0256
  128TCq2    C7 1956   0.548   4.034   9.828 -0.1234  0.1657  0.3687
  128TCq2    C8 1957   0.430   3.838   9.793  0.4844 -0.0339 -0.2461
  128TCq2    O4 1958   0.445   3.876   9.677  0.2082  0.0433  0.2783
  128TCq2    C9 1959   0.494   4.024  10.243 -0.4988 -0.1352  0.7324
  128TCq2    O5 1960   0.444   3.923  10.298 -0.0116  0.6548  0.0408
  128TCq2    O6 1961   0.506   4.138  10.294  0.1165  0.4097  0.5441
  128TCq2    H2 1962   0.601   4.222  10.110  1.2716 -0.1600 -0.5106
  128TCq2    H3 1963   0.440   3.843  10.082  0.5983  1.3347  2.6654
  128TCq2    H4 1964   0.573   4.037   9.722  1.3628  2.1960  0.7755
  129MPD2     C 1965   3.380   1.374   1.113 -0.4860 -0.2596  0.2451
  129MPD2    C1 1966   3.506   1.315   1.102 -0.2423  0.2566 -0.0109
  129MPD2    C2 1967   3.586   1.342   0.989 -0.2476 -0.5437 -0.7261
  129MPD2    C3 1968   3.539   1.433   0.891  0.7392 -0.1609  0.1414
  129MPD2    C4 1969   3.416   1.487   0.905 -0.2072 -0.2217 -0.3963
  129MPD2    C5 1970   3.339   1.453   1.017 -0.0147 -0.3368 -0.4832
  129MPD2     H 1971   3.688   1.306   0.980  0.0924  0.4187 -0.6894
  129MPD2    H1 1972   3.380   1.539   0.817  1.2624  3.0499  0.9509
  129MPD2    H2 1973   3.304   1.356   1.189 -1.2629  1.5972 -0.0964
  129MPD2    H3 1974   3.237   1.487   1.029  0.5327  1.1175  0.0154
  129MPD2     N 1975   3.622   1.472   0.785  0.2859 -0.1740 -0.1332
  129MPD2    H5 1976   3.718   1.442   0.797  0.4076  0.5052  0.6005
  129MPD2    N1 1977   3.553   1.233   1.211  0.4472  0.7911 -0.1350
  129MPD2    H7 1978   3.647   1.195   1.202  0.7489  0.9763  2.3842
  130TCq2    C1 1979   3.487   1.215   1.326  0.0678  0.1532 -0.1719
  130TCq2    O2 1980   3.381   1.261   1.365  0.2851  0.0589  0.3505
  130TCq2    C2 1981   3.562   1.125   1.416  0.3740 -0.0409 -0.1099
  130TCq2    C3 1982   3.692   1.090   1.408 -0.3438 -0.8849 -0.3645
  130TCq2    C4 1983   3.737   0.979   1.474 -0.1196 -0.6276 -0.0774
  130TCq2    C5 1984   3.654   0.918   1.563 -1.0655  0.1753 -0.4802
  130TCq2    C6 1985   3.523   0.965   1.584  0.4362 -1.0291  0.1438
  130TCq2    C7 1986   3.478   1.066   1.507 -0.1977  0.0098  0.0610
  130TCq2    C8 1987   3.423   0.896   1.660 -0.4900  0.0494 -0.0440
  130TCq2    O4 1988   3.305   0.923   1.646 -0.8411  0.5454  0.3902
  130TCq2    C9 1989   3.875   0.931   1.452 -0.3744  0.1409 -0.1906
  130TCq2    O5 1990   3.939   0.999   1.373 -0.0305  0.4013 -0.1202
  130TCq2    O6 1991   3.916   0.835   1.526 -0.4165  0.1093 -0.0083
  130TCq2    H2 1992   3.755   1.133   1.331 -2.8685 -0.3087 -2.1117
  130TCq2    H3 1993   3.683   0.819   1.594  1.6638  1.6521  1.7125
  130TCq2    H4 1994   3.375   1.096   1.520 -0.1730  0.2787 -0.3539
  131MPD2     C 1995   3.224   3.387  10.106  0.3073 -0.4959 -0.1404
  131MPD2    C1 1996   3.236   3.503  10.032 -0.1001 -0.3867 -0.0519
  131MPD2    C2 1997   3.126   3.556   9.982  0.3523  0.3871 -0.0298
  131MPD2    C3 1998   3.001   3.492  10.000 -0.1647  0.4127  0.3906
  131MPD2    C4 1999   2.992   3.378  10.080 -0.7927 -0.1738 -0.0023
  131MPD2    C5 2000   3.106   3.330  10.133  0.4394  0.5147 -0.5000
  131MPD2     H 2001   3.128   3.647   9.923  3.1225 -0.0489 -0.6217
  131MPD2    H1 2002   2.900   3.321  10.090 -0.6024 -0.3096  1.0092
  131MPD2    H2 2003   3.309   3.336  10.150  0.1215 -1.2303 -0.6329
  131MPD2    H3 2004   3.114   3.236  10.185  0.2292 -0.1341 -1.6458
  131MPD2     N 2005   2.891   3.553   9.942  0.3977 -0.1919  0.0124
  131MPD2    H5 2006   2.916   3.625   9.875  1.1449 -0.8608 -0.4290
  131MPD2    N1 2007   3.366   3.553  10.027 -0.5421  0.6548  0.3133
  131MPD2    H7 2008   3.431   3.512  10.093 -1.5514  0.7207  1.3471
  132TCq2    C1 2009   3.734   3.959  10.104  0.8008  0.0268  0.5112
  132TCq2    O2 2010   3.797   3.966  10.207 -0.0215 -0.4513  0.4928
  132TCq2    C2 2011   3.700   3.825  10.059  0.1834 -0.5690 -0.0307
  132TCq2    C3 2012   3.769   3.718  10.116  0.3890  0.2641 -0.5566
  132TCq2    C4 2013   3.734   3.587  10.087 -0.7270 -0.4355 -0.2376
  132TCq2    C5 2014   3.618   3.559  10.023  0.1530 -0.0485 -0.1863
  132TCq2    C6 2015   3.550   3.674   9.971 -0.1858  0.2026 -0.4821
  132TCq2    C7 2016   3.583   3.802   9.993  0.0516  0.1765 -0.6025
  132TCq2    C8 2017   3.413   3.658   9.957  0.6250 -0.3689 -0.2165
  132TCq2    O4 2018   3.350   3.742   9.894 -0.3511  0.5666 -0.2808
  132TCq2    C9 2019   3.818   3.482  10.138  0.1559 -0.3787  0.4977
  132TCq2    O5 2020   3.908   3.511  10.223 -0.1695  0.4470 -0.2416
  132TCq2    O6 2021   3.779   3.367  10.106  0.3889  0.1862  0.0755
  132TCq2    H2 2022   3.868   3.725  10.159  0.7055  1.0247 -1.3926
  132TCq2    H3 2023   3.594   3.456   9.999  0.3713  0.0671 -0.8909
  132TCq2    H4 2024   3.526   3.889   9.961  0.3135  1.7169  3.0941
  133MPD2     C 2025   2.161   0.727   9.433 -0.6064  0.9953 -0.2781
  133MPD2    C1 2026   2.297   0.726   9.413  0.2532 -0.0433 -0.0563
  133MPD2    C2 2027   2.365   0.612   9.407  0.1495 -0.9128 -0.6669
  133MPD2    C3 2028   2.293   0.496   9.406 -0.0479  0.0902 -0.1505
  133MPD2    C4 2029   2.158   0.495   9.423  0.6679  0.2108  0.0035
  133MPD2    C5 2030   2.092   0.612   9.438 -0.0702 -0.5383 -0.0780
  133MPD2     H 2031   2.473   0.620   9.404 -0.1332  1.6685 -4.7241
  133MPD2    H1 2032   2.108   0.399   9.424 -0.4144  0.7817 -0.4627
  133MPD2    H2 2033   2.107   0.821   9.436  1.2912  2.0198  2.0907
  133MPD2    H3 2034   1.984   0.615   9.438 -0.1075 -1.8347  1.8848
  133MPD2     N 2035   2.352   0.368   9.398 -0.6086  0.8797 -0.0460
  133MPD2    H5 2036   2.291   0.287   9.407 -0.1545  0.9472  3.6664
  133MPD2    N1 2037   2.355   0.855   9.400 -1.0480  0.1372 -0.6039
  133MPD2    H7 2038   2.288   0.931   9.396 -1.1020  0.0357 -1.5265
  134TCq2    C1 2039   2.487   0.879   9.376 -0.5543 -0.1533 -0.2303
  134TCq2    O2 2040   2.582   0.807   9.344  0.2245  0.0366 -0.0453
  134TCq2    C2 2041   2.514   1.017   9.396  0.4712 -0.0106  0.6526
  134TCq2    C3 2042   2.628   1.071   9.343 -0.0843  0.1455 -0.0952
  134TCq2    C4 2043   2.647   1.207   9.352  0.1223  0.0595 -0.4014
  134TCq2    C5 2044   2.562   1.287   9.416  0.1142 -0.3376 -0.5477
  134TCq2    C6 2045   2.449   1.228   9.474  0.0997 -0.7860 -0.0132
  134TCq2    C7 2046   2.431   1.093   9.476  0.7633 -0.0844 -0.2434
  134TCq2    C8 2047   2.348   1.299   9.561  0.9757 -0.1106 -0.0464
  134TCq2    O4 2048   2.245   1.237   9.583  0.2810 -0.5598  0.8383
  134TCq2    C9 2049   2.769   1.259   9.299  0.4010  0.2455  0.3779
  134TCq2    O5 2050   2.837   1.191   9.212  0.3720 -0.0244 -0.3028
  134TCq2    O6 2051   2.769   1.386   9.296 -0.1887 -0.0407  0.2338
  134TCq2    H2 2052   2.698   1.011   9.287 -1.9554 -1.1272 -1.0935
  134TCq2    H3 2053   2.574   1.395   9.418  0.3106 -0.3400 -1.6242
  134TCq2    H4 2054   2.347   1.050   9.529 -1.7343  1.1528 -3.2616
  135MPD2     C 2055   0.192   1.435   9.724 -0.1017 -0.3096 -0.6253
  135MPD2    C1 2056   0.101   1.338   9.694  0.4336  0.5570 -0.1783
  135MPD2    C2 2057   0.145   1.222   9.629 -0.4393  0.3114 -0.7919
  135MPD2    C3 2058   0.281   1.189   9.613  0.3856  0.4485 -1.1686
  135MPD2    C4 2059   0.372   1.284   9.650 -0.8312 -0.2271  0.8545
  135MPD2    C5 2060   0.324   1.403   9.700 -0.1665  0.4749 -0.1582
  135MPD2     H 2061   0.067   1.157   9.591  0.7524 -0.1881 -2.3638
  135MPD2    H1 2062   0.479   1.273   9.663 -0.8460 -0.9228  0.4115
  135MPD2    H2 2063   0.171   1.535   9.762 -0.0424 -0.0857 -1.1763
  135MPD2    H3 2064   0.403   1.471   9.728 -1.9725  0.9451  3.8211
  135MPD2     N 2065   0.308   1.065   9.546 -0.2140 -0.0797 -0.0172
  135MPD2    H5 2066   0.227   1.009   9.522  2.2528 -3.1026 -1.4870
  135MPD2    N1 2067   4.684   1.353   9.703 -0.0514 -0.3043 -0.5807
  135MPD2    H7 2068   4.622   1.276   9.680 -1.5722  0.8509 -0.3017
  136TCq2    C1 2069   4.617   1.468   9.730  0.1554 -0.2503  0.8684
  136TCq2    O2 2070   4.657   1.577   9.764  0.8664 -0.4387  0.2465
  136TCq2    C2 2071   4.480   1.443   9.737 -0.0918  0.9403 -0.1775
  136TCq2    C3 2072   4.419   1.370   9.639 -0.2915  0.4313  0.3571
  136TCq2    C4 2073   4.286   1.327   9.656  0.2332 -0.3026  0.4248
  136TCq2    C5 2074   4.215   1.350   9.772 -0.1603 -0.1133 -0.5617
  136TCq2    C6 2075   4.280   1.419   9.867 -0.1008 -0.4265  0.4012
  136TCq2    C7 2076   4.412   1.472   9.857 -0.3142 -0.0258  0.0377
  136TCq2    C8 2077   4.222   1.416  10.002  0.0406  0.0591 -0.3689
  136TCq2    O4 2078   4.264   1.487  10.092  0.0359  0.2497  0.1337
  136TCq2    C9 2079   4.234   1.230   9.561 -0.1360 -0.8004 -0.1533
  136TCq2    O5 2080   4.316   1.201   9.475  0.2800  0.2840 -0.0846
  136TCq2    O6 2081   4.134   1.160   9.592  0.1018  0.6691 -0.4570
  136TCq2    H2 2082   4.476   1.349   9.549  0.0863  0.2959  0.6266
  136TCq2    H3 2083   4.115   1.308   9.780 -0.9420  1.4416 -2.0355
  136TCq2    H4 2084   4.465   1.522   9.937  0.0920  1.9098 -1.4561
  137MPD2     C 2085   4.582   4.536   9.692 -0.0983 -0.7214  0.0554
  137MPD2    C1 2086   4.619   4.670   9.682 -0.1180 -0.3904  0.0016
  137MPD2    C2 2087   4.632   0.023   9.802  0.6198 -0.5194  0.0198
  137MPD2    C3 2088   4.632   4.680   9.926  0.4869 -0.5495 -0.2038
  137MPD2    C4 2089   4.608   4.542   9.921 -0.1032 -0.2275  0.2114
  137MPD2    C5 2090   4.581   4.472   9.813  0.3855 -0.1395 -0.0485
  137MPD2     H 2091   4.639   0.131   9.798 -1.4068 -0.3972 -0.3171
  137MPD2    H1 2092   4.607   4.479  10.010 -1.8326 -3.3200 -2.0306
  137MPD2    H2 2093   4.574   4.474   9.604 -1.6714 -0.4363  0.0001
  137MPD2    H3 2094   4.552   4.367   9.815  0.0554 -0.0866 -2.8598
  137MPD2     N 2095   4.672   0.018  10.050 -0.5331 -0.2447  0.3529
  137MPD2    H5 2096   4.695   0.117  10.040 -0.6280 -0.1212  1.3201
  137MPD2    N1 2097   4.614   0.003   9.552  0.3825  0.0134 -0.5404
  137MPD2    H7 2098   4.576   4.665   9.480  0.6453 -1.9037  0.9443
  138TCq2    C1 2099   4.665   0.128   9.523  0.7840  0.7927  0.1049
  138TCq2    O2 2100   0.027   0.190   9.587 -0.2472 -0.2128 -0.9647
  138TCq2    C2 2101   4.642   0.150   9.381  0.2659  0.5522 -0.0752
  138TCq2    C3 2102   0.015   0.208   9.307  0.1521  0.2493  0.3522
  138TCq2    C4 2103   4.718   0.210   9.169 -0.5760  0.1296 -0.1767
  138TCq2    C5 2104   4.612   0.146   9.109  0.1671 -0.1837  0.4320
  138TCq2    C6 2105   4.520   0.078   9.189 -0.2689  0.1609  0.0900
  138TCq2    C7 2106   4.536   0.078   9.328 -0.1112 -0.2666  0.5821
  138TCq2    C8 2107   4.430   4.707   9.121  0.5849  0.2199  0.0644
  138TCq2    O4 2108   4.462   4.662   9.013 -0.1726  0.5430 -0.0427
  138TCq2    C9 2109   0.088   0.281   9.084 -0.3969  0.5977 -0.0597
  138TCq2    O5 2110   0.041   0.330   8.980  0.4208  0.2263  0.3458
  138TCq2    O6 2111   0.198   0.305   9.140  0.4352 -0.4066  0.8186
  138TCq2    H2 2112   0.097   0.265   9.349 -1.0535  2.2472 -0.0385
  138TCq2    H3 2113   4.612   0.125   9.003 -0.2317 -0.9931  0.5917
  138TCq2    H4 2114   4.455   0.036   9.387 -0.6112  0.9759  0.7857
  139TMC2    C1 2115   0.623   3.742  13.417  0.3655  0.3575 -0.2650
  139TMC2    C2 2116   0.673   3.816  13.313 -0.4518 -1.6316 -0.2114
  139TMC2    C3 2117   0.623   3.941  13.304  1.4192 -0.3603 -0.5235
  139TMC2    C4 2118   0.510   3.770  13.493 -0.2231 -0.0603 -0.2410
  139TMC2    C5 2119   0.456   3.897  13.465 -0.5260 -0.1489 -1.2015
  139TMC2    C6 2120   0.503   3.980  13.364 -0.2874 -0.1304 -0.5325
  139TMC2     C 2121   0.688   3.615  13.439  0.6385  0.3843  0.1500
  139TMC2     O 2122   0.799   3.605  13.383 -0.1651  0.0772  0.4247
  139TMC2     H 2123   0.765   3.795  13.258 -0.2944 -0.6913 -0.3087
  139TMC2    H1 2124   0.493   3.715  13.585  0.6517  1.5132  0.8603
  139TMC2    H2 2125   0.475   4.083  13.346  0.0968 -0.3089 -2.1182
  139TMC2    C7 2126   0.328   3.941  13.530  0.2837  0.8855  0.2562
  139TMC2    C8 2127   0.655   4.021  13.189  0.1891 -0.7613 -0.1304
  139TMC2    O1 2128   0.293   4.058  13.509 -0.2068 -0.1343 -0.2413
  139TMC2    O2 2129   0.711   3.965  13.096 -0.0482 -0.7460  0.5607
  139TMC2    O5 2130   0.680   4.139  13.240  0.3923 -0.0802 -0.6327
  139TMC2    H5 2131   0.637   4.156  13.326 -0.8902 -0.9067 -1.1186
  140MPD2     C 2132   0.572   3.343  13.651  0.5868 -0.1840 -0.1671
  140MPD2    C1 2133   0.667   3.409  13.576  0.7559 -0.3120  0.0766
  140MPD2    C2 2134   0.786   3.344  13.540  0.0076 -0.2425  0.1274
  140MPD2    C3 2135   0.815   3.217  13.573 -0.3672  0.3245 -0.3787
  140MPD2    C4 2136   0.716   3.148  13.641 -0.3792 -0.1527  0.0178
  140MPD2    C5 2137   0.600   3.212  13.678 -0.9678  1.1744 -0.1298
  140MPD2     H 2138   0.865   3.401  13.491 -0.2061 -1.1830 -1.2899
  140MPD2    H1 2139   0.731   3.042  13.652  0.9317 -0.4555 -5.1040
  140MPD2    H2 2140   0.473   3.377  13.676 -0.0541 -1.4738 -0.9643
  140MPD2    H3 2141   0.528   3.157  13.738 -0.9793  0.3340 -0.9051
  140MPD2     N 2142   0.940   3.161  13.528 -0.4562 -0.4402  0.5973
  140MPD2    H5 2143   1.002   3.227  13.483 -0.3278 -0.4028  0.8315
  140MPD2    N1 2144   0.627   3.534  13.529  0.2775  0.1999  0.0082
  140MPD2    H7 2145   0.539   3.570  13.563 -1.8430 -2.0594 -3.0669
  141TCq2    C1 2146   1.478   1.452  13.524 -0.3890 -0.6887  0.0895
  141TCq2    O2 2147   1.526   1.409  13.418 -0.3655 -0.0461  0.1380
  141TCq2    C2 2148   1.540   1.407  13.643  0.1491 -0.0002 -0.1355
  141TCq2    C3 2149   1.677   1.376  13.649  0.2161 -0.2585 -0.1290
  141TCq2    C4 2150   1.727   1.335  13.768  0.5352 -0.2740  0.1121
  141TCq2    C5 2151   1.648   1.307  13.873 -0.4202 -0.2270  0.4362
  141TCq2    C6 2152   1.512   1.343  13.863 -0.2987  1.1714 -0.0647
  141TCq2    C7 2153   1.456   1.385  13.750 -0.2953 -0.5953  0.2015
  141TCq2    C8 2154   1.424   1.297  13.968 -0.1304  0.2545  0.5115
  141TCq2    O4 2155   1.301   1.302  13.958  0.1551  0.1137  0.8867
  141TCq2    C9 2156   1.870   1.323  13.789 -0.0191  0.6926 -0.5199
  141TCq2    O5 2157   1.946   1.367  13.702 -0.1093  0.4774  0.0127
  141TCq2    O6 2158   1.916   1.289  13.902 -0.0979  0.1847  0.2627
  141TCq2    H2 2159   1.733   1.377  13.556 -0.4985 -2.0800 -0.5790
  141TCq2    H3 2160   1.695   1.285  13.968  2.2151  0.0050 -0.8031
  141TCq2    H4 2161   1.350   1.408  13.756  0.6460  3.7329  0.0851
  142MPD2     C 2162   3.129   2.869  10.073 -0.1733  0.6050 -0.0773
  142MPD2    C1 2163   3.118   2.893   9.942  0.0063 -0.0765 -0.3259
  142MPD2    C2 2164   3.203   2.986   9.883 -0.1796  0.6948 -0.3167
  142MPD2    C3 2165   3.300   3.049   9.955 -0.2392  0.4708  0.1717
  142MPD2    C4 2166   3.320   3.010  10.087 -0.4261  0.3684  0.0113
  142MPD2    C5 2167   3.234   2.927  10.147 -0.3310 -0.2833  0.3807
  142MPD2     H 2168   3.199   3.022   9.781 -1.0848  0.3933 -0.3878
  142MPD2    H1 2169   3.399   3.048  10.149  0.5458  0.2329 -1.1370
  142MPD2    H2 2170   3.065   2.792  10.116 -1.1509  1.6389  0.3204
  142MPD2    H3 2171   3.239   2.897  10.251 -1.5573  3.3506  1.4858
  142MPD2     N 2172   3.396   3.138   9.905 -0.6397  0.7969 -0.1479
  142MPD2    H5 2173   3.462   3.184   9.967  1.2115 -0.9833 -0.7807
  142MPD2    N1 2174   3.030   2.813   9.865 -0.1341 -0.4268  0.2207
  142MPD2    H7 2175   2.991   2.727   9.901 -2.3314 -0.0264 -1.1671
  143TCq2    C1 2176   3.370   3.222   9.801  0.5639  0.0805  0.3194
  143TCq2    O2 2177   3.276   3.224   9.722  0.0928 -0.2678  0.3376
  143TCq2    C2 2178   3.480   3.308   9.783  0.0318 -0.2995 -0.2113
  143TCq2    C3 2179   3.606   3.266   9.814 -0.2223  0.1660  0.0839
  143TCq2    C4 2180   3.711   3.335   9.754  0.3267  0.3679 -0.2047
  143TCq2    C5 2181   3.693   3.455   9.688 -0.9131  0.3140 -0.3022
  143TCq2    C6 2182   3.569   3.500   9.666 -0.1071  0.5048  0.0884
  143TCq2    C7 2183   3.461   3.418   9.702  0.3333  0.7284 -0.0805
  143TCq2    C8 2184   3.537   3.613   9.577  0.4819  0.4035  0.2703
  143TCq2    O4 2185   3.419   3.642   9.559  0.2817 -0.1170 -0.1019
  143TCq2    C9 2186   3.845   3.292   9.784  0.2627 -0.3070  0.7848
  143TCq2    O5 2187   3.857   3.188   9.852  0.0791  0.3581  0.4237
  143TCq2    O6 2188   3.938   3.362   9.729 -0.0226  0.0262  0.6950
  143TCq2    H2 2189   3.633   3.176   9.868 -2.3376 -0.5814 -0.1207
  143TCq2    H3 2190   3.782   3.502   9.647  0.3386 -0.6095  1.3451
  143TCq2    H4 2191   3.361   3.440   9.665 -0.9514 -2.5720  1.4744
  144MPD2     C 2192   1.059   2.847   0.323 -0.3783  0.2012  0.1145
  144MPD2    C1 2193   1.048   2.707   0.311  0.3100  0.6100  0.8053
  144MPD2    C2 2194   1.101   2.629   0.413 -0.3577 -0.1761  0.1656
  144MPD2    C3 2195   1.171   2.682   0.520  0.3973  0.5858 -0.1199
  144MPD2    C4 2196   1.176   2.820   0.532  0.0735  0.1176  0.4323
  144MPD2    C5 2197   1.121   2.897   0.435  0.8705 -0.5794  0.5202
  144MPD2     H 2198   1.077   2.523   0.414  1.9197 -0.7017 -0.8688
  144MPD2    H1 2199   1.243   2.865   0.604  0.1785 -0.6596  0.8281
  144MPD2    H2 2200   1.030   2.920   0.248  0.0304  0.5081  0.2558
  144MPD2    H3 2201   1.135   3.004   0.443 -0.0202 -0.5067  1.1209
  144MPD2     N 2202   1.242   2.604   0.612  0.0629 -0.3065 -0.3168
  144MPD2    H5 2203   1.307   2.653   0.672  0.7447  1.9854 -2.9136
  144MPD2    N1 2204   0.994   2.635   0.201  0.0032 -0.2825  0.1214
  144MPD2    H7 2205   0.987   2.534   0.210  1.0572 -0.2889  0.8109
  145TCq2    C1 2206   1.239   2.466   0.617 -0.1591  0.0532 -0.0979
  145TCq2    O2 2207   1.182   2.385   0.549 -0.7263 -0.1041 -0.6618
  145TCq2    C2 2208   1.355   2.417   0.692 -0.2348  0.1002 -0.2176
  145TCq2    C3 2209   1.397   2.294   0.658  0.0203 -0.4702 -0.1336
  145TCq2    C4 2210   1.497   2.236   0.727  0.7368 -0.4512 -0.2813
  145TCq2    C5 2211   1.557   2.304   0.830  0.0424 -0.4360 -0.3454
  145TCq2    C6 2212   1.512   2.429   0.867  0.0218 -0.5172  0.1241
  145TCq2    C7 2213   1.406   2.489   0.795 -0.3182  0.5876  0.0367
  145TCq2    C8 2214   1.574   2.487   0.986 -0.4886  0.2584  1.1354
  145TCq2    O4 2215   1.646   2.412   1.048 -0.0897 -0.2550  0.3916
  145TCq2    C9 2216   1.528   2.096   0.710 -0.0446 -0.7888  0.2982
  145TCq2    O5 2217   1.587   2.032   0.801  0.2084 -0.3461  0.0426
  145TCq2    O6 2218   1.530   2.052   0.590  0.3971  0.0217 -0.1603
  145TCq2    H2 2219   1.345   2.229   0.589 -2.1071 -0.2605  1.2407
  145TCq2    H3 2220   1.631   2.243   0.882  1.9686 -1.4431 -4.2806
  145TCq2    H4 2221   1.373   2.591   0.814  0.4405  0.7093  0.7270
  146TMC2    C1 2222   2.729   1.397  12.602 -0.2610 -0.8480  0.5038
  146TMC2    C2 2223   2.597   1.434  12.594 -0.1143  0.0561  0.5188
  146TMC2    C3 2224   2.508   1.357  12.527 -0.0355 -0.0839  0.5413
  146TMC2    C4 2225   2.769   1.282  12.547  0.0941 -0.2146 -0.7312
  146TMC2    C5 2226   2.678   1.203  12.477  0.7931  0.2640  0.4903
  146TMC2    C6 2227   2.543   1.240  12.467  0.5544 -0.4979 -0.3740
  146TMC2     C 2228   2.808   1.469  12.698 -1.1241  0.2234 -0.2793
  146TMC2     O 2229   2.784   1.588  12.701  0.0838  0.2580  0.1781
  146TMC2     H 2230   2.571   1.533  12.629  2.2781  0.6735  0.5240
  146TMC2    H1 2231   2.873   1.252  12.550 -0.3183 -1.7077 -1.5236
  146TMC2    H2 2232   2.473   1.198  12.395 -1.0863  0.7514  0.4975
  146TMC2    C7 2233   2.724   1.096  12.391 -0.3043 -0.6009  0.0207
  146TMC2    C8 2234   2.403   1.416  12.459  0.2740  0.2742 -0.2764
  146TMC2    O1 2235   2.643   1.065  12.305  0.2612 -0.1402 -0.1342
  146TMC2    O2 2236   2.295   1.360  12.439  0.0428  0.1203  0.3322
  146TMC2    O5 2237   2.463   1.490  12.363 -0.0466  0.2233  0.0889
  146TMC2    H5 2238   2.561   1.487  12.369  0.0918  1.7967 -1.4658
  147MPD2     C 2239   3.082   0.782  12.213 -1.0395  0.3982 -1.0388
  147MPD2    C1 2240   3.096   0.792  12.348  0.2535  0.5588  0.0032
  147MPD2    C2 2241   3.015   0.878  12.416 -0.4887  0.1208  0.6743
  147MPD2    C3 2242   2.918   0.954  12.345 -0.3393 -0.2260 -0.2795
  147MPD2    C4 2243   2.905   0.940  12.208  1.2043  0.4090  0.1600
  147MPD2    C5 2244   2.982   0.848  12.144  0.1207  0.1447 -0.5205
  147MPD2     H 2245   3.019   0.880  12.524 -1.9741 -1.6769  0.7690
  147MPD2    H1 2246   2.840   1.015  12.166 -0.5896 -1.7252 -0.9199
  147MPD2    H2 2247   3.134   0.710  12.150  0.8311  0.7447  0.1246
  147MPD2    H3 2248   2.972   0.822  12.040  0.7826 -1.9935 -0.0661
  147MPD2     N 2249   2.844   1.036  12.426 -0.4623 -0.3101  0.0574
  147MPD2    H5 2250   2.874   1.039  12.523  0.5360  2.7469 -0.3607
  147MPD2    N1 2251   3.193   0.708  12.406 -0.4669 -0.4336  0.3405
  147MPD2    H7 2252   3.239   0.646  12.340 -0.0072 -0.5904  0.8048
  148MPD2     C 2253   2.587   0.108  10.155  0.1821 -0.3703  0.3422
  148MPD2    C1 2254   2.680   0.008  10.165 -0.9076  0.0944  0.0501
  148MPD2    C2 2255   2.646   4.607  10.112 -0.3040  0.2525 -0.1169
  148MPD2    C3 2256   2.517   4.574  10.067 -0.0501  0.4282  0.4220
  148MPD2    C4 2257   2.420   4.676  10.059 -0.4275  0.2049 -0.5994
  148MPD2    C5 2258   2.455   0.080  10.107  0.5692  0.2985 -0.1777
  148MPD2     H 2259   2.721   4.529  10.112 -0.6729 -0.1055  0.2422
  148MPD2    H1 2260   2.324   4.653  10.014  0.6393 -0.3293 -2.6401
  148MPD2    H2 2261   2.599   0.206  10.200 -0.3231  0.4213 -1.2259
  148MPD2    H3 2262   2.382   0.160  10.116  1.5361  1.2759 -1.1058
  148MPD2     N 2263   2.478   4.449  10.021  0.2913  0.1324 -0.3468
  148MPD2    H5 2264   2.388   4.451   9.974  2.1832 -1.3973 -4.0445
  148MPD2    N1 2265   2.804   0.025  10.218 -0.1780 -0.0136  0.0936
  148MPD2    H7 2266   2.868   4.669  10.210  3.0114  2.2028  3.5373
  149TCq2    C1 2267   2.866   0.134  10.270 -0.1081 -0.0813 -0.7047
  149TCq2    O2 2268   2.822   0.249  10.275  0.0700 -0.1882  0.2329
  149TCq2    C2 2269   3.004   0.119  10.287  0.4995 -0.0102  0.0632
  149TCq2    C3 2270   3.081   0.233  10.313  0.0479 -0.9328 -0.2944
  149TCq2    C4 2271   3.219   0.219  10.320  0.2685 -0.1196 -0.1718
  149TCq2    C5 2272   3.284   0.100  10.305  0.3628 -0.8637 -0.3056
  149TCq2    C6 2273   3.204   4.712  10.277 -0.0434  0.0991 -0.5516
  149TCq2    C7 2274   3.066   4.721  10.263  0.3144 -0.1738 -0.3456
  149TCq2    C8 2275   3.268   4.587  10.276 -0.3714  0.5901  0.0660
  149TCq2    O4 2276   3.201   4.501  10.226  0.0002  0.0032 -0.5604
  149TCq2    C9 2277   3.297   0.322  10.390  0.2302 -1.2552  0.2596
  149TCq2    O5 2278   3.420   0.311  10.376  0.1291  0.0516  0.4483
  149TCq2    O6 2279   3.237   0.407  10.457  0.9071 -0.1337  0.0520
  149TCq2    H2 2280   3.029   0.327  10.325 -1.4480 -1.5457 -1.9219
  149TCq2    H3 2281   3.390   0.094  10.327  0.3492  0.1132  0.0098
  149TCq2    H4 2282   3.027   4.629  10.221 -0.1336 -0.9343  1.7855
  150MPD2     C 2283   4.560   3.841  12.327 -0.0418 -0.1669  0.3629
  150MPD2    C1 2284   4.615   3.867  12.203  0.0490  0.8773  0.0360
  150MPD2    C2 2285   0.007   3.947  12.199  0.3665 -0.8913 -0.5154
  150MPD2    C3 2286   0.067   3.980  12.322  0.6889  0.0875  0.1703
  150MPD2    C4 2287   0.013   3.949  12.450 -0.4001  0.3207  0.0381
  150MPD2    C5 2288   4.619   3.884  12.446 -0.3793 -0.5030 -0.1809
  150MPD2     H 2289   0.063   3.955  12.106 -0.5989  2.6481 -0.7940
  150MPD2    H1 2290   0.066   3.977  12.540 -0.3933 -3.7161  1.2820
  150MPD2    H2 2291   4.467   3.786  12.336 -0.6113  0.1224 -3.6399
  150MPD2    H3 2292   4.578   3.846  12.539  0.7423  0.0206  0.5227
  150MPD2     N 2293   0.187   4.057  12.310  0.1104  0.3500  0.7851
  150MPD2    H5 2294   0.218   4.078  12.216 -0.5310 -0.4549  0.3883
  150MPD2    N1 2295   4.552   3.820  12.093 -0.0367  0.0237  0.0694
  150MPD2    H7 2296   4.477   3.752  12.101 -0.0263  0.2118  1.7666
  151TCq2    C1 2297   0.263   4.108  12.416  0.3643  0.1555  0.0481
  151TCq2    O2 2298   0.260   4.088  12.534 -0.1534  0.0122 -0.3427
  151TCq2    C2 2299   0.366   4.193  12.364  0.5165  0.3689 -0.0888
  151TCq2    C3 2300   0.332   4.264  12.253  0.4042 -0.2910 -0.1818
  151TCq2    C4 2301   0.426   4.356  12.216  0.1415  0.2145  0.4103
  151TCq2    C5 2302   0.530   4.389  12.295 -0.2892  0.0407  1.0913
  151TCq2    C6 2303   0.560   4.320  12.403  0.5874  0.0526  0.2389
  151TCq2    C7 2304   0.471   4.219  12.441  0.1615  0.1303  0.3647
  151TCq2    C8 2305   0.678   4.356  12.487  0.7854  0.1787  0.9617
  151TCq2    O4 2306   0.703   4.475  12.492  0.3519  0.0564 -0.0009
  151TCq2    C9 2307   0.386   4.435  12.093 -0.0355 -0.1322 -0.4664
  151TCq2    O5 2308   0.454   4.538  12.075 -0.3105 -0.0369 -0.1542
  151TCq2    O6 2309   0.324   4.367  12.006 -1.4841  0.3145 -0.5059
  151TCq2    H2 2310   0.246   4.259  12.188  0.3637 -3.0824  0.0949
  151TCq2    H3 2311   0.589   4.478  12.276  2.0405 -1.9046 -0.9715
  151TCq2    H4 2312   0.485   4.166  12.534 -0.7268  1.1013  1.0592
  152MPD2     C 2313   4.389   3.297  12.955  0.4472 -0.1694 -0.0404
  152MPD2    C1 2314   4.374   3.414  12.891  0.5939  0.2718  0.5960
  152MPD2    C2 2315   4.254   3.444  12.837 -0.0548  0.7701  0.2808
  152MPD2    C3 2316   4.141   3.373  12.859  0.0719  0.1567  0.0124
  152MPD2    C4 2317   4.157   3.261  12.938 -0.7353 -0.0682 -0.3641
  152MPD2    C5 2318   4.276   3.223  12.985 -0.4751  0.2680  0.2718
  152MPD2     H 2319   4.247   3.527  12.768 -4.2281  0.1123 -0.0823
  152MPD2    H1 2320   4.075   3.191  12.949 -2.3660  2.2524  2.2423
  152MPD2    H2 2321   4.487   3.270  12.993  0.5301  0.6518  0.3369
  152MPD2    H3 2322   4.291   3.133  13.044  2.9761  0.6694  0.0313
  152MPD2     N 2323   4.018   3.424  12.800  0.6563  0.5534  0.0119
  152MPD2    H5 2324   4.031   3.511  12.750  0.7323  0.8682  0.5705
  152MPD2    N1 2325   4.491   3.489  12.870 -0.1461 -0.4245 -0.4099
  152MPD2    H7 2326   4.571   3.454  12.922  0.7351  0.0178 -1.4653
  153TCq2    C1 2327   4.507   3.613  12.812 -0.8075 -0.2176  0.0480
  153TCq2    O2 2328   4.428   3.693  12.763 -0.6722  0.1288 -0.5690
  153TCq2    C2 2329   4.650   3.652  12.817  0.2774  0.1250  0.7647
  153TCq2    C3 2330   0.028   3.549  12.836  0.5525 -0.4142 -0.3720
  153TCq2    C4 2331   0.158   3.587  12.835  0.0122 -0.2579  0.8825
  153TCq2    C5 2332   0.187   3.726  12.827  0.4853  0.0096  0.1759
  153TCq2    C6 2333   0.087   3.817  12.816  0.5536  0.0672  0.8779
  153TCq2    C7 2334   4.675   3.781  12.799  1.1831  0.3453 -0.1109
  153TCq2    C8 2335   0.106   3.955  12.844 -0.2485  0.4655  0.4817
  153TCq2    O4 2336   0.005   4.027  12.851  0.1349 -0.3561  0.1519
  153TCq2    C9 2337   0.271   3.507  12.850 -0.4783  0.0011  0.0612
  153TCq2    O5 2338   0.243   3.408  12.926  0.0112  0.0086  0.3570
  153TCq2    O6 2339   0.378   3.535  12.792  0.0459  0.3767  0.8691
  153TCq2    H2 2340   0.008   3.443  12.831 -4.1152  0.4734 -0.7261
  153TCq2    H3 2341   0.293   3.749  12.829  0.8737 -1.7361 -0.3255
  153TCq2    H4 2342   4.598   3.857  12.808 -0.2774 -1.1535  0.0093
  154MPD2     C 2343   2.130   4.362   0.420  0.1229 -1.2772  0.4096
  154MPD2    C1 2344   2.123   4.228   0.452  0.8229 -0.4246 -0.7928
  154MPD2    C2 2345   2.033   4.187   0.545  0.2060  0.5231  0.4398
  154MPD2    C3 2346   1.940   4.275   0.600 -0.4401  0.2944 -0.0404
  154MPD2    C4 2347   1.956   4.415   0.582  0.7489  0.0944  0.1512
  154MPD2    C5 2348   2.049   4.451   0.485 -0.4496 -0.3241  0.1626
  154MPD2     H 2349   2.014   4.082   0.564  0.2942  0.3009 -0.7209
  154MPD2    H1 2350   1.897   4.492   0.631 -0.1033  0.2400 -1.1283
  154MPD2    H2 2351   2.191   4.411   0.345  0.2384 -0.5030  1.0141
  154MPD2    H3 2352   2.059   4.558   0.472 -1.7161 -0.4230 -1.5246
  154MPD2     N 2353   1.851   4.214   0.685 -0.1733 -0.1994  0.2467
  154MPD2    H5 2354   1.877   4.126   0.729 -1.2729 -0.2494  0.7796
  154MPD2    N1 2355   2.208   4.139   0.384  0.2350  0.1398 -0.2314
  154MPD2    H7 2356   2.262   4.181   0.309  0.6617 -1.1287 -0.6357
  155TCq2    C1 2357   2.225   4.004   0.422 -0.2513 -0.3351 -0.4066
  155TCq2    O2 2358   2.203   3.950   0.527  0.8524  0.2177 -0.3246
  155TCq2    C2 2359   2.330   3.940   0.346  0.2914  0.7243  0.1706
  155TCq2    C3 2360   2.393   3.830   0.405 -0.6083  0.4262 -0.4921
  155TCq2    C4 2361   2.500   3.771   0.340  0.4298 -0.1276  0.7650
  155TCq2    C5 2362   2.549   3.822   0.224  0.5738 -0.4982  0.4176
  155TCq2    C6 2363   2.477   3.929   0.176 -0.6117 -0.1255 -0.4081
  155TCq2    C7 2364   2.377   3.991   0.233 -0.4543 -0.0590  0.6407
  155TCq2    C8 2365   2.518   3.962   0.037  0.1382 -0.7951  0.3049
  155TCq2    O4 2366   2.547   3.869  17.657 -0.1006 -0.0573  0.4826
  155TCq2    C9 2367   2.549   3.648   0.396 -0.4592 -0.1319  0.9939
  155TCq2    O5 2368   2.499   3.599   0.501 -0.1362  0.1820 -0.2068
  155TCq2    O6 2369   2.643   3.592   0.325 -0.0558 -0.3795  0.2748
  155TCq2    H2 2370   2.362   3.778   0.495 -1.3081 -0.8518 -1.4615
  155TCq2    H3 2371   2.631   3.786   0.163 -0.5718 -0.7426 -0.9758
  155TCq2    H4 2372   2.319   4.063   0.177  1.7020  1.0365 -0.1692
  156MPD2     C 2373   0.207   1.085  11.816  0.8706 -0.1348 -0.3734
  156MPD2    C1 2374   0.254   1.197  11.743  0.6480  0.4117  0.0088
  156MPD2    C2 2375   0.356   1.280  11.786 -0.2999  0.2366  0.3835
  156MPD2    C3 2376   0.410   1.253  11.909 -0.4656 -0.1761 -0.2409
  156MPD2    C4 2377   0.366   1.148  11.987  0.0543 -0.2705  0.3799
  156MPD2    C5 2378   0.274   1.061  11.934 -0.1228 -0.5957  0.0069
  156MPD2     H 2379   0.383   1.365  11.724 -0.3221 -0.2806 -0.3420
  156MPD2    H1 2380   0.395   1.119  12.087  0.4815 -1.2721 -0.0334
  156MPD2    H2 2381   0.127   1.019  11.784 -0.4262  0.9089  0.7571
  156MPD2    H3 2382   0.242   0.969  11.982  2.1170 -0.8127  1.0875
  156MPD2     N 2383   0.493   1.353  11.970 -0.1717 -0.1055 -0.4698
  156MPD2    H5 2384   0.537   1.425  11.913  0.0963 -0.7522 -1.0936
  156MPD2    N1 2385   0.178   1.218  11.629 -0.4830 -0.1225 -0.2422
  156MPD2    H7 2386   0.101   1.154  11.612 -0.3327 -0.3313 -0.1307
  157TCq2    C1 2387   0.199   1.321  11.535  0.5651 -0.0217  0.7799
  157TCq2    O2 2388   0.269   1.422  11.545 -0.2983  0.7092  0.0680
  157TCq2    C2 2389   0.102   1.328  11.429  0.0026 -0.4989  0.6007
  157TCq2    C3 2390   0.032   1.218  11.398 -0.3973  0.5441  0.3832
  157TCq2    C4 2391   4.628   1.228  11.340 -0.0322 -0.7393 -0.1300
  157TCq2    C5 2392   4.578   1.351  11.323 -0.0040  0.4644 -0.4428
  157TCq2    C6 2393   4.656   1.462  11.349 -0.3240  0.1664 -0.6945
  157TCq2    C7 2394   0.057   1.449  11.398 -0.1329  0.2877 -0.2837
  157TCq2    C8 2395   4.604   1.600  11.361 -1.3648  0.5289  1.0283
  157TCq2    O4 2396   4.681   1.693  11.364 -0.4074  0.2514  0.9371
  157TCq2    C9 2397   4.547   1.111  11.319 -0.1524  0.5695 -0.1412
  157TCq2    O5 2398   4.437   1.118  11.257  0.7032 -0.1806  0.2009
  157TCq2    O6 2399   4.596   1.007  11.366 -0.3241 -0.3501  0.2563
  157TCq2    H2 2400   0.064   1.122  11.437  1.5967  0.2084 -2.1046
  157TCq2    H3 2401   4.480   1.357  11.278  0.0346 -1.3727 -0.7709
  157TCq2    H4 2402   0.105   1.535  11.443 -0.2007  0.3706 -0.3702
  158TMC2    C1 2403   0.499   0.617  13.441  0.5093  0.1384  0.4033
  158TMC2    C2 2404   0.527   0.693  13.320 -0.5647 -0.1301 -0.0949
  158TMC2    C3 2405   0.435   0.689  13.218  0.0937 -0.4878  0.5708
  158TMC2    C4 2406   0.379   0.549  13.461 -0.6774  0.4244  0.7299
  158TMC2    C5 2407   0.286   0.559  13.366  0.5996 -0.7296 -0.5213
  158TMC2    C6 2408   0.319   0.617  13.247 -0.3728 -0.1484  0.0764
  158TMC2     C 2409   0.566   0.674  13.558 -0.3648  0.1742 -0.0566
  158TMC2     O 2410   0.635   0.773  13.539 -0.5882  0.1300 -0.0376
  158TMC2     H 2411   0.623   0.743  13.311  0.3348 -1.7646  0.3894
  158TMC2    H1 2412   0.352   0.502  13.555  1.3951  1.2106  1.7010
  158TMC2    H2 2413   0.251   0.617  13.162 -1.5157  1.7540  0.9726
  158TMC2    C7 2414   0.168   0.470  13.367  0.3961 -0.6003 -0.0736
  158TMC2    C8 2415   0.421   0.807  13.143  0.4152 -0.3735 -0.7889
  158TMC2    O1 2416   0.114   0.473  13.260  0.1688 -0.9678 -0.4252
  158TMC2    O2 2417   0.309   0.859  13.129  0.1399  0.3255 -0.3415
  158TMC2    O5 2418   0.538   0.876  13.150 -0.1388  0.3420 -0.6431
  158TMC2    H5 2419   0.611   0.810  13.148 -0.6096 -0.1629 -1.0639
  159MPD2     C 2420   0.673   0.755  14.050  0.2515 -0.2774  0.5815
  159MPD2    C1 2421   0.589   0.653  14.039 -0.2907  0.7870  0.0071
  159MPD2    C2 2422   0.535   0.619  13.915  0.4311  0.1814 -0.6707
  159MPD2    C3 2423   0.589   0.671  13.801 -0.9386 -0.1697 -0.3611
  159MPD2    C4 2424   0.679   0.779  13.817 -0.3633 -0.6459 -0.1074
  159MPD2    C5 2425   0.707   0.824  13.938 -0.2337  0.0020  0.2732
  159MPD2     H 2426   0.457   0.544  13.901 -1.8531  2.4134  0.1196
  159MPD2    H1 2427   0.708   0.836  13.730 -3.6175  0.1983 -0.6550
  159MPD2    H2 2428   0.698   0.788  14.150  0.8856 -2.7192  1.2242
  159MPD2    H3 2429   0.770   0.912  13.942  0.8323 -0.7996  1.1274
  159MPD2     N 2430   0.541   0.617  13.681  0.4403  0.2124  0.1548
  159MPD2    H5 2431   0.482   0.534  13.687 -0.8547  1.0443 -0.8793
  159MPD2    N1 2432   0.543   0.600  14.162 -0.3706  0.1776  0.0449
  159MPD2    H7 2433   0.571   0.650  14.246  2.2996  1.1176 -1.3974
  160TMC2    C1 2434   4.563   4.111   1.511  0.4134 -0.9198  0.2858
  160TMC2    C2 2435   4.500   4.160   1.401 -0.0096  0.4144 -0.7661
  160TMC2    C3 2436   4.556   4.131   1.278  0.2577 -0.0571 -0.5454
  160TMC2    C4 2437   4.692   4.075   1.498  0.0086 -0.9132  0.2398
  160TMC2    C5 2438   0.029   4.068   1.375  0.1702 -0.8652 -0.3273
  160TMC2    C6 2439   4.686   4.101   1.255  0.2976  0.6089 -0.6699
  160TMC2     C 2440   4.519   4.165   1.638 -0.1968  0.5252  0.6707
  160TMC2     O 2441   4.605   4.199   1.715 -0.1791 -0.8101 -0.9135
  160TMC2     H 2442   4.394   4.185   1.408 -0.6157 -2.0849 -1.2542
  160TMC2    H1 2443   0.026   4.035   1.581  0.7825 -0.4660 -0.0734
  160TMC2    H2 2444   4.717   4.075   1.154 -0.2038 -1.9706 -0.1824
  160TMC2    C7 2445   0.153   3.983   1.358 -0.0595  0.4434 -0.0658
  160TMC2    C8 2446   4.478   4.167   1.163 -0.2531  0.5041 -0.8315
  160TMC2    O1 2447   0.189   3.906   1.447 -0.2040  0.3234 -0.2077
  160TMC2    O2 2448   4.497   4.263   1.092 -0.0925  0.2117 -0.4662
  160TMC2    O5 2449   4.356   4.127   1.201 -0.4699 -0.4117  0.3513
  160TMC2    H5 2450   4.349   4.047   1.257 -0.9986 -1.0262 -0.5994
  161MPD2     C 2451   4.391   4.282   1.876 -0.1196 -0.3145 -0.7962
  161MPD2    C1 2452   4.328   4.192   1.783  0.3532 -0.0360 -0.0406
  161MPD2    C2 2453   4.203   4.133   1.822 -0.2530  0.0022 -0.5663
  161MPD2    C3 2454   4.147   4.169   1.943  0.0468  0.0300 -0.0679
  161MPD2    C4 2455   4.210   4.266   2.015 -0.0935 -0.3059 -0.0547
  161MPD2    C5 2456   4.328   4.309   1.992 -0.2460  1.3427 -0.4918
  161MPD2     H 2457   4.156   4.054   1.765  0.0854  0.5764 -1.6593
  161MPD2    H1 2458   4.168   4.302   2.108 -0.3398  0.7901 -0.5831
  161MPD2    H2 2459   4.493   4.318   1.876 -0.0794 -0.4633  1.9793
  161MPD2    H3 2460   4.370   4.382   2.061 -0.5282  0.2334  0.8606
  161MPD2     N 2461   4.013   4.137   1.981 -0.2107  0.0693  1.0904
  161MPD2    H5 2462   3.977   4.190   2.059 -0.7479  0.6552  0.4438
  161MPD2    N1 2463   4.387   4.148   1.665  0.0536 -0.7323  0.3331
  161MPD2    H7 2464   4.339   4.091   1.595  0.1749 -1.4075  0.8080
  162TMC2    C1 2465   2.728   1.042   0.874  0.1368  0.4735  0.4787
  162TMC2    C2 2466   2.701   1.152   0.800  0.2067 -0.2072 -0.4565
  162TMC2    C3 2467   2.582   1.215   0.829 -0.3163  0.0545  0.3631
  162TMC2    C4 2468   2.658   1.001   0.982 -0.1859 -0.8180  0.6269
  162TMC2    C5 2469   2.534   1.066   1.007  0.3754  0.2519  0.2012
  162TMC2    C6 2470   2.495   1.170   0.923  0.2324  0.8890 -0.0089
  162TMC2     C 2471   2.856   0.976   0.849 -0.2877  0.4041  0.7197
  162TMC2     O 2472   2.912   0.997   0.741 -0.3081 -0.4153 -0.2786
  162TMC2     H 2473   2.762   1.179   0.715  1.9616 -1.1761  0.4916
  162TMC2    H1 2474   2.673   0.902   1.024  0.3107 -1.2948 -0.6716
  162TMC2    H2 2475   2.395   1.209   0.936  1.0328  3.3121 -1.1136
  162TMC2    C7 2476   2.423   1.003   1.080  0.2675 -0.1489 -0.0341
  162TMC2    C8 2477   2.533   1.319   0.754  0.1446  0.1581  0.7608
  162TMC2    O1 2478   2.310   1.055   1.085 -0.3468 -0.3237  0.0735
  162TMC2    O2 2479   2.423   1.360   0.788  0.5430  0.7154 -0.3643
  162TMC2    O5 2480   2.632   1.399   0.698 -0.4728 -0.4514 -0.0309
  162TMC2    H5 2481   2.723   1.363   0.689 -0.8985 -1.5538  0.1118
  163MPD2     C 2482   3.244   0.684   1.002 -0.9181 -0.1643 -0.4163
  163MPD2    C1 2483   3.197   0.711   0.877  0.4069 -0.0792 -0.5148
  163MPD2    C2 2484   3.084   0.790   0.862  0.3736 -0.7851 -0.3605
  163MPD2    C3 2485   3.026   0.841   0.974 -0.5314 -0.6693  0.1112
  163MPD2    C4 2486   3.085   0.818   1.099  0.1044 -0.2615 -0.2108
  163MPD2    C5 2487   3.190   0.741   1.113 -0.7754  0.5461  0.0018
  163MPD2     H 2488   3.045   0.815   0.764  1.5815  0.4214 -0.5442
  163MPD2    H1 2489   3.040   0.862   1.187  0.1331  0.5665 -0.6098
  163MPD2    H2 2490   3.331   0.622   1.022 -1.5738 -0.8367  0.3245
  163MPD2    H3 2491   3.228   0.728   1.213 -2.9654 -0.0673  0.7644
  163MPD2     N 2492   2.904   0.913   0.966 -0.2246 -0.0832  0.1004
  163MPD2    H5 2493   2.852   0.927   1.052 -1.5852  1.3805 -0.9543
  163MPD2    N1 2494   3.273   0.658   0.768  0.0811  0.0791  0.4305
  163MPD2    H7 2495   3.333   0.578   0.787  0.6689  0.0748 -1.4395
  164TCq2    C1 2496   3.581   4.218  11.032 -0.0000  0.0034  0.6118
  164TCq2    O2 2497   3.559   4.100  11.001 -0.3215 -1.0277  0.1995
  164TCq2    C2 2498   3.495   4.275  11.130 -0.2734 -0.6720 -0.3036
  164TCq2    C3 2499   3.516   4.388  11.196 -0.3481  0.2297 -0.7644
  164TCq2    C4 2500   3.425   4.435  11.288  0.2552 -0.0442  1.0089
  164TCq2    C5 2501   3.309   4.371  11.321  0.0184 -0.2991  0.0557
  164TCq2    C6 2502   3.290   4.256  11.259 -0.2048  0.5371  0.5087
  164TCq2    C7 2503   3.380   4.208  11.158  0.3489  0.5088 -0.5760
  164TCq2    C8 2504   3.152   4.208  11.245  0.9112  0.0790  0.6090
  164TCq2    O4 2505   3.067   4.294  11.242 -0.2810 -0.9055 -0.0711
  164TCq2    C9 2506   3.456   4.558  11.348 -0.3360 -0.7035  0.0492
  164TCq2    O5 2507   3.362   4.628  11.391 -0.3166  0.1984  0.4152
  164TCq2    O6 2508   3.581   4.575  11.366  0.2286  0.4112  0.4031
  164TCq2    H2 2509   3.601   4.453  11.182  0.7014 -0.7725  1.0198
  164TCq2    H3 2510   3.235   4.416  11.385  0.0590  0.5926 -0.5354
  164TCq2    H4 2511   3.348   4.122  11.099 -0.3225 -0.5304  1.2797
  165MPD2     C 2512   0.237   1.426   1.637  0.3296  0.0275  0.2990
  165MPD2    C1 2513   0.209   1.524   1.546 -0.4774  0.3615 -0.2972
  165MPD2    C2 2514   0.234   1.657   1.586 -0.2032 -0.7061 -0.5467
  165MPD2    C3 2515   0.288   1.687   1.705  0.5204 -0.3462  0.7003
  165MPD2    C4 2516   0.298   1.590   1.802  0.4722 -0.0886  0.5055
  165MPD2    C5 2517   0.279   1.463   1.760  0.5663  0.0069  0.0376
  165MPD2     H 2518   0.211   1.733   1.512 -0.1443 -0.3410 -0.1943
  165MPD2    H1 2519   0.334   1.611   1.901 -3.5180  2.9113  1.3015
  165MPD2    H2 2520   0.223   1.321   1.614 -0.1951 -0.0620  1.0260
  165MPD2    H3 2521   0.295   1.382   1.831  0.7119 -0.4065 -0.4714
  165MPD2     N 2522   0.322   1.819   1.748 -0.1993  0.0804  0.5868
  165MPD2    H5 2523   0.357   1.826   1.843 -3.3233 -0.3415  1.7991
  165MPD2    N1 2524   0.161   1.475   1.418 -0.3491 -0.2852 -0.3744
  165MPD2    H7 2525   0.141   1.375   1.417  3.7708 -1.1099  1.0841
  166TCq2    C1 2526   0.297   1.938   1.678  0.3561 -0.2990  0.2390
  166TCq2    O2 2527   0.251   1.946   1.562 -0.1519 -0.1320  0.0391
  166TCq2    C2 2528   0.339   2.058   1.749 -1.5437  0.2441 -0.6696
  166TCq2    C3 2529   0.435   2.050   1.844 -0.1632 -0.4742 -0.5257
  166TCq2    C4 2530   0.504   2.164   1.878  0.1250  0.0284 -0.4751
  166TCq2    C5 2531   0.492   2.272   1.799  0.1989 -0.1219  0.1114
  166TCq2    C6 2532   0.398   2.274   1.703 -0.5468 -0.5457  0.2721
  166TCq2    C7 2533   0.317   2.173   1.680 -0.0288 -0.0978 -0.0702
  166TCq2    C8 2534   0.403   2.394   1.617  0.4259  0.4311 -0.9473
  166TCq2    O4 2535   0.500   2.470   1.630  0.6043 -0.3158  0.6145
  166TCq2    C9 2536   0.611   2.158   1.973  0.2808 -0.9487 -0.1804
  166TCq2    O5 2537   0.598   2.064   2.059 -0.1410 -0.7663  0.1471
  166TCq2    O6 2538   0.713   2.233   1.955  0.8956  0.3608 -0.2978
  166TCq2    H2 2539   0.456   1.968   1.912 -1.4462 -0.5932 -0.2648
  166TCq2    H3 2540   0.562   2.354   1.806  0.2518 -0.1328 -0.3350
  166TCq2    H4 2541   0.247   2.175   1.597 -0.6885  1.1298  0.5236
  167TMC2    C1 2542   2.535   4.516  12.761 -0.4838  0.2600  0.1014
  167TMC2    C2 2543   2.500   4.566  12.883  0.1703 -0.0235 -0.4602
  167TMC2    C3 2544   2.510   4.477  12.981 -0.4680  0.5941 -0.3578
  167TMC2    C4 2545   2.569   4.384  12.742  0.1733 -0.3534 -0.3992
  167TMC2    C5 2546   2.567   4.299  12.852  0.2012 -0.3747 -0.3713
  167TMC2    C6 2547   2.540   4.348  12.973  0.6891  0.3198 -1.2356
  167TMC2     C 2548   2.549   4.618  12.653 -0.0252 -0.0956 -0.7083
  167TMC2     O 2549   2.486   0.002  12.671 -0.1433  0.0805  0.4209
  167TMC2     H 2550   2.483   4.672  12.898  1.6229  0.2490 -0.7781
  167TMC2    H1 2551   2.566   4.343  12.642 -0.1210 -1.1257 -0.0773
  167TMC2    H2 2552   2.547   4.282  13.059  0.5731 -1.2888 -2.4588
  167TMC2    C7 2553   2.608   4.159  12.849 -0.1537 -0.1296 -0.1789
  167TMC2    C8 2554   2.488   4.522  13.112 -0.5272  0.7446 -0.3954
  167TMC2    O1 2555   2.555   4.084  12.929  0.1899  0.0711 -0.5017
  167TMC2    O2 2556   2.534   4.465  13.213  0.1802 -0.0935  0.1512
  167TMC2    O5 2557   2.373   4.590  13.104  0.0170  0.4803 -0.5691
  167TMC2    H5 2558   2.328   4.593  13.017  0.0363 -0.6120 -0.6067
  168MPD2     C 2559   2.654   0.077  12.438 -0.7475 -0.2560  0.6533
  168MPD2    C1 2560   2.676   4.661  12.446 -0.0696 -0.1176  0.2629
  168MPD2    C2 2561   2.753   4.599  12.349  0.8108 -0.6426  0.0022
  168MPD2    C3 2562   2.810   4.664  12.236 -0.5314  0.2614  0.3892
  168MPD2    C4 2563   2.783   0.075  12.234  0.7519 -0.2638 -0.0578
  168MPD2    C5 2564   2.714   0.138  12.338 -0.4778  0.7061 -0.0825
  168MPD2     H 2565   2.757   4.491  12.350 -0.4062 -0.6820  0.3451
  168MPD2    H1 2566   2.814   0.134  12.148  0.9468  1.4297  1.1856
  168MPD2    H2 2567   2.584   0.129  12.502 -1.1580  0.1836 -0.1596
  168MPD2    H3 2568   2.683   0.238  12.310  0.3490  0.6861 -1.0685
  168MPD2     N 2569   2.873   4.603  12.130 -0.2519  0.5355  0.6148
  168MPD2    H5 2570   2.898   4.659  12.049  0.6858 -0.2484  0.3704
  168MPD2    N1 2571   2.638   4.585  12.554 -0.6251  0.3511 -0.7193
  168MPD2    H7 2572   2.684   4.495  12.561  2.8831  2.1592 -0.6879
  169MPD1     C 2573   0.111   3.005  10.324 -0.1849  0.7104 -0.5438
  169MPD1    C1 2574   0.082   2.966  10.199  0.3456 -0.3197 -0.9992
  169MPD1    C2 2575   0.160   3.010  10.092  0.0166  0.4440 -0.2327
  169MPD1    C3 2576   0.245   3.121  10.105 -0.2662  0.1862 -0.3552
  169MPD1    C4 2577   0.262   3.172  10.233  0.6286 -0.0726 -0.2768
  169MPD1    C5 2578   0.202   3.104  10.343  0.1326  0.0597  0.5783
  169MPD1     H 2579   0.138   2.959   9.999 -1.5921  1.3075 -0.3259
  169MPD1    H1 2580   0.330   3.252  10.256  0.0598 -0.2783  2.1151
  169MPD1    H2 2581   0.063   2.959  10.410  0.8252 -1.0981 -0.9361
  169MPD1    H3 2582   0.215   3.134  10.446 -0.1686  0.2385  0.5626
  169MPD1     N 2583   0.300   3.170   9.988 -0.5498 -0.3836 -0.3122
  169MPD1    H5 2584   0.277   3.117   9.904 -0.2989 -1.7947  0.5116
  169MPD1    N1 2585   4.718   2.853  10.176  0.0921 -0.1846  0.5403
  169MPD1    H6 2586   4.673   2.862  10.086  0.2958 -1.9224  0.2571
  169MPD1    H7 2587   4.651   2.850  10.252  1.2522 -0.2491  1.5715
  170MPD1     C 2588   4.532   2.843  13.349  0.4533  0.1383  0.0457
  170MPD1    C1 2589   4.498   2.802  13.223  0.1374 -0.4631  0.5239
  170MPD1    C2 2590   4.454   2.670  13.207 -0.2552 -0.7737 -0.3702
  170MPD1    C3 2591   4.431   2.586  13.313  0.0188  0.4103  0.4412
  170MPD1    C4 2592   4.467   2.626  13.435  0.1998  0.1329  0.4216
  170MPD1    C5 2593   4.515   2.754  13.448 -0.0960  0.3506 -1.2002
  170MPD1     H 2594   4.442   2.625  13.108 -2.8739  1.5018 -1.0797
  170MPD1    H1 2595   4.463   2.563  13.523 -0.6655 -0.3697  0.0204
  170MPD1    H2 2596   4.552   2.947  13.371  2.2649  0.4031 -2.8353
  170MPD1    H3 2597   4.554   2.796  13.540 -1.2183 -1.3197  0.0234
  170MPD1     N 2598   4.376   2.453  13.286 -0.5404 -0.0415  0.3080
  170MPD1    H5 2599   4.373   2.425  13.189 -1.6394 -0.2012  0.3886
  170MPD1    N1 2600   4.519   2.889  13.112  0.2395 -0.2456 -0.1821
  170MPD1    H6 2601   4.458   2.868  13.033 -2.6502 -1.4361  2.3560
  170MPD1    H7 2602   4.508   2.986  13.142 -1.6550 -1.1732  2.1297
  171MPD1     C 2603   2.467   3.921  15.590  0.8196 -0.8695  0.6386
  171MPD1    C1 2604   2.351   3.861  15.635  0.2870 -0.4828  0.3318
  171MPD1    C2 2605   2.362   3.725  15.662  0.8806  0.2614  0.4319
  171MPD1    C3 2606   2.474   3.645  15.630  0.0985 -0.2482  0.6576
  171MPD1    C4 2607   2.580   3.708  15.575 -0.7831  0.5235  0.1009
  171MPD1    C5 2608   2.573   3.842  15.556 -0.1209 -0.2011  0.8350
  171MPD1     H 2609   2.274   3.681  15.708 -1.8746  3.3076 -1.9218
  171MPD1    H1 2610   2.677   3.659  15.576 -1.0118  0.0732  0.3946
  171MPD1    H2 2611   2.468   4.024  15.558 -2.1799 -1.7713 -2.3024
  171MPD1    H3 2612   2.664   3.887  15.517 -0.6336  0.2719  0.1858
  171MPD1     N 2613   2.495   3.515  15.669  0.4498  0.7132  0.3556
  171MPD1    H5 2614   2.585   3.472  15.687 -0.5193 -1.9843 -1.1186
  171MPD1    N1 2615   2.248   3.944  15.679 -0.5823 -0.9716 -0.2104
  171MPD1    H6 2616   2.243   4.024  15.616  1.1960 -0.4815  0.2506
  171MPD1    H7 2617   2.161   3.893  15.671 -1.4842  0.1949  2.0845
  172MPD1     C 2618   1.154   2.075  17.497  0.6350 -0.6022 -0.4112
  172MPD1    C1 2619   1.189   2.205  17.450  1.0246  0.2149  0.0010
  172MPD1    C2 2620   1.236   2.299  17.543 -0.1974 -0.6186  0.0786
  172MPD1    C3 2621   1.227   2.276  17.677  0.1687  0.9745 -0.5501
  172MPD1    C4 2622   1.204   2.142   0.021 -0.0197  0.1723  0.1438
  172MPD1    C5 2623   1.176   2.045  17.627  0.6946 -0.1404 -0.0327
  172MPD1     H 2624   1.261   2.402  17.521 -0.4695 -0.5652  0.0165
  172MPD1    H1 2625   1.218   2.111   0.124  2.0774 -1.0847 -0.5179
  172MPD1    H2 2626   1.129   1.995  17.427  0.1411  0.2605 -1.2277
  172MPD1    H3 2627   1.169   1.941  17.657  2.6560 -0.1186  0.5484
  172MPD1     N 2628   1.258   2.371   0.082  0.1334 -0.3462  0.4138
  172MPD1    H5 2629   1.247   2.335   0.176 -1.4433 -0.5931  0.1445
  172MPD1    N1 2630   1.218   2.222  17.313 -0.2492  0.0308  0.6647
  172MPD1    H6 2631   1.156   2.172  17.250  2.0099 -0.0361 -1.4736
  172MPD1    H7 2632   1.207   2.319  17.281  2.0269 -0.1945 -0.7644
  173MPD1     C 2633   3.127   1.510  13.511  1.2730  0.1521  0.0131
  173MPD1    C1 2634   3.076   1.446  13.620  0.3999 -0.5235  0.3694
  173MPD1    C2 2635   3.108   1.501  13.743  0.3619  0.2767  0.0569
  173MPD1    C3 2636   3.181   1.617  13.757 -0.7870  0.9276 -0.2709
  173MPD1    C4 2637   3.233   1.673  13.642 -0.0476 -0.0436 -0.3731
  173MPD1    C5 2638   3.205   1.621  13.520  0.6303 -0.1004 -0.1728
  173MPD1     H 2639   3.070   1.454  13.834 -0.1878 -2.0926 -1.4107
  173MPD1    H1 2640   3.294   1.763  13.654  0.6733 -0.1820 -3.0632
  173MPD1    H2 2641   3.111   1.474  13.410 -3.6320 -0.2499  0.9058
  173MPD1    H3 2642   3.236   1.677  13.432  0.0659  0.9513  0.2979
  173MPD1     N 2643   3.204   1.670  13.885  0.4951 -0.3399  0.8229
  173MPD1    H5 2644   3.163   1.617  13.961 -0.7421 -0.0684  0.3347
  173MPD1    N1 2645   3.028   1.319  13.615  1.0930 -0.0036  0.5896
  173MPD1    H6 2646   2.946   1.304  13.674  0.6693 -0.4052 -0.1013
  173MPD1    H7 2647   2.990   1.294  13.524  1.4469 -2.8326  1.2351
  174MPD1     C 2648   3.969   2.260  14.135  0.3883 -0.3385  0.1780
  174MPD1    C1 2649   3.903   2.248  14.257  0.0638  0.1896  0.5319
  174MPD1    C2 2650   3.791   2.165  14.272  1.0066 -0.0934  0.5958
  174MPD1    C3 2651   3.734   2.120  14.149 -0.4856 -0.8139 -0.2045
  174MPD1    C4 2652   3.791   2.147  14.021  0.5957  0.0141 -0.2249
  174MPD1    C5 2653   3.905   2.219  14.020 -1.0825  0.2398 -0.1644
  174MPD1     H 2654   3.733   2.164  14.364  0.2052 -1.5166  0.0720
  174MPD1    H1 2655   3.750   2.099  13.933 -0.6639  0.3504  0.1648
  174MPD1    H2 2656   4.067   2.305  14.125 -0.1708  0.8742  0.1780
  174MPD1    H3 2657   3.948   2.233  13.921 -1.9892  1.2225 -0.4198
  174MPD1     N 2658   3.618   2.042  14.145 -0.5961 -0.0038 -0.3405
  174MPD1    H5 2659   3.576   2.023  14.055 -0.0066 -1.1912 -0.3685
  174MPD1    N1 2660   3.976   2.301  14.363  0.2974 -0.0618 -0.0480
  174MPD1    H6 2661   4.047   2.367  14.333 -0.9439  1.8223  1.1264
  174MPD1    H7 2662   3.920   2.347  14.434  0.7398 -1.9425  1.5439
  175MPD1     C 2663   1.503   3.457  15.194  0.5651  0.4575 -0.2262
  175MPD1    C1 2664   1.390   3.499  15.259  0.5757  0.1378 -0.2010
  175MPD1    C2 2665   1.390   3.485  15.392 -0.3730  0.5269 -0.3933
  175MPD1    C3 2666   1.497   3.426  15.458  0.4669 -0.6449  0.1761
  175MPD1    C4 2667   1.610   3.390  15.390 -0.1044 -0.1569 -0.0860
  175MPD1    C5 2668   1.615   3.410  15.257 -0.0029  0.0932 -0.2399
  175MPD1     H 2669   1.308   3.525  15.452 -1.4687 -0.0366 -1.5180
  175MPD1    H1 2670   1.688   3.339  15.445  0.5606  2.1047  1.1109
  175MPD1    H2 2671   1.509   3.460  15.086 -2.9320  0.4082 -0.4213
  175MPD1    H3 2672   1.710   3.398  15.206  0.9911 -2.1097  2.1558
  175MPD1     N 2673   1.474   3.400  15.593 -0.5203 -0.0607 -0.0932
  175MPD1    H5 2674   1.387   3.436  15.631 -0.9552  0.5502 -1.6551
  175MPD1    N1 2675   1.276   3.535  15.183 -0.5065  0.2385 -0.1183
  175MPD1    H6 2676   1.223   3.612  15.225 -0.5879 -0.3301  0.8188
  175MPD1    H7 2677   1.297   3.573  15.091 -2.1715  0.5101 -0.3896
  176MPD1     C 2678   2.885   0.703   0.440 -0.2927  0.5390 -0.1017
  176MPD1    C1 2679   2.791   0.606   0.420  0.2654  0.5716 -0.0459
  176MPD1    C2 2680   2.758   0.572   0.291  0.3521 -1.1596 -0.2645
  176MPD1    C3 2681   2.824   0.629   0.184 -0.5591  0.6114  0.0782
  176MPD1    C4 2682   2.927   0.715   0.202  0.0465  0.0534 -0.3677
  176MPD1    C5 2683   2.948   0.760   0.329  0.8926 -0.0735  0.2150
  176MPD1     H 2684   2.682   0.496   0.274 -1.5149  0.8764 -0.9586
  176MPD1    H1 2685   2.983   0.762   0.122  0.0573  1.7377  0.6350
  176MPD1    H2 2686   2.902   0.746   0.538 -0.7813 -0.8244  0.5779
  176MPD1    H3 2687   3.035   0.824   0.340  1.2894 -0.4656 -0.6291
  176MPD1     N 2688   2.772   0.594   0.055 -0.3054  0.2990  0.3737
  176MPD1    H5 2689   2.691   0.533   0.055  0.0937 -0.2431  1.2122
  176MPD1    N1 2690   2.725   0.556   0.537 -0.4786 -0.5002  0.3287
  176MPD1    H6 2691   2.713   0.456   0.522 -1.0109 -0.2221 -1.1459
  176MPD1    H7 2692   2.783   0.561   0.620  3.0539 -4.0515 -1.9783
  177MPD1     C 2693   1.195   0.304  10.099  0.1570  0.2942  0.1702
  177MPD1    C1 2694   1.102   0.206  10.104  0.0374 -0.0222  0.3641
  177MPD1    C2 2695   0.977   0.220  10.046  0.7094 -0.3599 -0.0472
  177MPD1    C3 2696   0.957   0.322   9.955 -0.3308  0.1062 -0.2406
  177MPD1    C4 2697   1.052   0.424   9.956 -0.3952  0.0246 -0.1296
  177MPD1    C5 2698   1.168   0.419  10.031  0.0980 -0.0634  0.2349
  177MPD1     H 2699   0.891   0.155  10.062 -1.6901  2.4642 -1.4491
  177MPD1    H1 2700   1.048   0.511   9.891 -3.1959  1.3219  1.7613
  177MPD1    H2 2701   1.292   0.294  10.146 -0.0554 -1.8909  0.1637
  177MPD1    H3 2702   1.240   0.499  10.021  0.9362 -1.0893 -1.8332
  177MPD1     N 2703   0.844   0.325   9.869  0.6276  0.2818  0.2910
  177MPD1    H5 2704   0.778   0.248   9.865 -0.5719  1.3538 -0.4614
  177MPD1    N1 2705   1.122   0.107  10.204  0.6774 -0.2332 -0.1229
  177MPD1    H6 2706   1.059   0.029  10.185  1.0729 -0.2936 -1.1493
  177MPD1    H7 2707   1.218   0.083  10.227  0.4264 -0.2112  0.9624
  178MPD1     C 2708   3.325   1.387   0.259 -0.6162 -0.1436  0.1620
  178MPD1    C1 2709   3.363   1.269   0.193  0.2037 -0.4366 -0.4159
  178MPD1    C2 2710   3.433   1.285   0.076  0.2185 -0.1751  0.3697
  178MPD1    C3 2711   3.457   1.407   0.027 -0.2928  0.1603  0.0822
  178MPD1    C4 2712   3.428   1.522   0.102 -0.2643 -0.7337 -0.8323
  178MPD1    C5 2713   3.359   1.510   0.217 -0.5082 -0.5283  0.9794
  178MPD1     H 2714   3.454   1.190   0.028 -1.4252  0.6775 -1.9953
  178MPD1    H1 2715   3.460   1.619   0.066 -0.9221 -0.9191 -1.9262
  178MPD1    H2 2716   3.282   1.390   0.359 -0.7395 -3.1392  0.2062
  178MPD1    H3 2717   3.335   1.593   0.283  0.4573  1.5243 -1.2314
  178MPD1     N 2718   3.528   1.416  17.593  0.1382 -0.2140  0.2883
  178MPD1    H5 2719   3.547   1.511  17.561  0.0543 -0.2147  0.2371
  178MPD1    N1 2720   3.329   1.145   0.248  0.2739  0.0067  0.8747
  178MPD1    H6 2721   3.369   1.124   0.340  0.0815  0.0406  0.9656
  178MPD1    H7 2722   3.347   1.060   0.195 -0.7428  0.2903  0.0724
  179MPD1     C 2723   3.707   0.252  16.051 -0.1006 -0.2889  0.5724
  179MPD1    C1 2724   3.761   0.134  16.107  0.2343 -0.2314 -0.0716
  179MPD1    C2 2725   3.699   0.019  16.069 -0.0625  0.4736 -0.1794
  179MPD1    C3 2726   3.593   0.014  15.978  0.5172  0.4128 -0.7461
  179MPD1    C4 2727   3.549   0.130  15.929 -0.3162 -0.2727  0.0666
  179MPD1    C5 2728   3.598   0.249  15.973  0.0199  0.0049 -0.2440
  179MPD1     H 2729   3.734   4.647  16.108 -4.7067 -0.4748  1.6422
  179MPD1    H1 2730   3.473   0.133  15.852 -1.4497  0.0479  1.1923
  179MPD1    H2 2731   3.752   0.347  16.078  0.3001  0.4387 -2.6921
  179MPD1    H3 2732   3.555   0.342  15.938  0.9389  0.3067 -0.5810
  179MPD1     N 2733   3.532   4.619  15.926 -0.4356  0.0988 -0.4803
  179MPD1    H5 2734   3.481   4.625  15.839  1.2326 -0.7281 -1.5047
  179MPD1    N1 2735   3.874   0.132  16.192 -0.0681 -0.2095 -0.1092
  179MPD1    H6 2736   3.875   0.047  16.248  0.6845  1.6592  2.7525
  179MPD1    H7 2737   3.947   0.126  16.122  1.9586  0.5165  1.9421
  180MPD1     C 2738   3.595   1.055  15.321 -0.4995  0.1617  0.7072
  180MPD1    C1 2739   3.604   1.135  15.208 -0.1075  0.7861 -0.2205
  180MPD1    C2 2740   3.601   1.075  15.082 -0.0802 -0.0442  0.2654
  180MPD1    C3 2741   3.559   0.945  15.069  0.0735 -0.2968 -0.0208
  180MPD1    C4 2742   3.537   0.871  15.185 -0.1739 -0.3297  0.4043
  180MPD1    C5 2743   3.560   0.928  15.301  0.4398  0.0063  0.2408
  180MPD1     H 2744   3.623   1.138  14.997 -1.5708  1.3087  0.8720
  180MPD1    H1 2745   3.518   0.764  15.188  1.5630 -0.6674 -0.6945
  180MPD1    H2 2746   3.598   1.099  15.419  2.2281  3.9168 -1.0775
  180MPD1    H3 2747   3.538   0.863  15.385 -0.3880  0.4095  0.3306
  180MPD1     N 2748   3.544   0.899  14.933 -0.3090  0.2519  0.3775
  180MPD1    H5 2749   3.565   0.968  14.862 -1.0849 -0.0128 -0.1075
  180MPD1    N1 2750   3.651   1.264  15.219 -0.7271 -0.8679 -0.6944
  180MPD1    H6 2751   3.608   1.319  15.145 -0.5520  2.0446  1.3922
  180MPD1    H7 2752   3.633   1.310  15.308 -0.6098  1.0299 -1.6644
  181MPD1     C 2753   4.680   1.313   9.259 -0.0308 -0.5130 -0.0814
  181MPD1    C1 2754   0.092   1.299   9.243  0.1816 -0.1023 -0.1412
  181MPD1    C2 2755   0.170   1.391   9.305 -0.0334 -0.1038 -0.4725
  181MPD1    C3 2756   0.115   1.501   9.372  0.2921  0.0750 -0.1604
  181MPD1    C4 2757   4.702   1.524   9.374 -0.3391  0.3142  0.4776
  181MPD1    C5 2758   4.624   1.424   9.321  0.5959 -0.4464  0.0188
  181MPD1     H 2759   0.275   1.368   9.311  0.4988  2.2066 -0.8287
  181MPD1    H1 2760   4.648   1.616   9.390 -1.0005 -0.5796  3.2572
  181MPD1    H2 2761   4.609   1.244   9.213  0.7736  0.5744 -2.9801
  181MPD1    H3 2762   4.516   1.438   9.320  0.9500  2.3572 -0.3130
  181MPD1     N 2763   0.188   1.610   9.436  0.0786 -0.6684 -0.1961
  181MPD1    H5 2764   0.133   1.682   9.481  0.8633 -0.7263  0.8405
  181MPD1    N1 2765   0.141   1.181   9.190 -0.2087  0.0954 -0.4030
  181MPD1    H6 2766   0.095   1.165   9.100 -0.0590  2.2093 -0.8611
  181MPD1    H7 2767   0.236   1.201   9.162 -0.4030  1.5064 -0.0522
  182MPD1     C 2768   1.164   1.540   1.640  0.2130 -0.0425  1.0454
  182MPD1    C1 2769   1.126   1.438   1.560  0.1131 -0.1149  0.7795
  182MPD1    C2 2770   1.033   1.464   1.457  0.0727  0.5988 -0.2043
  182MPD1    C3 2771   0.970   1.589   1.451  0.3107  0.1146  0.9403
  182MPD1    C4 2772   1.001   1.686   1.541  0.0486 -0.4684  0.5945
  182MPD1    C5 2773   1.102   1.661   1.632 -0.2193 -0.6057 -0.4260
  182MPD1     H 2774   1.019   1.394   1.375 -0.3481  0.0824  0.3039
  182MPD1    H1 2775   0.962   1.788   1.545  1.2275 -0.0013  0.2544
  182MPD1    H2 2776   1.241   1.524   1.715  1.8283  1.8750 -0.2065
  182MPD1    H3 2777   1.140   1.741   1.695 -1.7631 -0.5222  0.4153
  182MPD1     N 2778   0.886   1.624   1.345 -0.2063 -0.3218 -1.2464
  182MPD1    H5 2779   0.864   1.723   1.339  3.9773  0.6522 -0.4808
  182MPD1    N1 2780   1.195   1.322   1.570  0.4815 -0.3664 -1.2010
  182MPD1    H6 2781   1.139   1.250   1.525 -0.5860 -0.1123 -0.2882
  182MPD1    H7 2782   1.217   1.295   1.666  0.9578  0.7944 -0.9855
  183MPD1     C 2783   2.477   2.125  10.052 -0.2226  0.3081 -0.7867
  183MPD1    C1 2784   2.414   2.221   9.977 -0.0433  1.3481  0.5970
  183MPD1    C2 2785   2.278   2.198   9.949  0.4508 -0.5421 -0.0817
  183MPD1    C3 2786   2.212   2.086   9.993  0.4877  0.5625  0.4166
  183MPD1    C4 2787   2.280   1.993  10.064 -0.2450 -0.1657  0.4417
  183MPD1    C5 2788   2.413   2.011  10.085 -0.2133  0.3184 -0.7979
  183MPD1     H 2789   2.225   2.277   9.896  1.9977  1.1106  0.8367
  183MPD1    H1 2790   2.241   1.895  10.088  1.0957 -0.8049 -0.0087
  183MPD1    H2 2791   2.581   2.135  10.083  0.5382 -1.1099 -2.8926
  183MPD1    H3 2792   2.448   1.936  10.154  0.7166  1.4279 -0.0655
  183MPD1     N 2793   2.082   2.073   9.944 -0.5043  0.0731 -0.5815
  183MPD1    H5 2794   2.036   2.147   9.892  1.1770  0.7860 -1.0666
  183MPD1    N1 2795   2.491   2.324   9.919  0.5853 -0.1917 -0.0633
  183MPD1    H6 2796   2.430   2.397   9.882 -0.3107 -0.7531  0.3066
  183MPD1    H7 2797   2.552   2.375   9.981 -0.1372 -0.0026  0.4905
  184MPD1     C 2798   0.071   3.869  10.101  0.2360 -0.0469  0.0804
  184MPD1    C1 2799   0.119   3.973  10.178 -0.5801 -0.1387  0.0112
  184MPD1    C2 2800   0.186   4.074  10.108 -0.0937  0.3551  0.1307
  184MPD1    C3 2801   0.185   4.081   9.970 -0.0494 -0.2021  0.3047
  184MPD1    C4 2802   0.138   3.975   9.894  0.3667  0.4481 -0.0097
  184MPD1    C5 2803   0.086   3.868   9.964  0.0829  0.2642 -0.6549
  184MPD1     H 2804   0.236   4.158  10.157  0.9713 -0.7238  0.9072
  184MPD1    H1 2805   0.138   3.990   9.786  0.2958 -0.3886 -0.1231
  184MPD1    H2 2806   0.021   3.783  10.145 -0.6234 -1.1470 -3.0112
  184MPD1    H3 2807   0.052   3.784   9.904  0.9929  0.0724 -0.9015
  184MPD1     N 2808   0.233   4.197   9.904  0.0795  0.3844 -0.8855
  184MPD1    H5 2809   0.225   4.183   9.804 -0.0669  1.7047 -1.0590
  184MPD1    N1 2810   0.129   3.961  10.318  0.5605 -0.3387 -0.9027
  184MPD1    H6 2811   0.047   3.909  10.347  1.1319 -0.1009  1.1587
  184MPD1    H7 2812   0.150   4.045  10.371  0.3456 -1.7738  1.4402
  185MPD1     C 2813   0.161   4.663   9.036  0.5536  0.3115  0.1178
  185MPD1    C1 2814   0.099   4.562   9.100 -0.5432 -0.6726  0.2726
  185MPD1    C2 2815   0.107   4.557   9.236 -0.1600 -0.4251  0.4828
  185MPD1    C3 2816   0.195   4.635   9.308  0.3190 -0.0373  0.0106
  185MPD1    C4 2817   0.274   0.001   9.233  0.3587  0.9136 -0.2085
  185MPD1    C5 2818   0.254   0.016   9.099  0.8694 -0.1593  0.4793
  185MPD1     H 2819   0.052   4.481   9.290  3.4966 -3.0213  0.5923
  185MPD1    H1 2820   0.356   0.057   9.278  0.0766 -1.9938  3.9030
  185MPD1    H2 2821   0.141   4.673   8.930  1.3702 -1.8887 -0.2334
  185MPD1    H3 2822   0.328   0.071   9.043  1.3824  0.7726  2.0864
  185MPD1     N 2823   0.221   4.618   9.442 -0.1961  0.0612 -0.4425
  185MPD1    H5 2824   0.289   4.682   9.481 -0.7724 -0.6846  1.7779
  185MPD1    N1 2825   0.020   4.480   9.025 -0.0018  0.0974  0.0263
  185MPD1    H6 2826   4.667   4.534   8.983  0.6159 -0.0120 -1.2354
  185MPD1    H7 2827   4.692   4.411   9.080 -1.1100  0.4871 -0.4943
  186MPD1     C 2828   4.607   4.069  16.085 -0.1359  0.2312  1.1036
  186MPD1    C1 2829   4.551   4.169  16.009 -0.5658  0.1699 -0.4787
  186MPD1    C2 2830   4.482   4.267  16.071  0.4121 -1.1100 -0.2985
  186MPD1    C3 2831   4.433   4.244  16.200 -1.1068  0.2976 -0.3945
  186MPD1    C4 2832   4.479   4.130  16.262  0.1348 -0.6342 -0.6609
  186MPD1    C5 2833   4.571   4.053  16.212  0.0028  0.0769 -0.6969
  186MPD1     H 2834   4.462   4.364  16.027  0.4051 -0.4832  1.0855
  186MPD1    H1 2835   4.446   4.114  16.364 -0.3385 -0.4684 -0.7879
  186MPD1    H2 2836   4.683   4.000  16.051  1.9182  3.1234 -0.0893
  186MPD1    H3 2837   4.607   3.970  16.271  1.3755  1.4821  0.4327
  186MPD1     N 2838   4.328   4.312  16.260  0.0959 -0.2507 -0.1186
  186MPD1    H5 2839   4.316   4.291  16.359 -0.7079  0.4400 -0.0673
  186MPD1    N1 2840   4.623   4.188  15.886 -0.4897  0.0771 -0.9592
  186MPD1    H6 2841   4.566   4.239  15.819 -0.2892  0.2358 -1.0081
  186MPD1    H7 2842   4.635   4.098  15.839  1.0236 -0.9669  1.4451
  187MPD1     C 2843   2.250   2.527   0.468 -0.0725 -0.3733  0.4743
  187MPD1    C1 2844   2.200   2.399   0.446 -0.7283 -0.5523 -0.1785
  187MPD1    C2 2845   2.272   2.306   0.371  0.3151  0.4269  0.5862
  187MPD1    C3 2846   2.381   2.342   0.290 -0.1385 -0.0807 -0.6335
  187MPD1    C4 2847   2.420   2.475   0.306 -0.1538  0.2300 -0.0196
  187MPD1    C5 2848   2.357   2.563   0.392  0.3803 -0.1858  0.2859
  187MPD1     H 2849   2.237   2.205   0.356 -1.2150  1.4760 -3.0358
  187MPD1    H1 2850   2.515   2.505   0.264  0.4811 -3.2141 -1.0330
  187MPD1    H2 2851   2.201   2.597   0.535  0.3290 -0.1723  0.5571
  187MPD1    H3 2852   2.390   2.665   0.409  2.2808 -0.7760  0.1839
  187MPD1     N 2853   2.464   2.253   0.221  0.0199 -0.1771 -0.2235
  187MPD1    H5 2854   2.546   2.292   0.176 -0.2947 -0.9321 -1.4784
  187MPD1    N1 2855   2.094   2.360   0.525 -0.2464 -0.0618  0.7446
  187MPD1    H6 2856   2.041   2.442   0.551 -1.3297  0.1019 -2.0088
  187MPD1    H7 2857   2.033   2.287   0.487  0.8165  0.5396 -2.1240
  188MPD1     C 2858   2.426   1.668  10.287 -0.3217  0.2840  0.1491
  188MPD1    C1 2859   2.521   1.592  10.352 -0.2072 -0.2836  0.7435
  188MPD1    C2 2860   2.590   1.506  10.268  0.8978  0.2523  0.4497
  188MPD1    C3 2861   2.572   1.495  10.131 -0.4880 -0.4235 -0.4028
  188MPD1    C4 2862   2.496   1.592  10.073  0.1760  0.6064  0.1395
  188MPD1    C5 2863   2.422   1.666  10.150 -0.0142  0.3751  0.0527
  188MPD1     H 2864   2.669   1.448  10.315  0.6459 -1.3529 -1.0594
  188MPD1    H1 2865   2.472   1.598   9.968  0.2280  1.2264  0.1626
  188MPD1    H2 2866   2.350   1.721  10.343  0.4673  1.7240 -0.1246
  188MPD1    H3 2867   2.348   1.728  10.099  0.9682  0.1170 -1.6985
  188MPD1     N 2868   2.647   1.403  10.051 -0.1247 -0.6203  0.3355
  188MPD1    H5 2869   2.650   1.418   9.951  1.7859  1.5405  0.6850
  188MPD1    N1 2870   2.539   1.595  10.491  0.2516  0.5078  0.0024
  188MPD1    H6 2871   2.529   1.690  10.526  0.7274  0.3448  0.5741
  188MPD1    H7 2872   2.632   1.568  10.523  0.5227  2.6692  1.0225
  189MPD1     C 2873   4.572   3.277   1.198  0.0698 -0.0050 -0.3196
  189MPD1    C1 2874   4.512   3.151   1.212  0.0679  0.1222  0.1758
  189MPD1    C2 2875   4.482   3.096   1.086 -0.4997  1.4091 -0.0530
  189MPD1    C3 2876   4.515   3.152   0.964  0.3041 -0.6652 -0.4355
  189MPD1    C4 2877   4.580   3.266   0.964  0.0707  0.0837 -0.4737
  189MPD1    C5 2878   4.608   3.332   1.078  0.6868 -0.1580  0.1340
  189MPD1     H 2879   4.437   2.998   1.085  0.9025  0.7610 -0.8031
  189MPD1    H1 2880   4.606   3.313   0.870 -2.2229 -1.3781 -1.8441
  189MPD1    H2 2881   4.600   3.338   1.283 -0.6864  0.8078 -0.6548
  189MPD1    H3 2882   4.673   3.418   1.074 -0.3477  0.5290 -1.5475
  189MPD1     N 2883   4.488   3.093   0.839 -0.4224  0.0043 -0.0440
  189MPD1    H5 2884   4.516   3.144   0.756 -0.3813 -0.6540 -0.4341
  189MPD1    N1 2885   4.458   3.101   1.336 -0.2242 -0.1749  0.0288
  189MPD1    H6 2886   4.508   3.112   1.424 -0.4576 -1.1317  0.2810
  189MPD1    H7 2887   4.441   3.001   1.330  0.0928 -0.2139 -0.2124
  190MPD1     C 2888   2.653   0.677  15.828 -0.5560  0.2206  0.2757
  190MPD1    C1 2889   2.697   0.782  15.755 -0.5601 -0.2703  0.5806
  190MPD1    C2 2890   2.825   0.836  15.781 -0.6584  0.1791 -0.1098
  190MPD1    C3 2891   2.904   0.783  15.884  0.2037  0.7507 -0.2679
  190MPD1    C4 2892   2.857   0.672  15.953 -0.0689  0.2851  0.1103
  190MPD1    C5 2893   2.730   0.627  15.933 -0.2430 -0.2485  0.2492
  190MPD1     H 2894   2.869   0.915  15.722  1.7422 -0.0154  1.4027
  190MPD1    H1 2895   2.911   0.631  16.038 -2.1732 -3.0145 -0.1733
  190MPD1    H2 2896   2.551   0.639  15.826 -0.1405 -0.8755  0.2643
  190MPD1    H3 2897   2.706   0.546  16.001 -0.8073  0.3852  0.8010
  190MPD1     N 2898   3.031   0.840  15.914  0.4033 -0.2637 -0.4051
  190MPD1    H5 2899   3.073   0.914  15.859  2.3249 -1.7426 -0.9360
  190MPD1    N1 2900   2.627   0.825  15.631 -0.7219 -0.3371  0.7253
  190MPD1    H6 2901   2.652   0.923  15.619  0.1840 -0.4633  1.6482
  190MPD1    H7 2902   2.526   0.817  15.642 -0.4479 -3.6185  0.7308
  191MPD1     C 2903   3.658   1.447  12.651 -0.5299  0.5447  0.0303
  191MPD1    C1 2904   3.641   1.572  12.705  0.0976  0.0383 -0.5455
  191MPD1    C2 2905   3.602   1.671  12.619 -0.8145  0.0033 -0.7633
  191MPD1    C3 2906   3.533   1.632  12.497 -0.2760  0.1128 -0.3647
  191MPD1    C4 2907   3.543   1.497  12.454  0.3647 -0.4912 -0.3413
  191MPD1    C5 2908   3.620   1.409  12.530 -0.0278  0.0082 -0.5028
  191MPD1     H 2909   3.585   1.771  12.656 -1.5192 -0.8633  1.2667
  191MPD1    H1 2910   3.508   1.467  12.356 -3.3692 -0.0699  0.8545
  191MPD1    H2 2911   3.708   1.371  12.709 -0.1159  0.9942  0.2642
  191MPD1    H3 2912   3.633   1.307  12.497 -2.4611 -1.1565  2.1588
  191MPD1     N 2913   3.469   1.721  12.413 -0.4057  0.0654 -0.6470
  191MPD1    H5 2914   3.477   1.819  12.441 -1.2184  0.3507 -1.4163
  191MPD1    N1 2915   3.693   1.605  12.829 -0.1182  1.1594  0.2915
  191MPD1    H6 2916   3.678   1.525  12.890  0.1484  1.3383  0.5981
  191MPD1    H7 2917   3.639   1.680  12.873 -0.9244  1.1659 -0.7166
  192MPD1     C 2918   2.884   2.049  11.535  0.4268  0.0469  0.4439
  192MPD1    C1 2919   2.842   1.960  11.639 -0.5000 -0.3601  0.0717
  192MPD1    C2 2920   2.928   1.931  11.739 -0.3725 -0.1933 -1.0650
  192MPD1    C3 2921   3.045   2.001  11.756 -0.6067 -0.2669  0.5108
  192MPD1    C4 2922   3.068   2.106  11.665 -0.3390  0.6196 -0.3936
  192MPD1    C5 2923   2.995   2.121  11.556  0.0025 -0.2637 -0.0036
  192MPD1     H 2924   2.896   1.856  11.811 -1.8737  0.2861 -1.2306
  192MPD1    H1 2925   3.152   2.174  11.675  0.3678 -0.3785  0.3369
  192MPD1    H2 2926   2.825   2.076  11.448 -0.4261 -0.8540  0.7398
  192MPD1    H3 2927   3.001   2.216  11.504 -1.3069  0.3093  0.9089
  192MPD1     N 2928   3.125   1.989  11.870 -0.4633  0.1318  0.1194
  192MPD1    H5 2929   3.191   2.065  11.882 -0.2752  0.3976 -2.4997
  192MPD1    N1 2930   2.730   1.878  11.609  0.6326  0.5752  0.0843
  192MPD1    H6 2931   2.659   1.928  11.555  0.1649  0.2969  0.4341
  192MPD1    H7 2932   2.685   1.850  11.697  0.1224 -1.9084 -0.9593
  193MPD1     C 2933   2.341   3.091  16.162 -0.2452 -0.2136 -0.3100
  193MPD1    C1 2934   2.426   2.992  16.196 -0.0267  0.3013  0.4301
  193MPD1    C2 2935   2.529   3.031  16.277  0.6151  0.4644  0.4854
  193MPD1    C3 2936   2.545   3.165  16.310  0.4936  0.0002  0.2789
  193MPD1    C4 2937   2.450   3.256  16.288 -0.0862  0.8537 -0.5995
  193MPD1    C5 2938   2.347   3.224  16.199 -0.0001  0.0248 -0.2661
  193MPD1     H 2939   2.611   2.961  16.290 -0.2629 -0.6006  0.2190
  193MPD1    H1 2940   2.467   3.357  16.323 -0.5886  1.2203 -1.4127
  193MPD1    H2 2941   2.259   3.065  16.096  0.6149  2.9973 -2.6774
  193MPD1    H3 2942   2.273   3.295  16.163 -1.6553 -2.5649 -1.9503
  193MPD1     N 2943   2.661   3.216  16.371  0.4224 -0.2698 -0.0598
  193MPD1    H5 2944   2.650   3.315  16.390 -0.4238 -0.7746  2.0824
  193MPD1    N1 2945   2.397   2.864  16.155 -0.5851 -0.3291 -0.0248
  193MPD1    H6 2946   2.298   2.850  16.139 -0.8547  1.2961  0.1689
  193MPD1    H7 2947   2.410   2.803  16.235 -0.1043  0.8041  0.7724
  194MPD1     C 2948   0.122   0.606  17.380  0.2170 -0.4342 -0.1557
  194MPD1    C1 2949   0.062   0.568  17.267  0.3739 -0.1471  0.1822
  194MPD1    C2 2950   0.145   0.524  17.164 -0.7506  0.0093  0.8198
  194MPD1    C3 2951   0.283   0.546  17.167  0.4093 -0.0893  0.1591
  194MPD1    C4 2952   0.333   0.610  17.273  0.3810  0.4783 -0.6419
  194MPD1    C5 2953   0.257   0.631  17.385  0.2833  1.0021 -0.3026
  194MPD1     H 2954   0.104   0.472  17.078 -0.2341 -0.3708  0.7990
  194MPD1    H1 2955   0.441   0.624  17.270  0.4591 -0.0618 -0.4457
  194MPD1    H2 2956   0.071   0.626  17.474 -0.0961  0.2080 -0.4571
  194MPD1    H3 2957   0.296   0.670  17.478 -0.1359 -1.0057  0.7021
  194MPD1     N 2958   0.374   0.492  17.074 -0.2864  0.4663  0.4017
  194MPD1    H5 2959   0.474   0.482  17.088 -0.6287  1.7178  3.7989
  194MPD1    N1 2960   4.651   0.518  17.262  0.5380  0.4880  0.0989
  194MPD1    H6 2961   4.616   0.523  17.166 -0.3338  0.5451  0.4192
  194MPD1    H7 2962   4.592   0.586  17.310  0.7265 -0.4334  1.6296
  195MPD1     C 2963   1.917   2.017   0.524  0.4687 -0.2047 -0.6764
  195MPD1    C1 2964   1.853   1.942   0.424 -0.2024 -0.8289  0.0738
  195MPD1    C2 2965   1.932   1.850   0.352  0.2588  0.1741  0.2365
  195MPD1    C3 2966   2.071   1.867   0.353 -0.4517 -0.0138  0.7772
  195MPD1    C4 2967   2.124   1.943   0.449  1.1455  1.1796  0.2242
  195MPD1    C5 2968   2.052   2.018   0.539 -0.5026  0.2046 -0.3291
  195MPD1     H 2969   1.884   1.797   0.270  0.1444  1.0006 -0.2319
  195MPD1    H1 2970   2.231   1.955   0.465  1.6790 -1.8666 -1.1391
  195MPD1    H2 2971   1.862   2.076   0.596  1.6040 -0.8517  0.7266
  195MPD1    H3 2972   2.102   2.078   0.615 -1.1722 -0.0530  0.3148
  195MPD1     N 2973   2.157   1.793   0.268  0.4589  0.3365 -0.3908
  195MPD1    H5 2974   2.255   1.793   0.294  0.4672  2.0120 -0.4159
  195MPD1    N1 2975   1.715   1.920   0.439  0.1785  0.7118 -0.4772
  195MPD1    H6 2976   1.671   1.887   0.354  0.7277  0.0708 -0.5081
  195MPD1    H7 2977   1.661   2.000   0.473  0.1914  1.1813 -1.5541
  196MPD1     C 2978   1.357   1.491   0.130  0.1143 -0.3358 -0.2972
  196MPD1    C1 2979   1.405   1.361   0.141 -0.5641 -0.5474  0.6553
  196MPD1    C2 2980   1.438   1.317   0.268 -0.2694 -0.2299  0.3579
  196MPD1    C3 2981   1.386   1.383   0.379 -0.4995 -0.0176  0.2917
  196MPD1    C4 2982   1.329   1.512   0.366 -0.0241  0.1790  0.2066
  196MPD1    C5 2983   1.318   1.559   0.238  0.2391 -0.1315 -0.3797
  196MPD1     H 2984   1.490   1.222   0.274  1.5588  0.6766 -1.1327
  196MPD1    H1 2985   1.290   1.572   0.447  0.3295  1.8414 -0.8606
  196MPD1    H2 2986   1.342   1.535   0.032  0.0052  1.5298  0.5675
  196MPD1    H3 2987   1.279   1.659   0.220  2.2519  0.5806 -0.8307
  196MPD1     N 2988   1.404   1.338   0.513 -0.3938  0.3929 -0.4535
  196MPD1    H5 2989   1.369   1.404   0.582  0.4028  0.7676 -0.3932
  196MPD1    N1 2990   1.452   1.301   0.027  0.1227 -0.8371  0.0708
  196MPD1    H6 2991   1.426   1.202   0.029 -2.1293 -0.2101  1.7385
  196MPD1    H7 2992   1.396   1.334  17.642  2.2163  0.7767 -0.7639
  197MPD1     C 2993   1.204   3.158  17.155  0.0375 -0.3961 -0.3648
  197MPD1    C1 2994   1.335   3.195  17.173  0.6201 -0.1130 -0.0701
  197MPD1    C2 2995   1.381   3.296  17.089 -0.0815 -0.4614  0.0416
  197MPD1    C3 2996   1.310   3.341  16.979 -0.8419  0.4917 -0.6493
  197MPD1    C4 2997   1.187   3.282  16.957 -0.2005 -0.1619 -0.5094
  197MPD1    C5 2998   1.132   3.192  17.043 -0.1107 -0.8248 -0.2664
  197MPD1     H 2999   1.472   3.341  17.127 -0.6621  0.4450  0.3470
  197MPD1    H1 3000   1.128   3.305  16.869  2.3827  1.8138 -1.7384
  197MPD1    H2 3001   1.154   3.096  17.229 -3.2165 -0.4823 -2.6697
  197MPD1    H3 3002   1.032   3.157  17.021 -0.1803 -0.4267 -0.5873
  197MPD1     N 3003   1.353   3.443  16.886 -0.1794 -0.1287  0.2649
  197MPD1    H5 3004   1.283   3.482  16.825  1.3116  0.0383 -1.3208
  197MPD1    N1 3005   1.407   3.175  17.286 -0.1182  0.0425 -0.1828
  197MPD1    H6 3006   1.505   3.200  17.275  0.0628 -0.8724 -0.6010
  197MPD1    H7 3007   1.402   3.088  17.338  0.8821 -0.6005 -1.1857
  198MPD1     C 3008   3.739   1.649  15.937 -0.3399 -0.0958  0.7657
  198MPD1    C1 3009   3.810   1.765  15.945  0.2183 -0.1180  0.1806
  198MPD1    C2 3010   3.741   1.878  15.988 -0.2383  0.0859  0.9223
  198MPD1    C3 3011   3.599   1.875  16.001 -0.2038  0.1897  0.2950
  198MPD1    C4 3012   3.525   1.761  15.974 -0.3093 -0.6666  0.1673
  198MPD1    C5 3013   3.600   1.648  15.952  1.1480  0.2703 -0.0827
  198MPD1     H 3014   3.801   1.967  16.004 -1.9609  1.7534 -1.8627
  198MPD1    H1 3015   3.419   1.763  15.996 -0.3319  0.0850  0.0097
  198MPD1    H2 3016   3.773   1.546  15.928  1.6992  0.5659  0.8399
  198MPD1    H3 3017   3.552   1.551  15.959 -0.0293  0.9945  2.0196
  198MPD1     N 3018   3.547   1.997  16.031 -1.0575 -0.2489  0.0011
  198MPD1    H5 3019   3.608   2.075  16.054  0.3233 -0.7964 -1.8178
  198MPD1    N1 3020   3.944   1.767  15.939  0.0481  0.1667  0.1044
  198MPD1    H6 3021   3.971   1.696  15.871 -1.6745  0.9956 -1.4218
  198MPD1    H7 3022   3.974   1.861  15.912 -0.3306  0.7070  1.5816
  199MPD1     C 3023   1.492   2.331   9.542 -0.2661 -0.4833  0.0166
  199MPD1    C1 3024   1.429   2.246   9.468  0.5627  0.4171 -0.0946
  199MPD1    C2 3025   1.299   2.200   9.486  0.3227 -0.2035 -0.2496
  199MPD1    C3 3026   1.222   2.264   9.585  0.4722  0.2761  0.0874
  199MPD1    C4 3027   1.290   2.361   9.660  0.7750  0.2138 -0.2085
  199MPD1    C5 3028   1.422   2.395   9.638 -0.1575 -0.9006  0.0115
  199MPD1     H 3029   1.253   2.122   9.427 -0.0974 -0.4345  0.3750
  199MPD1    H1 3030   1.250   2.400   9.753 -1.4779 -3.4752  0.3937
  199MPD1    H2 3031   1.595   2.359   9.524 -0.6331  2.0375  1.8168
  199MPD1    H3 3032   1.468   2.473   9.698  0.1711 -0.7336 -0.4576
  199MPD1     N 3033   1.080   2.254   9.599  0.7491 -0.0080  0.2120
  199MPD1    H5 3034   1.045   2.310   9.676 -3.2341 -1.4759 -0.5652
  199MPD1    N1 3035   1.513   2.181   9.383  0.1145  0.5373 -0.1938
  199MPD1    H6 3036   1.478   2.135   9.299  0.4011 -1.1667  0.6072
  199MPD1    H7 3037   1.584   2.244   9.346  1.8938 -2.0012 -1.1436
  200MPD1     C 3038   4.577   2.669  15.357  0.3173  0.1592  0.5874
  200MPD1    C1 3039   4.615   2.789  15.316 -0.3286 -0.9922 -0.2127
  200MPD1    C2 3040   4.576   2.831  15.188  0.4101  0.3274 -0.6346
  200MPD1    C3 3041   4.484   2.756  15.109  0.5727  0.9482 -0.0345
  200MPD1    C4 3042   4.436   2.645  15.163  0.4847  0.3720 -1.0953
  200MPD1    C5 3043   4.481   2.599  15.289  1.4724  0.0870 -0.2725
  200MPD1     H 3044   4.621   2.921  15.150 -0.0535  0.0631 -1.8206
  200MPD1    H1 3045   4.373   2.579  15.104  0.0839 -1.2214  1.1255
  200MPD1    H2 3046   4.610   2.629  15.452  2.1387  2.5646  0.9895
  200MPD1    H3 3047   4.430   2.515  15.334 -0.1808  1.5876  0.6282
  200MPD1     N 3048   4.456   2.805  14.980 -0.2782  0.4803 -0.3365
  200MPD1    H5 3049   4.482   2.900  14.955 -0.0009  0.1736 -1.2038
  200MPD1    N1 3050   4.714   2.866  15.382  0.3360  0.5196 -0.1040
  200MPD1    H6 3051   0.009   2.964  15.360 -0.7636  0.9352  0.8588
  200MPD1    H7 3052   0.004   2.840  15.480  0.0635  1.4942  0.1934
  201MPD1     C 3053   2.469   2.355  12.849 -0.0379  0.1351  0.1103
  201MPD1    C1 3054   2.590   2.306  12.799  0.1336 -0.0082 -0.3495
  201MPD1    C2 3055   2.633   2.178  12.824 -0.1274 -0.2230 -0.1890
  201MPD1    C3 3056   2.544   2.084  12.878  0.1569  0.4152 -0.3733
  201MPD1    C4 3057   2.425   2.132  12.929  0.0003 -0.1876  0.0922
  201MPD1    C5 3058   2.382   2.260  12.903  0.0132 -0.1171 -0.5053
  201MPD1     H 3059   2.731   2.142  12.795 -0.8333 -1.9056 -0.4833
  201MPD1    H1 3060   2.369   2.065  12.993 -0.5974  0.1967 -0.0225
  201MPD1    H2 3061   2.435   2.458  12.844  3.4745  1.3181  0.6077
  201MPD1    H3 3062   2.287   2.306  12.928 -0.0016  1.0611 -2.7631
  201MPD1     N 3063   2.588   1.950  12.891 -0.0012  0.6634  0.2856
  201MPD1    H5 3064   2.681   1.933  12.855 -0.3977 -2.2035  0.5952
  201MPD1    N1 3065   2.690   2.399  12.765 -0.0124  0.0143  0.3025
  201MPD1    H6 3066   2.766   2.363  12.709 -1.6766 -1.0396 -1.2458
  201MPD1    H7 3067   2.652   2.486  12.727  0.1289  1.0734  2.5646
  202MPD1     C 3068   2.583   0.932  10.217  0.1691 -0.1616 -0.5413
  202MPD1    C1 3069   2.495   1.046  10.236 -0.3878  0.1146  0.1469
  202MPD1    C2 3070   2.362   1.025  10.214  0.0668 -0.2044  0.6899
  202MPD1    C3 3071   2.331   0.924  10.127  0.2288  0.0507 -0.0225
  202MPD1    C4 3072   2.422   0.830  10.084 -0.1417  0.5483  0.7888
  202MPD1    C5 3073   2.547   0.827  10.136 -0.0429 -0.1061 -0.4524
  202MPD1     H 3074   2.288   1.103  10.231 -1.7311 -2.0447  1.2415
  202MPD1    H1 3075   2.390   0.745  10.026  1.2922 -0.0654  0.8823
  202MPD1    H2 3076   2.687   0.930  10.249 -0.1181  1.7126  0.5263
  202MPD1    H3 3077   2.615   0.751  10.098  0.4003 -0.7924  1.7307
  202MPD1     N 3078   2.207   0.900  10.079 -0.1569 -0.4659  0.4226
  202MPD1    H5 3079   2.206   0.836  10.000  2.0471 -0.7408  0.6144
  202MPD1    N1 3080   2.528   1.140  10.331 -0.2336  0.1129  0.4873
  202MPD1    H6 3081   2.462   1.217  10.324  0.6686  0.8686  0.3150
  202MPD1    H7 3082   2.623   1.170  10.309 -0.2946  0.3124  0.4997
  203MPD1     C 3083   0.784   2.751  12.479 -0.0529  0.0952  0.2996
  203MPD1    C1 3084   0.742   2.645  12.401  0.4440 -0.4504  0.1625
  203MPD1    C2 3085   0.801   2.523  12.432 -0.1609  0.1726  0.8914
  203MPD1    C3 3086   0.893   2.508  12.531 -0.7971 -0.4472 -0.2116
  203MPD1    C4 3087   0.924   2.617  12.602 -0.1536 -0.3638 -0.7690
  203MPD1    C5 3088   0.862   2.733  12.585  1.1827  0.3601  0.0361
  203MPD1     H 3089   0.772   2.434  12.377 -0.0255  0.0023  1.0998
  203MPD1    H1 3090   0.996   2.611  12.683  0.4805  0.7964 -1.2391
  203MPD1    H2 3091   0.752   2.854  12.468 -4.2363 -1.1789  0.7188
  203MPD1    H3 3092   0.885   2.811  12.656 -0.3852  0.8499  0.0058
  203MPD1     N 3093   0.957   2.381  12.541  0.4183  0.2839  0.2208
  203MPD1    H5 3094   0.926   2.314  12.471 -0.6948 -0.1762  1.1693
  203MPD1    N1 3095   0.624   2.649  12.327  0.4878 -0.3414 -0.0362
  203MPD1    H6 3096   0.613   2.738  12.279 -1.1088 -1.3289 -1.4872
  203MPD1    H7 3097   0.608   2.583  12.251 -2.9889  1.2809 -0.7313
  204MPD1     C 3098   0.380   3.990   0.151  0.4311 -0.2205  0.7827
  204MPD1    C1 3099   0.277   3.899   0.169 -0.2287  1.1235  0.7072
  204MPD1    C2 3100   0.241   3.823   0.060  0.6032 -0.2859  1.0013
  204MPD1    C3 3101   0.305   3.845  17.630  0.0035  0.3747  0.4129
  204MPD1    C4 3102   0.397   3.946  17.608  0.1859  0.2278 -0.1816
  204MPD1    C5 3103   0.432   4.021   0.028 -0.3223  0.3359  0.2123
  204MPD1     H 3104   0.154   3.759   0.063  1.2283 -1.1852 -0.3433
  204MPD1    H1 3105   0.436   3.975  17.511 -2.2722  1.8457 -0.6980
  204MPD1    H2 3106   0.413   4.043   0.239 -1.2998  0.4876  1.0159
  204MPD1    H3 3107   0.510   4.095   0.022 -0.1773  0.1067 -0.7386
  204MPD1     N 3108   0.276   3.751  17.526 -0.2534 -0.4832  0.4404
  204MPD1    H5 3109   0.197   3.691  17.546 -0.8394  0.1246 -0.0759
  204MPD1    N1 3110   0.224   3.878   0.293  0.3406  0.1776 -0.3060
  204MPD1    H6 3111   0.234   3.962   0.350 -3.6868  2.2309 -2.5950
  204MPD1    H7 3112   0.123   3.862   0.286  0.2497  0.2129  0.8716
  205MPD1     C 3113   0.726   2.211  17.461 -0.1632 -0.8494  0.5241
  205MPD1    C1 3114   0.754   2.241  17.592  0.7528 -0.3045  0.5853
  205MPD1    C2 3115   0.655   2.302  17.666 -0.0102 -0.0974  0.3340
  205MPD1    C3 3116   0.542   2.350  17.598  0.5272  0.0335  0.3674
  205MPD1    C4 3117   0.525   2.340  17.463  0.6700 -0.1538  0.4012
  205MPD1    C5 3118   0.619   2.270  17.398 -0.6418  0.1448  0.1538
  205MPD1     H 3119   0.656   2.285   0.080 -0.9845 -3.6935 -0.2324
  205MPD1    H1 3120   0.435   2.384  17.421  1.6319  0.1614 -1.3041
  205MPD1    H2 3121   0.779   2.141  17.396  1.0609  1.1704 -0.6630
  205MPD1    H3 3122   0.606   2.244  17.294 -0.4466 -2.4505  0.7783
  205MPD1     N 3123   0.443   2.426  17.658  0.1216 -0.4450  1.1567
  205MPD1    H5 3124   0.366   2.458  17.600  1.4650  1.4977  0.4283
  205MPD1    N1 3125   0.859   2.173  17.655 -0.6037 -0.2234  0.1249
  205MPD1    H6 3126   0.937   2.152  17.593  1.5416 -0.9012  3.0443
  205MPD1    H7 3127   0.898   2.224   0.040 -1.4760  0.1037  0.3476
  206MPD1     C 3128   0.623   0.738  16.973  0.3695 -0.1254 -0.6439
  206MPD1    C1 3129   0.491   0.770  16.972 -0.1025 -0.1357  0.8253
  206MPD1    C2 3130   0.411   0.760  16.860 -0.1284 -0.2702  0.1551
  206MPD1    C3 3131   0.471   0.722  16.744 -1.2926 -0.7728 -0.1525
  206MPD1    C4 3132   0.605   0.694  16.743  0.1637 -0.0838  0.2398
  206MPD1    C5 3133   0.673   0.700  16.856 -0.0123  0.2807  0.4735
  206MPD1     H 3134   0.309   0.797  16.866 -0.0784 -0.3061  1.2365
  206MPD1    H1 3135   0.654   0.657  16.654 -1.9431 -2.0175 -0.1254
  206MPD1    H2 3136   0.680   0.753  17.064 -2.5458 -3.4013  1.6911
  206MPD1    H3 3137   0.779   0.688  16.838 -0.2738  0.7232 -1.3411
  206MPD1     N 3138   0.404   0.715  16.625 -0.7669  0.2801 -0.8266
  206MPD1    H5 3139   0.459   0.686  16.545  2.3902  1.8982  0.7695
  206MPD1    N1 3140   0.445   0.844  17.080  0.1197 -0.1979  0.3398
  206MPD1    H6 3141   0.346   0.826  17.091 -0.2009 -0.0020 -2.2535
  206MPD1    H7 3142   0.489   0.822  17.170  0.8918 -0.5944 -0.1351
  207MPD1     C 3143   2.330   3.173   9.351  0.3280  0.5022  0.2223
  207MPD1    C1 3144   2.272   3.063   9.405  0.3304 -0.3456 -0.0781
  207MPD1    C2 3145   2.358   2.954   9.430 -0.2457 -0.2923  0.1564
  207MPD1    C3 3146   2.497   2.976   9.417  0.1490  0.4192  0.1983
  207MPD1    C4 3147   2.541   3.090   9.362  0.1234  0.4796  0.4933
  207MPD1    C5 3148   2.460   3.191   9.326  0.5081  0.3324 -0.1630
  207MPD1     H 3149   2.324   2.869   9.488 -2.0766  0.2899 -0.0668
  207MPD1    H1 3150   2.644   3.124   9.354 -0.1899  1.3817  0.2898
  207MPD1    H2 3151   2.271   3.262   9.334 -1.1965 -0.6289 -0.3367
  207MPD1    H3 3152   2.499   3.285   9.288  0.3798  0.2500 -0.4959
  207MPD1     N 3153   2.591   2.882   9.446 -0.8090  0.0292 -0.1201
  207MPD1    H5 3154   2.688   2.909   9.432 -0.0698 -1.1036  2.7111
  207MPD1    N1 3155   2.139   3.059   9.405  0.1345  0.2471  0.0864
  207MPD1    H6 3156   2.086   3.145   9.416  0.7746  0.4798  1.2948
  207MPD1    H7 3157   2.086   2.986   9.453 -1.3587  0.6060 -0.9940
  208MPD1     C 3158   4.005   1.203   0.633  0.7682  0.6107 -0.8269
  208MPD1    C1 3159   4.108   1.184   0.716 -0.2610 -0.5602  0.6342
  208MPD1    C2 3160   4.206   1.277   0.714  0.2805 -0.3504 -0.0326
  208MPD1    C3 3161   4.199   1.393   0.639  0.0187  0.0634  0.0773
  208MPD1    C4 3162   4.089   1.415   0.561 -0.5398 -0.2842  1.1224
  208MPD1    C5 3163   3.990   1.317   0.562  0.2866 -0.3786 -0.0042
  208MPD1     H 3164   4.300   1.261   0.766 -0.1177 -0.4619  0.6508
  208MPD1    H1 3165   4.069   1.510   0.512 -0.0044 -1.9356 -2.2504
  208MPD1    H2 3166   3.925   1.130   0.630  1.0148  0.2800  0.5375
  208MPD1    H3 3167   3.905   1.333   0.498 -0.0682 -1.7544  0.1140
  208MPD1     N 3168   4.310   1.477   0.644 -0.0746  0.2106 -0.3396
  208MPD1    H5 3169   4.382   1.454   0.712  0.5195  2.4527 -0.2170
  208MPD1    N1 3170   4.127   1.064   0.791 -1.0497  0.1925 -0.0219
  208MPD1    H6 3171   4.034   1.031   0.816 -0.5130 -0.5288  0.9944
  208MPD1    H7 3172   4.165   1.078   0.884 -0.6116 -0.6872 -0.0741
  209MPD1     C 3173   3.246   1.220  10.463  0.4159 -0.2925 -0.5882
  209MPD1    C1 3174   3.241   1.319  10.566 -0.8472 -0.1951 -0.0458
  209MPD1    C2 3175   3.146   1.419  10.553 -0.4139  0.0362  0.3895
  209MPD1    C3 3176   3.077   1.432  10.429 -0.3462  0.1967 -0.9125
  209MPD1    C4 3177   3.100   1.344  10.328 -0.2739  0.1768  0.0245
  209MPD1    C5 3178   3.177   1.237  10.350 -0.6899 -0.3084 -0.3742
  209MPD1     H 3179   3.133   1.489  10.635 -0.3447  2.7948 -1.9664
  209MPD1    H1 3180   3.046   1.345  10.234 -0.5533 -0.4937  0.1795
  209MPD1    H2 3181   3.306   1.130  10.471 -1.1032 -0.9838  3.1087
  209MPD1    H3 3182   3.179   1.164  10.270 -0.0203  0.3506 -0.9568
  209MPD1     N 3183   2.994   1.545  10.421 -0.2118  0.5308 -0.6587
  209MPD1    H5 3184   2.979   1.607  10.500 -0.7260 -0.4812  0.0450
  209MPD1    N1 3185   3.299   1.302  10.696  0.0911 -0.0417  0.4961
  209MPD1    H6 3186   3.311   1.391  10.744  2.7656  1.1910 -2.4607
  209MPD1    H7 3187   3.384   1.247  10.699  2.3152  3.3104 -1.1805
  210MPD1     C 3188   2.802   2.326  10.899  0.1359 -0.0464 -0.3333
  210MPD1    C1 3189   2.694   2.242  10.872  0.8006  0.4946 -0.2674
  210MPD1    C2 3190   2.707   2.167  10.752 -0.2941 -0.1733  0.5157
  210MPD1    C3 3191   2.825   2.172  10.677  0.3871  0.3887 -0.0745
  210MPD1    C4 3192   2.912   2.269  10.703 -0.3600  0.3262 -0.1365
  210MPD1    C5 3193   2.909   2.341  10.818 -0.0647  0.7341  0.0529
  210MPD1     H 3194   2.630   2.095  10.726  1.0100 -1.0806 -0.8193
  210MPD1    H1 3195   3.000   2.278  10.640  0.7730  2.7845  1.8426
  210MPD1    H2 3196   2.794   2.388  10.988 -3.2804  1.2821 -1.5722
  210MPD1    H3 3197   2.986   2.413  10.842  1.2352 -0.9589  0.9528
  210MPD1     N 3198   2.853   2.085  10.564  0.0105  0.2627  0.4006
  210MPD1    H5 3199   2.916   2.113  10.490 -1.0815  0.0561 -0.5909
  210MPD1    N1 3200   2.595   2.227  10.973  0.2128  0.4881  0.2535
  210MPD1    H6 3201   2.508   2.196  10.929  1.3210 -1.2249 -0.7585
  210MPD1    H7 3202   2.572   2.305  11.033  1.5477 -0.1282  1.5568
  211MPD1     C 3203   1.252   2.142  16.216  0.1869 -0.5652 -0.0079
  211MPD1    C1 3204   1.138   2.110  16.287 -0.1507  0.3954  0.2695
  211MPD1    C2 3205   1.051   2.206  16.332  0.2955 -0.4060  0.7080
  211MPD1    C3 3206   1.074   2.340  16.293  0.2885  0.0161  0.2092
  211MPD1    C4 3207   1.182   2.371  16.218  0.1317 -0.3347 -0.0674
  211MPD1    C5 3208   1.276   2.270  16.186  0.6690  0.1691 -0.6664
  211MPD1     H 3209   0.967   2.180  16.395  0.9139  0.9465  2.1201
  211MPD1    H1 3210   1.192   2.472  16.179 -2.5326 -0.3568 -0.7952
  211MPD1    H2 3211   1.317   2.062  16.182 -0.8176 -0.7860 -1.4217
  211MPD1    H3 3212   1.366   2.292  16.130  0.5881 -2.4473 -1.8133
  211MPD1     N 3213   0.979   2.435  16.342 -0.2558  0.4683  0.4473
  211MPD1    H5 3214   0.898   2.395  16.388 -1.6156  1.5106 -1.0333
  211MPD1    N1 3215   1.094   1.977  16.303 -0.7504  0.4289 -0.0068
  211MPD1    H6 3216   1.170   1.911  16.289 -0.8727 -0.6975  4.6763
  211MPD1    H7 3217   1.059   1.960  16.397  0.5772 -1.6022  0.1184
  212MPD1     C 3218   0.630   0.148  17.438 -0.0297  0.2637 -0.0302
  212MPD1    C1 3219   0.622   0.074  17.327  0.0895 -0.3000  0.4152
  212MPD1    C2 3220   0.508   0.069  17.248 -0.4865 -0.2013  0.3443
  212MPD1    C3 3221   0.393   0.147  17.289 -0.4977  0.3394 -0.1523
  212MPD1    C4 3222   0.399   0.220  17.407 -0.1997 -0.8104 -0.0469
  212MPD1    C5 3223   0.520   0.224  17.472 -0.5695 -0.4254 -0.2682
  212MPD1     H 3224   0.509   0.002  17.162  0.2816  0.2663 -0.0074
  212MPD1    H1 3225   0.331   0.299  17.437  0.1708 -0.4051 -0.2701
  212MPD1    H2 3226   0.713   0.136  17.507 -2.3185 -1.0773  2.4756
  212MPD1    H3 3227   0.532   0.285  17.560  1.2612 -2.1304  0.6630
  212MPD1     N 3228   0.270   0.140  17.221 -0.1171  0.4034 -1.1558
  212MPD1    H5 3229   0.196   0.191  17.269  2.6447  3.3337  0.0184
  212MPD1    N1 3230   0.726   4.710  17.286  0.2607  0.0425  0.1207
  212MPD1    H6 3231   0.815   0.016  17.325  1.1552 -0.8885 -1.2418
  212MPD1    H7 3232   0.728   4.678  17.190  1.3966  0.7884 -0.1078
  213MPD1     C 3233   2.840   1.368  16.074  0.2417  0.2743 -0.2946
  213MPD1    C1 3234   2.863   1.265  15.985  0.2166  0.2452 -0.7831
  213MPD1    C2 3235   2.905   1.300  15.856 -0.6807 -0.2500  0.0075
  213MPD1    C3 3236   2.878   1.429  15.804 -0.2305  0.0698  0.4098
  213MPD1    C4 3237   2.816   1.519  15.888  0.1880 -0.3502 -0.1711
  213MPD1    C5 3238   2.806   1.489  16.023  0.2713 -0.0557  0.0714
  213MPD1     H 3239   2.941   1.225  15.786 -0.9947  0.6813 -1.1511
  213MPD1    H1 3240   2.780   1.619  15.867  0.1289 -0.7509 -1.9634
  213MPD1    H2 3241   2.814   1.350  16.178 -1.2424  0.0241 -0.7131
  213MPD1    H3 3242   2.773   1.557  16.101  0.1950  0.8703 -0.7751
  213MPD1     N 3243   2.898   1.450  15.668  0.8014 -0.1203 -0.0765
  213MPD1    H5 3244   2.939   1.373  15.617 -1.0055  0.4147 -2.3542
  213MPD1    N1 3245   2.909   1.138  16.035  0.1585  0.3930  0.3203
  213MPD1    H6 3246   2.893   1.066  15.964  0.0906  0.0955  0.6360
  213MPD1    H7 3247   2.869   1.106  16.122 -0.2662  3.3670  1.2105
  214MPD1     C 3248   2.765   0.824  15.157 -0.3552 -0.1717 -0.9507
  214MPD1    C1 3249   2.776   0.920  15.064  0.3447  0.1405  0.1986
  214MPD1    C2 3250   2.790   1.052  15.093 -0.4759  0.5329 -0.1028
  214MPD1    C3 3251   2.828   1.086  15.226 -0.1561 -0.0066  0.1266
  214MPD1    C4 3252   2.831   0.982  15.320  0.2640 -0.2800 -0.2131
  214MPD1    C5 3253   2.797   0.856  15.287 -0.0678 -0.2723 -0.3820
  214MPD1     H 3254   2.753   1.121  15.019  0.1683  1.4871  0.4687
  214MPD1    H1 3255   2.843   1.007  15.424  0.0498  2.5418 -0.8822
  214MPD1    H2 3256   2.739   0.720  15.143 -0.5584 -0.5626  2.4300
  214MPD1    H3 3257   2.790   0.785  15.369  1.0673  0.4952  0.3736
  214MPD1     N 3258   2.847   1.211  15.273 -0.0920  0.1301  0.1412
  214MPD1    H5 3259   2.872   1.218  15.371  0.5258 -3.2226  0.2015
  214MPD1    N1 3260   2.738   0.874  14.936 -0.1873  0.2458 -0.0481
  214MPD1    H6 3261   2.776   0.931  14.860  1.5206  0.8488  1.2525
  214MPD1    H7 3262   2.771   0.779  14.921 -1.3209 -0.6496  3.1822
  215MPD1     C 3263   1.861   2.167  11.129  0.4744 -0.7324 -0.3218
  215MPD1    C1 3264   1.840   2.274  11.216 -0.6727 -0.0801 -0.0665
  215MPD1    C2 3265   1.950   2.351  11.237  0.2573  0.2184 -0.5699
  215MPD1    C3 3266   2.071   2.337  11.169 -0.2103  0.8463  0.6840
  215MPD1    C4 3267   2.086   2.239  11.077 -0.1274  0.3216 -0.4083
  215MPD1    C5 3268   1.982   2.152  11.056 -0.5501  0.4047 -0.3860
  215MPD1     H 3269   1.950   2.434  11.307 -0.5830 -0.5349  0.3130
  215MPD1    H1 3270   2.186   2.222  11.039 -0.1137 -1.1965  0.3032
  215MPD1    H2 3271   1.788   2.090  11.112  0.7450 -1.3170  1.1113
  215MPD1    H3 3272   2.007   2.067  10.994 -0.8835  0.8096 -1.0854
  215MPD1     N 3273   2.178   2.413  11.217  0.3139  0.3620 -0.5034
  215MPD1    H5 3274   2.163   2.460  11.306  1.2586  2.3317 -1.3768
  215MPD1    N1 3275   1.729   2.284  11.302  0.0598  0.0249  0.1922
  215MPD1    H6 3276   1.715   2.382  11.325  2.9835  0.0464  1.9009
  215MPD1    H7 3277   1.643   2.244  11.268 -0.8465  3.1314 -1.1949
  216MPD1     C 3278   0.125   4.382  16.910 -0.3533 -0.0060  0.2135
  216MPD1    C1 3279   0.236   4.397  16.987 -0.9521 -0.1369  0.9270
  216MPD1    C2 3280   0.224   4.469  17.103 -0.3392 -0.0716  0.7357
  216MPD1    C3 3281   0.100   4.512  17.146  0.0240  0.6895  0.3200
  216MPD1    C4 3282   4.715   4.490  17.066 -0.0206 -0.1284  0.8900
  216MPD1    C5 3283   0.003   4.425  16.952  0.2025 -0.0871  0.5513
  216MPD1     H 3284   0.314   4.492  17.159 -0.2986  2.0859 -0.2104
  216MPD1    H1 3285   4.615   4.523  17.090 -0.5076 -1.7381  1.0985
  216MPD1    H2 3286   0.136   4.343  16.809  1.5459  0.9484  0.0671
  216MPD1    H3 3287   4.648   4.422  16.876  1.0791 -0.4751 -0.3352
  216MPD1     N 3288   0.082   4.573  17.274  0.4666 -0.7085  0.7215
  216MPD1    H5 3289   0.169   4.593  17.321 -0.8846  3.3273  1.5439
  216MPD1    N1 3290   0.355   4.360  16.936  0.1214  0.4767  0.3195
  216MPD1    H6 3291   0.341   4.290  16.863 -1.3635  0.5014  0.5787
  216MPD1    H7 3292   0.416   4.331  17.012 -1.4590 -2.4793  0.4827
  217MPD1     C 3293   4.572   0.866   8.897 -0.3392 -0.0589  0.7158
  217MPD1    C1 3294   4.698   0.818   8.853  0.9945 -0.0387  0.1065
  217MPD1    C2 3295   0.085   0.806   8.938 -0.8936 -0.3093  0.0063
  217MPD1    C3 3296   0.055   0.820   9.068 -0.7613  0.2676  0.1780
  217MPD1    C4 3297   4.660   0.870   9.120  0.7490 -0.0110 -0.3827
  217MPD1    C5 3298   4.554   0.891   9.032 -0.2082 -0.1410 -0.9634
  217MPD1     H 3299   0.182   0.795   8.891  0.1828  1.8888  1.7244
  217MPD1    H1 3300   4.650   0.882   9.227  0.0629  0.1709 -0.4626
  217MPD1    H2 3301   4.491   0.887   8.829 -0.2198 -1.5379  0.1206
  217MPD1    H3 3302   4.465   0.937   9.072  0.2933 -0.4777  0.5354
  217MPD1     N 3303   0.150   0.813   9.166  0.4416 -0.0590 -0.1509
  217MPD1    H5 3304   0.119   0.856   9.252  0.4185  4.6290 -2.4988
  217MPD1    N1 3305   4.713   0.806   8.717 -0.4902 -0.3478 -0.1651
  217MPD1    H6 3306   4.620   0.793   8.679 -0.5852 -2.1053  0.6767
  217MPD1    H7 3307   0.051   0.726   8.700 -1.7510 -0.7362 -2.7854
  218MPD1     C 3308   1.816   2.137  12.849 -1.0598  0.0630  0.1281
  218MPD1    C1 3309   1.899   2.030  12.824 -1.0005  0.4657  0.3111
  218MPD1    C2 3310   2.011   2.039  12.746  0.0948  0.2535  0.4411
  218MPD1    C3 3311   2.046   2.163  12.700  0.2314  0.1042 -0.3791
  218MPD1    C4 3312   1.962   2.275  12.741  0.8316  0.5488 -1.0379
  218MPD1    C5 3313   1.848   2.258  12.808 -0.4485 -0.6096 -0.6341
  218MPD1     H 3314   2.061   1.949  12.714  1.1555  0.2286  2.1727
  218MPD1    H1 3315   1.988   2.375  12.707  2.8610  0.6114  0.7039
  218MPD1    H2 3316   1.722   2.111  12.897 -0.7497  0.5251  0.9799
  218MPD1    H3 3317   1.795   2.345  12.847 -0.3789 -0.6176 -0.5224
  218MPD1     N 3318   2.169   2.169  12.624  0.1350 -0.0570 -0.0349
  218MPD1    H5 3319   2.208   2.076  12.613 -1.3471 -0.6541 -0.2687
  218MPD1    N1 3320   1.856   1.898  12.860 -0.2519  0.7830  0.1076
  218MPD1    H6 3321   1.938   1.838  12.860  0.4927  1.7937 -0.3720
  218MPD1    H7 3322   1.817   1.899  12.954 -1.9896  2.0623 -0.6177
  219MPD1     C 3323   2.080   2.150  11.744 -0.0142 -0.4955 -0.3204
  219MPD1    C1 3324   2.207   2.204  11.741  0.1087  0.4878 -0.8177
  219MPD1    C2 3325   2.265   2.238  11.863 -0.1389 -0.5549 -0.1880
  219MPD1    C3 3326   2.202   2.238  11.982  0.7658  0.0027  0.1865
  219MPD1    C4 3327   2.069   2.193  11.980  0.1724  0.1163 -0.0793
  219MPD1    C5 3328   2.014   2.149  11.865  0.3162 -0.3609 -0.3732
  219MPD1     H 3329   2.365   2.278  11.851 -0.2685  0.0345  0.7476
  219MPD1    H1 3330   2.003   2.180  12.066  0.8433 -2.8950 -0.0418
  219MPD1    H2 3331   2.026   2.121  11.654 -1.9143  2.5025 -0.1678
  219MPD1    H3 3332   1.907   2.130  11.870  0.2230  0.1163 -0.5866
  219MPD1     N 3333   2.258   2.285  12.105 -0.9530  0.6865  0.0984
  219MPD1    H5 3334   2.194   2.271  12.182 -1.1092 -0.1981 -0.1911
  219MPD1    N1 3335   2.276   2.188  11.621  0.0466  0.2549  0.4868
  219MPD1    H6 3336   2.348   2.259  11.612  1.0858 -0.6529  1.6790
  219MPD1    H7 3337   2.208   2.193  11.545  1.4494 -0.0521 -0.7753
  220MPD1     C 3338   2.685   3.241   9.669  1.0444  0.2033 -0.3638
  220MPD1    C1 3339   2.797   3.212   9.751 -0.0324 -0.6414 -0.4297
  220MPD1    C2 3340   2.787   3.094   9.833 -0.1334  0.2758 -0.0376
  220MPD1    C3 3341   2.673   3.015   9.833  0.5531  0.2052  0.2050
  220MPD1    C4 3342   2.567   3.057   9.757 -0.4662 -0.5268  0.6902
  220MPD1    C5 3343   2.568   3.176   9.686 -0.2362 -0.1968 -0.0168
  220MPD1     H 3344   2.881   3.060   9.876  1.0371 -0.0132 -2.8166
  220MPD1    H1 3345   2.477   2.998   9.746 -0.7274 -0.2248  1.2804
  220MPD1    H2 3346   2.701   3.320   9.597 -1.1069  0.1153 -0.9212
  220MPD1    H3 3347   2.484   3.214   9.630 -0.3369 -1.7877 -0.9463
  220MPD1     N 3348   2.666   2.911   9.926  0.1003  0.3880  0.4080
  220MPD1    H5 3349   2.746   2.914   9.988 -0.3403 -1.0796  1.0394
  220MPD1    N1 3350   2.916   3.279   9.730 -0.4212  0.4622 -0.5023
  220MPD1    H6 3351   2.950   3.297   9.824  2.6125 -1.0361 -1.3041
  220MPD1    H7 3352   2.889   3.372   9.699  1.4939  1.2083  0.0408
  221MPD1     C 3353   0.174   2.138  17.034  1.6182  0.7750  0.4831
  221MPD1    C1 3354   0.304   2.096  17.060 -0.2862  0.1607 -0.1070
  221MPD1    C2 3355   0.369   2.020  16.965  0.2698 -0.3616  0.0845
  221MPD1    C3 3356   0.298   1.961  16.858 -0.0330  0.9869  0.3153
  221MPD1    C4 3357   0.162   1.991  16.850  0.4674 -0.4467 -0.0996
  221MPD1    C5 3358   0.097   2.077  16.939 -0.2330 -0.7154 -0.4481
  221MPD1     H 3359   0.473   1.996  16.984  0.9409 -0.3255 -3.7315
  221MPD1    H1 3360   0.110   1.940  16.770 -0.7930 -0.2803  0.6097
  221MPD1    H2 3361   0.134   2.213  17.101 -0.9340 -0.8176  0.7258
  221MPD1    H3 3362   4.713   2.096  16.940 -0.2113 -0.7184  2.9032
  221MPD1     N 3363   0.355   1.870  16.764 -0.1781  0.0137  0.1385
  221MPD1    H5 3364   0.299   1.843  16.683 -1.5119  0.5175  0.8881
  221MPD1    N1 3365   0.372   2.158  17.168  0.0995  0.8879  0.2206
  221MPD1    H6 3366   0.444   2.093  17.198 -0.6104 -0.1639 -0.3201
  221MPD1    H7 3367   0.305   2.186  17.239 -1.6057 -5.5568  1.1873
  222MPD1     C 3368   1.449   1.402  17.101  0.4339 -0.1935  0.4087
  222MPD1    C1 3369   1.344   1.484  17.085  0.2822 -0.5164  0.6524
  222MPD1    C2 3370   1.217   1.429  17.108 -0.0512 -0.1666  0.2450
  222MPD1    C3 3371   1.195   1.292  17.117 -0.3826 -0.0839  0.5109
  222MPD1    C4 3372   1.307   1.219  17.109 -0.1451 -0.0663  0.0820
  222MPD1    C5 3373   1.436   1.270  17.106  0.3727 -0.2232 -0.0546
  222MPD1     H 3374   1.131   1.494  17.101  0.9632  1.0507 -1.1414
  222MPD1    H1 3375   1.295   1.111  17.104  0.4637 -0.1663  0.7794
  222MPD1    H2 3376   1.553   1.429  17.084 -0.0585  1.6065  0.3035
  222MPD1    H3 3377   1.526   1.210  17.110  0.3853 -0.2290 -0.4582
  222MPD1     N 3378   1.071   1.226  17.122 -0.7242  0.8687  0.5399
  222MPD1    H5 3379   1.074   1.125  17.109 -0.1030  0.7503  1.6205
  222MPD1    N1 3380   1.364   1.622  17.090  0.1317 -0.2564 -0.1058
  222MPD1    H6 3381   1.457   1.642  17.052  0.0398 -2.4785 -1.5088
  222MPD1    H7 3382   1.298   1.671  17.030  0.1962 -0.8761 -0.6825
  223MPD1     C 3383   0.646   0.941  16.320  0.1823  0.3138 -0.1977
  223MPD1    C1 3384   0.528   0.978  16.384  0.7197 -0.1158 -0.1162
  223MPD1    C2 3385   0.541   1.013  16.516  0.2393 -0.2506 -1.2917
  223MPD1    C3 3386   0.655   0.996  16.595  0.4662 -0.2429 -0.2436
  223MPD1    C4 3387   0.764   0.942  16.537 -0.1532 -0.1961 -0.1261
  223MPD1    C5 3388   0.756   0.921  16.400  0.3032  0.2199  0.3525
  223MPD1     H 3389   0.462   1.071  16.563  0.8089 -0.0593 -0.5646
  223MPD1    H1 3390   0.860   0.926  16.586  1.2339 -0.1558 -2.8395
  223MPD1    H2 3391   0.665   0.921  16.215  2.4191  0.1350  0.2336
  223MPD1    H3 3392   0.851   0.889  16.360  1.1306  3.7009 -0.4529
  223MPD1     N 3393   0.653   1.027  16.739  0.0168 -0.0230  0.6085
  223MPD1    H5 3394   0.565   1.050  16.784 -1.7174 -0.4630 -2.5303
  223MPD1    N1 3395   0.415   1.020  16.318  0.1139  0.1014 -0.5320
  223MPD1    H6 3396   0.408   0.991  16.221  0.9609  1.1560 -0.9127
  223MPD1    H7 3397   0.332   1.007  16.374  0.6499  1.9445  0.6924
  224MPD1     C 3398   2.015   2.053   9.485 -0.2240  0.1908  0.1174
  224MPD1    C1 3399   2.042   1.923   9.511 -0.1680  0.1983 -0.5845
  224MPD1    C2 3400   1.946   1.834   9.556  0.5561  0.0423 -1.3194
  224MPD1    C3 3401   1.810   1.871   9.552  0.5130  0.1563 -0.2000
  224MPD1    C4 3402   1.784   2.002   9.541  0.6685 -0.0115  0.5133
  224MPD1    C5 3403   1.888   2.091   9.502 -0.1407  0.3343 -0.2277
  224MPD1     H 3404   1.972   1.730   9.566 -1.4021 -0.0406  3.1142
  224MPD1    H1 3405   1.680   2.032   9.538  0.6838  0.0604  0.6935
  224MPD1    H2 3406   2.096   2.125   9.470 -0.0382  0.5878  3.1233
  224MPD1    H3 3407   1.856   2.190   9.471 -0.2567 -0.2639 -2.0367
  224MPD1     N 3408   1.706   1.783   9.568  0.0817 -0.8671 -0.0060
  224MPD1    H5 3409   1.615   1.828   9.565  0.6904  0.3005 -1.1210
  224MPD1    N1 3410   2.172   1.880   9.491  0.3219 -0.3239  0.1351
  224MPD1    H6 3411   2.236   1.953   9.461 -1.5180  2.4170  2.9123
  224MPD1    H7 3412   2.208   1.838   9.576 -1.9693  0.9530  1.7247
  225MPD1     C 3413   2.801   3.100  12.366  0.3365  0.8442 -0.3645
  225MPD1    C1 3414   2.753   3.042  12.253  0.1324  0.5364  0.2719
  225MPD1    C2 3415   2.639   3.094  12.192  0.1909  0.1321 -0.3972
  225MPD1    C3 3416   2.574   3.210  12.244  0.8192 -0.5884  0.0013
  225MPD1    C4 3417   2.631   3.275  12.349 -1.0449  0.4957 -0.5565
  225MPD1    C5 3418   2.747   3.221  12.403 -0.6373 -0.8691  0.8413
  225MPD1     H 3419   2.615   3.044  12.099  2.4126 -1.5867 -0.0364
  225MPD1    H1 3420   2.583   3.364  12.388 -0.1502  0.1768  1.2438
  225MPD1    H2 3421   2.881   3.060  12.427  0.4515  0.3333 -0.8496
  225MPD1    H3 3422   2.782   3.265  12.496 -0.5951  1.4867 -0.3180
  225MPD1     N 3423   2.443   3.256  12.211  0.0942 -0.0428 -0.9620
  225MPD1    H5 3424   2.392   3.327  12.262  0.9477  0.9693 -1.5323
  225MPD1    N1 3425   2.798   2.915  12.213 -0.6227  0.6053 -0.1676
  225MPD1    H6 3426   2.900   2.921  12.215 -0.5529 -0.2283 -0.9899
  225MPD1    H7 3427   2.764   2.886  12.121 -1.9990  0.0328  0.5346
  226MPD1     C 3428   0.415   2.536   9.949  0.1284  0.4653  0.3282
  226MPD1    C1 3429   0.408   2.650  10.031 -0.4768  0.3316 -0.0277
  226MPD1    C2 3430   0.525   2.705  10.074  0.2003 -0.0677  0.3290
  226MPD1    C3 3431   0.648   2.647  10.044 -0.8703 -0.5163  0.6211
  226MPD1    C4 3432   0.651   2.531   9.965 -0.0441 -0.1102 -0.3057
  226MPD1    C5 3433   0.533   2.475   9.919 -0.0357  0.4176 -0.5159
  226MPD1     H 3434   0.514   2.792  10.138  0.4331 -1.4264  2.2324
  226MPD1    H1 3435   0.743   2.485   9.931  0.3807 -0.0663  0.8063
  226MPD1    H2 3436   0.329   2.489   9.903 -0.4937  1.3313  0.6130
  226MPD1    H3 3437   0.536   2.385   9.859  1.1380 -1.2174  1.9818
  226MPD1     N 3438   0.765   2.708  10.092  0.1156 -0.4625  0.0639
  226MPD1    H5 3439   0.750   2.795  10.142  0.6117 -0.3236 -0.0261
  226MPD1    N1 3440   0.288   2.721  10.062  0.0999  0.6830 -0.9132
  226MPD1    H6 3441   0.305   2.777  10.145 -0.2444  0.3408 -0.6100
  226MPD1    H7 3442   0.222   2.648  10.088  0.3703  0.8256  0.1790
  227MPD1     C 3443   0.866   3.388  10.623  0.3999 -0.2685 -0.1275
  227MPD1    C1 3444   0.782   3.281  10.599 -0.3177 -0.0645 -0.3231
  227MPD1    C2 3445   0.811   3.197  10.496 -0.3708 -1.2054 -1.2003
  227MPD1    C3 3446   0.917   3.217  10.415 -0.7456 -0.5522  0.3231
  227MPD1    C4 3447   1.002   3.328  10.435  0.2407  0.3161  0.7508
  227MPD1    C5 3448   0.973   3.415  10.541  0.6738 -0.1105  0.3839
  227MPD1     H 3449   0.744   3.112  10.479 -2.8143  0.3879  0.3823
  227MPD1    H1 3450   1.076   3.363  10.363 -0.6419  0.8011  0.0817
  227MPD1    H2 3451   0.843   3.452  10.708  1.5027 -1.5067  1.1049
  227MPD1    H3 3452   1.039   3.500  10.551 -2.2087  1.7865  3.3418
  227MPD1     N 3453   0.933   3.116  10.322  0.6356 -0.2506  0.0935
  227MPD1    H5 3454   0.880   3.030  10.321  2.3241 -1.2998  0.1457
  227MPD1    N1 3455   0.663   3.273  10.665 -0.0522 -0.2040  0.5124
  227MPD1    H6 3456   0.686   3.308  10.758  2.5941  0.4149 -0.3717
  227MPD1    H7 3457   0.596   3.338  10.626 -0.7696 -0.1415  1.8388
  228MPD1     C 3458   3.853   4.722  12.203  0.1948 -0.1620 -0.0262
  228MPD1    C1 3459   3.746   4.656  12.266 -0.0138 -0.2945  0.2323
  228MPD1    C2 3460   3.650   0.013  12.326 -0.2796 -0.3867  1.1928
  228MPD1    C3 3461   3.656   0.154  12.322 -0.3484 -0.3469  0.3851
  228MPD1    C4 3462   3.759   0.213  12.250  0.0275  0.1992 -0.2291
  228MPD1    C5 3463   3.852   0.132  12.195 -0.3632  0.2326 -0.6274
  228MPD1     H 3464   3.571   4.681  12.376 -0.0225 -1.9589 -0.0903
  228MPD1    H1 3465   3.759   0.321  12.240  0.4610  0.2570  0.3973
  228MPD1    H2 3466   3.935   4.667  12.158  0.0454  1.5318 -2.3704
  228MPD1    H3 3467   3.937   0.179  12.147  0.1115  0.2136  0.2043
  228MPD1     N 3468   3.558   0.221  12.393 -0.0815 -0.0794 -0.0932
  228MPD1    H5 3469   3.513   0.167  12.467 -0.6564  0.5417  0.0127
  228MPD1    N1 3470   3.748   4.522  12.294  0.6663 -0.6204  0.4089
  228MPD1    H6 3471   3.798   4.465  12.225 -1.2267 -0.6863 -0.9109
  228MPD1    H7 3472   3.656   4.484  12.316 -0.4294  0.6829 -1.8726
  229MPD1     C 3473   3.194   0.056  15.270  0.3211 -0.0194  0.6300
  229MPD1    C1 3474   3.143   4.684  15.186 -0.2898  0.3459 -0.1365
  229MPD1    C2 3475   3.215   4.575  15.159  0.6531  0.5655  0.2098
  229MPD1    C3 3476   3.344   4.559  15.211  0.6358  0.3740 -0.2722
  229MPD1    C4 3477   3.399   4.655  15.288  0.5670 -0.8142  0.0175
  229MPD1    C5 3478   3.325   0.041  15.315 -0.2837 -0.6378  0.3628
  229MPD1     H 3479   3.169   4.504  15.091 -0.5427 -0.2210  1.8527
  229MPD1    H1 3480   3.492   4.646  15.342  1.7489 -3.3599 -2.4564
  229MPD1    H2 3481   3.142   0.147  15.298  1.0135  0.4838  0.3055
  229MPD1    H3 3482   3.370   0.125  15.368  0.3274 -0.6264 -0.1764
  229MPD1     N 3483   3.420   4.437  15.196  1.1878 -0.6309  0.1412
  229MPD1    H5 3484   3.508   4.432  15.246  2.1068 -0.8208 -1.5071
  229MPD1    N1 3485   3.013   4.702  15.142 -1.1952 -0.3052 -0.1589
  229MPD1    H6 3486   2.974   4.639  15.072  2.8461 -0.1659 -2.5083
  229MPD1    H7 3487   2.971   0.072  15.145  0.2871  0.5331 -4.2586
  230MPD1     C 3488   4.238   3.975  15.388  0.4772 -0.2382 -0.5036
  230MPD1    C1 3489   4.190   3.876  15.305 -0.4105  0.1957  0.3665
  230MPD1    C2 3490   4.059   3.886  15.269 -0.1689  0.6730  0.3224
  230MPD1    C3 3491   3.986   3.998  15.301  0.1661 -0.0091  0.5191
  230MPD1    C4 3492   4.044   4.102  15.372  0.0241 -0.4045 -0.0778
  230MPD1    C5 3493   4.166   4.086  15.422 -0.0697 -0.8854  0.0548
  230MPD1     H 3494   4.018   3.799  15.219  0.7739  0.6737 -0.4696
  230MPD1    H1 3495   3.998   4.192  15.410  0.6490 -0.2467  0.3136
  230MPD1    H2 3496   4.342   3.973  15.417  0.7322 -0.2340 -1.4238
  230MPD1    H3 3497   4.207   4.163  15.485 -1.7654  0.2206 -0.1764
  230MPD1     N 3498   3.848   4.010  15.263 -0.4889  0.9858 -0.1295
  230MPD1    H5 3499   3.802   3.932  15.218  1.5389 -0.5740  0.4715
  230MPD1    N1 3500   4.260   3.763  15.270  0.3211 -0.5780  0.2110
  230MPD1    H6 3501   4.360   3.778  15.278  0.5183 -1.6837 -0.1939
  230MPD1    H7 3502   4.245   3.722  15.178  4.2768  2.2355 -1.6557
  231MPD1     C 3503   1.883   1.520  15.325 -0.2076 -0.5958 -0.8763
  231MPD1    C1 3504   1.946   1.403  15.290  0.1370  0.0326  0.2163
  231MPD1    C2 3505   2.073   1.413  15.238 -0.0253 -0.3968  0.2636
  231MPD1    C3 3506   2.147   1.532  15.235 -0.3124 -0.1859  0.1062
  231MPD1    C4 3507   2.072   1.642  15.260  0.3410 -0.7769 -0.1311
  231MPD1    C5 3508   1.944   1.638  15.301  0.1177 -0.1022  0.0126
  231MPD1     H 3509   2.133   1.325  15.218  2.2665  0.9204  1.4010
  231MPD1    H1 3510   2.114   1.741  15.248  2.9436 -1.7466  0.8141
  231MPD1    H2 3511   1.781   1.514  15.364 -1.1984  2.2861 -3.0373
  231MPD1    H3 3512   1.896   1.733  15.320 -0.2502 -0.7094  2.1320
  231MPD1     N 3513   2.275   1.531  15.172 -0.2336  0.3926  0.3423
  231MPD1    H5 3514   2.308   1.444  15.133  0.5489  0.1971  1.4490
  231MPD1    N1 3515   1.870   1.287  15.277  0.5855  0.1608 -0.2233
  231MPD1    H6 3516   1.798   1.294  15.348  0.2673  0.0054 -0.5304
  231MPD1    H7 3517   1.930   1.207  15.297  0.8433  1.1007  2.7588
  232MPD1     C 3518   3.766   3.676   0.466 -0.0880 -0.0564 -0.0156
  232MPD1    C1 3519   3.648   3.599   0.463  0.4469 -0.4059  0.1011
  232MPD1    C2 3520   3.593   3.582   0.337  0.2749 -0.2143 -0.7209
  232MPD1    C3 3521   3.650   3.630   0.218 -0.6004 -0.7521 -0.6153
  232MPD1    C4 3522   3.773   3.697   0.221  0.0695 -0.1585 -0.8583
  232MPD1    C5 3523   3.825   3.721   0.348 -0.3313  0.6982  0.2528
  232MPD1     H 3524   3.501   3.524   0.330  0.3408 -0.4339  0.2320
  232MPD1    H1 3525   3.833   3.726   0.135 -0.7263 -0.5385 -1.5430
  232MPD1    H2 3526   3.807   3.690   0.565 -1.3950  0.7329  0.4127
  232MPD1    H3 3527   3.917   3.779   0.355  0.2939  0.0630 -2.5473
  232MPD1     N 3528   3.591   3.587   0.096  0.2974  0.6447 -0.0935
  232MPD1    H5 3529   3.507   3.530   0.102  1.2207 -0.4620  2.0499
  232MPD1    N1 3530   3.592   3.537   0.575 -0.3339  0.2368 -0.1966
  232MPD1    H6 3531   3.624   3.585   0.659 -0.8053 -0.8727  0.6280
  232MPD1    H7 3532   3.492   3.553   0.584 -0.0809  1.9721 -0.5565
  233MPD1     C 3533   0.177   1.815   0.852 -0.4994  0.8187  0.5288
  233MPD1    C1 3534   0.140   1.944   0.839  0.4119  0.4868  0.8521
  233MPD1    C2 3535   0.209   2.032   0.918 -0.0082  0.0541  0.0547
  233MPD1    C3 3536   0.299   1.986   1.015 -0.8222  0.5944 -0.0287
  233MPD1    C4 3537   0.304   1.856   1.056 -0.0258 -0.4952  0.3555
  233MPD1    C5 3538   0.250   1.770   0.963  0.2164  0.3201  0.5722
  233MPD1     H 3539   0.191   2.138   0.900 -0.3009 -0.2880 -1.6649
  233MPD1    H1 3540   0.360   1.812   1.137 -1.1700 -1.2086  0.7621
  233MPD1    H2 3541   0.145   1.740   0.781  3.8972 -0.1118 -0.5057
  233MPD1    H3 3542   0.265   1.665   0.988  0.0048  0.4104  1.0723
  233MPD1     N 3543   0.376   2.080   1.088 -0.1922  0.2167 -0.1502
  233MPD1    H5 3544   0.443   2.036   1.150 -1.3405 -2.3387 -0.7230
  233MPD1    N1 3545   0.074   1.985   0.724  0.5675  0.8746 -0.4098
  233MPD1    H6 3546   4.721   1.928   0.687  1.7578 -0.6318 -0.5181
  233MPD1    H7 3547   0.041   2.081   0.726 -0.7606  0.3770  0.9463
  234MPD1     C 3548   1.289   4.361   9.972  0.1159  0.8697  0.2644
  234MPD1    C1 3549   1.224   4.393   9.860 -0.2185 -1.0565 -0.5975
  234MPD1    C2 3550   1.238   4.519   9.803  0.1782 -1.0724  0.7726
  234MPD1    C3 3551   1.306   4.616   9.874  0.1160  0.2892 -1.1343
  234MPD1    C4 3552   1.356   4.589  10.003 -0.0763 -0.4573  0.1678
  234MPD1    C5 3553   1.351   4.460  10.052 -0.1454  0.1109  0.2089
  234MPD1     H 3554   1.191   4.548   9.710  1.2130 -1.2847  0.1826
  234MPD1    H1 3555   1.413   4.655  10.066  2.4591 -2.2261 -0.2628
  234MPD1    H2 3556   1.279   4.265  10.021  1.6185  1.1798  1.1850
  234MPD1    H3 3557   1.406   4.437  10.142 -1.7353  2.1263  1.6999
  234MPD1     N 3558   1.319   0.019   9.810 -0.7377  0.6740 -0.8377
  234MPD1    H5 3559   1.278   0.029   9.717  0.9167  1.6671 -1.4569
  234MPD1    N1 3560   1.168   4.283   9.790 -0.1596 -0.4032 -0.0669
  234MPD1    H6 3561   1.145   4.208   9.854 -0.6651 -1.3260 -1.3397
  234MPD1    H7 3562   1.085   4.299   9.733  0.6707 -0.7698 -1.3905
  235MPD1     C 3563   1.987   3.138   9.907 -0.2929 -0.1348 -0.9084
  235MPD1    C1 3564   2.034   3.210  10.017  0.3757  0.2021  0.0033
  235MPD1    C2 3565   2.129   3.312   9.990 -0.4540 -0.0799 -0.2943
  235MPD1    C3 3566   2.182   3.328   9.867 -0.3653  0.0199 -0.6158
  235MPD1    C4 3567   2.142   3.244   9.770 -0.1638 -0.4459 -0.3025
  235MPD1    C5 3568   2.055   3.146   9.788  0.8166 -0.4663 -0.1048
  235MPD1     H 3569   2.166   3.371  10.074 -0.0468 -0.3826 -0.2576
  235MPD1    H1 3570   2.175   3.255   9.667 -0.4183 -0.1578 -0.3521
  235MPD1    H2 3571   1.908   3.065   9.921 -1.0409  0.4361 -2.1192
  235MPD1    H3 3572   2.011   3.095   9.703 -1.2173  2.4949 -0.7926
  235MPD1     N 3573   2.291   3.416   9.854 -0.3620  0.0209 -0.1615
  235MPD1    H5 3574   2.327   3.469   9.933 -0.0893  0.3213 -0.4876
  235MPD1    N1 3575   1.967   3.195  10.135  0.3909 -0.4500  0.0479
  235MPD1    H6 3576   2.012   3.213  10.225  1.7210  0.5636 -0.8123
  235MPD1    H7 3577   1.910   3.111  10.139 -0.2270 -0.0063  0.8251
  236MPD1     C 3578   2.214   4.241   9.198  0.4398 -0.2845  0.5274
  236MPD1    C1 3579   2.119   4.191   9.288 -0.4474  0.4493 -0.1717
  236MPD1    C2 3580   2.155   4.175   9.419 -0.4323  0.5387 -0.2189
  236MPD1    C3 3581   2.276   4.223   9.463  0.1395 -0.6725 -0.6015
  236MPD1    C4 3582   2.364   4.287   9.374  0.2918  0.1547  0.2380
  236MPD1    C5 3583   2.339   4.279   9.242 -0.2182  0.1070  0.4827
  236MPD1     H 3584   2.075   4.142   9.484 -0.0401  0.9810  0.4888
  236MPD1    H1 3585   2.461   4.326   9.404 -0.1941 -1.2211  3.4863
  236MPD1    H2 3586   2.196   4.241   9.091 -0.8786 -1.1219  0.7436
  236MPD1    H3 3587   2.410   4.316   9.170  0.4658 -0.2994  0.9470
  236MPD1     N 3588   2.306   4.230   9.603 -0.9191 -0.3838 -0.1323
  236MPD1    H5 3589   2.385   4.289   9.626 -1.0339 -0.2763 -0.0077
  236MPD1    N1 3590   2.005   4.137   9.230 -0.2085  0.4048 -0.0306
  236MPD1    H6 3591   1.985   4.183   9.141 -1.1008  0.9712  0.4753
  236MPD1    H7 3592   1.931   4.136   9.299  0.1868  0.0245  0.3959
  237MPD1     C 3593   2.629   3.389  15.394 -0.6949 -0.0684 -0.0441
  237MPD1    C1 3594   2.522   3.414  15.311  0.1060  0.5684 -0.3856
  237MPD1    C2 3595   2.437   3.311  15.281  0.2829 -0.0863  0.1131
  237MPD1    C3 3596   2.469   3.180  15.314  0.0864  0.3629  0.4354
  237MPD1    C4 3597   2.578   3.159  15.396  0.1424  0.0470 -0.6334
  237MPD1    C5 3598   2.665   3.264  15.433 -0.8251 -0.4414  0.1585
  237MPD1     H 3599   2.346   3.328  15.224  1.3521  2.1663 -0.9211
  237MPD1    H1 3600   2.617   3.062  15.423 -0.2159  0.2901  0.7389
  237MPD1    H2 3601   2.697   3.462  15.438  0.3953 -1.5800  0.7910
  237MPD1    H3 3602   2.756   3.233  15.482 -0.5962 -1.1793 -0.7391
  237MPD1     N 3603   2.390   3.067  15.284  0.5968  0.0329 -0.1451
  237MPD1    H5 3604   2.402   2.983  15.340  0.0380 -1.3649 -2.1282
  237MPD1    N1 3605   2.477   3.543  15.283 -0.3148 -0.1883  0.0525
  237MPD1    H6 3606   2.433   3.543  15.191 -3.2204 -0.8387  1.4342
  237MPD1    H7 3607   2.553   3.611  15.282 -0.3121 -0.2160 -1.8050
  238MPD1     C 3608   4.414   1.946  14.762  0.7041 -0.0401 -0.4426
  238MPD1    C1 3609   4.327   1.898  14.856  0.0752  0.2628  0.1335
  238MPD1    C2 3610   4.231   1.812  14.821  0.7244  0.6213 -0.6476
  238MPD1    C3 3611   4.218   1.776  14.688 -0.6055 -0.5594 -0.7953
  238MPD1    C4 3612   4.297   1.834  14.592  0.4864  0.0942 -0.1439
  238MPD1    C5 3613   4.394   1.921  14.633 -0.3072 -0.3544 -0.1558
  238MPD1     H 3614   4.187   1.753  14.900  0.6888  0.9945 -0.3905
  238MPD1    H1 3615   4.281   1.800  14.490 -0.9753  0.5842 -0.0754
  238MPD1    H2 3616   4.503   2.002  14.787 -0.4091  1.6785 -0.3397
  238MPD1    H3 3617   4.465   1.957  14.558  0.7004 -0.1884  0.8785
  238MPD1     N 3618   4.125   1.676  14.644 -0.0750 -0.3361 -0.2649
  238MPD1    H5 3619   4.131   1.652  14.546 -1.2576 -1.3213 -0.1059
  238MPD1    N1 3620   4.367   1.921  14.992  0.0078 -0.3529 -0.4883
  238MPD1    H6 3621   4.400   2.017  15.007  3.4104 -1.2002 -2.7592
  238MPD1    H7 3622   4.296   1.911  15.064  0.3969  1.9663  0.2343
  239MPD1     C 3623   4.363   2.544  14.355  0.4282  0.6827 -0.7082
  239MPD1    C1 3624   4.252   2.561  14.433 -0.0586  0.4545 -0.2219
  239MPD1    C2 3625   4.126   2.586  14.379  0.4577 -0.2886 -0.7894
  239MPD1    C3 3626   4.113   2.602  14.238  0.5626  0.9069  0.0561
  239MPD1    C4 3627   4.224   2.574  14.158 -0.5383  0.6497  0.7389
  239MPD1    C5 3628   4.346   2.555  14.218  0.2790  0.3802 -0.1989
  239MPD1     H 3629   4.038   2.566  14.439  1.3019 -1.5620  0.0342
  239MPD1    H1 3630   4.233   2.586  14.050 -1.6273 -1.3327  0.4213
  239MPD1    H2 3631   4.461   2.521  14.395  0.6624  1.0701 -1.0629
  239MPD1    H3 3632   4.431   2.542  14.152  1.9017  2.1710  1.4908
  239MPD1     N 3633   3.986   2.614  14.173  0.5458 -0.6551  0.4845
  239MPD1    H5 3634   3.982   2.603  14.072 -1.1175 -0.0756  0.4919
  239MPD1    N1 3635   4.266   2.519  14.569 -0.0215  0.3240  0.1104
  239MPD1    H6 3636   4.352   2.549  14.613 -0.2005 -2.2679  2.2385
  239MPD1    H7 3637   4.190   2.555  14.627  1.9769  1.3685  2.0660
  240MPD1     C 3638   4.030   2.074  13.685  0.0606  0.3506 -0.6438
  240MPD1    C1 3639   4.112   2.055  13.793 -0.5148  0.2146 -0.2531
  240MPD1    C2 3640   4.084   1.943  13.872  0.5636 -0.3833  0.5501
  240MPD1    C3 3641   3.961   1.883  13.875  0.5756 -0.7454 -0.3187
  240MPD1    C4 3642   3.883   1.898  13.763 -0.2736 -0.1990 -0.0158
  240MPD1    C5 3643   3.925   1.984  13.663  0.1531 -0.0192  0.4016
  240MPD1     H 3644   4.151   1.908  13.950  1.2950 -1.3581 -0.4974
  240MPD1    H1 3645   3.785   1.851  13.754  0.2934 -1.5101  0.6187
  240MPD1    H2 3646   4.042   2.151  13.609  0.2539  1.1844  0.2416
  240MPD1    H3 3647   3.862   2.007  13.577  0.3203 -0.4261  0.1694
  240MPD1     N 3648   3.923   1.815  13.990  0.3022 -0.2697  0.3238
  240MPD1    H5 3649   3.989   1.829  14.065 -0.0881  0.4347  0.5339
  240MPD1    N1 3650   4.236   2.113  13.803  0.0622  0.2274 -0.1117
  240MPD1    H6 3651   4.241   2.209  13.771 -0.9195 -0.3482 -2.0068
  240MPD1    H7 3652   4.250   2.111  13.904  0.8679 -1.0061 -0.2394
  241MPD1     C 3653   3.872   2.231  14.800 -0.1017 -0.0859 -0.1919
  241MPD1    C1 3654   3.983   2.187  14.724 -0.3073 -0.7023 -0.4082
  241MPD1    C2 3655   3.962   2.075  14.644 -0.2609  0.5055  0.5932
  241MPD1    C3 3656   3.839   2.033  14.614 -0.6357  0.1189  0.1647
  241MPD1    C4 3657   3.726   2.084  14.678 -0.0336 -0.3028  0.4255
  241MPD1    C5 3658   3.743   2.180  14.770 -0.4602 -0.8441 -0.1154
  241MPD1     H 3659   4.047   2.049  14.581 -1.9240 -1.1519 -0.9905
  241MPD1    H1 3660   3.632   2.050  14.635  0.0524  0.9352 -0.7392
  241MPD1    H2 3661   3.879   2.312  14.871 -1.9894 -0.2789  0.2289
  241MPD1    H3 3662   3.654   2.224  14.814  0.9022  2.2435 -0.4116
  241MPD1     N 3663   3.819   1.938  14.513  0.0984  0.5255 -0.1615
  241MPD1    H5 3664   3.725   1.906  14.491  0.7376 -0.4446 -1.4376
  241MPD1    N1 3665   4.115   2.241  14.753 -0.3098  0.1827  0.8541
  241MPD1    H6 3666   4.101   2.339  14.777 -1.8850  0.3497 -0.7214
  241MPD1    H7 3667   4.181   2.215  14.680 -2.2047  0.7974 -1.0628
  242MPD1     C 3668   3.611   0.633  15.555  0.0375  0.5524 -0.6474
  242MPD1    C1 3669   3.472   0.622  15.540  0.8604  0.3745 -0.1044
  242MPD1    C2 3670   3.426   0.554  15.429 -0.3063  0.0091  0.2373
  242MPD1    C3 3671   3.514   0.509  15.329 -0.1133 -0.4099  0.0360
  242MPD1    C4 3672   3.643   0.549  15.337 -0.1689 -0.8873  0.3043
  242MPD1    C5 3673   3.690   0.600  15.453  0.2496  0.1779  0.1537
  242MPD1     H 3674   3.320   0.532  15.432 -0.3456  0.3151  0.8758
  242MPD1    H1 3675   3.709   0.523  15.255 -0.2565  0.5104 -0.2241
  242MPD1    H2 3676   3.649   0.674  15.649 -1.1537 -0.4746  0.2714
  242MPD1    H3 3677   3.797   0.616  15.460 -0.1887  2.9077  0.8174
  242MPD1     N 3678   3.473   0.457  15.205  0.3523 -0.2335  0.0019
  242MPD1    H5 3679   3.548   0.442  15.139 -0.4745 -2.5699 -0.4155
  242MPD1    N1 3680   3.386   0.660  15.646 -0.2368  0.5418  0.3198
  242MPD1    H6 3681   3.424   0.742  15.691  0.7357 -0.5749  1.5343
  242MPD1    H7 3682   3.294   0.676  15.606  0.7190  2.8005 -0.9934
  243MPD1     C 3683   4.434   3.740   0.173  0.0753 -0.1495  0.5098
  243MPD1    C1 3684   4.458   3.807   0.056  0.4572  0.3386  0.7313
  243MPD1    C2 3685   4.547   3.911   0.055 -0.0277  0.1222 -0.4368
  243MPD1    C3 3686   4.596   3.964   0.177  0.2235  0.5237  0.5229
  243MPD1    C4 3687   4.559   3.901   0.297  0.0342  0.1367 -0.2479
  243MPD1    C5 3688   4.487   3.783   0.294  0.3207  0.9741 -0.3064
  243MPD1     H 3689   4.566   3.953  17.650  0.8347  0.3522 -0.1720
  243MPD1    H1 3690   4.613   3.927   0.388 -1.4102 -0.9433  0.9145
  243MPD1    H2 3691   4.382   3.644   0.178 -0.1842  0.0704  2.2422
  243MPD1    H3 3692   4.472   3.719   0.380 -2.9899  0.9370 -0.9050
  243MPD1     N 3693   4.681   4.081   0.170 -0.3281  0.6299 -0.2991
  243MPD1    H5 3694   4.700   4.115   0.077 -1.2892  1.9467 -0.0152
  243MPD1    N1 3695   4.415   3.747  17.630 -0.0471 -0.2850 -0.1202
  243MPD1    H6 3696   4.407   3.823  17.563  1.9696  0.3646  0.3791
  243MPD1    H7 3697   4.328   3.695  17.634 -1.2506  1.6694 -0.7103
  244MPD1     C 3698   0.566   0.161   0.637  0.0025  0.1423 -0.6682
  244MPD1    C1 3699   0.433   0.121   0.662  0.8996 -0.6249  0.0496
  244MPD1    C2 3700   0.365   0.031   0.582 -0.4991 -0.5148 -0.0972
  244MPD1    C3 3701   0.436   4.690   0.480 -0.1825  0.0640 -0.4142
  244MPD1    C4 3702   0.562   0.006   0.453 -0.1328  0.4486  0.6342
  244MPD1    C5 3703   0.623   0.103   0.531  0.6799 -0.2184  0.2754
  244MPD1     H 3704   0.260   0.008   0.596 -1.0048  0.6546 -2.1075
  244MPD1    H1 3705   0.616   4.691   0.367 -0.3323 -0.8792  1.0942
  244MPD1    H2 3706   0.609   0.233   0.705 -0.1561 -0.6590  0.2750
  244MPD1    H3 3707   0.726   0.126   0.504  0.5989 -0.0654  0.1043
  244MPD1     N 3708   0.379   4.600   0.394 -0.5990  0.4558 -1.0063
  244MPD1    H5 3709   0.435   4.574   0.313  1.7595 -3.6256  1.9491
  244MPD1    N1 3710   0.360   0.182   0.770  0.4221 -0.7664  0.4993
  244MPD1    H6 3711   0.321   0.273   0.744 -3.5105 -1.8239  2.6847
  244MPD1    H7 3712   0.273   0.130   0.784  0.0780 -0.5787 -0.8704
  245MPD1     C 3713   1.689   4.124  13.150  0.6837  0.5770  0.7836
  245MPD1    C1 3714   1.654   4.174  13.272 -0.3570 -0.8761  0.0190
  245MPD1    C2 3715   1.747   4.253  13.337  0.0080  0.2442 -0.0236
  245MPD1    C3 3716   1.874   4.259  13.294 -0.0066 -0.4803 -0.0957
  245MPD1    C4 3717   1.913   4.180  13.189  0.6912 -0.1841  0.1874
  245MPD1    C5 3718   1.816   4.132  13.106  0.3321  0.4520  1.3076
  245MPD1     H 3719   1.713   4.311  13.422  1.4601  0.0355  0.7156
  245MPD1    H1 3720   2.016   4.158  13.162  1.0277  2.5666 -0.8438
  245MPD1    H2 3721   1.617   4.063  13.095  1.5560  1.8145 -1.6916
  245MPD1    H3 3722   1.838   4.076  13.016  0.9011  2.4964  0.1825
  245MPD1     N 3723   1.956   4.331  13.385 -0.3343 -0.6083  0.2648
  245MPD1    H5 3724   1.907   4.378  13.460 -0.9080  1.6967 -1.5887
  245MPD1    N1 3725   1.523   4.168  13.313  0.0644 -0.3610  0.8242
  245MPD1    H6 3726   1.514   4.171  13.414  0.7021 -0.2521  0.8744
  245MPD1    H7 3727   1.478   4.088  13.268  0.3852 -1.9191  3.2654
  246MPD1     C 3728   2.173   1.720   9.781  0.3311 -0.3128  0.1060
  246MPD1    C1 3729   2.309   1.746   9.762 -0.1479  0.9119  0.4395
  246MPD1    C2 3730   2.375   1.636   9.713 -0.3429  0.1588 -0.0633
  246MPD1    C3 3731   2.324   1.513   9.689  0.0033  0.2277 -0.1080
  246MPD1    C4 3732   2.190   1.490   9.718  0.1868 -0.2240 -0.1837
  246MPD1    C5 3733   2.119   1.596   9.769 -0.2561 -0.3544 -0.1939
  246MPD1     H 3734   2.481   1.645   9.691 -0.5386 -0.6303 -1.3860
  246MPD1    H1 3735   2.139   1.397   9.695 -0.7066  0.1886  0.1466
  246MPD1    H2 3736   2.103   1.800   9.802  1.4199  1.0164 -1.3629
  246MPD1    H3 3737   2.013   1.595   9.791 -0.4483  1.4255 -0.9936
  246MPD1     N 3738   2.400   1.415   9.621 -0.2600 -0.4615  0.1012
  246MPD1    H5 3739   2.499   1.430   9.608 -0.4376 -0.9536 -1.8354
  246MPD1    N1 3740   2.366   1.875   9.760  0.2638 -0.7029 -0.2226
  246MPD1    H6 3741   2.326   1.933   9.834 -0.6348  0.0390 -1.2808
  246MPD1    H7 3742   2.464   1.867   9.783 -0.0529  0.6737  1.6465
  247MPD1     C 3743   0.367   4.046  15.817 -0.2213 -0.6698 -0.2223
  247MPD1    C1 3744   0.432   4.167  15.805  0.8426  0.6903 -0.0949
  247MPD1    C2 3745   0.567   4.159  15.774 -0.0895 -0.5244  0.1472
  247MPD1    C3 3746   0.638   4.036  15.753  0.7614  0.0066 -0.8413
  247MPD1    C4 3747   0.558   3.925  15.762 -0.4153  0.8021  0.1669
  247MPD1    C5 3748   0.437   3.929  15.807  1.0182  0.7320 -0.1362
  247MPD1     H 3749   0.613   4.256  15.767 -1.1356  0.1167  2.0764
  247MPD1    H1 3750   0.611   3.831  15.751 -1.8039  0.2315 -1.7279
  247MPD1    H2 3751   0.261   4.041  15.836 -0.5559  2.4031 -1.2924
  247MPD1    H3 3752   0.378   3.839  15.820 -0.4573  1.5379 -1.2992
  247MPD1     N 3753   0.772   4.014  15.720  0.3622  0.0000  0.5797
  247MPD1    H5 3754   0.797   3.918  15.698 -2.0034 -0.8370  1.5906
  247MPD1    N1 3755   0.361   4.285  15.807 -0.0449  0.6930  0.0701
  247MPD1    H6 3756   0.270   4.284  15.855  0.3259 -1.6177  0.7173
  247MPD1    H7 3757   0.416   4.362  15.845  0.7070  0.3710 -0.3753
  248MPD1     C 3758   2.547   4.313  17.349  0.3790  0.6251  0.2179
  248MPD1    C1 3759   2.488   4.370  17.457 -0.8422 -0.5598  0.3516
  248MPD1    C2 3760   2.485   4.293  17.570 -0.0944  0.9912 -0.8970
  248MPD1    C3 3761   2.507   4.155  17.571  1.0389 -0.6364  0.1367
  248MPD1    C4 3762   2.573   4.099  17.464  0.4257 -0.2588  0.2973
  248MPD1    C5 3763   2.588   4.179  17.349  0.3224 -0.4141 -1.0702
  248MPD1     H 3764   2.442   4.338  17.659 -2.4288  1.7662 -2.3990
  248MPD1    H1 3765   2.620   4.001  17.468  0.1694 -0.4226 -0.6571
  248MPD1    H2 3766   2.572   4.379  17.266  0.9700  0.7382  0.4833
  248MPD1    H3 3767   2.646   4.141  17.266  3.1719 -2.6779  1.9271
  248MPD1     N 3768   2.476   4.086  17.690  0.1359 -0.5723  0.0671
  248MPD1    H5 3769   2.440   4.145   0.072  0.6686  0.4639 -0.4875
  248MPD1    N1 3770   2.465   4.507  17.465  0.3530 -0.7444  0.0740
  248MPD1    H6 3771   2.441   4.546  17.374  1.2248 -1.2147 -0.3557
  248MPD1    H7 3772   2.387   4.527  17.527  0.0007  0.4986 -0.7556
  249MPD1     C 3773   3.267   1.880  10.349  0.6954 -0.0776 -0.5053
  249MPD1    C1 3774   3.289   2.001  10.280 -0.0904  0.2735  0.1214
  249MPD1    C2 3775   3.249   2.001  10.148 -0.5716  0.5464  0.2597
  249MPD1    C3 3776   3.207   1.886  10.079  0.3082  0.0702  0.3874
  249MPD1    C4 3777   3.186   1.773  10.152 -0.5967 -0.4017  0.4007
  249MPD1    C5 3778   3.218   1.772  10.283 -0.0558 -0.0343  0.7040
  249MPD1     H 3779   3.262   2.094  10.093 -0.1568  0.5095  0.2931
  249MPD1    H1 3780   3.149   1.682  10.106 -1.4975  0.5112 -0.6700
  249MPD1    H2 3781   3.294   1.879  10.453  1.1966 -0.1854 -0.6370
  249MPD1    H3 3782   3.205   1.680  10.339 -0.0582  1.0477  2.5029
  249MPD1     N 3783   3.177   1.898   9.937 -0.5904 -0.6714  0.5744
  249MPD1    H5 3784   3.212   1.983   9.896 -1.3882 -1.2617 -1.3165
  249MPD1    N1 3785   3.325   2.113  10.354  1.4432  0.4700 -0.1815
  249MPD1    H6 3786   3.384   2.180  10.305 -0.4500  0.8450 -1.9281
  249MPD1    H7 3787   3.360   2.105  10.449  0.8160  1.3973  0.1308
  250MPD2     C 3788   0.842   2.710  12.973 -0.5478 -0.0796  0.0773
  250MPD2    C1 3789   0.714   2.762  12.940  0.7959  0.2558 -0.4898
  250MPD2    C2 3790   0.616   2.685  12.878 -0.0908 -0.1940  0.8318
  250MPD2    C3 3791   0.642   2.551  12.854  0.3831 -0.2913  0.1090
  250MPD2    C4 3792   0.772   2.504  12.878  0.1102  0.4788  0.2240
  250MPD2    C5 3793   0.869   2.581  12.940  0.3585  0.5342  0.8714
  250MPD2     H 3794   0.516   2.726  12.877 -0.3243 -0.7843  0.0350
  250MPD2    H1 3795   0.794   2.400  12.859 -3.0750 -0.2330  0.3936
  250MPD2    H2 3796   0.921   2.779  13.000 -0.9262  0.2548  0.3303
  250MPD2    H3 3797   0.969   2.545  12.959  0.6068  0.6540 -0.2244
  250MPD2     N 3798   0.547   2.453  12.799 -0.4018 -0.1247 -0.2352
  250MPD2    H5 3799   0.591   2.366  12.771 -1.1276 -1.2852  2.1649
  250MPD2    N1 3800   0.692   2.895  12.975 -0.1034 -0.0624  0.3593
  250MPD2    H7 3801   0.775   2.939  13.012  1.3656 -2.2099 -0.3412
  251TMC3    C1 3802   0.613   3.105  12.998  0.3676  0.5349 -0.1789
  251TMC3    C2 3803   0.520   3.185  13.056 -0.4218  0.1756  0.5724
  251TMC3    C3 3804   0.562   3.299  13.119 -0.4404  0.7217 -0.0922
  251TMC3    C4 3805   0.746   3.141  12.993 -0.2368 -0.6522  0.2017
  251TMC3    C5 3806   0.781   3.260  13.051  0.1358  0.0945  0.4601
  251TMC3    C6 3807   0.693   3.344  13.118 -0.0909 -0.4598  0.2340
  251TMC3     C 3808   0.578   2.970  12.973 -0.7011  0.4689  0.2649
  251TMC3     O 3809   0.464   2.926  12.955  0.2400  0.1901 -0.3966
  251TMC3     H 3810   0.416   3.156  13.064 -0.7967  0.9849 -1.3103
  251TMC3    H1 3811   0.823   3.080  12.949  1.3437  0.7006  1.1178
  251TMC3    H2 3812   0.725   3.415  13.194  0.1286 -0.5868  0.2615
  251TMC3    C7 3813   0.914   3.264  13.099  0.3775  0.2670  0.2679
  251TMC3    C8 3814   0.451   3.384  13.169  0.5980  0.1102  0.3197
  251TMC3    O1 3815   0.961   3.157  13.129 -0.0551  0.6177  0.0129
  251TMC3    O2 3816   0.356   3.325  13.223 -0.3512 -0.1621 -0.1837
  252TMC3    C1 3817   0.455   3.295   9.855  0.1001  0.0431  0.7005
  252TMC3    C2 3818   0.550   3.397   9.845  0.3990 -0.0661 -0.2375
  252TMC3    C3 3819   0.607   3.420   9.725  0.0384 -0.3500 -0.2112
  252TMC3    C4 3820   0.449   3.194   9.761 -0.9637 -0.5018  0.7650
  252TMC3    C5 3821   0.515   3.224   9.641  0.6684  0.1455  0.3774
  252TMC3    C6 3822   0.597   3.328   9.621 -0.9440  0.1279  0.3985
  252TMC3     C 3823   0.390   3.273   9.981  0.1280 -0.4500  0.8958
  252TMC3     O 3824   0.405   3.360  10.067  0.4915 -0.9087  0.1776
  252TMC3     H 3825   0.575   3.451   9.935  1.6865 -0.8766 -0.1082
  252TMC3    H1 3826   0.377   3.113   9.763  0.2590 -1.5633  1.7558
  252TMC3    H2 3827   0.662   3.334   9.534  1.5524 -0.6204  2.2269
  252TMC3    C7 3828   0.485   3.142   9.528 -0.1291 -0.1093  0.7665
  252TMC3    C8 3829   0.688   3.540   9.696 -0.9053 -0.2615  0.0155
  252TMC3    O1 3830   0.486   3.196   9.418 -0.4829 -0.3034 -0.4638
  252TMC3    O2 3831   0.729   3.563   9.581 -0.1018 -0.0989  0.3454
  253MPD2     C 3832   2.066   3.269  15.304 -1.7827 -0.1078  0.1186
  253MPD2    C1 3833   1.957   3.193  15.279  0.7271 -0.2259 -0.8917
  253MPD2    C2 3834   1.914   3.107  15.374 -0.0471  0.1647  0.3694
  253MPD2    C3 3835   1.950   3.113  15.505 -0.3139  0.4692  0.4054
  253MPD2    C4 3836   2.058   3.195  15.534 -0.4184  0.4032  0.4937
  253MPD2    C5 3837   2.118   3.270  15.437 -0.1839 -0.3236  0.0303
  253MPD2     H 3838   1.824   3.053  15.346 -0.4561  0.5187  1.0072
  253MPD2    H1 3839   2.101   3.217  15.631  1.8622 -0.3638 -0.3419
  253MPD2    H2 3840   2.095   3.342  15.229  1.2994 -1.9725 -0.4888
  253MPD2    H3 3841   2.189   3.349  15.458 -2.3510  1.3173  1.1217
  253MPD2     N 3842   1.881   3.050  15.611  0.4037 -0.6156  0.7005
  253MPD2    H5 3843   1.921   3.068  15.702 -1.0186 -0.5671  1.3113
  253MPD2    N1 3844   1.897   3.191  15.147  0.7437 -0.4215  0.1799
  253MPD2    H7 3845   1.815   3.134  15.129 -0.0075  0.8401 -0.4549
  254TMC3    C1 3846   1.685   2.976  15.721  0.4787 -0.0282  0.1243
  254TMC3    C2 3847   1.553   2.969  15.712  0.2596 -0.6443  0.0326
  254TMC3    C3 3848   1.472   2.912  15.810  0.3795 -0.5281 -0.1347
  254TMC3    C4 3849   1.748   2.928  15.830  0.5542 -0.4238 -0.2142
  254TMC3    C5 3850   1.669   2.866  15.924  1.1467  0.0002 -0.4381
  254TMC3    C6 3851   1.536   2.865  15.920  0.7052  0.2366 -0.1942
  254TMC3     C 3852   1.753   3.006  15.596 -0.6144 -0.1985 -0.5214
  254TMC3     O 3853   1.687   2.983  15.496 -0.1550 -0.5027  0.3563
  254TMC3     H 3854   1.501   3.003  15.623  3.7105  0.5222 -1.5264
  254TMC3    H1 3855   1.856   2.920  15.823  0.5224 -0.6740 -0.4311
  254TMC3    H2 3856   1.482   2.823  16.004 -0.2150  1.0308 -0.3832
  254TMC3    C7 3857   1.721   2.830  16.058  0.2640  0.3952 -0.0308
  254TMC3    C8 3858   1.345   2.968  15.832 -0.4819 -0.4812  0.5890
  254TMC3    O1 3859   1.645   2.777  16.139  0.2148 -0.7286 -0.2975
  254TMC3    O2 3860   1.305   2.970  15.949  0.1595 -0.4630  0.1473
  255MPD2     C 3861   3.972   0.162  10.654  0.7902  0.9834 -0.3243
  255MPD2    C1 3862   4.025   0.269  10.580 -0.0391 -0.2326 -0.8487
  255MPD2    C2 3863   4.158   0.260  10.548 -0.6538 -0.7612 -0.3181
  255MPD2    C3 3864   4.246   0.159  10.582  0.2739 -0.6660  0.0694
  255MPD2    C4 3865   4.191   0.052  10.656 -0.8420  0.0052 -0.0141
  255MPD2    C5 3866   4.059   0.061  10.699 -0.7433 -0.7194 -0.3370
  255MPD2     H 3867   4.205   0.330  10.480 -0.5243 -1.6229 -1.1026
  255MPD2    H1 3868   4.254   4.691  10.684 -1.7905 -1.1069 -1.2735
  255MPD2    H2 3869   3.868   0.155  10.682  1.0425 -1.6501 -0.0469
  255MPD2    H3 3870   4.017   4.706  10.761 -2.2388 -0.6683 -1.2795
  255MPD2     N 3871   4.381   0.170  10.545 -0.1040  0.5392  0.6150
  255MPD2    H5 3872   4.408   0.260  10.506 -0.9799  0.7398  0.4738
  255MPD2    N1 3873   3.937   0.359  10.533 -0.3505  0.1935  0.0239
  255MPD2    H7 3874   3.842   0.328  10.515 -0.3137 -1.5657  2.8964
  256TMC3    C1 3875   3.859   0.564  10.455 -0.7073  0.7562  0.2606
  256TMC3    C2 3876   3.884   0.692  10.464  0.0301  0.9342  0.4475
  256TMC3    C3 3877   3.856   0.771  10.359 -0.5715 -0.1239  0.2015
  256TMC3    C4 3878   3.801   0.513  10.341  0.1045 -0.1573 -0.6161
  256TMC3    C5 3879   3.788   0.588  10.232  0.4402  0.5763  0.1085
  256TMC3    C6 3880   3.806   0.723  10.240  0.0599  0.1192 -0.4231
  256TMC3     C 3881   3.969   0.482  10.495  1.2230 -0.4052 -0.4156
  256TMC3     O 3882   4.073   0.544  10.511  0.1477 -0.5151 -0.3475
  256TMC3     H 3883   3.944   0.722  10.549  0.4935  1.0782  0.0681
  256TMC3    H1 3884   3.790   0.405  10.333 -0.6209 -0.1142 -0.2118
  256TMC3    H2 3885   3.778   0.789  10.160 -0.6894  0.0884 -0.1838
  256TMC3    C7 3886   3.747   0.536  10.100 -0.1015 -0.1154 -0.5771
  256TMC3    C8 3887   3.879   0.914  10.375 -0.3661  0.9035 -0.1397
  256TMC3    O1 3888   3.690   0.425  10.100  0.0922  0.0555  0.3609
  256TMC3    O2 3889   3.899   0.951  10.490  0.8194  0.2480 -0.1421
  257MPD2     C 3890   3.669   2.190  12.910  0.0581  0.6628  0.6411
  257MPD2    C1 3891   3.749   2.303  12.930  0.1226  0.3751  0.5798
  257MPD2    C2 3892   3.857   2.290  13.013 -0.0328 -0.0883 -0.2336
  257MPD2    C3 3893   3.894   2.168  13.059  0.9387  0.6732 -0.7112
  257MPD2    C4 3894   3.808   2.059  13.047 -0.1224 -0.4170  0.7276
  257MPD2    C5 3895   3.700   2.066  12.964  0.1319  0.8896 -0.0995
  257MPD2     H 3896   3.925   2.372  13.031 -2.0539  1.5384  0.0305
  257MPD2    H1 3897   3.825   1.958  13.084  0.1700 -0.5339  0.2700
  257MPD2    H2 3898   3.585   2.186  12.842  1.3426  0.2711 -0.9193
  257MPD2    H3 3899   3.637   1.987  12.924  1.4624  0.0098 -0.4622
  257MPD2     N 3900   4.017   2.156  13.126 -0.8973  0.5387 -0.2453
  257MPD2    H5 3901   4.072   2.241  13.131  0.1027 -0.1628  0.9550
  257MPD2    N1 3902   3.706   2.424  12.861 -0.1541 -0.2339  0.4279
  257MPD2    H7 3903   3.631   2.428  12.792  1.6199  0.5366 -1.4383
  258TMC3    C1 3904   4.206   2.068  13.232 -0.0316 -0.6842  0.5414
  258TMC3    C2 3905   4.245   2.201  13.245  0.3131 -0.0221 -1.0512
  258TMC3    C3 3906   4.314   2.234  13.358  0.0409  0.0240 -0.1147
  258TMC3    C4 3907   4.241   1.974  13.329  0.1184  0.6837  0.2174
  258TMC3    C5 3908   4.313   2.011  13.437  0.1410  0.1061  0.1730
  258TMC3    C6 3909   4.358   2.138  13.451  0.2907  0.3185 -0.5401
  258TMC3     C 3910   4.076   2.040  13.172  0.7473  0.1954  0.3837
  258TMC3     O 3911   4.045   1.922  13.166  0.4497  0.6359  0.4720
  258TMC3     H 3912   4.218   2.275  13.171 -3.1537  0.4503  0.7231
  258TMC3    H1 3913   4.222   1.872  13.298  0.1580  1.7713 -3.3312
  258TMC3    H2 3914   4.420   2.181  13.529 -0.0509 -0.2855  0.0578
  258TMC3    C7 3915   4.339   1.912  13.552 -0.4945  0.4987 -0.2245
  258TMC3    C8 3916   4.326   2.378  13.391 -0.3379  0.1473 -0.1818
  258TMC3    O1 3917   4.278   1.804  13.557  0.5674  0.2129 -0.1188
  258TMC3    O2 3918   4.303   2.400  13.508 -0.3530 -0.2718 -0.4036
  259MPD2     C 3919   2.752   4.669   0.680  0.7367  0.0434  0.0768
  259MPD2    C1 3920   2.761   4.532   0.688  0.0848  0.1703  0.0644
  259MPD2    C2 3921   2.824   4.460   0.594 -1.0055  0.1254 -0.1212
  259MPD2    C3 3922   2.890   4.523   0.488 -0.4396  0.8855  0.1015
  259MPD2    C4 3923   2.879   4.658   0.482 -0.0780 -0.7403  0.1944
  259MPD2    C5 3924   2.812   0.006   0.575  0.2790 -0.2182  0.4990
  259MPD2     H 3925   2.828   4.351   0.596 -0.2613  0.1547 -0.1310
  259MPD2    H1 3926   2.933   4.720   0.411  2.2931 -2.1800  0.7107
  259MPD2    H2 3927   2.695   0.006   0.751 -2.0405 -0.6002 -1.6603
  259MPD2    H3 3928   2.812   0.114   0.563  1.6301 -0.3620 -0.7657
  259MPD2     N 3929   2.961   4.443   0.401 -0.0210  0.5007  0.4343
  259MPD2    H5 3930   2.968   4.347   0.433 -0.3748  0.7449  1.2379
  259MPD2    N1 3931   2.695   4.472   0.792 -0.5654 -0.3434 -0.4412
  259MPD2    H7 3932   2.623   4.528   0.836  0.4732  0.5240  0.1749
  260TMC3    C1 3933   3.099   4.401   0.208 -0.3816  0.2426  1.0315
  260TMC3    C2 3934   3.141   4.453   0.090  0.2030  0.2035 -0.1098
  260TMC3    C3 3935   3.246   4.390   0.027 -0.4300 -0.1423 -0.5936
  260TMC3    C4 3936   3.152   4.294   0.269 -0.3181  0.5386  0.4893
  260TMC3    C5 3937   3.259   4.237   0.204  0.1170  0.2274 -0.2430
  260TMC3    C6 3938   3.315   4.292   0.094 -0.0889  0.2555 -0.2602
  260TMC3     C 3939   3.004   4.479   0.278  0.6015  0.0044  0.2051
  260TMC3     O 3940   2.990   4.590   0.225 -0.8162 -0.1105 -0.0559
  260TMC3     H 3941   3.092   4.540   0.049  1.2021  0.7271 -0.2035
  260TMC3    H1 3942   3.129   4.253   0.367 -0.3805  0.1798  0.3276
  260TMC3    H2 3943   3.403   4.243   0.054 -0.0010 -1.0630  1.5632
  260TMC3    C7 3944   3.238   4.095   0.182 -0.0118  0.3426  0.1689
  260TMC3    C8 3945   3.230   4.367  17.573  0.9371  0.9182  0.3561
  260TMC3    O1 3946   3.286   4.050   0.080 -0.2356  0.2669  0.6738
  260TMC3    O2 3947   3.199   4.460  17.499  0.0284 -1.1290  0.4050
  261MPD2     C 3948   4.522   2.245  12.485  0.4409 -1.2221 -0.6218
  261MPD2    C1 3949   4.616   2.341  12.506 -0.1846 -0.2404  0.1352
  261MPD2    C2 3950   4.611   2.458  12.432 -0.1311  0.5552  0.1187
  261MPD2    C3 3951   4.501   2.485  12.347  0.1364  0.1725 -0.4970
  261MPD2    C4 3952   4.403   2.390  12.336  0.3879 -0.5100  0.0408
  261MPD2    C5 3953   4.417   2.268  12.403 -0.1567 -0.5684 -0.1664
  261MPD2     H 3954   4.685   2.537  12.424  1.0690 -0.3772  2.0042
  261MPD2    H1 3955   4.321   2.411  12.268  0.3661  0.9583  0.5140
  261MPD2    H2 3956   4.519   2.150  12.537  0.9755 -1.0616 -0.2901
  261MPD2    H3 3957   4.337   2.196  12.385 -0.3846 -0.2432 -0.4411
  261MPD2     N 3958   4.498   2.607  12.274 -0.1913 -0.1491 -0.5128
  261MPD2    H5 3959   4.572   2.675  12.288 -1.9376  1.7744 -0.7430
  261MPD2    N1 3960   4.717   2.328  12.602 -0.7755  0.1929 -0.0812
  261MPD2    H7 3961   0.062   2.404  12.606 -2.0224  1.1891  2.1291
  262TMC3    C1 3962   4.422   2.799  12.177 -0.6059  0.1671 -0.8492
  262TMC3    C2 3963   4.317   2.890  12.183 -0.9014 -0.2396  0.7670
  262TMC3    C3 3964   4.329   3.008  12.114  0.3853  0.3793 -0.6356
  262TMC3    C4 3965   4.540   2.835  12.118 -0.0587  0.7313  0.0330
  262TMC3    C5 3966   4.547   2.958  12.049  0.2175 -0.4549  0.5980
  262TMC3    C6 3967   4.445   3.049  12.055 -0.3995  0.2380  0.5944
  262TMC3     C 3968   4.392   2.664  12.209  0.5373  0.1358  0.7389
  262TMC3     O 3969   4.292   2.609  12.166  0.1264  0.0074 -0.2025
  262TMC3     H 3970   4.223   2.858  12.224 -0.7687 -0.4881  0.8746
  262TMC3    H1 3971   4.612   2.757  12.099 -1.6081 -0.5121 -0.8121
  262TMC3    H2 3972   4.459   3.151  12.022  1.0400  0.5990  2.3151
  262TMC3    C7 3973   4.650   2.980  11.949 -0.2036  0.1935  0.9504
  262TMC3    C8 3974   4.246   3.114  12.158  0.4646  0.0728  0.2044
  262TMC3    O1 3975   0.022   2.903  11.946  0.1673  0.7879  0.6947
  262TMC3    O2 3976   4.317   3.201  12.200  0.0101  0.4451  0.6221
  263MPD2     C 3977   0.752   1.728  11.285 -0.3519 -0.4713 -0.3401
  263MPD2    C1 3978   0.812   1.852  11.284  0.1839  0.0283 -0.4169
  263MPD2    C2 3979   0.781   1.943  11.186 -0.1760 -0.2084 -0.1252
  263MPD2    C3 3980   0.698   1.897  11.084 -0.0004  0.0286 -0.6487
  263MPD2    C4 3981   0.642   1.769  11.084 -0.1534  0.9056  0.2722
  263MPD2    C5 3982   0.667   1.686  11.185  0.0102 -0.7687 -0.0303
  263MPD2     H 3983   0.817   2.045  11.190 -0.0908 -0.2781  0.7844
  263MPD2    H1 3984   0.577   1.730  11.006 -0.7136 -1.5170  1.9515
  263MPD2    H2 3985   0.767   1.657  11.365  0.4814  0.3668  0.2259
  263MPD2    H3 3986   0.627   1.585  11.178 -1.3418 -0.0985 -1.9624
  263MPD2     N 3987   0.681   1.987  10.973 -0.6247 -0.1251  0.4332
  263MPD2    H5 3988   0.705   2.085  10.983 -0.6503 -0.2455  1.5934
  263MPD2    N1 3989   0.916   1.866  11.379 -0.3638 -0.1580 -0.2957
  263MPD2    H7 3990   0.943   1.783  11.431  3.9742  0.1704 -2.0340
  264TMC3    C1 3991   0.616   2.051  10.757 -0.8968 -0.0309  0.6516
  264TMC3    C2 3992   0.553   2.160  10.804 -0.1752  0.7724  0.8211
  264TMC3    C3 3993   0.569   2.277  10.744  0.0669 -0.1345 -0.1834
  264TMC3    C4 3994   0.711   2.059  10.662 -0.3826  0.0327  0.3119
  264TMC3    C5 3995   0.728   2.178  10.604 -0.1921 -0.1168  0.5493
  264TMC3    C6 3996   0.660   2.294  10.639  0.4236 -0.4240 -0.0101
  264TMC3     C 3997   0.639   1.944  10.850  0.7004  0.6795 -0.1670
  264TMC3     O 3998   0.625   1.830  10.806 -0.0181 -0.1887  0.5929
  264TMC3     H 3999   0.496   2.137  10.893 -0.5094  2.1586  0.9621
  264TMC3    H1 4000   0.755   1.973  10.612 -0.4385  0.0302  0.2670
  264TMC3    H2 4001   0.659   2.390  10.589 -0.1661  0.7522  2.2888
  264TMC3    C7 4002   0.867   2.197  10.548  0.0225 -0.2169  0.8613
  264TMC3    C8 4003   0.539   2.406  10.812 -0.1843  0.1335  0.1528
  264TMC3    O1 4004   0.924   2.096  10.512  0.2672  0.0759  0.2679
  264TMC3    O2 4005   0.608   2.501  10.769  0.0517 -0.1454 -0.1260
  265MPD2     C 4006   2.418   2.751  15.433 -0.5037  0.8604  0.4508
  265MPD2    C1 4007   2.531   2.819  15.470 -0.3069 -0.3605 -0.3455
  265MPD2    C2 4008   2.641   2.799  15.394  0.3106 -0.7485  0.8119
  265MPD2    C3 4009   2.629   2.745  15.266 -0.3151  0.4266 -0.3501
  265MPD2    C4 4010   2.508   2.698  15.221  0.3489  0.6056  0.5572
  265MPD2    C5 4011   2.405   2.687  15.308  0.8472 -0.3914 -0.4681
  265MPD2     H 4012   2.727   2.860  15.418 -1.0026  0.4236  2.5983
  265MPD2    H1 4013   2.493   2.658  15.122  0.3261  2.4387 -0.1671
  265MPD2    H2 4014   2.332   2.739  15.499  0.0191 -0.3774  0.9073
  265MPD2    H3 4015   2.314   2.632  15.291 -1.2623  2.3126  2.1514
  265MPD2     N 4016   2.740   2.720  15.179 -0.4294 -1.1508 -0.3561
  265MPD2    H5 4017   2.727   2.687  15.084 -1.1444 -0.7280 -0.4085
  265MPD2    N1 4018   2.543   2.896  15.588 -0.3763 -0.0497 -0.7387
  265MPD2    H7 4019   2.635   2.916  15.626 -0.7858  0.2335  0.1070
  266TMC3    C1 4020   2.471   3.074  15.720  0.1656  0.3487 -0.9884
  266TMC3    C2 4021   2.583   3.085  15.801 -0.4169 -0.0634 -0.7992
  266TMC3    C3 4022   2.612   3.200  15.865 -0.3235 -0.0220  0.0405
  266TMC3    C4 4023   2.400   3.188  15.694 -0.1905 -0.0111 -0.0204
  266TMC3    C5 4024   2.435   3.305  15.761 -0.0044  0.9245 -1.1167
  266TMC3    C6 4025   2.542   3.314  15.849 -0.1768 -0.1957  0.2643
  266TMC3     C 4026   2.432   2.959  15.640 -0.2343  0.1891 -0.7564
  266TMC3     O 4027   2.316   2.957  15.601  0.0151  0.0734 -0.3797
  266TMC3     H 4028   2.631   2.997  15.843  0.1056  0.3337 -0.5525
  266TMC3    H1 4029   2.312   3.186  15.631  0.0719 -1.9663 -0.3232
  266TMC3    H2 4030   2.582   3.405  15.891 -1.8943  2.2760 -3.4405
  266TMC3    C7 4031   2.395   3.426  15.697 -0.5215  0.5014  0.2736
  266TMC3    C8 4032   2.734   3.197  15.947 -0.1078 -0.3486 -0.3266
  266TMC3    O1 4033   2.277   3.424  15.661 -0.4727 -0.6902  0.4713
  266TMC3    O2 4034   2.812   3.111  15.907  0.3641  0.0888  0.0233
  267MPD2     C 4035   0.368   0.353   0.390  0.3160  0.4084  1.3236
  267MPD2    C1 4036   0.434   0.290   0.288  0.5956  0.4262  0.1561
  267MPD2    C2 4037   0.361   0.201   0.204  0.5331  0.2124 -0.3969
  267MPD2    C3 4038   0.228   0.176   0.226  0.1453 -0.1803 -0.0076
  267MPD2    C4 4039   0.167   0.242   0.332  0.7463  0.2073 -0.2324
  267MPD2    C5 4040   0.239   0.317   0.420  0.6581 -0.7735  0.3008
  267MPD2     H 4041   0.417   0.157   0.121 -0.6934 -0.9302 -0.6143
  267MPD2    H1 4042   0.060   0.247   0.348  0.7535 -0.3099 -0.0235
  267MPD2    H2 4043   0.426   0.426   0.445  0.2425  0.9285  0.7186
  267MPD2    H3 4044   0.195   0.359   0.510 -0.6560  0.7280 -1.0556
  267MPD2     N 4045   0.154   0.098   0.138 -0.5775 -0.3484 -0.3192
  267MPD2    H5 4046   0.054   0.114   0.147 -0.6181 -1.7311  1.8245
  267MPD2    N1 4047   0.572   0.316   0.264 -0.4024 -0.7876  0.4903
  267MPD2    H7 4048   0.609   0.393   0.320 -2.1705  0.2767  0.2098
  268TMC3    C1 4049   0.777   0.332   0.182 -0.5860  0.4192 -0.1552
  268TMC3    C2 4050   0.845   0.316   0.062 -1.1103 -0.6004  0.4294
  268TMC3    C3 4051   0.962   0.252   0.052  0.3800 -0.1920  0.0160
  268TMC3    C4 4052   0.842   0.311   0.296 -0.0720 -0.1111 -0.2002
  268TMC3    C5 4053   0.966   0.251   0.287  0.4045 -0.3309  1.1099
  268TMC3    C6 4054   1.029   0.214   0.169 -0.8807  0.9678 -0.6008
  268TMC3     C 4055   0.650   0.255   0.176 -0.2001  0.5794 -1.5352
  268TMC3     O 4056   0.627   0.189   0.071 -0.3698 -0.9212 -0.4287
  268TMC3     H 4057   0.777   0.322  17.670 -3.1306 -2.6628  1.8640
  268TMC3    H1 4058   0.780   0.308   0.385 -2.9874 -2.3712 -2.3153
  268TMC3    H2 4059   1.131   0.179   0.177 -1.1141  0.8161  1.6543
  268TMC3    C7 4060   1.012   0.178   0.405 -0.5294 -0.0608 -0.2767
  268TMC3    C8 4061   1.015   0.198  17.623 -1.5393  0.4911 -0.3457
  268TMC3    O1 4062   1.090   0.082   0.386  0.1640  0.1421 -0.4142
  268TMC3    O2 4063   1.086   0.102  17.638  0.3894  0.7926 -0.1215
  269MPD2     C 4064   0.782   3.445  15.507 -0.1726 -0.6049  0.8060
  269MPD2    C1 4065   0.652   3.462  15.533 -0.3171  0.0931 -0.3313
  269MPD2    C2 4066   0.593   3.584  15.515 -0.3461 -0.2508  0.5570
  269MPD2    C3 4067   0.658   3.693  15.469  0.4183  0.0305  0.8829
  269MPD2    C4 4068   0.792   3.671  15.448  0.7214 -0.1349  0.6030
  269MPD2    C5 4069   0.848   3.548  15.462 -0.0359 -1.2164 -0.0423
  269MPD2     H 4070   0.488   3.596  15.535 -0.3544  0.9322 -0.1723
  269MPD2    H1 4071   0.863   3.747  15.418 -0.7515  1.2786  0.6978
  269MPD2    H2 4072   0.830   3.347  15.513 -2.1845 -1.7204 -1.4669
  269MPD2    H3 4073   0.950   3.538  15.426 -0.8171 -1.1139 -2.3112
  269MPD2     N 4074   0.588   3.811  15.437  0.1970 -0.1601  0.3125
  269MPD2    H5 4075   0.487   3.811  15.440  0.1986 -1.4807  0.5556
  269MPD2    N1 4076   0.593   3.344  15.584  0.6761  0.5424  0.4198
  269MPD2    H7 4077   0.656   3.270  15.612 -1.9238 -2.7736 -2.5268
  270TMC3    C1 4078   0.434   3.189  15.655  0.1578  0.5862  1.1808
  270TMC3    C2 4079   0.349   3.118  15.575 -0.2125  0.4732 -0.3055
  270TMC3    C3 4080   0.361   2.980  15.564  0.1770  0.5019 -0.0835
  270TMC3    C4 4081   0.530   3.119  15.734  0.2452  0.3030 -0.0853
  270TMC3    C5 4082   0.521   2.978  15.725 -0.8811  0.1116  0.3743
  270TMC3    C6 4083   0.442   2.912  15.639 -0.2398  0.4267  0.2413
  270TMC3     C 4084   0.460   3.322  15.605  0.0119  0.1374  0.0332
  270TMC3     O 4085   0.362   3.382  15.563  0.6979  0.1381  0.3829
  270TMC3     H 4086   0.286   3.171  15.504 -0.5990 -0.8117 -0.9312
  270TMC3    H1 4087   0.603   3.164  15.800 -1.0633 -0.0917  1.6249
  270TMC3    H2 4088   0.462   2.807  15.625  1.0603  0.5607  1.0297
  270TMC3    C7 4089   0.613   2.904  15.796  0.2937 -0.8068  0.7700
  270TMC3    C8 4090   0.375   2.936  15.427  0.9384  0.8326 -0.4937
  270TMC3    O1 4091   0.729   2.944  15.785  0.2909  0.0021  0.1502
  270TMC3    O2 4092   0.422   3.025  15.354 -0.0642  0.0678  0.1305
  271MPD2     C 4093   4.618   2.708  13.908  0.5001  0.6787 -0.6195
  271MPD2    C1 4094   4.604   2.778  14.023 -0.0379 -1.0345 -0.5477
  271MPD2    C2 4095   4.477   2.840  14.039 -0.3354  0.1946 -0.4125
  271MPD2    C3 4096   4.386   2.839  13.934 -0.1327  0.1057 -0.1785
  271MPD2    C4 4097   4.404   2.761  13.824 -0.1843 -0.2929 -0.0643
  271MPD2    C5 4098   4.519   2.697  13.818 -0.1362  1.0390 -0.2758
  271MPD2     H 4099   4.454   2.878  14.138  2.6949 -0.4002  0.5194
  271MPD2    H1 4100   4.324   2.742  13.755  0.2349 -0.7585 -0.4157
  271MPD2    H2 4101   4.708   2.653  13.884  1.5512  1.1341  2.2822
  271MPD2    H3 4102   4.536   2.624  13.740  1.1129 -0.8635  1.7840
  271MPD2     N 4103   4.250   2.896  13.951 -0.4489 -0.4522 -1.0767
  271MPD2    H5 4104   4.191   2.887  13.869 -1.5067  0.8062 -0.4473
  271MPD2    N1 4105   4.704   2.791  14.124 -0.5593  0.0328  0.0149
  271MPD2    H7 4106   4.687   2.850  14.204 -0.2442 -0.2214  0.2678
  272TMC3    C1 4107   0.192   2.769  14.218  0.4646 -0.6100 -0.5364
  272TMC3    C2 4108   0.330   2.756  14.203  0.0857 -0.1933  0.5843
  272TMC3    C3 4109   0.406   2.763  14.314 -0.2212  0.0746 -0.1702
  272TMC3    C4 4110   0.139   2.813  14.332  0.0532 -0.1140  0.2459
  272TMC3    C5 4111   0.212   2.814  14.448  0.1494 -0.7461  0.2181
  272TMC3    C6 4112   0.352   2.796  14.437 -0.3923  0.3147  0.0707
  272TMC3     C 4113   0.109   2.734  14.111  0.4782  0.2453  0.4951
  272TMC3     O 4114   0.165   2.661  14.028 -0.1996 -0.6844 -0.0290
  272TMC3     H 4115   0.375   2.724  14.110  0.2114  0.5383  0.3908
  272TMC3    H1 4116   0.033   2.830  14.349 -0.0995 -1.6844  0.8270
  272TMC3    H2 4117   0.415   2.787  14.525  0.9797 -1.5252 -1.0928
  272TMC3    C7 4118   0.144   2.828  14.574 -0.4007  0.0060  0.2829
  272TMC3    C8 4119   0.546   2.757  14.299 -0.3711  0.6592 -0.4486
  272TMC3    O1 4120   0.023   2.805  14.574  0.1708  0.2485 -0.5481
  272TMC3    O2 4121   0.585   2.784  14.186  0.0101 -0.8199  0.0516
  273MPD2     C 4122   1.220   0.831  11.660 -0.1157 -0.3361 -0.0757
  273MPD2    C1 4123   1.347   0.851  11.602  0.1736 -0.1648  0.2209
  273MPD2    C2 4124   1.364   0.831  11.468 -1.2937  0.2601  0.0582
  273MPD2    C3 4125   1.252   0.802  11.394  0.8198 -0.2399  0.1900
  273MPD2    C4 4126   1.126   0.788  11.447  0.0629  0.4632  1.5995
  273MPD2    C5 4127   1.107   0.793  11.587  0.3073  0.6824  0.2537
  273MPD2     H 4128   1.456   0.851  11.412 -0.9586 -0.8344  0.2293
  273MPD2    H1 4129   1.037   0.773  11.387  0.6000 -0.3474  0.9967
  273MPD2    H2 4130   1.205   0.838  11.767 -0.6968 -0.7394 -0.1238
  273MPD2    H3 4131   1.011   0.785  11.635  0.3363  1.3725  0.4235
  273MPD2     N 4132   1.247   0.792  11.256 -0.0579 -0.1919  0.6631
  273MPD2    H5 4133   1.153   0.803  11.219  0.1917  0.1650  0.1292
  273MPD2    N1 4134   1.444   0.909  11.685 -0.4350 -0.0251  0.0626
  273MPD2    H7 4135   1.417   0.926  11.781 -0.1192  0.9512 -0.0164
  274TMC3    C1 4136   1.315   0.879  11.052 -0.5237 -0.1308 -0.3361
  274TMC3    C2 4137   1.181   0.885  11.022 -0.5343 -1.0675 -0.5687
  274TMC3    C3 4138   1.145   0.987  10.943 -0.4028  0.6268  0.5658
  274TMC3    C4 4139   1.402   0.983  11.026 -0.2730 -0.1484 -0.4246
  274TMC3    C5 4140   1.351   1.089  10.956  0.3000  0.8235 -0.0742
  274TMC3    C6 4141   1.226   1.089  10.904 -0.6150  0.1655 -0.3846
  274TMC3     C 4142   1.352   0.802  11.169  0.5586  0.4917  0.9729
  274TMC3     O 4143   1.473   0.783  11.195 -0.6037  0.0893  0.1222
  274TMC3     H 4144   1.113   0.801  11.031 -0.9844 -0.8418 -1.7994
  274TMC3    H1 4145   1.508   0.978  11.047  0.0690  2.4215 -1.5273
  274TMC3    H2 4146   1.179   1.181  10.871  0.1288  0.3015 -1.0894
  274TMC3    C7 4147   1.396   1.219  11.000 -0.5313 -0.2372 -0.4224
  274TMC3    C8 4148   1.010   0.974  10.889 -0.2514 -0.3127  0.0545
  274TMC3    O1 4149   1.316   1.309  10.995  0.4297 -0.2246 -0.0858
  274TMC3    O2 4150   0.925   0.903  10.950 -0.0045 -0.2375 -0.2087
  275MPD2     C 4151   1.021   4.475  14.424 -0.3730  0.3114 -0.2022
  275MPD2    C1 4152   1.040   4.355  14.360  0.6984  0.0664 -0.6810
  275MPD2    C2 4153   0.928   4.272  14.348  0.1329  0.0583  0.6483
  275MPD2    C3 4154   0.800   4.318  14.387 -0.2837 -0.4500  0.0094
  275MPD2    C4 4155   0.782   4.444  14.446 -0.0088  0.2649  0.3660
  275MPD2    C5 4156   0.898   4.513  14.475  0.2569 -0.3051 -0.2577
  275MPD2     H 4157   0.944   4.168  14.320  0.7341  0.2608  0.2451
  275MPD2    H1 4158   0.681   4.464  14.480 -0.8285 -1.2266 -1.1846
  275MPD2    H2 4159   1.102   4.543  14.447  1.9204 -2.0344 -1.2746
  275MPD2    H3 4160   0.895   4.603  14.536  0.0988  1.2911 -2.5814
  275MPD2     N 4161   0.683   4.233  14.375 -0.2560 -0.3811 -0.6091
  275MPD2    H5 4162   0.595   4.269  14.409 -1.6338 -3.9073 -0.4630
  275MPD2    N1 4163   1.170   4.301  14.332  0.4858  0.3351 -0.0246
  275MPD2    H7 4164   1.175   4.203  14.306  0.9376  0.1023  0.9577
  276TMC3    C1 4165   1.401   4.277  14.361  0.7849 -0.2551  0.1520
  276TMC3    C2 4166   1.390   4.148  14.314 -0.2649  0.3774 -0.4681
  276TMC3    C3 4167   1.484   4.050  14.358  1.1126 -0.0331  0.0244
  276TMC3    C4 4168   1.501   4.311  14.452  0.4730  0.4654 -1.2063
  276TMC3    C5 4169   1.597   4.219  14.485 -0.0467  0.3866 -0.6443
  276TMC3    C6 4170   1.589   4.091  14.439 -0.9666  0.1581  0.4871
  276TMC3     C 4171   1.290   4.366  14.353  0.3479 -0.1880  0.2369
  276TMC3     O 4172   1.309   4.485  14.382  0.0724 -0.5874  0.4855
  276TMC3     H 4173   1.305   4.117  14.254  0.3029 -2.8272  0.3499
  276TMC3    H1 4174   1.499   4.401  14.512 -1.6432  0.2360 -0.9271
  276TMC3    H2 4175   1.673   4.026  14.459 -0.8031  0.0877 -0.4599
  276TMC3    C7 4176   1.675   4.258  14.604  0.1139 -0.5658 -0.5288
  276TMC3    C8 4177   1.466   3.916  14.300 -0.3432  0.2233 -0.1705
  276TMC3    O1 4178   1.643   4.353  14.675  0.6650 -0.4747 -0.1307
  276TMC3    O2 4179   1.414   3.906  14.188 -0.1854 -0.2715 -0.7940
  277MPD2     C 4180   3.368   2.388  13.104 -0.1071  0.1126  0.8148
  277MPD2    C1 4181   3.262   2.447  13.162  0.2048  0.6103 -0.0505
  277MPD2    C2 4182   3.240   2.448  13.302 -0.4694  1.3545  0.3384
  277MPD2    C3 4183   3.337   2.386  13.382  0.1182 -0.0902  0.0457
  277MPD2    C4 4184   3.450   2.334  13.328  0.0405 -0.3925 -0.1618
  277MPD2    C5 4185   3.461   2.328  13.187 -0.1622 -0.1509  0.0597
  277MPD2     H 4186   3.144   2.479  13.341 -1.9915 -0.3058 -2.1041
  277MPD2    H1 4187   3.529   2.290  13.387 -0.9001 -2.2325 -0.2813
  277MPD2    H2 4188   3.388   2.385  12.997  0.4734 -0.3431  0.9374
  277MPD2    H3 4189   3.551   2.285  13.146 -0.4161  0.6790 -1.3647
  277MPD2     N 4190   3.307   2.365  13.520  0.3547 -0.2949 -0.2967
  277MPD2    H5 4191   3.230   2.416  13.562 -2.1624 -2.9622 -1.6501
  277MPD2    N1 4192   3.170   2.508  13.075  0.3179  0.0179 -0.8167
  277MPD2    H7 4193   3.183   2.481  12.978 -1.2628 -1.9078 -0.5036
  278TMC3    C1 4194   3.279   2.251  13.717 -0.1960  0.4204 -1.0788
  278TMC3    C2 4195   3.198   2.144  13.711 -0.2596  0.2233  0.3064
  278TMC3    C3 4196   3.076   2.142  13.771 -0.5261 -0.1189  0.0890
  278TMC3    C4 4197   3.228   2.370  13.776  0.3629 -0.0480  0.4986
  278TMC3    C5 4198   3.106   2.364  13.838 -0.4862 -0.3698 -0.3813
  278TMC3    C6 4199   3.023   2.254  13.837  0.5317 -0.3060  0.3321
  278TMC3     C 4200   3.358   2.260  13.593 -0.4967 -0.5632  0.5174
  278TMC3     O 4201   3.411   2.159  13.550 -0.0744 -0.4596 -0.1603
  278TMC3     H 4202   3.257   2.057  13.683  0.8607  1.6168 -1.6625
  278TMC3    H1 4203   3.292   2.458  13.783  1.0295 -0.5533  0.7424
  278TMC3    H2 4204   2.934   2.248  13.900  0.4970  0.5463  0.3721
  278TMC3    C7 4205   3.078   2.458  13.945 -0.1607  0.3736  0.2659
  278TMC3    C8 4206   2.996   2.026  13.762  0.0916  0.1222 -0.5457
  278TMC3    O1 4207   3.169   2.498  14.016 -0.5673 -0.4309  0.4927
  278TMC3    O2 4208   2.915   2.009  13.850  0.5891 -0.0987 -0.0839
  279MPD2     C 4209   1.828   2.234   0.257 -0.1621 -0.5229  0.6066
  279MPD2    C1 4210   1.791   2.364   0.293 -0.4626 -0.1141 -0.0326
  279MPD2    C2 4211   1.869   2.473   0.263 -0.3398 -0.1170  0.1362
  279MPD2    C3 4212   1.984   2.450   0.187  0.2449 -0.3164  0.5648
  279MPD2    C4 4213   2.024   2.320   0.160 -0.6566 -0.2629 -0.7262
  279MPD2    C5 4214   1.953   2.221   0.209  1.3629  0.2071  0.5309
  279MPD2     H 4215   1.839   2.576   0.280 -2.7870 -1.1982  2.2431
  279MPD2    H1 4216   2.112   2.295   0.103 -1.0253  1.3221 -1.9870
  279MPD2    H2 4217   1.764   2.147   0.258 -1.6594  0.5525 -0.2635
  279MPD2    H3 4218   1.996   2.122   0.198  0.2568 -0.1907 -0.2318
  279MPD2     N 4219   2.060   2.552   0.125 -0.3326 -0.4996  0.2610
  279MPD2    H5 4220   2.122   2.522   0.051  0.0650 -0.8881  0.7471
  279MPD2    N1 4221   1.658   2.379   0.346 -0.5126 -0.3138 -0.9916
  279MPD2    H7 4222   1.596   2.299   0.341  0.4525 -1.3452  3.5104
  280TMC3    C1 4223   1.484   2.542   0.380  0.3856 -0.1410  0.3615
  280TMC3    C2 4224   1.418   2.480   0.275  0.1536 -0.1736  0.2998
  280TMC3    C3 4225   1.355   2.560   0.183 -0.3083  0.2945  0.1941
  280TMC3    C4 4226   1.479   2.681   0.400 -0.1680 -0.1301  0.1074
  280TMC3    C5 4227   1.420   2.760   0.300  0.8459  0.2982 -0.5099
  280TMC3    C6 4228   1.364   2.699   0.191 -0.5840  0.2104 -0.7986
  280TMC3     C 4229   1.618   2.491   0.413  0.1516 -0.5584  0.0944
  280TMC3     O 4230   1.691   2.576   0.467 -0.3089  0.6262 -0.1300
  280TMC3     H 4231   1.423   2.372   0.261  2.1928 -0.3870  2.7783
  280TMC3    H1 4232   1.545   2.728   0.472  0.1073 -2.0014  1.0919
  280TMC3    H2 4233   1.301   2.756   0.124 -2.5317 -2.6305 -1.4073
  280TMC3    C7 4234   1.464   2.904   0.312 -0.7876 -0.5617  0.2054
  280TMC3    C8 4235   1.290   2.500   0.064 -0.4909 -0.5779  0.4744
  280TMC3    O1 4236   1.535   2.942   0.403 -0.1777 -0.2742  0.1737
  280TMC3    O2 4237   1.257   2.569  17.660 -0.0095  0.0450 -0.1693
  281TMC3    C1 4238   1.087   2.995  13.464  0.3150 -0.8831  0.5938
  281TMC3    C2 4239   1.160   3.084  13.393  0.1675  0.7635 -0.3149
  281TMC3    C3 4240   1.239   3.033  13.294 -0.1639 -0.0120 -0.0218
  281TMC3    C4 4241   1.104   2.856  13.445 -0.5553 -0.1556 -0.3500
  281TMC3    C5 4242   1.175   2.813  13.341 -0.0838  0.0151 -0.5301
  281TMC3    C6 4243   1.234   2.902  13.257  0.0730  0.2307 -0.8720
  281TMC3     C 4244   0.984   3.035  13.552  0.1111  0.6075  0.1666
  281TMC3     O 4245   0.932   2.950  13.622  0.0078  0.1871 -0.1147
  281TMC3     H 4246   1.161   3.190  13.418  0.6362  0.4814  0.8648
  281TMC3    H1 4247   1.030   2.800  13.502 -0.4537  0.3364  0.2707
  281TMC3    H2 4248   1.306   2.862  13.186  1.9624 -1.4347  1.9609
  281TMC3    C7 4249   1.197   2.670  13.329  0.3896 -0.3716  0.1460
  281TMC3    C8 4250   1.363   3.108  13.264 -0.0952  0.2554  0.8738
  281TMC3    O1 4251   1.284   2.623  13.256  0.1794  0.3726 -0.1630
  281TMC3    O2 4252   1.460   3.039  13.242  0.3420 -0.1507  0.0289
  282MPD2     C 4253   2.746   4.253  14.979 -0.7657  0.4207  0.3224
  282MPD2    C1 4254   2.669   4.362  15.012  0.1937  0.0322 -0.0575
  282MPD2    C2 4255   2.578   4.401  14.918 -0.1656  0.3778  0.8306
  282MPD2    C3 4256   2.552   4.328  14.805 -0.2164 -0.2932  0.4902
  282MPD2    C4 4257   2.627   4.220  14.779 -0.3314  0.2374  0.1529
  282MPD2    C5 4258   2.721   4.180  14.864  0.3105  0.9678 -0.4110
  282MPD2     H 4259   2.524   4.495  14.928  1.8050  1.6888 -0.9245
  282MPD2    H1 4260   2.621   4.165  14.685  0.2177  0.0134  0.2499
  282MPD2    H2 4261   2.819   4.207  15.045 -0.2082  2.3392  1.0151
  282MPD2    H3 4262   2.791   4.099  14.848 -1.3528 -0.5193 -0.1479
  282MPD2     N 4263   2.453   4.378  14.714  0.0136  0.1814 -0.1130
  282MPD2    H5 4264   2.410   4.465  14.745  0.3486  1.2437 -2.6520
  282MPD2    N1 4265   2.681   4.445  15.122  0.4308 -0.8203  0.4268
  282MPD2    H7 4266   2.616   4.523  15.125  0.6582 -0.5065 -2.8178
  283TMC3    C1 4267   2.722   4.527  15.324  0.3954 -0.1077  0.5770
  283TMC3    C2 4268   2.804   4.612  15.398  0.6023  0.1931 -0.2081
  283TMC3    C3 4269   2.749   4.665  15.509  0.7522 -0.3280  0.4833
  283TMC3    C4 4270   2.595   4.497  15.364 -0.2995 -0.6544 -0.1497
  283TMC3    C5 4271   2.554   4.546  15.486  0.0893  0.1327  0.5899
  283TMC3    C6 4272   2.629   4.627  15.567 -0.1542  0.5070 -0.4021
  283TMC3     C 4273   2.770   4.434  15.226  0.4473  0.3583 -0.0426
  283TMC3     O 4274   2.882   4.383  15.229  0.3128  0.4022 -0.2310
  283TMC3     H 4275   2.903   4.634  15.359  0.2223  2.8100  0.3295
  283TMC3    H1 4276   2.527   4.448  15.296 -0.6827  1.1658 -1.0448
  283TMC3    H2 4277   2.582   4.678  15.650  0.4850 -0.9845  0.8897
  283TMC3    C7 4278   2.418   4.504  15.540  0.7291  0.0671 -0.0788
  283TMC3    C8 4279   2.794   0.059  15.571 -0.1947  0.1172 -0.0051
  283TMC3    O1 4280   2.393   4.551  15.649  0.6369 -0.2004 -0.2169
  283TMC3    O2 4281   2.759   0.075  15.687 -0.7430  0.3463 -0.4127
  284MPD2     C 4282   0.485   3.540  11.957 -0.6354 -0.6428  0.3484
  284MPD2    C1 4283   0.594   3.615  11.943 -0.1722  0.2734 -0.1951
  284MPD2    C2 4284   0.683   3.622  12.044 -0.1163  0.0735 -0.2694
  284MPD2    C3 4285   0.670   3.539  12.155  0.1787 -0.0917 -0.0261
  284MPD2    C4 4286   0.556   3.460  12.172 -0.2843 -0.4206  0.3932
  284MPD2    C5 4287   0.462   3.461  12.073  0.4095 -0.2786 -0.3657
  284MPD2     H 4288   0.777   3.674  12.040 -0.2229  0.3600  1.1626
  284MPD2    H1 4289   0.536   3.401  12.261 -0.4354 -0.2186  0.4936
  284MPD2    H2 4290   0.413   3.528  11.876 -0.1827 -2.1631  0.1611
  284MPD2    H3 4291   0.366   3.412  12.081  1.0794 -1.6422 -0.6543
  284MPD2     N 4292   0.775   3.541  12.247  0.1318 -0.0828 -0.1757
  284MPD2    H5 4293   0.855   3.602  12.230 -0.8633  0.3025 -3.2823
  284MPD2    N1 4294   0.629   3.693  11.830  0.0844 -0.4958  0.0145
  284MPD2    H7 4295   0.722   3.734  11.834 -0.6453  1.2129 -0.3987
  285TMC3    C1 4296   0.671   3.717  11.601 -0.0711 -0.1774 -0.4411
  285TMC3    C2 4297   0.746   3.619  11.545 -1.0791 -0.1354 -0.2518
  285TMC3    C3 4298   0.875   3.641  11.513 -0.5117  0.2532  0.4502
  285TMC3    C4 4299   0.732   3.834  11.639 -0.6247 -0.1327 -0.0513
  285TMC3    C5 4300   0.863   3.854  11.603  0.1766 -0.7702  1.1614
  285TMC3    C6 4301   0.939   3.758  11.541 -0.5239  0.1496 -0.4135
  285TMC3     C 4302   0.582   3.665  11.703 -0.7355 -0.2782  0.1717
  285TMC3     O 4303   0.516   3.570  11.666 -0.0484  0.2119 -0.0876
  285TMC3     H 4304   0.698   3.523  11.529 -1.1098 -0.2440  0.4897
  285TMC3    H1 4305   0.670   3.914  11.677  1.9110  1.7692  0.1146
  285TMC3    H2 4306   1.041   3.783  11.512 -0.5867 -0.5546 -1.2579
  285TMC3    C7 4307   0.919   3.972  11.657  0.1866 -0.0285  0.0938
  285TMC3    C8 4308   0.950   3.530  11.457  0.3216  0.1843 -0.1600
  285TMC3    O1 4309   0.841   4.063  11.669  0.0353  0.4895  0.8650
  285TMC3    O2 4310   0.896   3.423  11.452  0.5115  0.3640 -0.6479
  286MPD2     C 4311   1.082   2.772   1.571  0.7865  0.9785  0.3384
  286MPD2    C1 4312   1.008   2.723   1.468 -0.1296 -0.1940  0.5980
  286MPD2    C2 4313   1.012   2.584   1.444 -0.0277 -0.5107  0.2864
  286MPD2    C3 4314   1.090   2.502   1.522  0.4411 -0.5156  0.4114
  286MPD2    C4 4315   1.164   2.556   1.627 -1.0892 -0.4671  0.0741
  286MPD2    C5 4316   1.159   2.690   1.649 -0.2543  0.1231  0.3825
  286MPD2     H 4317   0.946   2.544   1.369 -1.6333  0.3231  1.2611
  286MPD2    H1 4318   1.227   2.500   1.695 -0.8183 -1.2799 -0.8414
  286MPD2    H2 4319   1.087   2.879   1.587 -2.9687  1.0927  0.8100
  286MPD2    H3 4320   1.219   2.735   1.728  0.0174  0.6418 -0.1236
  286MPD2     N 4321   1.094   2.360   1.501 -0.6705  0.0126 -0.0452
  286MPD2    H5 4322   1.141   2.306   1.573  1.8377  1.8308 -0.3273
  286MPD2    N1 4323   0.934   2.806   1.383 -0.0846  0.3419  0.3454
  286MPD2    H7 4324   0.878   2.760   1.312  0.4121 -0.6727  0.6119
  287TMC3    C1 4325   1.067   2.161   1.366  0.0840  0.1991 -1.0923
  287TMC3    C2 4326   1.032   2.108   1.246  0.3510  0.0560 -0.1722
  287TMC3    C3 4327   1.067   1.975   1.223 -0.2879 -0.1738  0.5667
  287TMC3    C4 4328   1.143   2.094   1.460 -0.0290  0.7537  0.2362
  287TMC3    C5 4329   1.163   1.960   1.439 -0.1274  0.5749  0.3663
  287TMC3    C6 4330   1.135   1.897   1.315 -0.3862 -0.0662  0.2028
  287TMC3     C 4331   1.040   2.302   1.388  0.3727  0.8290 -0.2120
  287TMC3     O 4332   0.992   2.351   1.287 -0.0741 -0.2513  0.2330
  287TMC3     H 4333   0.982   2.166   1.170 -0.1308 -0.4588 -0.2438
  287TMC3    H1 4334   1.176   2.142   1.552  0.0149 -2.0127  1.6671
  287TMC3    H2 4335   1.149   1.792   1.293  2.1022  0.6654 -1.6503
  287TMC3    C7 4336   1.288   1.923   1.499 -0.1060  0.1509 -0.5180
  287TMC3    C8 4337   1.063   1.915   1.091  0.0493 -0.2257  0.2067
  287TMC3    O1 4338   1.361   2.015   1.535 -0.0454  0.0342  0.1576
  287TMC3    O2 4339   1.056   1.792   1.083 -0.0815 -0.5643 -0.3176
  288TMC3    C1 4340   3.435   1.915  14.209 -0.9697 -0.5139 -0.8026
  288TMC3    C2 4341   3.347   1.887  14.311 -0.8301  0.2102 -0.5365
  288TMC3    C3 4342   3.227   1.840  14.274  0.0718 -0.3357 -0.1983
  288TMC3    C4 4343   3.428   1.853  14.085 -0.2398  0.3358  0.1833
  288TMC3    C5 4344   3.312   1.780  14.058  0.0509  0.1838  0.2976
  288TMC3    C6 4345   3.205   1.783  14.146 -0.1342 -0.3431 -0.4037
  288TMC3     C 4346   3.551   1.987  14.253 -0.2444  0.2328  0.8254
  288TMC3     O 4347   3.579   1.987  14.374  0.2322  0.0225  0.2669
  288TMC3     H 4348   3.359   1.930  14.409  1.3104 -1.1603 -0.1890
  288TMC3    H1 4349   3.502   1.857  14.006 -0.8863 -0.3347 -0.4518
  288TMC3    H2 4350   3.103   1.765  14.115 -0.1972 -1.4642  0.4640
  288TMC3    C7 4351   3.284   1.779  13.917  0.0140  0.2220  0.1842
  288TMC3    C8 4352   3.121   1.841  14.372 -0.3320  0.6563  0.4336
  288TMC3    O1 4353   3.335   1.854  13.838  0.3345  0.4770  0.7589
  288TMC3    O2 4354   3.024   1.772  14.350  0.3140 -0.0967 -0.3694
  289MPD2     C 4355   3.314   1.411  14.477  0.0747  0.6736 -1.0699
  289MPD2    C1 4356   3.318   1.474  14.350 -0.1077  0.4559  0.0123
  289MPD2    C2 4357   3.215   1.448  14.261 -0.3946  0.2610 -0.8810
  289MPD2    C3 4358   3.097   1.392  14.306 -0.7568  0.2132 -0.3907
  289MPD2    C4 4359   3.098   1.335  14.429  0.3813 -0.1257  0.1671
  289MPD2    C5 4360   3.200   1.347  14.519  0.4139 -0.1101  0.2605
  289MPD2     H 4361   3.229   1.480  14.158  0.9305  4.4761  0.5795
  289MPD2    H1 4362   3.011   1.278  14.461 -0.2820  1.1042  0.5612
  289MPD2    H2 4363   3.399   1.416  14.544  0.4666 -3.0976 -1.3111
  289MPD2    H3 4364   3.196   1.312  14.621 -2.0551 -2.9918 -0.8117
  289MPD2     N 4365   2.980   1.381  14.234  0.8068  0.5586  0.1703
  289MPD2    H5 4366   2.899   1.335  14.275  1.0777  0.8626  1.0424
  289MPD2    N1 4367   3.437   1.542  14.303  0.5603  0.2719  0.2720
  289MPD2    H7 4368   3.452   1.548  14.203  2.0534  0.2892  0.4969
  290TMC3    C1 4369   2.823   1.447  14.083  0.6075  0.2934  0.3507
  290TMC3    C2 4370   2.783   1.546  13.998 -0.5481 -0.0186  0.2067
  290TMC3    C3 4371   2.649   1.542  13.959  0.4764  0.4577 -0.3450
  290TMC3    C4 4372   2.738   1.349  14.132 -0.0563 -0.0560 -0.0277
  290TMC3    C5 4373   2.608   1.357  14.090  0.1554  0.7560  0.3637
  290TMC3    C6 4374   2.558   1.455  14.007  0.5604  0.2565 -0.1107
  290TMC3     C 4375   2.957   1.458  14.126  0.2264  0.7920  0.4912
  290TMC3     O 4376   3.029   1.529  14.057 -0.0586 -0.3393 -0.2061
  290TMC3     H 4377   2.851   1.622  13.961  0.5984 -0.7210  0.8591
  290TMC3    H1 4378   2.761   1.266  14.199  0.6006 -1.9602 -2.6033
  290TMC3    H2 4379   2.453   1.460  13.980  0.5744  2.8067  0.2621
  290TMC3    C7 4380   2.504   1.294  14.167  0.3301  0.0189 -0.2363
  290TMC3    C8 4381   2.586   1.659  13.896 -0.0887 -0.7109 -0.3282
  290TMC3    O1 4382   2.397   1.342  14.153 -0.2256  0.6599  0.3445
  290TMC3    O2 4383   2.473   1.646  13.845 -0.1819  0.7060 -0.3435
  291MPD2     C 4384   2.626   0.984   0.533 -0.8436 -0.8991 -0.2674
  291MPD2    C1 4385   2.497   1.042   0.548 -0.2099  0.2160 -0.4654
  291MPD2    C2 4386   2.458   1.132   0.454 -0.1318  0.4072  0.5463
  291MPD2    C3 4387   2.541   1.179   0.353  0.0888 -0.5516  0.5728
  291MPD2    C4 4388   2.666   1.120   0.338  0.0360 -0.3336 -0.8516
  291MPD2    C5 4389   2.705   1.023   0.427  0.0198  0.2233 -0.4980
  291MPD2     H 4390   2.354   1.160   0.457 -0.4400 -0.4891 -1.6627
  291MPD2    H1 4391   2.743   1.150   0.267  0.2336 -0.1504 -0.5603
  291MPD2    H2 4392   2.663   0.918   0.610 -1.1592 -1.3737 -0.5244
  291MPD2    H3 4393   2.802   0.977   0.412  0.4561  1.3773 -1.2863
  291MPD2     N 4394   2.496   1.270   0.257  0.2613 -0.1056 -0.3945
  291MPD2    H5 4395   2.551   1.272   0.172 -2.2602 -1.7260 -2.0368
  291MPD2    N1 4396   2.401   0.975   0.634  0.3392  0.5346  0.1925
  291MPD2    H7 4397   2.302   1.000   0.636 -0.1308 -1.3111 -0.6666
  292TMC3    C1 4398   2.304   0.791   0.733 -0.1128  0.1488  0.3922
  292TMC3    C2 4399   2.286   0.730   0.858 -0.5919  0.1244 -0.6713
  292TMC3    C3 4400   2.197   0.627   0.859 -0.0867  0.0117 -0.2752
  292TMC3    C4 4401   2.223   0.769   0.621 -0.1039 -0.0935 -0.0226
  292TMC3    C5 4402   2.129   0.672   0.636  0.0592  0.2271  0.1838
  292TMC3    C6 4403   2.115   0.600   0.752  0.3305 -0.6281  0.2164
  292TMC3     C 4404   2.432   0.862   0.711  0.0304  0.0331  0.1915
  292TMC3     O 4405   2.535   0.804   0.744 -0.1982 -0.1076 -0.1832
  292TMC3     H 4406   2.358   0.755   0.935 -1.3259  0.9855 -0.2675
  292TMC3    H1 4407   2.238   0.815   0.524 -1.7308 -0.5707 -0.4924
  292TMC3    H2 4408   2.061   0.507   0.750 -0.5137 -0.1516  0.6181
  292TMC3    C7 4409   2.051   0.637   0.509 -0.1876  0.1887 -0.3664
  292TMC3    C8 4410   2.154   0.568   0.982  0.3350  0.1281  0.1344
  292TMC3    O1 4411   2.110   0.647   0.402  0.3811 -0.4775  0.3334
  292TMC3    O2 4412   2.228   0.581   1.082 -0.4048 -0.1712 -0.0363
  293MPD2     C 4413   4.045   2.777  12.445 -0.4025  0.4918  0.3723
  293MPD2    C1 4414   3.981   2.674  12.510  0.1678  0.0324  0.3822
  293MPD2    C2 4415   3.994   2.667  12.646 -0.0760 -0.3454 -0.3363
  293MPD2    C3 4416   4.066   2.756  12.721  0.0936 -0.2062  0.1007
  293MPD2    C4 4417   4.124   2.860  12.645 -0.3268 -0.0774  0.7875
  293MPD2    C5 4418   4.114   2.871  12.511  0.6830  0.7664  0.3312
  293MPD2     H 4419   3.940   2.595  12.706  1.1953  0.1146  1.3840
  293MPD2    H1 4420   4.165   2.943  12.700 -1.9244 -0.1654  2.1179
  293MPD2    H2 4421   4.017   2.798  12.343  0.1545 -0.8639 -0.0683
  293MPD2    H3 4422   4.153   2.959  12.462  1.9432 -0.3600 -0.6867
  293MPD2     N 4423   4.080   2.743  12.866 -0.0290 -0.5187 -0.0398
  293MPD2    H5 4424   4.017   2.677  12.912 -0.6569 -0.2099 -0.4472
  293MPD2    N1 4425   3.907   2.589  12.423 -0.6333 -0.0370 -0.1291
  293MPD2    H7 4426   3.911   2.613  12.324 -2.7657  0.7506 -0.0163
  294TMC3    C1 4427   3.725   2.450  12.356  0.4630  0.0598 -0.0668
  294TMC3    C2 4428   3.655   2.342  12.398 -0.1032 -0.7542  0.6151
  294TMC3    C3 4429   3.622   2.246  12.307 -0.6324  1.0201 -1.2486
  294TMC3    C4 4430   3.741   2.478  12.221  0.2457  0.4099  0.1365
  294TMC3    C5 4431   3.682   2.394  12.131 -0.5071 -0.1440 -0.7965
  294TMC3    C6 4432   3.623   2.276  12.173 -0.6857 -0.0562 -0.1902
  294TMC3     C 4433   3.811   2.504  12.466 -0.1842  0.7104  1.0307
  294TMC3     O 4434   3.778   2.466  12.577 -0.8255  0.4263  0.7051
  294TMC3     H 4435   3.647   2.321  12.505 -2.9055 -1.0448  0.3570
  294TMC3    H1 4436   3.787   2.571  12.190  2.9979 -1.0892 -0.2994
  294TMC3    H2 4437   3.588   2.209  12.095 -2.4131  0.4423  0.1585
  294TMC3    C7 4438   3.710   2.419  11.991  0.2610  0.2849 -0.5065
  294TMC3    C8 4439   3.670   2.117  12.356 -0.2169  0.7762  0.5528
  294TMC3    O1 4440   3.628   2.379  11.911 -0.3601  0.5936 -0.5713
  294TMC3    O2 4441   3.701   2.099  12.472  0.3832 -1.0437  0.1170
  295MPD2     C 4442   4.033   1.381  17.649  0.2688 -0.2417 -0.4994
  295MPD2    C1 4443   4.095   1.485   0.022 -0.0696 -0.3146 -0.0604
  295MPD2    C2 4444   4.038   1.555   0.120 -0.7829  0.0297 -0.3313
  295MPD2    C3 4445   3.916   1.511   0.172 -0.0665 -0.0285  0.0408
  295MPD2    C4 4446   3.851   1.408   0.113 -0.4330  0.7859  0.0908
  295MPD2    C5 4447   3.914   1.341   0.008  0.3483 -0.0940  0.0315
  295MPD2     H 4448   4.082   1.648   0.152 -1.9473  0.6082 -0.4045
  295MPD2    H1 4449   3.749   1.376   0.132 -0.0683  1.0167  2.5136
  295MPD2    H2 4450   4.071   1.323  17.566 -1.3933 -0.6095 -1.0105
  295MPD2    H3 4451   3.864   1.256  17.657  0.0529  0.9460 -1.6015
  295MPD2     N 4452   3.849   1.567   0.286  0.1389  0.0598  0.5204
  295MPD2    H5 4453   3.776   1.510   0.330 -0.0543  2.0247  2.7732
  295MPD2    N1 4454   4.227   1.515  17.689  0.1889  0.5975 -0.2724
  295MPD2    H7 4455   4.270   1.587   0.053 -1.0172  1.4533 -0.4354
  296TMC3    C1 4456   3.854   1.702   0.474  0.2327 -0.4934  0.3870
  296TMC3    C2 4457   3.950   1.746   0.559 -0.3775 -0.4561  0.0902
  296TMC3    C3 4458   3.936   1.700   0.688  0.3748 -0.3397 -0.3317
  296TMC3    C4 4459   3.736   1.641   0.510  0.2422  0.0465  0.1019
  296TMC3    C5 4460   3.722   1.613   0.640 -0.1848  0.2906 -0.0658
  296TMC3    C6 4461   3.826   1.627   0.727 -0.4792  0.2054  0.7782
  296TMC3     C 4462   3.887   1.687   0.340 -0.3344 -0.1383 -0.2515
  296TMC3     O 4463   3.949   1.775   0.278  0.3269 -0.4380  0.0684
  296TMC3     H 4464   4.034   1.796   0.512 -1.2327  0.3978 -0.5398
  296TMC3    H1 4465   3.658   1.634   0.435 -0.0990 -0.7382  0.5389
  296TMC3    H2 4466   3.814   1.620   0.834 -2.3085 -0.9816  0.4961
  296TMC3    C7 4467   3.599   1.555   0.680  0.6359  0.9588 -0.4183
  296TMC3    C8 4468   4.049   1.713   0.784  0.1530  0.7748 -0.1802
  296TMC3    O1 4469   3.494   1.595   0.634  0.0434  0.5044  0.1664
  296TMC3    O2 4470   4.051   1.636   0.877  0.1325 -0.2031 -0.7737
  297MPD2     C 4471   1.789   3.165  16.327  0.0013 -0.4270 -0.2009
  297MPD2    C1 4472   1.789   3.258  16.228 -0.2275 -0.1989  0.0870
  297MPD2    C2 4473   1.908   3.337  16.209  0.9330  0.1244  0.1685
  297MPD2    C3 4474   2.008   3.322  16.298 -0.0662  0.4652 -0.0272
  297MPD2    C4 4475   2.000   3.233  16.404 -0.1807 -0.1844 -0.6092
  297MPD2    C5 4476   1.892   3.158  16.409  0.1966 -0.1014 -0.1299
  297MPD2     H 4477   1.902   3.416  16.135  0.5038 -0.6626 -0.6504
  297MPD2    H1 4478   2.074   3.225  16.483 -0.7594 -1.4209 -0.1977
  297MPD2    H2 4479   1.700   3.116  16.366 -0.1815  0.9322  1.0735
  297MPD2    H3 4480   1.877   3.085  16.488  1.4070  0.4363  0.5912
  297MPD2     N 4481   2.109   3.418  16.291 -0.0758 -0.3975  0.4525
  297MPD2    H5 4482   2.104   3.486  16.216  4.3619  2.5966  2.8318
  297MPD2    N1 4483   1.680   3.281  16.148  0.7991 -1.0155  0.4073
  297MPD2    H7 4484   1.695   3.341  16.067  0.2867 -3.2311 -1.3425
  298TMC3    C1 4485   1.487   3.228  16.019 -0.0832 -0.0755 -0.1640
  298TMC3    C2 4486   1.556   3.263  15.905 -0.3668  0.6155  0.1167
  298TMC3    C3 4487   1.489   3.332  15.811 -0.1129  0.4251 -0.1498
  298TMC3    C4 4488   1.356   3.265  16.043 -0.2038 -0.5509 -0.0364
  298TMC3    C5 4489   1.297   3.343  15.948 -0.1928 -0.0098 -0.4737
  298TMC3    C6 4490   1.366   3.385  15.833 -0.2386 -0.7324  0.8122
  298TMC3     C 4491   1.564   3.208  16.142  0.0913  0.2423  0.1511
  298TMC3     O 4492   1.513   3.135  16.225 -0.0578  0.0579  0.3080
  298TMC3     H 4493   1.649   3.214  15.879 -1.0521 -0.1026 -0.9862
  298TMC3    H1 4494   1.314   3.246  16.141  0.7393  0.9076  0.6532
  298TMC3    H2 4495   1.327   3.461  15.766  2.2611  0.1975  0.4259
  298TMC3    C7 4496   1.204   3.442  16.001  0.1665 -0.2854 -0.1540
  298TMC3    C8 4497   1.560   3.342  15.687  0.9454  0.2581 -0.0729
  298TMC3    O1 4498   1.192   3.448  16.127 -0.0174  0.2755 -0.2927
  298TMC3    O2 4499   1.673   3.302  15.679  0.6018 -0.1809 -0.1970
  299MPD2     C 4500   2.484   3.158  10.209 -0.2715 -0.3274  0.8701
  299MPD2    C1 4501   2.460   3.103  10.325 -0.1796 -0.0270 -0.7596
  299MPD2    C2 4502   2.367   2.999  10.324 -0.1886  0.4987  0.5477
  299MPD2    C3 4503   2.289   2.972  10.210  0.0306  0.2658  0.2218
  299MPD2    C4 4504   2.310   3.045  10.098  0.4579  0.1105 -0.2371
  299MPD2    C5 4505   2.420   3.126  10.095  0.2335  0.5442 -0.3387
  299MPD2     H 4506   2.361   2.939  10.414 -1.5355 -1.2813 -0.7358
  299MPD2    H1 4507   2.257   3.013  10.009  1.3480 -2.4281  0.1444
  299MPD2    H2 4508   2.572   3.220  10.199 -0.9674  0.3582 -1.0804
  299MPD2    H3 4509   2.449   3.178  10.004 -2.5588  1.1699 -0.8765
  299MPD2     N 4510   2.195   2.870  10.202 -0.2771 -0.2966  0.2807
  299MPD2    H5 4511   2.143   2.862  10.115 -0.6829  0.7311  0.4253
  299MPD2    N1 4512   2.549   3.132  10.436 -0.5669 -0.4436  0.6501
  299MPD2    H7 4513   2.634   3.185  10.418 -2.0684  2.0139  0.7189
  300TMC3    C1 4514   2.027   2.727  10.278  0.7385 -0.3099  1.1418
  300TMC3    C2 4515   1.929   2.805  10.214 -0.7815  0.5548 -0.4907
  300TMC3    C3 4516   1.797   2.798  10.258 -0.0619  0.1314  1.1087
  300TMC3    C4 4517   1.997   2.634  10.368  0.0631  0.1902  0.9106
  300TMC3    C5 4518   1.863   2.630  10.402 -0.3901  0.0245 -0.2885
  300TMC3    C6 4519   1.764   2.710  10.356 -0.3614  0.1935 -0.2160
  300TMC3     C 4520   2.151   2.793  10.310 -0.2780 -0.3953 -0.0792
  300TMC3     O 4521   2.210   2.771  10.417 -0.4925 -0.1548  0.1107
  300TMC3     H 4522   1.955   2.891  10.154 -0.3875  2.3452  2.2643
  300TMC3    H1 4523   2.067   2.568  10.418  2.1973  1.0281 -1.0167
  300TMC3    H2 4524   1.660   2.704  10.387 -0.2766  0.3339  0.0970
  300TMC3    C7 4525   1.834   2.543  10.515  0.7180 -0.2595 -0.0418
  300TMC3    C8 4526   1.712   2.906  10.220  0.3408  1.1462  0.3195
  300TMC3    O1 4527   1.911   2.449  10.548  0.3586  0.5128 -0.1440
  300TMC3    O2 4528   1.750   2.992  10.142 -0.0431  0.2391  0.1785
  301MPD2     C 4529   3.745   0.160   2.018 -0.0079  0.4975 -1.0337
  301MPD2    C1 4530   3.641   0.115   1.941  0.5143  0.0237  0.7213
  301MPD2    C2 4531   3.626   4.700   1.928 -0.0312  0.4796 -0.2553
  301MPD2    C3 4532   3.706   4.609   2.004 -0.2181  0.3761  0.0506
  301MPD2    C4 4533   3.812   4.655   2.077 -0.5385  0.4716 -0.0059
  301MPD2    C5 4534   3.826   0.065   2.080  0.0366  0.3187  0.5516
  301MPD2     H 4535   3.547   4.657   1.869  0.3142 -1.9728  1.0646
  301MPD2    H1 4536   3.883   4.591   2.128  1.5833  1.2175 -2.0699
  301MPD2    H2 4537   3.775   0.264   2.023  0.1671  0.4110 -0.1780
  301MPD2    H3 4538   3.914   0.103   2.132  0.7589 -1.2874  0.5209
  301MPD2     N 4539   3.688   4.468   2.002 -0.5116  0.6786  0.4995
  301MPD2    H5 4540   3.749   4.415   2.063 -1.2029 -1.6831 -0.8488
  301MPD2    N1 4541   3.550   0.194   1.867  0.5186  0.2502  0.5440
  301MPD2    H7 4542   3.487   0.135   1.814  0.5259  0.7023  0.0266
  302TMC3    C1 4543   3.630   4.244   1.935 -0.5451  0.0305 -0.1638
  302TMC3    C2 4544   3.757   4.205   1.953  0.2698 -0.1828 -0.1014
  302TMC3    C3 4545   3.799   4.075   1.939 -0.8710  0.3209 -0.5023
  302TMC3    C4 4546   3.542   4.157   1.879  0.7960 -0.8285 -0.2735
  302TMC3    C5 4547   3.583   4.029   1.859  0.0215 -0.0844 -0.3762
  302TMC3    C6 4548   3.710   3.982   1.884  0.0803  0.3008  0.3080
  302TMC3     C 4549   3.610   4.395   1.915 -0.4944 -0.5755  0.9366
  302TMC3     O 4550   3.547   4.431   1.815  0.2369 -0.7714 -0.6813
  302TMC3     H 4551   3.840   4.275   1.942 -0.0011  0.1794  0.1770
  302TMC3    H1 4552   3.439   4.184   1.855  0.7844 -1.2598 -0.7152
  302TMC3    H2 4553   3.742   3.882   1.860 -0.7618  0.4536 -1.4444
  302TMC3    C7 4554   3.504   3.946   1.773  0.3653  0.0607 -0.3750
  302TMC3    C8 4555   3.939   4.047   1.911  0.2229  0.0087 -0.3743
  302TMC3    O1 4556   3.548   3.834   1.751  0.0992 -0.0802 -0.6926
  302TMC3    O2 4557   3.978   3.957   1.838 -0.0673 -0.5992  0.3479
  303MPD2     C 4558   4.563   2.214  10.389 -0.0423 -0.0213 -0.3636
  303MPD2    C1 4559   4.515   2.084  10.394 -0.1785 -0.0607 -0.2862
  303MPD2    C2 4560   4.495   2.016  10.271  0.2421 -0.8949 -0.5313
  303MPD2    C3 4561   4.518   2.074  10.142 -0.7071  0.5068 -0.1105
  303MPD2    C4 4562   4.576   2.203  10.147 -0.1671  0.2999  0.3488
  303MPD2    C5 4563   4.601   2.269  10.268  0.6245 -0.3952 -0.0060
  303MPD2     H 4564   4.444   1.920  10.278 -1.1478 -0.1370 -0.1893
  303MPD2    H1 4565   4.594   2.246  10.049 -1.3915  1.0976  0.4749
  303MPD2    H2 4566   4.576   2.268  10.482  1.8644 -0.1402 -0.5622
  303MPD2    H3 4567   4.646   2.368  10.263  0.3725 -0.2547  0.4800
  303MPD2     N 4568   4.501   1.999  10.019 -0.3597  0.2429 -0.9222
  303MPD2    H5 4569   4.496   2.062   9.939  1.8656 -0.1440 -1.3614
  303MPD2    N1 4570   4.480   2.034  10.524  0.3503  0.4037  0.1405
  303MPD2    H7 4571   4.491   2.096  10.604  1.0812  1.7332 -1.0128
  304TMC3    C1 4572   4.362   1.884  10.669 -0.2580 -0.0653 -0.2743
  304TMC3    C2 4573   4.264   1.978  10.697  0.1428 -0.0111  0.2066
  304TMC3    C3 4574   4.164   1.939  10.780  0.3082  0.4605 -0.2281
  304TMC3    C4 4575   4.360   1.761  10.718 -0.1791  0.3404 -0.0242
  304TMC3    C5 4576   4.275   1.726  10.820 -0.1801  0.2039 -0.2814
  304TMC3    C6 4577   4.172   1.820  10.848 -1.1370 -0.2551 -0.1188
  304TMC3     C 4578   4.446   1.900  10.551  0.4567 -0.1294  0.2205
  304TMC3     O 4579   4.447   1.804  10.476  0.1625  0.4536  0.0165
  304TMC3     H 4580   4.279   2.075  10.650 -0.1299 -0.4293 -0.7431
  304TMC3    H1 4581   4.434   1.689  10.685  0.9911  0.8478  1.5082
  304TMC3    H2 4582   4.108   1.804  10.934  1.3431  0.5178  1.8609
  304TMC3    C7 4583   4.225   1.593  10.812  0.1830  0.7886  0.0600
  304TMC3    C8 4584   4.026   1.959  10.733  0.7589 -0.4609  0.1095
  304TMC3    O1 4585   4.303   1.501  10.807 -0.2429  0.0080 -0.4619
  304TMC3    O2 4586   3.948   1.864  10.748 -0.0127  0.2189  0.0328
  305MPD2     C 4587   2.680   4.702  13.898  0.1167 -0.4523  0.2138
  305MPD2    C1 4588   2.605   4.588  13.927 -0.1997 -0.0906 -0.5357
  305MPD2    C2 4589   2.561   4.505  13.824 -0.3850 -0.4164  0.2326
  305MPD2    C3 4590   2.614   4.524  13.696  0.1449 -0.1858  0.4662
  305MPD2    C4 4591   2.699   4.637  13.677 -0.7213  0.6699 -0.5630
  305MPD2    C5 4592   2.735   0.005  13.778 -0.0725 -0.3724 -0.1516
  305MPD2     H 4593   2.499   4.420  13.850  1.7654 -1.8539  0.6668
  305MPD2    H1 4594   2.739   4.661  13.579 -0.5587  0.8117 -0.4619
  305MPD2    H2 4595   2.701   0.055  13.972 -0.7877  0.5007 -0.5091
  305MPD2    H3 4596   2.798   0.093  13.768  0.2459 -0.4163  1.4929
  305MPD2     N 4597   2.593   4.437  13.586 -0.1096 -0.0957  1.0619
  305MPD2    H5 4598   2.651   4.457  13.505  2.4928 -0.8617  2.7412
  305MPD2    N1 4599   2.568   4.571  14.061  0.9275  0.3182 -0.1135
  305MPD2    H7 4600   2.574   4.655  14.117  0.3766  0.8692 -0.8736
  306TMC3    C1 4601   2.528   4.439  14.248  0.1149 -0.6567 -0.9673
  306TMC3    C2 4602   2.631   4.353  14.280  0.3307  0.0861  0.1084
  306TMC3    C3 4603   2.727   4.389  14.368 -0.3137 -0.2958  0.4625
  306TMC3    C4 4604   2.527   4.560  14.316  0.4636  0.1896  0.0110
  306TMC3    C5 4605   2.622   4.585  14.410 -0.6826 -0.1281 -0.3375
  306TMC3    C6 4606   2.724   4.504  14.444 -0.0723 -0.0477  0.3933
  306TMC3     C 4607   2.528   4.445  14.108  0.1896 -0.1688 -0.5188
  306TMC3     O 4608   2.524   4.333  14.056 -0.8557 -0.1212 -0.2405
  306TMC3     H 4609   2.635   4.256  14.232 -0.4102  0.2181 -0.2137
  306TMC3    H1 4610   2.445   4.629  14.298  0.5753  0.1566 -0.6133
  306TMC3    H2 4611   2.799   4.530  14.517 -0.5197 -0.7315  1.0942
  306TMC3    C7 4612   2.600   4.699  14.501  0.1905 -0.5825 -0.9461
  306TMC3    C8 4613   2.862   4.360  14.316  0.7765  0.6841 -0.4953
  306TMC3    O1 4614   2.483   0.013  14.518  0.2245  0.5390 -0.5071
  306TMC3    O2 4615   2.866   4.348  14.195  0.1645 -0.3156  0.2156
  307MPD2     C 4616   0.338   3.176   1.162 -0.1622 -0.4473 -0.3602
  307MPD2    C1 4617   0.250   3.206   1.062  0.3309  0.7670 -0.3418
  307MPD2    C2 4618   0.263   3.325   0.994 -0.4842  0.0828 -0.1304
  307MPD2    C3 4619   0.359   3.415   1.032 -0.2762  0.0422 -0.0862
  307MPD2    C4 4620   0.445   3.381   1.132 -0.1429 -0.5402  0.4978
  307MPD2    C5 4621   0.437   3.261   1.191 -0.5317 -0.1494  0.0113
  307MPD2     H 4622   0.199   3.357   0.912  0.3580  0.2085 -0.7440
  307MPD2    H1 4623   0.533   3.441   1.148 -0.8015  1.0083 -1.7105
  307MPD2    H2 4624   0.349   3.079   1.208  1.1336  1.2080  2.8158
  307MPD2    H3 4625   0.510   3.226   1.263 -1.1892 -0.9927  0.2747
  307MPD2     N 4626   0.363   3.540   0.965  0.2472  0.6593  0.3483
  307MPD2    H5 4627   0.287   3.554   0.899 -1.6829 -2.0694  2.0027
  307MPD2    N1 4628   0.172   3.110   1.000 -0.3412  0.0013  0.0577
  307MPD2    H7 4629   0.127   3.128   0.911 -0.2910 -1.7817 -0.3135
  308TMC3    C1 4630   0.333   3.944   0.839  0.4036 -0.1701  0.3896
  308TMC3    C2 4631   0.443   3.987   0.763  0.3853  0.0072  0.3830
  308TMC3    C3 4632   0.539   3.897   0.728  0.2312  0.1523 -0.0124
  308TMC3    C4 4633   0.336   3.810   0.883  1.2893  0.6515 -0.2307
  308TMC3    C5 4634   0.452   3.738   0.871  0.0973  0.2518 -0.4895
  308TMC3    C6 4635   0.551   3.779   0.787  0.2723 -0.7278  0.3794
  308TMC3     C 4636   0.208   4.015   0.814 -0.1780 -0.0948  0.5129
  308TMC3     O 4637   0.216   4.135   0.795  0.0044 -0.3574  0.0329
  308TMC3     H 4638   0.428   4.080   0.711 -2.0700 -0.2617  0.6044
  308TMC3    H1 4639   0.255   3.780   0.948  0.0082  2.5416 -0.9591
  308TMC3    H2 4640   0.633   3.710   0.768  1.5008 -0.0574  3.1122
  308TMC3    C7 4641   0.472   3.619   0.957 -0.3054  0.2684 -0.7108
  308TMC3    C8 4642   0.623   3.931   0.618  0.6967 -0.0105  0.3705
  308TMC3    O1 4643   0.586   3.592   0.988 -0.3879  0.2792  0.5291
  308TMC3    O2 4644   0.626   4.051   0.585 -0.1069 -0.1792 -0.1009
  309MPD2     C 4645   4.569   3.521  17.149 -0.5245 -0.6143 -0.2207
  309MPD2    C1 4646   4.513   3.484  17.033  0.7526 -0.1884 -0.1910
  309MPD2    C2 4647   4.384   3.440  17.030 -0.7260  0.2347 -0.3308
  309MPD2    C3 4648   4.317   3.429  17.149  0.5229  0.2034  0.2217
  309MPD2    C4 4649   4.372   3.469  17.272  0.2900 -0.1363 -0.5874
  309MPD2    C5 4650   4.502   3.513  17.268  0.1177 -0.4869  0.3572
  309MPD2     H 4651   4.331   3.409  16.940 -2.2544 -0.5384  0.8201
  309MPD2    H1 4652   4.315   3.471  17.364  0.6643 -1.7764 -0.3224
  309MPD2    H2 4653   4.672   3.556  17.158 -0.0787 -1.6326 -1.2541
  309MPD2    H3 4654   4.559   3.558  17.349  0.0867 -1.0838  0.7158
  309MPD2     N 4655   4.183   3.390  17.164  0.1229  0.3732  0.6365
  309MPD2    H5 4656   4.152   3.379  17.260  0.4780 -2.8470  0.4105
  309MPD2    N1 4657   4.579   3.486  16.905  0.1222 -0.2223  0.0918
  309MPD2    H7 4658   4.527   3.459  16.822 -1.5422  0.0620  1.0381
  310TMC3    C1 4659   0.019   3.518  16.745 -0.8078 -0.3562  0.4322
  310TMC3    C2 4660   4.659   3.592  16.663  0.3147  0.1328  0.1821
  310TMC3    C3 4661   4.690   3.580  16.531  0.5402 -0.2219 -0.3439
  310TMC3    C4 4662   0.124   3.448  16.701 -0.8724  0.7274  0.5498
  310TMC3    C5 4663   0.143   3.429  16.569 -0.3970  0.5073  0.0223
  310TMC3    C6 4664   0.071   3.501  16.478 -0.0805 -0.1295 -0.7035
  310TMC3     C 4665   4.714   3.510  16.890  0.1467  0.5935  0.4227
  310TMC3     O 4666   0.080   3.513  16.973 -0.2653 -0.0374  0.0162
  310TMC3     H 4667   4.570   3.646  16.694 -0.4457 -2.0403  1.7413
  310TMC3    H1 4668   0.189   3.395  16.771  1.5012  0.4761 -1.8271
  310TMC3    H2 4669   0.079   3.497  16.370  0.5264  0.4443 -0.6801
  310TMC3    C7 4670   0.239   3.333  16.519  0.1891  0.4927  0.1549
  310TMC3    C8 4671   4.590   3.625  16.434  0.5929  0.5313 -0.1685
  310TMC3    O1 4672   0.307   3.271  16.602  0.4406 -0.3612  0.3454
  310TMC3    O2 4673   4.579   3.569  16.328  0.1953  0.3179 -0.0118
  311MPD2     C 4674   1.636   3.978  12.799  0.5144 -0.4520 -0.4822
  311MPD2    C1 4675   1.638   4.114  12.796 -0.8584 -0.0891  0.2401
  311MPD2    C2 4676   1.523   4.176  12.844  1.0724  0.0880 -0.3982
  311MPD2    C3 4677   1.406   4.110  12.889  0.4006  0.4184  0.2878
  311MPD2    C4 4678   1.413   3.974  12.893 -0.2960 -0.3084  0.4815
  311MPD2    C5 4679   1.523   3.916  12.843 -0.0751 -0.0662 -0.6954
  311MPD2     H 4680   1.520   4.284  12.843  0.1368  0.0792  1.5800
  311MPD2    H1 4681   1.335   3.906  12.925  1.0056 -2.2572 -0.4509
  311MPD2    H2 4682   1.710   3.917  12.750  1.4306  2.6073 -2.9011
  311MPD2    H3 4683   1.534   3.808  12.835 -0.1406 -0.2855  2.3710
  311MPD2     N 4684   1.287   4.174  12.927 -0.3974 -0.7124  0.1383
  311MPD2    H5 4685   1.276   4.273  12.909  0.2942 -0.8514 -1.0840
  311MPD2    N1 4686   1.752   4.193  12.767  0.5621  0.2519 -0.3238
  311MPD2    H7 4687   1.746   4.290  12.797  0.4112  0.5923 -1.4573
  312TMC3    C1 4688   1.062   4.199  12.983 -0.5701  0.2542 -0.3889
  312TMC3    C2 4689   0.939   4.166  12.928 -0.4726 -0.4246  0.1526
  312TMC3    C3 4690   0.844   4.263  12.906  0.4663  0.1899  0.4272
  312TMC3    C4 4691   1.085   4.329  13.023  0.8966 -0.2924 -0.3503
  312TMC3    C5 4692   0.987   4.423  12.999  0.0040 -0.0270 -1.0242
  312TMC3    C6 4693   0.875   4.395  12.933 -0.0017 -0.1982  0.4142
  312TMC3     C 4694   1.173   4.106  12.965  0.1391  1.1615 -0.8743
  312TMC3     O 4695   1.146   3.990  12.983  0.0800  0.2491  0.0155
  312TMC3     H 4696   0.922   4.060  12.913 -1.7923 -0.1950  0.0201
  312TMC3    H1 4697   1.173   4.362  13.077  0.2428  0.8382  0.0029
  312TMC3    H2 4698   0.802   4.473  12.917  0.5233  0.3970  0.9360
  312TMC3    C7 4699   0.999   4.550  13.056  0.0381 -0.5085  0.6384
  312TMC3    C8 4700   0.708   4.224  12.869  0.1869 -0.2080 -0.1968
  312TMC3    O1 4701   0.959   4.647  12.993  0.2180  0.1429  0.0950
  312TMC3    O2 4702   0.697   4.120  12.806  0.4575 -0.1386  0.2004
  313MPD2     C 4703   1.122   2.897  10.585  0.3127 -0.3513  0.8497
  313MPD2    C1 4704   1.008   2.949  10.649 -0.0154 -0.5960  0.2456
  313MPD2    C2 4705   0.883   2.896  10.622 -0.0405 -0.1165 -0.2205
  313MPD2    C3 4706   0.858   2.798  10.535 -0.4216 -0.1841  0.4268
  313MPD2    C4 4707   0.968   2.741  10.472  0.2650 -0.1340 -0.7957
  313MPD2    C5 4708   1.102   2.796  10.494 -0.0545  0.1025 -0.2840
  313MPD2     H 4709   0.802   2.938  10.680  1.4863  0.4184  1.5361
  313MPD2    H1 4710   0.955   2.663  10.398 -3.0381 -1.0779  0.8062
  313MPD2    H2 4711   1.224   2.925  10.609 -0.9250  2.0830  3.3472
  313MPD2    H3 4712   1.188   2.758  10.439 -0.8072 -1.3652 -0.4466
  313MPD2     N 4713   0.721   2.749  10.525  0.0155 -0.5018  0.7696
  313MPD2    H5 4714   0.656   2.798  10.585  0.1635  1.1855 -0.4352
  313MPD2    N1 4715   1.017   3.050  10.747  0.1424  0.4697 -0.2458
  313MPD2    H7 4716   0.928   3.069  10.792 -0.1317 -0.9303 -0.1904
  314TMC3    C1 4717   1.089   3.233  10.883 -0.3030 -0.2174  0.0813
  314TMC3    C2 4718   1.191   3.307  10.932  0.1803  0.4094  0.5499
  314TMC3    C3 4719   1.166   3.403  11.030 -0.1154  0.9463  0.1729
  314TMC3    C4 4720   0.961   3.257  10.921 -0.0661  0.7996 -0.0946
  314TMC3    C5 4721   0.935   3.359  11.007 -0.1498 -0.6384 -0.0416
  314TMC3    C6 4722   1.037   3.420  11.069  0.1336 -0.7805 -0.0560
  314TMC3     C 4723   1.125   3.118  10.793  0.7966 -0.1392 -1.1470
  314TMC3     O 4724   1.246   3.102  10.773 -0.1551  0.0517 -0.7130
  314TMC3     H 4725   1.294   3.288  10.903 -0.1478 -1.2797  0.5378
  314TMC3    H1 4726   0.874   3.220  10.869 -0.0588 -0.4096  0.7605
  314TMC3    H2 4727   1.021   3.493  11.148  1.2339  2.1132 -2.4805
  314TMC3    C7 4728   0.824   3.442  10.975 -0.1097 -0.3450 -0.2163
  314TMC3    C8 4729   1.239   3.526  11.030  0.2820 -0.0218 -0.0134
  314TMC3    O1 4730   0.718   3.398  10.943  0.1706 -0.0946  0.4156
  314TMC3    O2 4731   1.165   3.626  11.030  0.2321 -0.7933  0.3362
  315MPD2     C 4732   0.595   3.078  17.431 -0.4252 -0.0808 -0.9067
  315MPD2    C1 4733   0.712   3.040  17.481  0.0448 -0.2403 -0.3534
  315MPD2    C2 4734   0.823   3.126  17.479  0.3208 -0.0864 -0.5352
  315MPD2    C3 4735   0.805   3.249  17.425  0.2633  0.2838  0.3964
  315MPD2    C4 4736   0.686   3.288  17.367  0.1102 -0.7061  0.1961
  315MPD2    C5 4737   0.581   3.199  17.366  0.0849  0.8492 -0.4182
  315MPD2     H 4738   0.910   3.093  17.534 -1.6921 -0.8874  2.1692
  315MPD2    H1 4739   0.673   3.371  17.298  2.0498 -1.5661 -1.1934
  315MPD2    H2 4740   0.505   3.017  17.435 -0.2018 -0.3057  0.6533
  315MPD2    H3 4741   0.490   3.243  17.326 -0.1496  1.5974  0.9160
  315MPD2     N 4742   0.918   3.335  17.421 -0.3412  0.0299 -0.4690
  315MPD2    H5 4743   1.000   3.288  17.458 -1.8219 -0.8438  1.6807
  315MPD2    N1 4744   0.737   2.905  17.533 -0.3699  0.3372 -0.4162
  315MPD2    H7 4745   0.816   2.894  17.596 -0.1646 -0.3314 -0.7872
  316TMC3    C1 4746   1.063   3.513  17.360  0.4601  0.0530  0.6556
  316TMC3    C2 4747   1.162   3.452  17.438 -0.4652 -0.0540  0.2100
  316TMC3    C3 4748   1.293   3.483  17.412 -0.3243 -0.1555  0.5190
  316TMC3    C4 4749   1.090   3.602  17.258  0.0770 -0.2219  1.0357
  316TMC3    C5 4750   1.224   3.623  17.237  0.6814  0.0972 -0.0264
  316TMC3    C6 4751   1.329   3.572  17.315 -0.4581 -0.5822 -0.0442
  316TMC3     C 4752   0.925   3.463  17.370 -0.0391 -0.2294  0.2639
  316TMC3     O 4753   0.835   3.531  17.325  0.1273  0.4263 -0.0459
  316TMC3     H 4754   1.143   3.394  17.528 -2.4332  1.1546  0.5643
  316TMC3    H1 4755   1.015   3.666  17.212  0.8597  0.9015  1.3357
  316TMC3    H2 4756   1.432   3.598  17.296 -0.7217  0.5561  0.0838
  316TMC3    C7 4757   1.278   3.728  17.151 -0.6023  0.2140  0.0919
  316TMC3    C8 4758   1.391   3.447  17.511 -0.0281  0.3133  0.1710
  316TMC3    O1 4759   1.380   3.786  17.182  0.0580  0.1780 -0.1121
  316TMC3    O2 4760   1.475   3.533  17.539  0.3513  0.1532 -0.1209
  317MPD2     C 4761   2.973   1.563  12.926 -0.1255 -0.4364 -0.2574
  317MPD2    C1 4762   2.963   1.428  12.888 -0.2942  0.2822  0.1650
  317MPD2    C2 4763   3.029   1.328  12.958 -0.6857  0.9980  0.3638
  317MPD2    C3 4764   3.114   1.357  13.065 -0.9005  0.5447  1.0371
  317MPD2    C4 4765   3.125   1.492  13.099 -0.1339 -0.0848 -0.1171
  317MPD2    C5 4766   3.065   1.598  13.026  0.4180 -0.1627  0.1870
  317MPD2     H 4767   3.014   1.226  12.925  0.2416  0.6660  0.9621
  317MPD2    H1 4768   3.190   1.517  13.182  0.3156 -0.3104 -0.4045
  317MPD2    H2 4769   2.939   1.647  12.866 -0.1698  0.9323  1.7010
  317MPD2    H3 4770   3.070   1.704  13.045  0.3174 -0.3199  1.0972
  317MPD2     N 4771   3.187   1.265  13.144  0.8523 -0.4497 -0.6657
  317MPD2    H5 4772   3.268   1.303  13.194 -0.4691 -0.6628  1.6161
  317MPD2    N1 4773   2.878   1.385  12.781  0.6603 -0.3715 -0.3399
  317MPD2    H7 4774   2.864   1.286  12.764  0.7824 -0.0817 -2.0474
  318TMC3    C1 4775   3.240   1.054  13.238  0.0188 -0.7145  0.5744
  318TMC3    C2 4776   3.196   0.936  13.287  0.3323  0.1112  0.4503
  318TMC3    C3 4777   3.284   0.842  13.328  0.0435 -0.6016 -0.2570
  318TMC3    C4 4778   3.365   1.099  13.257 -0.3386  0.2855 -0.8265
  318TMC3    C5 4779   3.453   1.016  13.316 -0.2009 -0.6598 -0.0766
  318TMC3    C6 4780   3.414   0.886  13.344  0.4184 -0.0063 -0.2980
  318TMC3     C 4781   3.148   1.133  13.155  0.5860  0.2626 -0.3039
  318TMC3     O 4782   3.040   1.091  13.123  0.5419  0.8177 -0.0848
  318TMC3     H 4783   3.096   0.911  13.251  0.4404 -1.2766  1.1073
  318TMC3    H1 4784   3.405   1.189  13.214 -1.0267  1.0972  0.2328
  318TMC3    H2 4785   3.493   0.816  13.369  2.0226  1.6843 -0.5824
  318TMC3    C7 4786   3.586   1.060  13.338  0.1819 -0.5115  0.3494
  318TMC3    C8 4787   3.254   0.713  13.275  0.3153 -0.4403  0.4403
  318TMC3    O1 4788   3.609   1.160  13.276 -0.0954  0.1992  0.5150
  318TMC3    O2 4789   3.342   0.653  13.216 -0.5378  0.0057  0.7777
  319MPD2     C 4790   3.598   2.244  17.014 -1.0054 -0.6727  0.2449
  319MPD2    C1 4791   3.494   2.325  17.018 -0.8452 -0.5293  0.1867
  319MPD2    C2 4792   3.420   2.356  16.898 -0.7613 -0.8446 -0.3847
  319MPD2    C3 4793   3.454   2.288  16.787 -0.2052  0.2204  0.0965
  319MPD2    C4 4794   3.548   2.189  16.794  0.8617  0.3917  0.1566
  319MPD2    C5 4795   3.629   2.174  16.899  0.1478 -0.1211  0.4076
  319MPD2     H 4796   3.333   2.420  16.905  0.4210  0.7685 -0.5039
  319MPD2    H1 4797   3.565   2.132  16.703  1.7893 -0.8137  1.0862
  319MPD2    H2 4798   3.660   2.229  17.101 -0.5341 -0.1681 -0.0016
  319MPD2    H3 4799   3.714   2.107  16.894  0.8371  0.8589 -0.8624
  319MPD2     N 4800   3.385   2.304  16.664  0.3878  0.1406  0.1205
  319MPD2    H5 4801   3.413   2.247  16.585 -0.3897  1.5155 -1.1683
  319MPD2    N1 4802   3.452   2.387  17.138  0.1097  0.2108  0.2230
  319MPD2    H7 4803   3.372   2.450  17.135  0.4694  0.6765  0.3599
  320TMC3    C1 4804   3.234   2.403  16.505  0.1672  0.2899  0.1334
  320TMC3    C2 4805   3.202   2.521  16.445  0.7910 -0.7819  0.0775
  320TMC3    C3 4806   3.127   2.510  16.323 -0.6576  0.1951 -0.2834
  320TMC3    C4 4807   3.177   2.288  16.467 -0.0516 -0.3113  0.3113
  320TMC3    C5 4808   3.093   2.282  16.357 -0.1462  0.0821 -0.3153
  320TMC3    C6 4809   3.068   2.393  16.280 -0.5843  0.4457 -0.4813
  320TMC3     C 4810   3.305   2.417  16.628 -0.9776  0.1400 -0.9690
  320TMC3     O 4811   3.286   2.521  16.694  0.2998 -0.2114 -0.6984
  320TMC3     H 4812   3.260   2.610  16.467  0.6890 -0.7832  0.3569
  320TMC3    H1 4813   3.187   2.200  16.529 -1.4191 -1.9265 -1.7521
  320TMC3    H2 4814   3.007   2.397  16.190 -0.6524 -0.2898 -0.4693
  320TMC3    C7 4815   3.078   2.162  16.285  0.6738 -0.5096 -0.3023
  320TMC3    C8 4816   3.140   2.612  16.219  0.1162 -0.5076  0.4833
  320TMC3    O1 4817   3.071   2.175  16.162 -0.2267 -0.2833  0.2657
  320TMC3    O2 4818   3.177   2.717  16.263  0.2151 -0.7395 -0.3305
  321TMC3    C1 4819   3.414   2.426  17.382  0.0226 -0.8308  0.1088
  321TMC3    C2 4820   3.408   2.363  17.504 -0.0654  0.1780 -0.4055
  321TMC3    C3 4821   3.378   2.438  17.614 -0.3876  0.4595  0.3682
  321TMC3    C4 4822   3.417   2.558  17.368 -0.9357  0.2851  0.4888
  321TMC3    C5 4823   3.386   2.638  17.474  0.1540  0.0371 -0.5319
  321TMC3    C6 4824   3.367   2.579  17.598 -0.4406  0.2098 -0.0916
  321TMC3     C 4825   3.476   2.346  17.272 -0.3216 -0.3599  0.9037
  321TMC3     O 4826   3.547   2.255  17.310 -0.0079  0.1720  0.3505
  321TMC3     H 4827   3.416   2.255  17.510 -0.1478  0.1214 -1.3086
  321TMC3    H1 4828   3.461   2.597  17.277 -2.5994  1.0690  0.0075
  321TMC3    H2 4829   3.355   2.636  17.689  1.2409  0.9779 -0.3528
  321TMC3    C7 4830   3.469   2.753  17.492 -0.3522  1.0260  0.0292
  321TMC3    C8 4831   3.469   2.414   0.035 -0.1759  0.4450  0.5963
  321TMC3    O1 4832   3.465   2.827  17.398  0.3675  0.3603 -0.1406
  321TMC3    O2 4833   3.520   2.512   0.082  0.0327 -0.2120 -0.1076
  322MPD2     C 4834   2.519   3.568  13.536  0.4157  0.2524  0.2107
  322MPD2    C1 4835   2.573   3.581  13.664 -0.0735  0.5123  0.0325
  322MPD2    C2 4836   2.618   3.463  13.724  0.2501  0.1092 -0.3451
  322MPD2    C3 4837   2.597   3.339  13.664 -0.0385  0.1541  0.1285
  322MPD2    C4 4838   2.533   3.327  13.545 -0.5029 -0.1265  0.3020
  322MPD2    C5 4839   2.507   3.445  13.480  0.8773 -0.4626 -0.5372
  322MPD2     H 4840   2.648   3.479  13.826 -0.0174 -0.2555 -0.2087
  322MPD2    H1 4841   2.514   3.232  13.496  0.3221  0.2262 -0.6888
  322MPD2    H2 4842   2.481   3.653  13.481 -1.7543 -1.0085 -0.2484
  322MPD2    H3 4843   2.471   3.445  13.378  0.4607  1.2705 -0.3876
  322MPD2     N 4844   2.647   3.229  13.742 -0.0382 -0.3426 -0.2725
  322MPD2    H5 4845   2.682   3.259  13.832 -1.7970 -2.0298  0.9574
  322MPD2    N1 4846   2.582   3.697  13.745  0.2448 -0.2077  0.1819
  322MPD2    H7 4847   2.611   3.680  13.841 -1.2447 -0.3048  0.6162
  323TMC3    C1 4848   2.616   3.926  13.796 -0.1074  0.1693  0.0822
  323TMC3    C2 4849   2.672   4.034  13.730  0.2644  0.3276  0.0204
  323TMC3    C3 4850   2.720   4.136  13.808 -0.2046 -0.4080  0.2374
  323TMC3    C4 4851   2.609   3.906  13.931  0.2622 -0.5401 -0.3541
  323TMC3    C5 4852   2.658   4.013  14.002  0.4403  0.0604  0.2401
  323TMC3    C6 4853   2.722   4.123  13.943 -0.5875  0.2348  0.6643
  323TMC3     C 4854   2.555   3.827  13.706  0.1797  0.3930 -0.1167
  323TMC3     O 4855   2.529   3.868  13.591  0.1092  0.4050  0.1002
  323TMC3     H 4856   2.678   4.041  13.622 -0.2208 -1.0282 -0.0965
  323TMC3    H1 4857   2.547   3.827  13.971  0.6499 -1.5192 -1.6634
  323TMC3    H2 4858   2.770   4.196  14.008 -1.5988 -0.3287  2.0472
  323TMC3    C7 4859   2.677   3.980  14.141  0.0742  0.6209 -0.1848
  323TMC3    C8 4860   2.821   4.223  13.757  0.3345  0.5383  0.1510
  323TMC3    O1 4861   2.598   3.901  14.196 -0.4980  0.5589  0.2764
  323TMC3    O2 4862   2.883   4.185  13.656 -0.5403 -0.3348  0.2761
  324MPD2     C 4863   0.123   0.823  14.113 -0.2852 -0.4592 -0.0584
  324MPD2    C1 4864   0.010   0.761  14.167 -0.5881 -0.0910  0.7291
  324MPD2    C2 4865   4.608   0.779  14.102 -0.1467 -0.1129  0.3408
  324MPD2    C3 4866   4.595   0.854  13.989  0.1307  0.2044  0.1896
  324MPD2    C4 4867   4.698   0.937  13.952 -0.7098 -0.3914 -0.1668
  324MPD2    C5 4868   0.098   0.923  14.020 -0.1267 -0.1737  0.4249
  324MPD2     H 4869   4.522   0.727  14.143 -2.4093  3.1487 -0.3274
  324MPD2    H1 4870   4.709   1.014  13.877 -0.3966  0.3088  0.5930
  324MPD2    H2 4871   0.222   0.823  14.156 -1.4009 -0.1308  2.4927
  324MPD2    H3 4872   0.175   0.996  13.999 -2.7508  2.1011 -1.4148
  324MPD2     N 4873   4.472   0.875  13.921 -0.1018  0.4339  0.5508
  324MPD2    H5 4874   4.455   0.939  13.844  0.9593 -0.3614 -0.3499
  324MPD2    N1 4875   0.011   0.683  14.279  0.1287 -0.1497  0.4499
  324MPD2    H7 4876   4.641   0.650  14.305 -0.3346  0.3233 -0.6143
  325TMC3    C1 4877   4.243   0.859  13.863  0.2147  0.1664 -0.5207
  325TMC3    C2 4878   4.139   0.772  13.863  0.1365 -0.4495  0.0193
  325TMC3    C3 4879   4.017   0.822  13.863  1.0504 -0.0054 -0.0492
  325TMC3    C4 4880   4.220   0.997  13.877 -0.1684  0.2215  0.3720
  325TMC3    C5 4881   4.096   1.044  13.907  0.4305 -0.5339 -0.2937
  325TMC3    C6 4882   3.992   0.957  13.885 -0.1634  0.2878  0.1156
  325TMC3     C 4883   4.355   0.806  13.944  0.1511 -0.3157  0.1032
  325TMC3     O 4884   4.345   0.702  14.009 -1.0753  0.0759  1.0003
  325TMC3     H 4885   4.155   0.665  13.876  0.9394 -0.3053  0.2089
  325TMC3    H1 4886   4.301   1.068  13.888 -0.1902  0.4854 -1.0917
  325TMC3    H2 4887   3.887   0.984  13.885 -0.0676  0.6927 -1.8090
  325TMC3    C7 4888   4.108   1.101  14.040 -0.1719 -0.3727  0.2970
  325TMC3    C8 4889   3.907   0.737  13.819  0.1534  0.2257 -0.1290
  325TMC3    O1 4890   4.209   1.161  14.080  0.5468 -0.0037 -0.3412
  325TMC3    O2 4891   3.818   0.787  13.754 -0.4126  0.2870 -0.5088
  326MPD2     C 4892   0.521   1.192  11.322  0.7311  0.1720  0.0267
  326MPD2    C1 4893   0.516   1.188  11.187 -0.5331  0.1435  0.2080
  326MPD2    C2 4894   0.606   1.254  11.102  0.2914  0.6525  0.4487
  326MPD2    C3 4895   0.702   1.331  11.147  0.5264  0.1448 -0.6551
  326MPD2    C4 4896   0.704   1.340  11.288  1.0518  0.4787 -0.2167
  326MPD2    C5 4897   0.617   1.278  11.371 -1.1380 -0.1334 -0.2508
  326MPD2     H 4898   0.594   1.248  10.995 -3.2123  1.6116  0.7623
  326MPD2    H1 4899   0.781   1.399  11.336  0.7678  0.7551 -0.1033
  326MPD2    H2 4900   0.454   1.145  11.392  2.3058  0.5690  1.8037
  326MPD2    H3 4901   0.615   1.300  11.477  1.9777  0.0656 -0.2322
  326MPD2     N 4902   0.780   1.416  11.063  0.2460 -0.3174  0.1869
  326MPD2    H5 4903   0.858   1.455  11.114  0.1758 -0.9177  0.7497
  326MPD2    N1 4904   0.420   1.117  11.119 -0.3503 -0.2993 -0.3407
  326MPD2    H7 4905   0.411   1.151  11.024 -0.9005  1.0298  0.1947
  327TMC3    C1 4906   0.252   0.984  11.053  0.4531  0.5356 -1.2741
  327TMC3    C2 4907   0.126   1.040  11.047 -0.2224 -0.1666  0.8099
  327TMC3    C3 4908   0.088   1.097  10.930 -0.6199  0.1361 -0.2981
  327TMC3    C4 4909   0.336   0.973  10.944  0.4274 -0.4846  0.1593
  327TMC3    C5 4910   0.293   1.027  10.827  0.4327  0.4338  0.3109
  327TMC3    C6 4911   0.171   1.089  10.814 -0.7508 -0.1987 -0.6398
  327TMC3     C 4912   0.317   1.037  11.166 -0.0645 -0.1408 -0.5616
  327TMC3     O 4913   0.261   1.038  11.276 -0.4376  0.1212 -0.3111
  327TMC3     H 4914   0.064   1.048  11.135 -0.6825 -1.1740  0.5741
  327TMC3    H1 4915   0.427   0.915  10.956 -0.2854 -1.3716  1.3122
  327TMC3    H2 4916   0.152   1.147  10.724  3.3705  0.0336 -1.3866
  327TMC3    C7 4917   0.383   1.044  10.715  0.3597  0.3756 -0.0164
  327TMC3    C8 4918   4.708   1.198  10.936  0.0277 -0.1991 -0.0716
  327TMC3    O1 4919   0.345   1.091  10.610 -0.0611 -0.1375 -0.1576
  327TMC3    O2 4920   4.616   1.185  11.014 -0.0732 -0.0721 -1.1086
  328MPD2     C 4921   3.108   0.926  17.232 -0.1806  0.2524  0.5436
  328MPD2    C1 4922   2.972   0.917  17.200  0.4891 -0.0264  0.3945
  328MPD2    C2 4923   2.915   1.031  17.150  0.9981 -0.6500  0.0840
  328MPD2    C3 4924   2.987   1.144  17.112  0.3920 -0.5141  0.7514
  328MPD2    C4 4925   3.118   1.150  17.147 -0.6506  0.2236  0.3861
  328MPD2    C5 4926   3.181   1.041  17.205  0.5309 -0.2421  0.0406
  328MPD2     H 4927   2.809   1.049  17.146  1.1925  0.4349 -0.2937
  328MPD2    H1 4928   3.177   1.236  17.119  0.9701 -0.8350  0.5179
  328MPD2    H2 4929   3.160   0.842  17.276 -0.8585  0.9567  2.7303
  328MPD2    H3 4930   3.285   1.048  17.234  0.1925  2.2616  0.5808
  328MPD2     N 4931   2.921   1.260  17.062  0.4853 -0.1870 -0.0822
  328MPD2    H5 4932   2.971   1.348  17.075 -0.8839  0.6526 -0.4500
  328MPD2    N1 4933   2.902   0.797  17.221 -0.1104 -0.0444  0.9241
  328MPD2    H7 4934   2.947   0.720  17.271 -2.3062 -2.0463 -0.1506
  329TMC3    C1 4935   2.706   0.689  17.281  0.3254  0.4904 -0.5874
  329TMC3    C2 4936   2.575   0.702  17.300  0.6480 -0.0898  0.1529
  329TMC3    C3 4937   2.522   0.672  17.423  0.5815  1.1001  0.3072
  329TMC3    C4 4938   2.783   0.649  17.391  0.3621  0.2464  0.5240
  329TMC3    C5 4939   2.733   0.619  17.516  0.4205 -0.2987 -0.0314
  329TMC3    C6 4940   2.599   0.640  17.530 -0.1536  0.1860  0.1190
  329TMC3     C 4941   2.768   0.783  17.196  0.1432 -0.1745 -0.1169
  329TMC3     O 4942   2.700   0.854  17.118 -0.0219  0.0257  0.1720
  329TMC3     H 4943   2.521   0.762  17.227 -0.3095  0.1042  1.0148
  329TMC3    H1 4944   2.889   0.629  17.382  0.6891  1.7742  1.1074
  329TMC3    H2 4945   2.559   0.632  17.631 -2.6134  3.1469 -0.6287
  329TMC3    C7 4946   2.820   0.641  17.629 -0.0818  0.3769 -0.2880
  329TMC3    C8 4947   2.425   0.771  17.466 -0.2019 -0.2720 -0.0074
  329TMC3    O1 4948   2.927   0.704  17.617  0.2320  0.6257 -0.1863
  329TMC3    O2 4949   2.448   0.828  17.573 -0.6619 -0.0947  0.8792
  330TMC3    C1 4950   0.463   0.469   9.684 -0.0675  0.2485  0.2510
  330TMC3    C2 4951   0.425   0.344   9.651 -0.2746 -0.0648 -0.4029
  330TMC3    C3 4952   0.526   0.252   9.653 -0.2095  0.2540  0.2376
  330TMC3    C4 4953   0.584   0.500   9.744  0.3215  0.5884  0.2086
  330TMC3    C5 4954   0.675   0.407   9.739 -0.2343 -0.3410 -0.2263
  330TMC3    C6 4955   0.652   0.282   9.701 -0.8064 -0.4657  0.7997
  330TMC3     C 4956   0.352   0.567   9.684  0.2877 -0.4516 -0.8354
  330TMC3     O 4957   0.354   0.666   9.757 -0.3559  0.5969 -0.6331
  330TMC3     H 4958   0.329   0.317   9.609 -0.2722 -1.1708  0.3007
  330TMC3    H1 4959   0.591   0.603   9.776 -1.5614  0.6308  0.4777
  330TMC3    H2 4960   0.738   0.220   9.679 -0.0257  0.0118  2.5105
  330TMC3    C7 4961   0.796   0.434   9.805  0.5911 -0.0720 -0.4250
  330TMC3    C8 4962   0.516   0.127   9.580 -0.4912  0.3026  0.0533
  330TMC3    O1 4963   0.820   0.555   9.825  0.0349 -0.1404  0.6145
  330TMC3    O2 4964   0.430   0.121   9.490 -0.6832  0.6329 -0.4563
  331MPD2     C 4965   3.249   3.923  12.983 -0.5590 -0.2330 -0.1694
  331MPD2    C1 4966   3.356   3.967  12.912 -0.4971 -0.2614  0.5021
  331MPD2    C2 4967   3.418   3.886  12.825  0.2515 -0.7333  0.1160
  331MPD2    C3 4968   3.385   3.752  12.809 -0.1690 -0.3011  0.2604
  331MPD2    C4 4969   3.277   3.710  12.887  0.2853  0.4245  0.5959
  331MPD2    C5 4970   3.208   3.795  12.968  0.3751  0.0832 -0.6392
  331MPD2     H 4971   3.503   3.920  12.767 -0.7435  0.9374 -0.3437
  331MPD2    H1 4972   3.239   3.610  12.871 -0.1308  0.2786  2.5458
  331MPD2    H2 4973   3.205   3.985  13.060 -2.5365 -2.9059  0.8470
  331MPD2    H3 4974   3.116   3.763  13.017  0.0224  1.2040 -0.5781
  331MPD2     N 4975   3.457   3.672  12.720  0.1386  0.0904 -0.0880
  331MPD2    H5 4976   3.514   3.706  12.643 -2.6780  0.1856 -2.1729
  331MPD2    N1 4977   3.397   4.105  12.930  0.6002 -0.0558 -0.8577
  331MPD2    H7 4978   3.344   4.162  12.995 -0.6675 -0.0385 -1.9075
  332TMC3    C1 4979   3.577   3.474  12.677 -0.2380  0.0506 -0.5264
  332TMC3    C2 4980   3.612   3.545  12.566 -0.3453 -0.0517  0.0488
  332TMC3    C3 4981   3.741   3.551  12.532 -0.8584 -0.3148 -0.1664
  332TMC3    C4 4982   3.664   3.403  12.751 -0.4976 -0.3761  0.0231
  332TMC3    C5 4983   3.792   3.410  12.712  0.4152 -0.3338  0.3667
  332TMC3    C6 4984   3.829   3.481  12.602 -0.2199 -0.0243 -0.6457
  332TMC3     C 4985   3.460   3.532  12.746  0.1958  0.7528  1.2482
  332TMC3     O 4986   3.417   3.458  12.834 -0.5196 -0.4931  0.6005
  332TMC3     H 4987   3.528   3.586  12.510 -0.6731 -0.7449  0.0355
  332TMC3    H1 4988   3.643   3.372  12.853 -1.6946  3.0023  0.7978
  332TMC3    H2 4989   3.925   3.459  12.558 -0.7103  0.0221 -1.7282
  332TMC3    C7 4990   3.894   3.371  12.805 -0.0969  0.0461 -0.4518
  332TMC3    C8 4991   3.785   3.612  12.407 -0.0632 -0.6728  0.0755
  332TMC3    O1 4992   3.864   3.287  12.890 -0.7975 -0.2748  0.5761
  332TMC3    O2 4993   3.695   3.613  12.326 -0.0637 -0.1682  0.3217
  333MPD2     C 4994   3.643   4.118  11.458 -0.3407  0.0189  0.4175
  333MPD2    C1 4995   3.713   4.057  11.357 -0.2063 -0.3097  0.1908
  333MPD2    C2 4996   3.685   3.926  11.322 -0.4216  0.3889  0.1093
  333MPD2    C3 4997   3.589   3.852  11.388  0.0608  0.3523  0.0295
  333MPD2    C4 4998   3.511   3.921  11.487 -0.4803  0.6457 -0.5026
  333MPD2    C5 4999   3.543   4.052  11.520 -0.0260  0.9143 -0.5606
  333MPD2     H 5000   3.737   3.877  11.240 -2.7475  1.2002 -1.8592
  333MPD2    H1 5001   3.418   3.884  11.530  0.6238 -2.8891 -1.1105
  333MPD2    H2 5002   3.676   4.203  11.515  0.0477  0.3332 -0.2722
  333MPD2    H3 5003   3.485   4.099  11.598 -1.7747 -1.7074 -0.2573
  333MPD2     N 5004   3.573   3.712  11.373  0.2844 -0.4373 -0.0416
  333MPD2    H5 5005   3.520   3.672  11.450 -1.5389  0.9840 -0.5568
  333MPD2    N1 5006   3.813   4.134  11.297 -0.2562 -0.3663 -0.1284
  333MPD2    H7 5007   3.822   4.232  11.324 -0.5311  0.1060 -1.7104
  334TMC3    C1 5008   4.000   4.188  11.154 -0.7117 -0.7965  0.0060
  334TMC3    C2 5009   4.129   4.148  11.136 -0.2851 -0.3044 -0.0961
  334TMC3    C3 5010   4.216   4.239  11.075  0.3269 -0.0419 -0.0338
  334TMC3    C4 5011   3.961   4.314  11.127 -0.4210 -0.3409  0.2735
  334TMC3    C5 5012   4.045   4.399  11.062 -0.3605  0.5152  0.5482
  334TMC3    C6 5013   4.172   4.358  11.027  0.0594  0.1350 -0.4986
  334TMC3     C 5014   3.911   4.092  11.206  0.0724  0.2452  0.2091
  334TMC3     O 5015   3.935   3.978  11.174  0.1378 -0.3742 -0.2153
  334TMC3     H 5016   4.169   4.061  11.187  0.5549 -0.9306 -1.8318
  334TMC3    H1 5017   3.857   4.336  11.148 -0.4107  1.2321 -1.3999
  334TMC3    H2 5018   4.238   4.416  10.963 -1.7152  3.0393  0.2852
  334TMC3    C7 5019   4.027   4.540  11.057  1.0596  0.1403 -0.4443
  334TMC3    C8 5020   4.355   4.197  11.079  0.2076 -0.0084  1.0096
  334TMC3    O1 5021   4.119   4.603  11.002 -0.2965 -0.3364  0.0524
  334TMC3    O2 5022   4.375   4.080  11.117 -0.2695  0.2116  0.1718
  335TMC3    C1 5023   3.607   1.358  17.377  0.4008  0.2008  0.0793
  335TMC3    C2 5024   3.580   1.278  17.268 -0.3073 -0.3239 -0.4231
  335TMC3    C3 5025   3.657   1.284  17.153 -0.1587 -0.3150 -0.0561
  335TMC3    C4 5026   3.728   1.428  17.387 -0.3474  0.0898 -0.0329
  335TMC3    C5 5027   3.804   1.434  17.274 -0.2511  0.3318 -0.4753
  335TMC3    C6 5028   3.770   1.362  17.161 -0.1735 -0.5361  0.7129
  335TMC3     C 5029   3.532   1.318  17.500  1.2087  0.1197  0.4591
  335TMC3     O 5030   3.469   1.210  17.491 -0.0436  0.0585 -0.0524
  335TMC3     H 5031   3.480   1.236  17.265 -0.4286 -0.0272 -0.5483
  335TMC3    H1 5032   3.752   1.482  17.478  1.0705 -1.1004  0.3125
  335TMC3    H2 5033   3.833   1.372  17.073  0.3830 -0.0230  1.1673
  335TMC3    C7 5034   3.942   1.491  17.270  0.1276  0.1064  0.2123
  335TMC3    C8 5035   3.617   1.209  17.037  0.5099  0.1771  0.0447
  335TMC3    O1 5036   4.005   1.474  17.167 -0.3126 -0.0764 -0.2215
  335TMC3    O2 5037   3.661   1.258  16.934  0.5829  0.4412  0.1657
  336MPD2     C 5038   3.796   3.891  16.094 -0.0352  0.3736  0.4403
  336MPD2    C1 5039   3.690   3.881  16.002 -0.1269  0.1742  0.4512
  336MPD2    C2 5040   3.685   3.768  15.928  0.1660 -0.1137 -0.1115
  336MPD2    C3 5041   3.783   3.669  15.936  0.0369 -0.2461 -0.3467
  336MPD2    C4 5042   3.889   3.678  16.032  0.5362  0.2636 -0.5843
  336MPD2    C5 5043   3.894   3.796  16.103 -0.8406 -0.8259  0.2974
  336MPD2     H 5044   3.599   3.748  15.864  1.4721  1.3819 -2.3271
  336MPD2    H1 5045   3.970   3.607  16.041 -0.0688 -0.0711  2.3397
  336MPD2    H2 5046   3.813   3.985  16.145  0.7689 -0.1609  1.1547
  336MPD2    H3 5047   3.985   3.822  16.155 -0.8594 -2.5388  1.1930
  336MPD2     N 5048   3.772   3.544  15.870  0.0977  0.5897 -0.1178
  336MPD2    H5 5049   3.680   3.516  15.838  0.2842 -0.6206  0.4344
  336MPD2    N1 5050   3.611   3.998  15.978 -0.1028 -0.4875  0.5330
  336MPD2    H7 5051   3.639   4.076  16.036  1.4747 -0.1206 -0.7248
  337TMC3    C1 5052   3.450   4.153  15.895 -0.2992 -0.5127 -0.1405
  337TMC3    C2 5053   3.332   4.176  15.822 -0.0292  0.0523  0.9517
  337TMC3    C3 5054   3.279   4.305  15.821 -0.6065 -0.0107  0.3204
  337TMC3    C4 5055   3.518   4.260  15.934  0.1791 -0.0673  0.6041
  337TMC3    C5 5056   3.474   4.389  15.921  0.6558 -0.0849 -0.3004
  337TMC3    C6 5057   3.349   4.412  15.863  0.2050 -0.3087 -0.0599
  337TMC3     C 5058   3.499   4.017  15.899 -0.4344 -0.2122 -0.2390
  337TMC3     O 5059   3.435   3.933  15.837  0.5920  0.4526 -0.0187
  337TMC3     H 5060   3.268   4.093  15.797  0.8498  0.0716 -1.3615
  337TMC3    H1 5061   3.615   4.245  15.981  0.3786 -1.7856 -0.3319
  337TMC3    H2 5062   3.307   4.512  15.856 -0.8631 -0.8016 -0.7423
  337TMC3    C7 5063   3.546   4.497  15.985 -0.3787  0.2532 -0.0696
  337TMC3    C8 5064   3.133   4.320  15.810  0.9586  0.0418  0.1320
  337TMC3    O1 5065   3.598   4.461  16.085  0.1869 -0.3830  0.2617
  337TMC3    O2 5066   3.079   4.410  15.880  0.4285  0.2691 -0.4100
  338MPD2     C 5067   4.043   3.016   0.869  0.2108  0.4707 -0.7489
  338MPD2    C1 5068   3.976   3.081   0.760  0.0169 -0.8763 -0.0076
  338MPD2    C2 5069   3.858   3.031   0.706 -0.0609  0.1417 -0.2487
  338MPD2    C3 5070   3.792   2.930   0.770  0.1902  0.3812 -0.4859
  338MPD2    C4 5071   3.851   2.869   0.875  0.0579 -0.2471  0.4459
  338MPD2    C5 5072   3.979   2.909   0.920 -0.4098  0.5430 -0.4748
  338MPD2     H 5073   3.803   3.067   0.620  0.1865 -3.4997 -1.9014
  338MPD2    H1 5074   3.786   2.806   0.935  0.7500 -0.4261  1.0033
  338MPD2    H2 5075   4.138   3.052   0.908 -0.9225  1.6233  0.8981
  338MPD2    H3 5076   4.023   2.864   1.008 -3.5592 -0.0224  0.7939
  338MPD2     N 5077   3.666   2.889   0.716 -0.3297  0.6208 -0.9702
  338MPD2    H5 5078   3.650   2.945   0.632  0.3563  0.5234 -1.1688
  338MPD2    N1 5079   4.037   3.192   0.690  0.4444  0.5195 -0.4473
  338MPD2    H7 5080   3.980   3.236   0.618  1.1330  0.5441 -0.9762
  339TMC3    C1 5081   3.460   2.789   0.675 -0.2039  0.3469 -0.0871
  339TMC3    C2 5082   3.356   2.714   0.721 -0.6080  0.1887  0.1100
  339TMC3    C3 5083   3.238   2.718   0.646 -0.0920  0.8496  0.3030
  339TMC3    C4 5084   3.468   2.851   0.554  0.8802  0.1835 -0.3412
  339TMC3    C5 5085   3.354   2.841   0.474 -0.4770 -0.6597 -0.8785
  339TMC3    C6 5086   3.239   2.769   0.519  0.0912 -0.1361  0.0713
  339TMC3     C 5087   3.574   2.797   0.763 -0.1322  0.3556 -0.1837
  339TMC3     O 5088   3.588   2.717   0.860  0.9038 -0.0832  0.4055
  339TMC3     H 5089   3.358   2.660   0.815  0.4633  2.1719  1.2236
  339TMC3    H1 5090   3.553   2.907   0.517 -0.4369  1.5057 -1.3450
  339TMC3    H2 5091   3.154   2.761   0.452 -0.0746 -1.5663  0.4454
  339TMC3    C7 5092   3.347   2.934   0.359 -0.1184  0.0932  0.5302
  339TMC3    C8 5093   3.121   2.643   0.684 -0.1593  0.1335  0.0162
  339TMC3    O1 5094   3.386   3.046   0.366 -0.8364  0.2398 -0.3195
  339TMC3    O2 5095   3.058   2.598   0.589  0.2134 -0.6789 -0.1291
  340MPD2     C 5096   3.697   0.552   9.595 -0.7272  0.0380 -0.1818
  340MPD2    C1 5097   3.678   0.450   9.685  0.0163 -0.8762 -0.0653
  340MPD2    C2 5098   3.710   0.474   9.814 -0.1354  0.7772  0.2297
  340MPD2    C3 5099   3.763   0.594   9.861 -0.0934 -0.4649 -0.2660
  340MPD2    C4 5100   3.782   0.696   9.765 -0.1524 -0.2618  0.3708
  340MPD2    C5 5101   3.745   0.677   9.637  0.0530 -0.9726  0.1050
  340MPD2     H 5102   3.705   0.387   9.878  3.2679  0.4368  0.0106
  340MPD2    H1 5103   3.824   0.791   9.796 -2.4880  0.7003  0.5640
  340MPD2    H2 5104   3.664   0.547   9.492 -1.4554 -2.1806  0.1515
  340MPD2    H3 5105   3.761   0.759   9.569 -0.4354  0.5588  1.8296
  340MPD2     N 5106   3.786   0.620  10.000 -0.7598  0.4926 -0.5492
  340MPD2    H5 5107   3.835   0.707  10.021 -0.7077  0.5273 -0.8088
  340MPD2    N1 5108   3.642   0.321   9.629  0.4958  0.0663 -0.2962
  340MPD2    H7 5109   3.616   0.306   9.532  0.4859 -0.9856 -0.1317
  341TMC3    C1 5110   3.590   0.094   9.608 -0.0433 -0.7319  0.3369
  341TMC3    C2 5111   3.546   4.702   9.666 -0.2849 -0.0125 -0.3663
  341TMC3    C3 5112   3.592   4.585   9.625 -0.1622  0.3256  0.5478
  341TMC3    C4 5113   3.682   0.091   9.505  0.3586 -1.0876  0.1780
  341TMC3    C5 5114   3.729   4.696   9.470  0.4031 -0.4857 -0.3631
  341TMC3    C6 5115   3.690   4.578   9.530  0.1519  0.8034  0.0517
  341TMC3     C 5116   3.593   0.213   9.696  0.7585 -0.7117 -0.4867
  341TMC3     O 5117   3.561   0.209   9.814  0.3067  0.5364 -0.2291
  341TMC3     H 5118   3.492   4.697   9.760 -0.5388 -1.7951 -0.6259
  341TMC3    H1 5119   3.735   0.176   9.464 -0.2687  0.0129  1.6802
  341TMC3    H2 5120   3.750   4.489   9.518 -0.5709  0.0371  2.0162
  341TMC3    C7 5121   3.847   4.698   9.376  0.2625  1.1988 -0.2655
  341TMC3    C8 5122   3.594   4.473   9.722 -0.0057 -0.1009  0.2255
  341TMC3    O1 5123   3.904   0.079   9.357 -0.2951 -0.2005 -0.1612
  341TMC3    O2 5124   3.579   4.358   9.678 -0.5187  1.0540 -0.3764
  342MPD2     C 5125   2.069   4.070   0.051  0.4059  0.7932 -0.7633
  342MPD2    C1 5126   2.114   4.111  17.618 -0.1479 -0.4283 -0.2322
  342MPD2    C2 5127   2.097   4.243  17.586 -0.0130 -0.1511  0.1947
  342MPD2    C3 5128   2.042   4.335  17.672  0.4559  0.5351  0.2514
  342MPD2    C4 5129   1.992   4.293   0.098  0.2997  0.6896 -0.0868
  342MPD2    C5 5130   2.006   4.159   0.129  0.1759 -0.4565  0.1754
  342MPD2     H 5131   2.144   4.281  17.496  1.7799 -1.8174  0.4311
  342MPD2    H1 5132   1.941   4.369   0.157 -0.2840  1.4031 -1.4913
  342MPD2    H2 5133   2.062   3.964   0.076  1.4725  0.6006 -1.2913
  342MPD2    H3 5134   1.974   4.133   0.230  2.6522  0.8456  1.2951
  342MPD2     N 5135   2.022   4.469  17.642 -0.2388 -0.3764 -0.1103
  342MPD2    H5 5136   1.985   4.525   0.024  0.6502 -1.0537  0.8264
  342MPD2    N1 5137   2.169   4.017  17.530  0.3441 -0.3064 -0.1247
  342MPD2    H7 5138   2.218   4.055  17.450 -0.6380  1.6695  0.2098
  343TMC3    C1 5139   2.229   3.792  17.431  0.6264 -0.2819 -0.0350
  343TMC3    C2 5140   2.315   3.837  17.338  0.1970 -0.0873  0.0780
  343TMC3    C3 5141   2.333   3.755  17.234 -0.5145  0.4239  0.1474
  343TMC3    C4 5142   2.176   3.663  17.429 -0.9433  0.1622 -0.1110
  343TMC3    C5 5143   2.201   3.583  17.320  0.6185 -0.5203 -0.1327
  343TMC3    C6 5144   2.281   3.628  17.220  0.3847 -0.3164  0.4610
  343TMC3     C 5145   2.168   3.873  17.538  0.2365  0.7133 -0.6341
  343TMC3     O 5146   2.121   3.811  17.631  0.5395  0.1511  0.0870
  343TMC3     H 5147   2.366   3.931  17.356  0.8128 -0.3467 -0.3452
  343TMC3    H1 5148   2.113   3.639  17.514  2.5442 -0.2598  2.3556
  343TMC3    H2 5149   2.310   3.560  17.141 -0.4481 -1.5111  1.1878
  343TMC3    C7 5150   2.130   3.456  17.306 -0.6483 -0.0503  0.0970
  343TMC3    C8 5151   2.449   3.797  17.146  0.0050 -0.0586 -0.1890
  343TMC3    O1 5152   2.165   3.384  17.213  0.2691 -0.0337  0.1606
  343TMC3    O2 5153   2.482   3.913  17.154 -0.5217 -0.1263  0.0589
  344MPD2     C 5154   3.230   3.348  10.599 -0.1915  0.1918  0.6529
  344MPD2    C1 5155   3.105   3.390  10.560  0.3027 -0.1060  0.0054
  344MPD2    C2 5156   3.093   3.508  10.487 -0.9203 -0.0885 -0.0550
  344MPD2    C3 5157   3.209   3.575  10.440 -0.3048 -0.0700  0.3551
  344MPD2    C4 5158   3.325   3.536  10.496  0.2250 -0.6572  0.4250
  344MPD2    C5 5159   3.331   3.424  10.567 -0.7072 -0.2141 -0.1392
  344MPD2     H 5160   2.994   3.539  10.457 -1.5752 -1.0368  1.1249
  344MPD2    H1 5161   3.413   3.600  10.493  2.2079 -3.3750 -0.4844
  344MPD2    H2 5162   3.251   3.264  10.665  2.0959 -2.0154 -2.8843
  344MPD2    H3 5163   3.428   3.396  10.607 -0.5895  3.8046  2.2904
  344MPD2     N 5164   3.210   3.689  10.355  0.2260  0.8996 -0.2129
  344MPD2    H5 5165   3.296   3.738  10.333  1.3687 -0.8156  0.4455
  344MPD2    N1 5166   2.986   3.326  10.604  1.0160  0.0923 -0.8007
  344MPD2    H7 5167   2.905   3.382  10.578  2.4636  2.0363 -1.1375
  345TMC3    C1 5168   3.128   3.849  10.194 -0.1278  0.0171  0.0933
  345TMC3    C2 5169   3.238   3.926  10.209  0.3500 -0.2829 -0.3644
  345TMC3    C3 5170   3.263   4.025  10.115  0.1466  0.3589  0.0679
  345TMC3    C4 5171   3.055   3.857  10.080  0.1677  0.6171  0.1267
  345TMC3    C5 5172   3.089   3.954   9.983 -0.4135 -0.9580  0.4289
  345TMC3    C6 5173   3.196   4.041   9.999 -0.2166  0.3232  0.5092
  345TMC3     C 5174   3.097   3.740  10.286  0.5275 -0.1256 -0.9556
  345TMC3     O 5175   2.985   3.686  10.285 -0.1469  0.1914  0.0513
  345TMC3     H 5176   3.290   3.919  10.304  1.5351  3.0949 -0.7657
  345TMC3    H1 5177   2.969   3.792  10.066  1.0391 -0.5166  0.0275
  345TMC3    H2 5178   3.230   4.115   9.927 -0.8725 -1.7316 -1.9084
  345TMC3    C7 5179   2.995   3.980   9.882  0.1457 -0.5130 -0.2312
  345TMC3    C8 5180   3.350   4.132  10.148  0.6793  0.1649 -0.1667
  345TMC3    O1 5181   2.956   3.888   9.814 -0.0684  0.0536  0.4684
  345TMC3    O2 5182   3.361   4.216  10.062 -0.2732 -0.0257  0.2920
  346MPD2     C 5183   3.426   0.116  14.147  0.2574  0.0353 -0.5587
  346MPD2    C1 5184   3.398   0.243  14.099 -0.3973 -0.9172  0.1047
  346MPD2    C2 5185   3.388   0.351  14.185  0.4996 -0.0711  0.4549
  346MPD2    C3 5186   3.414   0.336  14.316 -0.3584  0.0032  0.0105
  346MPD2    C4 5187   3.430   0.210  14.371  0.6797  0.6162  0.4389
  346MPD2    C5 5188   3.439   0.101  14.283 -0.1412  0.2088 -0.6235
  346MPD2     H 5189   3.383   0.450  14.141 -1.5355  0.0340  0.9387
  346MPD2    H1 5190   3.433   0.194  14.478 -0.9732 -2.5166  0.0238
  346MPD2    H2 5191   3.431   0.026  14.086  1.4577  0.6315 -1.3387
  346MPD2    H3 5192   3.447   4.721  14.318 -2.5930  0.1002 -0.4066
  346MPD2     N 5193   3.437   0.452  14.395 -0.0190 -0.3609  0.6624
  346MPD2    H5 5194   3.442   0.540  14.346 -1.5733  0.1976  1.4885
  346MPD2    N1 5195   3.395   0.274  13.960  0.5836 -0.4517 -0.0586
  346MPD2    H7 5196   3.364   0.368  13.938  0.1218 -0.9699 -1.5934
  347TMC3    C1 5197   3.476   0.599  14.575  0.8233 -0.1939  0.3791
  347TMC3    C2 5198   3.540   0.677  14.483  0.7016  0.1652 -0.1301
  347TMC3    C3 5199   3.570   0.803  14.535 -0.9055 -0.0479 -0.2620
  347TMC3    C4 5200   3.477   0.624  14.710  0.2292 -0.0144  0.0271
  347TMC3    C5 5201   3.518   0.746  14.759 -0.2984 -0.2543  0.1759
  347TMC3    C6 5202   3.570   0.835  14.668  0.0862 -0.0805  0.6243
  347TMC3     C 5203   3.439   0.464  14.533 -0.5844 -0.5741 -0.0841
  347TMC3     O 5204   3.429   0.377  14.617  0.1712  0.2706  0.0584
  347TMC3     H 5205   3.550   0.663  14.376 -0.2741  0.2707 -0.2382
  347TMC3    H1 5206   3.412   0.562  14.772  1.3565 -0.4530  0.7650
  347TMC3    H2 5207   3.596   0.932  14.709 -3.2835  1.2842 -0.4430
  347TMC3    C7 5208   3.513   0.768  14.898 -0.4137  0.3012 -0.1599
  347TMC3    C8 5209   3.656   0.873  14.451  0.4144  0.1135 -0.0319
  347TMC3    O1 5210   3.495   0.670  14.972 -0.1506 -0.2341 -0.1734
  347TMC3    O2 5211   3.637   0.860  14.328  0.6852  0.5939  0.9205
  348MPD2     C 5212   1.441   0.129  12.208 -0.2829 -0.2330 -0.4903
  348MPD2    C1 5213   1.557   0.149  12.138 -0.3098 -0.0570  0.1013
  348MPD2    C2 5214   1.556   0.228  12.025  0.7149 -0.1164 -0.5658
  348MPD2    C3 5215   1.440   0.281  11.967  1.1290  0.1494  1.0687
  348MPD2    C4 5216   1.325   0.267  12.042  0.5679 -0.3203  0.0469
  348MPD2    C5 5217   1.327   0.196  12.157 -0.2586 -0.4060  0.0349
  348MPD2     H 5218   1.650   0.229  11.970  1.4724 -1.5677  0.6668
  348MPD2    H1 5219   1.231   0.314  12.014 -0.7136 -0.4619  4.0817
  348MPD2    H2 5220   1.439   0.081  12.305  1.1032  0.2544 -0.2160
  348MPD2    H3 5221   1.241   0.203  12.223  0.6648  0.9055  1.1036
  348MPD2     N 5222   1.453   0.362  11.851 -0.0676 -0.0511 -1.0426
  348MPD2    H5 5223   1.546   0.371  11.813  0.8857 -0.2525  1.2391
  348MPD2    N1 5224   1.677   0.088  12.172 -0.1650 -0.2173 -0.2071
  348MPD2    H7 5225   1.757   0.114  12.116  0.0757 -0.0382  0.2282
  349TMC3    C1 5226   1.825   4.657  12.259  0.3762 -0.3053  0.2145
  349TMC3    C2 5227   1.830   4.530  12.308  0.7425 -0.3072 -0.0363
  349TMC3    C3 5228   1.907   4.446  12.236  0.0888  0.1822 -0.6141
  349TMC3    C4 5229   1.905   4.707  12.162 -0.2334 -0.0953  0.1321
  349TMC3    C5 5230   1.971   4.618  12.083 -0.8199 -0.7328 -0.2133
  349TMC3    C6 5231   1.983   4.485  12.126 -0.2440 -0.0502  0.0011
  349TMC3     C 5232   1.697   0.003  12.273 -0.8426 -0.0807 -0.4046
  349TMC3     O 5233   1.619   4.670  12.351 -0.0822  0.0679 -0.0815
  349TMC3     H 5234   1.784   4.502  12.402 -0.1540 -0.8352 -0.6318
  349TMC3    H1 5235   1.909   0.090  12.140  2.4730 -0.5596 -1.5130
  349TMC3    H2 5236   2.032   4.413  12.063  0.3930  1.7578 -1.5624
  349TMC3    C7 5237   1.922   4.618  11.944  0.1874  0.3876 -0.0895
  349TMC3    C8 5238   1.940   4.316  12.290 -0.4555 -0.2094  0.2292
  349TMC3    O1 5239   1.883   4.514  11.892 -0.0028 -0.0308  0.0651
  349TMC3    O2 5240   1.874   4.289  12.387 -0.2708  0.0712 -0.0664
  350MPD2     C 5241   0.192   1.968  10.104  0.0316 -0.9631 -0.9636
  350MPD2    C1 5242   0.312   2.005  10.049  0.4759 -0.2557 -0.9664
  350MPD2    C2 5243   0.365   2.124  10.102 -0.4319 -0.2976 -0.2248
  350MPD2    C3 5244   0.300   2.203  10.199  0.2757  0.6118 -0.2861
  350MPD2    C4 5245   0.192   2.150  10.258 -0.3039  0.1392  0.7724
  350MPD2    C5 5246   0.135   2.038  10.205 -0.6135  0.6525  0.4704
  350MPD2     H 5247   0.456   2.171  10.067 -0.1794 -0.9484 -0.4420
  350MPD2    H1 5248   0.147   2.198  10.344  2.5918  0.8744  1.8546
  350MPD2    H2 5249   0.142   1.877  10.074  1.9124 -2.2423 -0.2353
  350MPD2    H3 5250   0.055   1.985  10.255 -1.6315  0.4958 -1.3429
  350MPD2     N 5251   0.352   2.326  10.247 -0.1986  0.3145 -0.2815
  350MPD2    H5 5252   0.453   2.330  10.240 -0.3860  3.1362 -1.0945
  350MPD2    N1 5253   0.376   1.942   9.939  0.2097 -0.3081 -0.0407
  350MPD2    H7 5254   0.471   1.972   9.922  0.1215 -1.4822 -2.6199
  351TMC3    C1 5255   0.381   1.805   9.740 -0.3903  0.0435 -0.2599
  351TMC3    C2 5256   0.520   1.804   9.748  0.0219 -0.0552  0.3545
  351TMC3    C3 5257   0.584   1.762   9.640 -0.2658 -0.6701 -0.0132
  351TMC3    C4 5258   0.307   1.755   9.637 -0.3400  0.7483 -0.1482
  351TMC3    C5 5259   0.379   1.697   9.541 -0.3780  0.2928  0.8399
  351TMC3    C6 5260   0.520   1.693   9.545 -0.2664 -0.1423 -0.3050
  351TMC3     C 5261   0.311   1.845   9.857  0.3285  0.1528  0.3063
  351TMC3     O 5262   0.200   1.802   9.854  0.2684 -0.0082 -0.1155
  351TMC3     H 5263   0.568   1.833   9.841 -0.6609  1.9609  0.0778
  351TMC3    H1 5264   0.198   1.751   9.635 -0.3059 -0.8545  1.5617
  351TMC3    H2 5265   0.578   1.655   9.461  0.7789 -3.6107  2.0163
  351TMC3    C7 5266   0.324   1.616   9.435  0.2550  1.1989 -0.5407
  351TMC3    C8 5267   0.730   1.741   9.652  0.0396  0.2688 -0.0153
  351TMC3    O1 5268   0.403   1.556   9.357 -0.2943 -0.0079  0.3330
  351TMC3    O2 5269   0.775   1.660   9.582 -0.0750  0.1669 -0.1958
  352MPD2     C 5270   3.841   0.776   1.098 -0.2677 -0.0402  0.0140
  352MPD2    C1 5271   3.713   0.816   1.127  0.3921 -0.8098 -0.5155
  352MPD2    C2 5272   3.639   0.744   1.219 -0.2320  0.5898  0.0052
  352MPD2    C3 5273   3.692   0.645   1.292  0.9983 -0.4839  0.1009
  352MPD2    C4 5274   3.830   0.612   1.273 -0.1099  0.2755 -1.0003
  352MPD2    C5 5275   3.899   0.683   1.174  0.4303  0.5821 -0.1849
  352MPD2     H 5276   3.533   0.768   1.230 -0.2225  1.4315 -1.7413
  352MPD2    H1 5277   3.888   0.548   1.338  1.2793  2.0492 -0.4620
  352MPD2    H2 5278   3.902   0.840   1.035  1.5627 -1.7609  0.0374
  352MPD2    H3 5279   4.004   0.657   1.161 -0.1097 -1.0029 -1.3402
  352MPD2     N 5280   3.618   0.576   1.393  0.5298  0.3735 -0.0818
  352MPD2    H5 5281   3.666   0.494   1.428  1.2361  0.1831 -1.4699
  352MPD2    N1 5282   3.646   0.903   1.040 -0.2417 -0.1125  0.5284
  352MPD2    H7 5283   3.699   0.933   0.959  0.3682 -0.7383  0.6918
  353TMC3    C1 5284   3.446   0.501   1.530  0.9296 -0.1355 -0.2029
  353TMC3    C2 5285   3.528   0.479   1.634  0.0448  0.6254  0.6121
  353TMC3    C3 5286   3.491   0.375   1.720 -0.5873  0.6327  0.1998
  353TMC3    C4 5287   3.317   0.460   1.526 -0.6884 -0.0724 -0.1110
  353TMC3    C5 5288   3.283   0.364   1.619  0.8012 -0.5904  0.4829
  353TMC3    C6 5289   3.362   0.317   1.713  0.3208 -0.5319 -0.2217
  353TMC3     C 5290   3.493   0.598   1.439 -0.8014  0.0306  0.4887
  353TMC3     O 5291   3.415   0.684   1.402  0.1463 -0.1792  0.0427
  353TMC3     H 5292   3.630   0.514   1.633  0.1139  0.4525  1.2069
  353TMC3    H1 5293   3.252   0.491   1.445 -0.0334  2.2242  0.2541
  353TMC3    H2 5294   3.336   0.240   1.784 -0.5920 -0.5365 -0.5630
  353TMC3    C7 5295   3.146   0.308   1.617  0.1603 -0.0466  0.3013
  353TMC3    C8 5296   3.588   0.321   1.817  0.1482 -0.3299  0.0609
  353TMC3    O1 5297   3.122   0.205   1.680 -0.2244  0.3266  0.0390
  353TMC3    O2 5298   3.691   0.378   1.830  0.6562 -0.1002 -0.4495
  354TMC3    C1 5299   1.781   1.792  13.551  1.2280 -0.6304  0.1554
  354TMC3    C2 5300   1.730   1.868  13.450 -0.2555 -0.9699 -0.3932
  354TMC3    C3 5301   1.805   1.885  13.338 -0.2069 -0.3957  0.0887
  354TMC3    C4 5302   1.900   1.725  13.541 -0.0048 -0.4271  0.4760
  354TMC3    C5 5303   1.972   1.749  13.426  0.1206  0.2267 -0.2541
  354TMC3    C6 5304   1.924   1.829  13.323 -0.5252  0.3295 -0.6712
  354TMC3     C 5305   1.696   1.770  13.669 -0.0566 -0.6148 -0.1204
  354TMC3     O 5306   1.585   1.820  13.669  0.2102 -0.2028 -0.4245
  354TMC3     H 5307   1.627   1.900  13.460 -0.2482 -0.9066 -0.5133
  354TMC3    H1 5308   1.936   1.656  13.616  0.0121  1.0790  1.8603
  354TMC3    H2 5309   1.978   1.834  13.230 -1.3513  0.2049 -1.1541
  354TMC3    C7 5310   2.113   1.720  13.423  0.2193  0.5752  0.0483
  354TMC3    C8 5311   1.736   1.953  13.230  0.1048  0.3636 -0.3060
  354TMC3    O1 5312   2.149   1.630  13.500 -0.4257 -0.0129  0.6047
  354TMC3    O2 5313   1.743   1.901  13.124  0.1867  0.3479  0.4299
  355MPD2     C 5314   0.753   2.227  11.754  0.3694  0.2161  0.0614
  355MPD2    C1 5315   0.809   2.268  11.633  0.3686  0.6655 -0.4296
  355MPD2    C2 5316   0.948   2.282  11.625 -0.2377 -0.2998 -0.2956
  355MPD2    C3 5317   1.028   2.270  11.739 -0.7211 -1.2734 -0.2729
  355MPD2    C4 5318   0.969   2.224  11.857 -0.2116  0.2026  0.2744
  355MPD2    C5 5319   0.837   2.200  11.859  0.4426 -0.0337 -0.0910
  355MPD2     H 5320   0.998   2.299  11.531  0.7879 -1.9472 -0.0608
  355MPD2    H1 5321   1.037   2.199  11.937 -1.3140 -2.1534  0.4757
  355MPD2    H2 5322   0.645   2.225  11.766  0.3980 -1.3597 -0.0325
  355MPD2    H3 5323   0.800   2.151  11.948 -1.5753  2.4779  0.4716
  355MPD2     N 5324   1.161   2.302  11.739 -0.3360  0.0266 -0.0324
  355MPD2    H5 5325   1.206   2.310  11.830 -0.2404  3.2728 -0.3834
  355MPD2    N1 5326   0.717   2.298  11.526 -0.5891 -0.0442 -0.4201
  355MPD2    H7 5327   0.619   2.277  11.539 -1.1347  1.6848 -1.6689
  356TMC3    C1 5328   1.361   2.397  11.653 -0.0686 -0.2055  0.6167
  356TMC3    C2 5329   1.430   2.445  11.546 -0.0367 -0.0808 -0.8366
  356TMC3    C3 5330   1.517   2.548  11.554 -0.3385 -0.2857  0.6807
  356TMC3    C4 5331   1.362   2.465  11.773  0.6612  0.3642 -0.0329
  356TMC3    C5 5332   1.453   2.577  11.782  0.7185 -0.2265  0.0322
  356TMC3    C6 5333   1.527   2.618  11.671 -0.1679 -0.5412 -0.2839
  356TMC3     C 5334   1.240   2.319  11.630  0.6602 -0.2681  0.2739
  356TMC3     O 5335   1.218   2.282  11.518  0.5385 -0.5740  0.1458
  356TMC3     H 5336   1.410   2.395  11.452 -0.2067 -1.1773 -0.2155
  356TMC3    H1 5337   1.298   2.441  11.857  0.4446 -0.6641 -0.4989
  356TMC3    H2 5338   1.572   2.716  11.676 -1.3482  0.1030 -2.3292
  356TMC3    C7 5339   1.461   2.628  11.917 -0.1883 -0.3199  0.4049
  356TMC3    C8 5340   1.589   2.582  11.433  0.3755 -0.5459 -0.6278
  356TMC3    O1 5341   1.391   2.578  12.003  0.1037 -0.0724 -0.4146
  356TMC3    O2 5342   1.558   2.523  11.329 -0.3902 -0.0814  0.3606
  357MPD2     C 5343   0.789   2.173   0.754 -0.3422  0.0674 -0.0456
  357MPD2    C1 5344   0.771   2.147   0.893  0.1601  0.6714 -0.2029
  357MPD2    C2 5345   0.774   2.260   0.976 -0.1568  0.1890 -0.0399
  357MPD2    C3 5346   0.787   2.386   0.921  0.2479 -0.1848 -0.6768
  357MPD2    C4 5347   0.813   2.400   0.787 -1.0299  0.7712  0.0653
  357MPD2    C5 5348   0.816   2.296   0.703  1.1878  0.2913  0.1862
  357MPD2     H 5349   0.781   2.250   1.084 -0.0679  1.0666  0.0314
  357MPD2    H1 5350   0.835   2.492   0.733  0.0210  0.2664 -0.3631
  357MPD2    H2 5351   0.788   2.087   0.689  0.9146  0.7804 -1.0168
  357MPD2    H3 5352   0.828   2.311   0.597 -1.5850  0.7958 -0.0508
  357MPD2     N 5353   0.781   2.506   0.995  0.8278  0.3474  0.3880
  357MPD2    H5 5354   0.821   2.581   0.939  1.4666 -0.2244  0.0954
  357MPD2    N1 5355   0.746   2.015   0.922 -0.2061  0.4610 -0.4121
  357MPD2    H7 5356   0.747   1.953   0.842 -1.1248 -0.3696  0.2160
  358TMC3    C1 5357   0.696   1.832   1.055 -0.7145  0.5567  0.2553
  358TMC3    C2 5358   0.636   1.771   0.947 -0.2890  0.2647 -0.4952
  358TMC3    C3 5359   0.634   1.635   0.949 -0.2714 -0.3827 -0.6496
  358TMC3    C4 5360   0.761   1.761   1.153 -0.6905  0.6200 -0.2708
  358TMC3    C5 5361   0.768   1.623   1.141  0.0276  0.5112 -0.6789
  358TMC3    C6 5362   0.685   1.554   1.048  0.3334 -0.5774  0.7678
  358TMC3     C 5363   0.719   1.970   1.051 -0.3541  0.7640 -0.0030
  358TMC3     O 5364   0.721   2.017   1.162 -0.3473  0.4792  0.3204
  358TMC3     H 5365   0.574   1.828   0.878 -1.0334 -1.1513 -0.9778
  358TMC3    H1 5366   0.834   1.823   1.203 -0.7780 -0.8054  1.6361
  358TMC3    H2 5367   0.705   1.450   1.025 -2.7527 -1.2828  1.3476
  358TMC3    C7 5368   0.836   1.545   1.245 -1.1039  0.4697 -0.7284
  358TMC3    C8 5369   0.537   1.573   0.861  0.0459  0.4315 -0.2930
  358TMC3    O1 5370   0.844   1.423   1.226  0.2783  0.3553 -0.1522
  358TMC3    O2 5371   0.501   1.638   0.763 -0.1256 -0.0356  0.7470
  359MPD2     C 5372   1.304   1.520  11.999  0.0559 -0.2597 -0.6855
  359MPD2    C1 5373   1.309   1.382  12.000 -0.3350  0.0801 -0.3916
  359MPD2    C2 5374   1.197   1.316  12.057  0.5327 -0.2428  0.3557
  359MPD2    C3 5375   1.091   1.378  12.109  0.1944  1.0462 -0.4329
  359MPD2    C4 5376   1.085   1.515  12.108  0.4307 -0.0717  0.0386
  359MPD2    C5 5377   1.193   1.582  12.054 -0.2668 -0.2176  0.0952
  359MPD2     H 5378   1.193   1.208  12.049 -2.4446 -0.0148 -0.9995
  359MPD2    H1 5379   1.005   1.582  12.137 -1.5697 -1.6238 -1.9138
  359MPD2    H2 5380   1.377   1.591  11.964  1.4929 -0.7247  1.3903
  359MPD2    H3 5381   1.196   1.691  12.052  1.1681 -0.2483  0.5005
  359MPD2     N 5382   0.973   1.316  12.162 -0.2502  0.3213  0.3447
  359MPD2    H5 5383   0.914   1.376  12.218 -0.3810 -1.7482  2.4595
  359MPD2    N1 5384   1.404   1.308  11.926 -0.5558 -0.4187  0.0094
  359MPD2    H7 5385   1.395   1.207  11.930 -1.5984 -0.3419 -0.4766
  360TMC3    C1 5386   1.610   1.254  11.826 -0.1023  0.2590 -0.1596
  360TMC3    C2 5387   1.742   1.287  11.790  0.7397  0.8984  0.2691
  360TMC3    C3 5388   1.818   1.180  11.743 -0.0963 -0.4560 -0.5573
  360TMC3    C4 5389   1.551   1.137  11.790 -0.3119 -0.0352  0.2647
  360TMC3    C5 5390   1.629   1.037  11.739 -0.4085 -0.4902 -0.5278
  360TMC3    C6 5391   1.762   1.058  11.712  0.3687 -0.7705  0.8582
  360TMC3     C 5392   1.522   1.358  11.872 -0.4186 -0.4601 -0.5508
  360TMC3     O 5393   1.549   1.477  11.847 -0.2758  0.3574  0.2610
  360TMC3     H 5394   1.779   1.379  11.833  1.3904 -0.2175  2.0831
  360TMC3    H1 5395   1.443   1.126  11.797 -0.1173 -1.5468  0.9479
  360TMC3    H2 5396   1.820   0.975  11.674 -1.2197 -1.6478  0.3558
  360TMC3    C7 5397   1.569   0.955  11.640 -0.5781 -0.1126 -0.4607
  360TMC3    C8 5398   1.957   1.211  11.700  0.1427 -0.2025  0.2969
  360TMC3    O1 5399   1.639   0.924  11.541 -0.3113 -0.2667 -0.1942
  360TMC3    O2 5400   1.989   1.327  11.671 -0.2441  0.5937  0.3157
  361MPD2     C 5401   3.235   0.211  16.594  0.1858 -0.3815  0.3021
  361MPD2    C1 5402   3.154   0.190  16.701  0.6288  0.2208 -0.6561
  361MPD2    C2 5403   3.200   0.101  16.790 -0.7351  0.2262  0.1673
  361MPD2    C3 5404   3.318   0.024  16.778  0.2910 -0.3140  0.1889
  361MPD2    C4 5405   3.394   0.043  16.667  0.6279 -0.3939  0.0782
  361MPD2    C5 5406   3.352   0.138  16.583  0.5136 -0.0853  0.1535
  361MPD2     H 5407   3.141   0.075  16.877 -2.6157 -1.2478 -1.5256
  361MPD2    H1 5408   3.490   4.714  16.663  2.0868  2.5334 -2.1435
  361MPD2    H2 5409   3.201   0.282  16.519  1.2537  0.7667  0.8935
  361MPD2    H3 5410   3.423   0.150  16.503  2.1495 -2.7244  1.2243
  361MPD2     N 5411   3.352   4.643  16.863  0.3584 -0.1750  0.5185
  361MPD2    H5 5412   3.421   4.577  16.829  0.8700  0.8725 -0.5069
  361MPD2    N1 5413   3.038   0.259  16.716 -0.0110  1.0592 -0.0477
  361MPD2    H7 5414   3.005   0.314  16.638 -1.4918  0.3040  0.0392
  362TMC3    C1 5415   2.817   0.288  16.805  0.2799 -0.5473  0.3533
  362TMC3    C2 5416   2.726   0.212  16.874 -0.2524 -0.0596 -0.3796
  362TMC3    C3 5417   2.597   0.236  16.851  0.2848 -0.0903 -0.1977
  362TMC3    C4 5418   2.783   0.367  16.704 -0.9923  0.3200  0.8999
  362TMC3    C5 5419   2.647   0.378  16.677 -0.1544 -0.6701  0.2947
  362TMC3    C6 5420   2.548   0.326  16.757 -0.9417  0.4909  0.2345
  362TMC3     C 5421   2.959   0.257  16.829 -0.3330 -0.4191  0.8670
  362TMC3     O 5422   2.974   0.205  16.938 -0.0777  0.6065  0.2717
  362TMC3     H 5423   2.750   0.145  16.956 -1.5832 -1.6136 -1.2567
  362TMC3    H1 5424   2.855   0.428  16.650 -0.4738 -1.4012 -0.3229
  362TMC3    H2 5425   2.444   0.335  16.729 -0.3524  0.3910 -1.9932
  362TMC3    C7 5426   2.605   0.465  16.570 -0.0656  0.1226  0.7275
  362TMC3    C8 5427   2.500   0.173  16.935  0.3393 -0.4556 -0.1252
  362TMC3    O1 5428   2.677   0.567  16.556  0.1147  0.5270  0.2298
  362TMC3    O2 5429   2.516   0.055  16.964 -0.2412  0.0097  0.1736
  363TMC3    C1 5430   1.854   1.986   9.941  0.2946 -0.6299 -0.1448
  363TMC3    C2 5431   1.783   1.869   9.925 -0.5698 -0.0564  0.0483
  363TMC3    C3 5432   1.647   1.891   9.913  0.2055  1.0749 -0.2157
  363TMC3    C4 5433   1.800   2.114   9.942 -0.0939 -0.0671 -0.1416
  363TMC3    C5 5434   1.661   2.118   9.934 -0.3824  0.2150  0.6271
  363TMC3    C6 5435   1.585   2.010   9.926 -0.0525 -0.8707  0.9795
  363TMC3     C 5436   1.996   1.964   9.976 -0.2420  0.6441  0.6542
  363TMC3     O 5437   2.015   1.867  10.051  0.6761  0.1714 -0.4790
  363TMC3     H 5438   1.825   1.770   9.943 -0.9922 -0.5252 -1.5923
  363TMC3    H1 5439   1.862   2.201   9.963  2.3048 -1.7676 -0.1426
  363TMC3    H2 5440   1.478   2.025   9.915  0.0552 -1.1122 -0.4141
  363TMC3    C7 5441   1.604   2.254   9.938  0.6136  0.3864 -0.2400
  363TMC3    C8 5442   1.552   1.773   9.908  0.4338 -0.4763 -0.1679
  363TMC3    O1 5443   1.483   2.263   9.950 -0.2021 -0.5983 -0.0136
  363TMC3    O2 5444   1.432   1.800   9.889 -0.1857 -0.1226  0.4641
  364MPD2     C 5445   4.614   1.694  10.915  1.0440 -0.0298 -0.7742
  364MPD2    C1 5446   4.704   1.660  10.817 -0.2730 -0.2493 -0.0253
  364MPD2    C2 5447   0.022   1.532  10.809 -0.0055  0.0632 -0.4605
  364MPD2    C3 5448   4.698   1.436  10.895  0.3750  0.2711  0.2829
  364MPD2    C4 5449   4.605   1.466  10.995  0.5667 -0.1564  0.0674
  364MPD2    C5 5450   4.563   1.597  11.000 -0.0973 -0.0279  0.7478
  364MPD2     H 5451   0.094   1.496  10.736 -0.7170  0.2533 -1.2634
  364MPD2    H1 5452   4.571   1.394  11.068  0.4804 -0.6847 -0.4991
  364MPD2    H2 5453   4.594   1.798  10.934  1.6635 -0.0466 -0.0045
  364MPD2    H3 5454   4.497   1.632  11.079 -0.6217  0.9091 -0.1007
  364MPD2     N 5455   0.028   1.307  10.873 -0.0179  0.3879 -0.5015
  364MPD2    H5 5456   0.102   1.291  10.805 -1.1377  1.0205 -1.8943
  364MPD2    N1 5457   0.029   1.768  10.742 -0.3606 -0.1711  0.3534
  364MPD2    H7 5458   0.021   1.858  10.787  0.9402  0.5271 -0.8326
  365TMC3    C1 5459   0.173   1.868  10.581 -0.9881  0.6542 -1.0957
  365TMC3    C2 5460   0.277   1.846  10.496 -0.0169 -0.3585 -0.5467
  365TMC3    C3 5461   0.360   1.945  10.458  0.2265 -0.0811 -0.0784
  365TMC3    C4 5462   0.157   1.997  10.635 -0.1159  0.1375 -1.1154
  365TMC3    C5 5463   0.255   2.083  10.604 -1.1607 -0.0348  0.0933
  365TMC3    C6 5464   0.363   2.067  10.520  0.4961 -0.2721  0.9529
  365TMC3     C 5465   0.090   1.755  10.621 -0.3779 -0.4200  0.1039
  365TMC3     O 5466   0.077   1.660  10.545 -0.9681  0.0057 -0.7061
  365TMC3     H 5467   0.284   1.745  10.456 -2.4177 -0.6408 -0.2965
  365TMC3    H1 5468   0.068   2.027  10.688  0.3203  0.6091 -0.6572
  365TMC3    H2 5469   0.428   2.145  10.482 -0.6385 -0.4001 -1.2698
  365TMC3    C7 5470   0.233   2.223  10.641  0.2731 -0.2558 -0.0016
  365TMC3    C8 5471   0.448   1.924  10.346 -0.1545  0.1917  0.1495
  365TMC3    O1 5472   0.303   2.311  10.590 -0.1982  0.0660  0.0757
  365TMC3    O2 5473   0.534   2.009  10.339  0.0605  0.4064 -0.6328
  366MPD2     C 5474   3.403   2.726  15.507 -0.0798  0.3901 -0.1062
  366MPD2    C1 5475   3.366   2.797  15.400 -0.4390  0.5072  0.6317
  366MPD2    C2 5476   3.382   2.741  15.278 -0.1483 -0.3527  0.5071
  366MPD2    C3 5477   3.440   2.620  15.255  0.0441  0.1533  0.9004
  366MPD2    C4 5478   3.480   2.548  15.370  0.0046  0.1665  0.4340
  366MPD2    C5 5479   3.447   2.594  15.488 -0.4778  0.0926 -0.4231
  366MPD2     H 5480   3.357   2.803  15.192  3.7055  0.1101 -0.2949
  366MPD2    H1 5481   3.525   2.451  15.361 -2.2304 -0.9849  1.4343
  366MPD2    H2 5482   3.392   2.761  15.609 -3.3287 -0.3804 -0.2140
  366MPD2    H3 5483   3.477   2.542  15.578  1.3610  0.5956 -0.7600
  366MPD2     N 5484   3.463   2.591  15.122 -0.1324 -0.0942 -0.0634
  366MPD2    H5 5485   3.435   2.660  15.053  0.6596 -0.0566 -0.3470
  366MPD2    N1 5486   3.329   2.938  15.414 -0.1235  0.0881  0.0718
  366MPD2    H7 5487   3.296   2.983  15.330 -0.7081  0.6444  0.5943
  367TMC3    C1 5488   3.331   3.158  15.493  0.3298 -0.9375 -0.2334
  367TMC3    C2 5489   3.433   3.244  15.527 -0.1586 -0.1915 -0.1969
  367TMC3    C3 5490   3.437   3.369  15.469  0.8021  0.2693 -0.1088
  367TMC3    C4 5491   3.236   3.197  15.407  0.3429  0.5499 -0.4322
  367TMC3    C5 5492   3.243   3.321  15.345 -0.2579 -0.1732  0.0320
  367TMC3    C6 5493   3.345   3.406  15.374 -0.3431  0.4838  0.7385
  367TMC3     C 5494   3.350   3.018  15.527 -0.4613 -1.1073 -0.5016
  367TMC3     O 5495   3.432   2.995  15.614 -0.0727  0.7579 -0.1036
  367TMC3     H 5496   3.510   3.205  15.592  1.3036  2.8288 -0.1376
  367TMC3    H1 5497   3.169   3.129  15.356  0.8066 -0.1133 -0.1500
  367TMC3    H2 5498   3.349   3.504  15.329 -0.6705  0.7472  1.2961
  367TMC3    C7 5499   3.130   3.371  15.267 -0.1600 -0.3628  0.7585
  367TMC3    C8 5500   3.532   3.465  15.527 -0.6132 -0.7777  0.2572
  367TMC3    O1 5501   3.130   3.490  15.248  0.4565 -0.4419  0.1896
  367TMC3    O2 5502   3.610   3.418  15.609 -0.5673  0.2195 -0.0853
  368MPD2     C 5503   0.278   0.113  13.403 -0.6762  0.1140  0.1188
  368MPD2    C1 5504   0.248   0.132  13.268  0.7482 -0.3781 -0.1415
  368MPD2    C2 5505   0.342   0.178  13.178 -0.0328  0.4483  0.5084
  368MPD2    C3 5506   0.464   0.217  13.235 -0.1454  0.1975 -0.2440
  368MPD2    C4 5507   0.489   0.214  13.369  0.0914  0.5602  1.4058
  368MPD2    C5 5508   0.398   0.151  13.456 -0.7517  0.2468  0.4077
  368MPD2     H 5509   0.322   0.180  13.071 -1.0669 -2.3952  0.6366
  368MPD2    H1 5510   0.586   0.249  13.403  1.6939 -0.6663 -1.9176
  368MPD2    H2 5511   0.203   0.071  13.470  0.5275 -1.7189  0.3315
  368MPD2    H3 5512   0.420   0.151  13.562  0.4255  1.7094  0.1712
  368MPD2     N 5513   0.563   0.275  13.155 -0.0456 -0.2454 -0.0566
  368MPD2    H5 5514   0.651   0.306  13.196  0.4148 -1.5319 -0.0592
  368MPD2    N1 5515   0.122   0.096  13.239  0.3844 -0.5297  0.5180
  368MPD2    H7 5516   0.072   0.048  13.313 -2.5744  0.2160 -1.0056
  369TMC3    C1 5517   4.653   0.042  13.113 -0.2586 -0.0641 -1.0705
  369TMC3    C2 5518   4.585   0.045  12.991  0.1062 -0.2511  0.1660
  369TMC3    C3 5519   4.447   0.025  12.989  0.0544 -0.5832 -0.0326
  369TMC3    C4 5520   4.587   0.002  13.234 -0.0006  0.5842 -0.4724
  369TMC3    C5 5521   4.458   4.691  13.218 -0.2764 -0.0134  0.7979
  369TMC3    C6 5522   4.383   4.697  13.099  0.0003 -0.3620 -0.5409
  369TMC3     C 5523   0.068   0.086  13.114  1.0547 -0.3669  0.2693
  369TMC3     O 5524   0.123   0.117  13.009 -0.5303  0.3604  0.2553
  369TMC3     H 5525   4.635   0.055  12.896  0.8871 -4.4692  0.1399
  369TMC3    H1 5526   4.635   4.717  13.331  0.5234  0.4074 -0.7426
  369TMC3    H2 5527   4.277   4.675  13.099 -0.4298  1.7177  0.4939
  369TMC3    C7 5528   4.382   4.633  13.326 -0.9982 -0.3141 -1.0448
  369TMC3    C8 5529   4.387   0.008  12.856  0.6983  0.8986  0.4764
  369TMC3    O1 5530   4.263   4.641  13.317  0.3283  0.9533  0.0887
  369TMC3    O2 5531   4.448   4.675  12.767 -0.4051 -0.0391 -0.4049
  370TMC3    C1 5532   3.891   0.935  16.498  1.3361 -1.0276 -0.8776
  370TMC3    C2 5533   3.864   0.850  16.606 -0.2026  0.3612  0.1664
  370TMC3    C3 5534   3.817   0.724  16.580  0.6779 -0.0382  0.2014
  370TMC3    C4 5535   3.859   0.896  16.367 -0.0256 -0.0277  0.1427
  370TMC3    C5 5536   3.805   0.773  16.353  0.7326 -0.2949  0.1512
  370TMC3    C6 5537   3.790   0.685  16.457  0.2120 -0.2558  0.3333
  370TMC3     C 5538   4.025   0.984  16.507  0.1704 -0.1246 -0.2959
  370TMC3     O 5539   4.102   0.950  16.595 -0.0149 -0.0246  0.8695
  370TMC3     H 5540   3.900   0.888  16.701  0.6957  0.0951 -0.0704
  370TMC3    H1 5541   3.868   0.963  16.283  0.0137 -0.8392 -0.4965
  370TMC3    H2 5542   3.747   0.587  16.441  0.4835 -0.1116 -1.2785
  370TMC3    C7 5543   3.811   0.722  16.218  0.0470 -0.0564 -0.4099
  370TMC3    C8 5544   3.828   0.624  16.682  0.2334 -0.0733 -0.1652
  370TMC3    O1 5545   3.770   0.798  16.129  0.1756  0.7621  0.7753
  370TMC3    O2 5546   3.853   0.511  16.651 -0.2423 -0.9503 -0.0101
  371TMC3    C1 5547   0.576   4.053  15.421 -0.9205  0.4647 -0.2121
  371TMC3    C2 5548   0.434   4.044  15.424 -0.0928  0.0636 -0.7421
  371TMC3    C3 5549   0.361   4.152  15.443 -0.6505 -0.9227 -0.2977
  371TMC3    C4 5550   0.635   4.175  15.422  0.3487 -0.3321  0.0106
  371TMC3    C5 5551   0.556   4.288  15.428  0.1891  0.2055  0.1467
  371TMC3    C6 5552   0.416   4.279  15.453  0.7723 -0.0276  0.3801
  371TMC3     C 5553   0.662   3.928  15.424  0.0556  0.3427  0.1213
  371TMC3     O 5554   0.782   3.943  15.412 -0.2791  0.2939 -0.2451
  371TMC3     H 5555   0.384   3.950  15.403 -1.2474  0.4382  0.3411
  371TMC3    H1 5556   0.743   4.174  15.429  0.3283  2.7589  1.0374
  371TMC3    H2 5557   0.362   4.370  15.476  2.0505  0.4712  1.3644
  371TMC3    C7 5558   0.618   4.418  15.467 -0.9784 -0.8936  0.3430
  371TMC3    C8 5559   0.215   4.128  15.435 -0.2445 -0.4980 -0.0161
  371TMC3    O1 5560   0.542   4.514  15.473 -0.5460  0.0219 -0.2404
  371TMC3    O2 5561   0.170   4.025  15.381 -0.3104  0.4217 -0.5454
  372MPD2     C 5562   4.639   0.323  13.422 -0.7550  0.8398  0.4469
  372MPD2    C1 5563   0.034   0.326  13.506 -0.2153  0.7009 -0.0972
  372MPD2    C2 5564   0.041   0.238  13.609 -0.2512  0.0930  0.9705
  372MPD2    C3 5565   4.651   0.160  13.636  0.3365  0.2150  0.3323
  372MPD2    C4 5566   4.532   0.171  13.563  0.5378 -0.2077  0.1236
  372MPD2    C5 5567   4.530   0.247  13.451 -0.1673 -0.4192  0.2058
  372MPD2     H 5568   0.132   0.234  13.669  1.1087  0.8112 -1.0487
  372MPD2    H1 5569   4.447   0.107  13.581  0.7171 -0.9949 -1.8851
  372MPD2    H2 5570   4.629   0.401  13.348  1.3897 -0.8455 -1.5967
  372MPD2    H3 5571   4.433   0.263  13.407  0.3579  0.3224 -0.6989
  372MPD2     N 5572   4.662   0.053  13.736  0.0751 -0.5547 -0.1629
  372MPD2    H5 5573   0.031   0.051  13.778 -0.1300  1.0039  0.3553
  372MPD2    N1 5574   0.149   0.402  13.485 -0.4774 -0.2623  0.0004
  372MPD2    H7 5575   0.227   0.396  13.549  1.4303  1.8366 -2.1424
  373TMC3    C1 5576   4.620   4.593  13.852 -0.0800  0.3138 -0.1645
  373TMC3    C2 5577   4.552   4.581  13.970  0.2922 -0.2225 -1.1492
  373TMC3    C3 5578   4.535   4.462  14.034 -0.0666  0.5616  0.4961
  373TMC3    C4 5579   4.660   4.476  13.792  0.3957 -1.0326  0.0239
  373TMC3    C5 5580   4.654   4.360  13.861  0.4266 -0.0355  0.2378
  373TMC3    C6 5581   4.585   4.349  13.977 -0.1405 -0.1402  0.1805
  373TMC3     C 5582   4.566   4.691  13.763 -0.8177  0.1285  0.0245
  373TMC3     O 5583   4.444   4.697  13.750  0.4540 -0.1525  0.2636
  373TMC3     H 5584   4.484   4.657  14.007  0.9197 -0.3630  0.3018
  373TMC3    H1 5585   4.700   4.481  13.691 -0.1420  0.4288 -0.1284
  373TMC3    H2 5586   4.597   4.263  14.041  2.8286  1.4534  1.7967
  373TMC3    C7 5587   0.007   4.248  13.817  0.1467  0.0387  0.2981
  373TMC3    C8 5588   4.532   4.464  14.176 -1.1548 -0.2554 -0.3543
  373TMC3    O1 5589   0.084   4.274  13.728 -0.3587 -0.4455  0.1886
  373TMC3    O2 5590   4.518   4.354  14.225 -0.1979 -0.1134 -0.1978
  374TMC3    C1 5591   0.296   4.427   9.863 -0.2335 -0.3816  0.2250
  374TMC3    C2 5592   0.318   4.550   9.924 -0.1952 -0.6243 -0.3110
  374TMC3    C3 5593   0.311   4.663   9.842 -0.1441 -1.3442  0.4659
  374TMC3    C4 5594   0.241   4.424   9.730 -0.3715  0.1707 -0.3493
  374TMC3    C5 5595   0.231   4.530   9.656  0.3464  0.0519  1.0588
  374TMC3    C6 5596   0.270   4.655   9.705 -0.0729 -0.4539 -0.6912
  374TMC3     C 5597   0.271   4.318   9.956  0.0783  0.0756  0.3846
  374TMC3     O 5598   0.252   4.357  10.071 -0.1872  0.3373  0.0630
  374TMC3     H 5599   0.350   4.569  10.026 -0.6415 -1.8560  0.0616
  374TMC3    H1 5600   0.215   4.334   9.676  0.3215  0.3814 -1.0296
  374TMC3    H2 5601   0.239   0.024   9.657  0.5590 -0.0478 -0.3106
  374TMC3    C7 5602   0.170   4.520   9.524 -0.3056  0.2620  0.6461
  374TMC3    C8 5603   0.330   0.073   9.899 -0.9136  0.3189 -0.0513
  374TMC3    O1 5604   0.108   4.420   9.495 -0.1679  0.4049  0.1114
  374TMC3    O2 5605   0.264   0.164   9.848  0.0973  0.1951  0.2658
  375MPD2     C 5606   0.544   1.599  17.078 -0.6309  0.3246 -0.5877
  375MPD2    C1 5607   0.462   1.543  16.985 -0.2537  0.1103 -0.3527
  375MPD2    C2 5608   0.511   1.473  16.881  0.0476 -0.3819 -1.1363
  375MPD2    C3 5609   0.647   1.452  16.869 -0.4012 -0.1196  0.2374
  375MPD2    C4 5610   0.733   1.505  16.965  0.1275 -0.0475 -0.1822
  375MPD2    C5 5611   0.680   1.575  17.069 -0.1549  0.0551  0.0646
  375MPD2     H 5612   0.438   1.429  16.814 -0.7548  1.6967 -1.6502
  375MPD2    H1 5613   0.840   1.489  16.975  0.2765  2.0732  1.6889
  375MPD2    H2 5614   0.520   1.654  17.168 -0.9265 -0.5644 -0.1288
  375MPD2    H3 5615   0.748   1.611  17.146 -0.6974 -2.1030  1.5394
  375MPD2     N 5616   0.700   1.393  16.755  0.4514 -0.2076  0.1534
  375MPD2    H5 5617   0.799   1.391  16.734  0.4648  1.1790  0.1014
  375MPD2    N1 5618   0.321   1.554  16.999 -0.0323  0.0866 -0.1764
  375MPD2    H7 5619   0.269   1.514  16.922 -2.8163  1.7913  0.8244
  376TMC3    C1 5620   0.709   1.310  16.526 -0.7438 -0.2366  0.5370
  376TMC3    C2 5621   0.846   1.308  16.534  0.1134  0.0791 -0.4324
  376TMC3    C3 5622   0.916   1.293  16.422 -0.4595  0.0070 -0.2523
  376TMC3    C4 5623   0.649   1.308  16.404 -0.2748  0.4318 -0.5010
  376TMC3    C5 5624   0.729   1.289  16.292 -0.0613  0.0841  0.6808
  376TMC3    C6 5625   0.866   1.291  16.296 -0.1190  0.0948  0.3954
  376TMC3     C 5626   0.627   1.352  16.641 -0.0845  0.4772 -0.4372
  376TMC3     O 5627   0.508   1.346  16.624 -0.2081 -0.0011  0.4245
  376TMC3     H 5628   0.894   1.300  16.631 -1.9516 -1.6835  0.4475
  376TMC3    H1 5629   0.541   1.316  16.399 -0.4126 -2.1269 -1.7222
  376TMC3    H2 5630   0.931   1.288  16.210  0.4096  2.8340  0.6934
  376TMC3    C7 5631   0.672   1.296  16.158 -0.0012 -0.3956 -0.6660
  376TMC3    C8 5632   1.065   1.294  16.430  0.5177  0.1500 -0.0158
  376TMC3    O1 5633   0.752   1.308  16.063 -0.1941 -0.3783 -0.1646
  376TMC3    O2 5634   1.121   1.244  16.337 -0.0811 -0.8801  0.4141
  377MPD2     C 5635   3.125   0.413  12.078  0.3988 -0.3590 -0.4034
  377MPD2    C1 5636   3.179   0.314  12.158  0.3461 -0.6553 -0.5035
  377MPD2    C2 5637   3.127   0.303  12.283 -0.2733  0.0940  0.0894
  377MPD2    C3 5638   3.030   0.389  12.328 -0.2354 -0.1372 -0.0052
  377MPD2    C4 5639   2.973   0.474  12.241 -0.0764  0.5041 -0.4183
  377MPD2    C5 5640   3.022   0.492  12.115  0.1178 -0.4621 -0.1471
  377MPD2     H 5641   3.167   0.232  12.354 -2.1545 -0.7268  0.3190
  377MPD2    H1 5642   2.890   0.539  12.265 -1.2709 -0.5708 -1.6464
  377MPD2    H2 5643   3.167   0.415  11.978  1.9122 -0.7692  0.2143
  377MPD2    H3 5644   2.987   0.578  12.059  1.3508  0.4546  0.4674
  377MPD2     N 5645   2.973   0.375  12.461 -0.0933 -0.7412  0.7026
  377MPD2    H5 5646   2.901   0.443  12.487 -1.3490 -2.1995  1.0508
  377MPD2    N1 5647   3.282   0.228  12.103  0.1786 -0.5558 -0.3245
  377MPD2    H7 5648   3.333   0.258  12.020 -0.0474  0.9761  0.1006
  378TMC3    C1 5649   3.478   4.571  11.966 -0.0279  0.4698  0.4110
  378TMC3    C2 5650   3.395   4.633  12.058 -0.2484  0.1576  0.1193
  378TMC3    C3 5651   3.426   0.039  12.087 -0.5782  0.4857  0.8784
  378TMC3    C4 5652   3.585   4.634  11.914  0.7673  0.4663  0.4447
  378TMC3    C5 5653   3.601   0.042  11.933 -0.4513  0.0640 -0.0783
  378TMC3    C6 5654   3.525   0.111  12.028 -0.9823  0.1854 -0.0867
  378TMC3     C 5655   3.426   4.466  11.875  0.2038  0.5597 -0.1874
  378TMC3     O 5656   3.502   4.385  11.822  0.2790  0.3282 -0.2286
  378TMC3     H 5657   3.320   4.578  12.114 -1.1667 -0.7355 -1.9693
  378TMC3    H1 5658   3.649   4.587  11.841 -1.1904  2.1799 -2.3776
  378TMC3    H2 5659   3.547   0.211  12.062  2.3663 -0.9946  1.2771
  378TMC3    C7 5660   3.717   0.110  11.881  0.9462  0.2416 -0.2946
  378TMC3    C8 5661   3.328   0.111  12.161 -0.4484  0.2632 -0.4867
  378TMC3    O1 5662   3.802   0.033  11.841  0.4571  0.1147  0.7858
  378TMC3    O2 5663   3.287   0.058  12.264 -0.0513 -0.2638  0.8174
  379MPD2     C 5664   4.190   3.924  16.307  0.3797  0.1214 -0.4268
  379MPD2    C1 5665   4.258   3.831  16.232 -0.3384 -0.1743 -0.2482
  379MPD2    C2 5666   4.365   3.764  16.294 -0.4087 -0.4454 -0.0362
  379MPD2    C3 5667   4.405   3.792  16.428 -0.7031 -0.4900 -0.5986
  379MPD2    C4 5668   4.340   3.894  16.500 -0.5065  0.4639  0.2499
  379MPD2    C5 5669   4.235   3.954  16.432 -0.2748 -0.2325  0.8018
  379MPD2     H 5670   4.421   3.695  16.231  0.8632  0.8963 -0.3795
  379MPD2    H1 5671   4.368   3.925  16.600  1.7111 -1.0337  0.0781
  379MPD2    H2 5672   4.103   3.976  16.270  1.3285  0.0202 -2.8085
  379MPD2    H3 5673   4.181   4.029  16.488  0.6993 -0.8667  2.5987
  379MPD2     N 5674   4.514   3.729  16.495 -0.1305 -0.1388  0.1569
  379MPD2    H5 5675   4.544   3.779  16.578 -0.9550 -1.1221  1.0500
  379MPD2    N1 5676   4.234   3.824  16.094 -0.0119 -0.6016  0.1070
  379MPD2    H7 5677   4.178   3.901  16.059  0.0626 -1.4908 -1.9489
  380TMC3    C1 5678   4.219   3.748  15.877  0.4363  0.6840  0.2837
  380TMC3    C2 5679   4.259   3.657  15.780  0.1811 -0.0173  0.5309
  380TMC3    C3 5680   4.220   3.665  15.655  0.7120 -0.1812  0.3555
  380TMC3    C4 5681   4.138   3.852  15.847  0.0737 -0.1821  0.5098
  380TMC3    C5 5682   4.091   3.853  15.719  0.1838  0.3109  0.5440
  380TMC3    C6 5683   4.122   3.759  15.626  0.5311  0.0291 -0.3445
  380TMC3     C 5684   4.270   3.724  16.008  0.2214 -0.2433 -0.2621
  380TMC3     O 5685   4.331   3.618  16.033 -0.5768 -0.0267  0.1373
  380TMC3     H 5686   4.320   3.578  15.821  1.9159  2.5650  2.9635
  380TMC3    H1 5687   4.099   3.922  15.920 -0.6773  0.3671 -0.4097
  380TMC3    H2 5688   4.087   3.767  15.523  0.7269  2.8659 -0.1985
  380TMC3    C7 5689   3.964   3.920  15.699 -0.3258 -0.0773  0.4651
  380TMC3    C8 5690   4.209   3.544  15.572 -0.4351 -0.0525  0.6503
  380TMC3    O1 5691   3.928   4.025  15.748  0.3337 -0.8321 -0.3520
  380TMC3    O2 5692   4.111   3.535  15.499  0.6233  0.6257  0.3205
  381TMC3    C1 5693   4.191   4.502  16.310  0.2351  0.2209  0.1834
  381TMC3    C2 5694   4.194   4.633  16.272 -0.4895 -0.0497  0.4557
  381TMC3    C3 5695   4.161   0.008  16.368  0.6578  0.3289  0.3792
  381TMC3    C4 5696   4.157   4.451  16.433 -0.3688 -0.0575  0.5393
  381TMC3    C5 5697   4.125   4.552  16.524 -0.3684 -0.2145 -0.2282
  381TMC3    C6 5698   4.140   4.687  16.498 -0.7764 -0.1274 -0.3033
  381TMC3     C 5699   4.255   4.419  16.205  0.1542 -1.0517 -0.5744
  381TMC3     O 5700   4.249   4.458  16.087  0.1511 -0.0200 -0.0289
  381TMC3     H 5701   4.242   4.660  16.179 -1.9607 -1.1268 -0.6039
  381TMC3    H1 5702   4.138   4.345  16.445  2.2433 -0.2066  3.1121
  381TMC3    H2 5703   4.138   0.038  16.578  1.3439  2.3471 -2.5168
  381TMC3    C7 5704   4.046   4.505  16.638  1.0026  0.1896  0.2772
  381TMC3    C8 5705   4.176   0.142  16.325 -0.8796  0.2892  0.1869
  381TMC3    O1 5706   4.056   4.386  16.653  0.4766  0.2852  0.2340
  381TMC3    O2 5707   4.189   0.169  16.207  0.2240  0.4078 -0.1765
  382MPD2     C 5708   3.142   2.261  17.221 -0.2356 -0.1395  0.1767
  382MPD2    C1 5709   3.056   2.352  17.287 -0.0153 -0.0999 -0.8421
  382MPD2    C2 5710   2.990   2.305  17.399 -0.2306  0.2000  0.5044
  382MPD2    C3 5711   2.996   2.166  17.425 -0.0241  0.5308 -0.0698
  382MPD2    C4 5712   3.068   2.073  17.351 -0.4452 -0.1860  0.0081
  382MPD2    C5 5713   3.154   2.135  17.256  1.2202 -0.2277  0.0128
  382MPD2     H 5714   2.922   2.374  17.447  0.5459  0.8506  0.6756
  382MPD2    H1 5715   3.083   1.967  17.372 -0.7288 -0.0284  1.0420
  382MPD2    H2 5716   3.203   2.296  17.138  1.1730  0.0999  1.3148
  382MPD2    H3 5717   3.219   2.069  17.200  1.0526 -1.7301  1.5794
  382MPD2     N 5718   2.918   2.107  17.522 -0.3290 -0.0389 -0.4845
  382MPD2    H5 5719   2.925   2.006  17.516 -1.1588  0.1254 -4.0400
  382MPD2    N1 5720   3.045   2.484  17.254 -0.1183 -0.5456 -0.0762
  382MPD2    H7 5721   2.988   2.532  17.323  0.7666  0.3248  0.0362
  383TMC3    C1 5722   2.735   2.075  17.672 -0.2149 -0.6425  0.5154
  383TMC3    C2 5723   2.708   1.947  17.613 -0.1302  0.0866  0.1575
  383TMC3    C3 5724   2.596   1.884  17.659  0.0513 -0.8140  0.3835
  383TMC3    C4 5725   2.659   2.117   0.084  0.2968  0.2251 -0.5773
  383TMC3    C5 5726   2.543   2.059   0.116 -0.3479 -0.4522 -0.2214
  383TMC3    C6 5727   2.514   1.934   0.064  1.0630  0.2880 -0.1943
  383TMC3     C 5728   2.823   2.169  17.605  0.3290 -0.0743 -0.2100
  383TMC3     O 5729   2.782   2.284  17.620  0.4064 -0.1241 -0.2930
  383TMC3     H 5730   2.758   1.904  17.527 -0.1187 -0.8115  0.6119
  383TMC3    H1 5731   2.691   2.209   0.132 -0.1770  0.5831 -0.9433
  383TMC3    H2 5732   2.419   1.890   0.088  0.5932  1.1289 -0.5104
  383TMC3    C7 5733   2.448   2.117   0.202  0.2362  0.2090 -0.3115
  383TMC3    C8 5734   2.534   1.779  17.584  0.2214 -0.5767  0.2900
  383TMC3    O1 5735   2.356   2.051   0.248  0.1242 -0.4983 -0.1815
  383TMC3    O2 5736   2.413   1.791  17.572 -0.3200  0.0457 -0.3035
  384MPD2     C 5737   4.619   3.442  11.972  0.3384  0.5481  0.1365
  384MPD2    C1 5738   4.662   3.424  12.103 -0.6248  0.2526 -0.3800
  384MPD2    C2 5739   0.054   3.347  12.130 -0.3513  0.0062 -0.4949
  384MPD2    C3 5740   0.131   3.288  12.033 -0.2668  0.1130 -0.3899
  384MPD2    C4 5741   0.089   3.303  11.903 -0.3095  0.2118 -0.3021
  384MPD2    C5 5742   4.706   3.384  11.876  0.4509  0.0373  0.4642
  384MPD2     H 5743   0.067   3.328  12.237  0.5446  0.6266 -0.4903
  384MPD2    H1 5744   0.134   3.249  11.821  2.9618 -0.8481  2.2201
  384MPD2    H2 5745   4.533   3.496  11.934  0.0665 -0.0217 -0.0638
  384MPD2    H3 5746   4.670   3.393  11.775  0.4375  3.1012  0.7558
  384MPD2     N 5747   0.239   3.203  12.073 -0.5003  0.1066 -0.5064
  384MPD2    H5 5748   0.259   3.195  12.173 -0.1954 -0.3879 -0.6063
  384MPD2    N1 5749   4.572   3.458  12.210  0.1081 -0.5840 -0.6495
  384MPD2    H7 5750   4.601   3.426  12.302  0.9966 -0.8526 -1.0134
  385TMC3    C1 5751   0.371   3.018  12.079 -0.4988 -0.7761  0.0238
  385TMC3    C2 5752   0.305   2.902  12.059  0.3831  0.1258 -0.3376
  385TMC3    C3 5753   0.284   2.822  12.169 -0.7919 -0.6315 -0.2126
  385TMC3    C4 5754   0.398   3.057  12.212  0.0518 -0.3109  0.0579
  385TMC3    C5 5755   0.377   2.973  12.318  0.1828  0.2402 -0.4124
  385TMC3    C6 5756   0.330   2.845  12.300  0.3352  0.1761  0.3345
  385TMC3     C 5757   0.318   3.123  11.995  0.6982 -0.6267 -0.5161
  385TMC3     O 5758   0.300   3.094  11.878  0.3268  0.0616  0.0824
  385TMC3     H 5759   0.271   2.873  11.960 -0.0427 -2.9188  0.7058
  385TMC3    H1 5760   0.442   3.154  12.231 -1.1721  0.5285 -1.3873
  385TMC3    H2 5761   0.319   2.777  12.383  1.6116 -1.1978 -0.5939
  385TMC3    C7 5762   0.326   3.059  12.428 -0.0043 -0.0336 -0.1949
  385TMC3    C8 5763   0.207   2.700  12.166  0.1697 -0.0820  0.7042
  385TMC3    O1 5764   0.310   3.179  12.407 -0.0123  0.2467  0.4152
  385TMC3    O2 5765   0.211   2.630  12.267 -0.5408  0.2541 -0.0060
  386TMC3    C1 5766   0.196   4.556  11.220  0.3283 -0.2011  0.8839
  386TMC3    C2 5767   0.143   4.618  11.114 -0.7212 -0.0883  0.0010
  386TMC3    C3 5768   4.722   4.629  11.108  0.4012 -0.6985 -0.2281
  386TMC3    C4 5769   0.116   4.507  11.318  0.2581  0.1599  0.0443
  386TMC3    C5 5770   4.700   4.519  11.313 -0.1840 -0.3041  0.2438
  386TMC3    C6 5771   4.638   4.582  11.208  0.6907  0.3167  0.4598
  386TMC3     C 5772   0.340   4.569  11.245 -0.3756  0.0948 -1.1589
  386TMC3     O 5773   0.397   4.661  11.185 -0.0536 -0.3722 -0.0201
  386TMC3     H 5774   0.204   4.669  11.040  0.8693  1.0030  2.0601
  386TMC3    H1 5775   0.161   4.482  11.413 -0.7259  0.1272  0.5018
  386TMC3    H2 5776   4.530   4.588  11.201  0.7489 -0.2618 -0.8274
  386TMC3    C7 5777   4.639   4.531  11.449  0.1497 -0.0083  0.1825
  386TMC3    C8 5778   4.654   4.708  11.000  0.1297 -0.3749  0.0284
  386TMC3    O1 5779   4.668   4.450  11.533  0.0397 -0.0446  0.1201
  386TMC3    O2 5780   4.531   4.696  10.991 -0.0866 -0.3320 -0.5131
  387MPD2     C 5781   2.300   0.791   9.767 -0.0549 -0.5981 -0.2630
  387MPD2    C1 5782   2.431   0.766   9.746  0.0730 -1.0335 -0.0291
  387MPD2    C2 5783   2.480   0.641   9.731  1.0575 -0.4194  0.5831
  387MPD2    C3 5784   2.396   0.531   9.749  0.2047 -0.2680  0.3734
  387MPD2    C4 5785   2.262   0.550   9.771 -0.5635  0.3164  0.1114
  387MPD2    C5 5786   2.218   0.683   9.772  0.6262 -0.0810 -0.3577
  387MPD2     H 5787   2.584   0.613   9.722  0.9709 -0.4176 -0.3939
  387MPD2    H1 5788   2.192   0.468   9.784 -1.6224  1.3613  1.0194
  387MPD2    H2 5789   2.260   0.890   9.782 -0.3943 -0.8672  0.6476
  387MPD2    H3 5790   2.112   0.704   9.778  0.9875  1.0912  1.7869
  387MPD2     N 5791   2.451   0.406   9.746  0.4804 -0.4100 -0.0990
  387MPD2    H5 5792   2.548   0.400   9.715  0.3702 -0.4212 -0.4428
  387MPD2    N1 5793   2.531   0.873   9.754 -0.2377 -0.5586  0.2028
  387MPD2    H7 5794   2.624   0.837   9.738  0.2116  1.1721 -1.0203
  388TMC3    C1 5795   2.643   1.052   9.857  0.9555  0.4432 -0.9575
  388TMC3    C2 5796   2.635   1.175   9.910 -0.0367  1.4011  0.0124
  388TMC3    C3 5797   2.750   1.217   9.978  0.3655  0.1356 -0.0324
  388TMC3    C4 5798   2.752   0.970   9.873  0.5590 -0.2079  0.2548
  388TMC3    C5 5799   2.859   1.011   9.946  0.2527 -0.3030  0.4028
  388TMC3    C6 5800   2.856   1.136  10.000  0.8049  0.0058 -0.1244
  388TMC3     C 5801   2.518   1.002   9.802 -0.3002 -0.3551  0.3880
  388TMC3     O 5802   2.415   1.066   9.827 -0.6418  0.0222 -0.2124
  388TMC3     H 5803   2.540   1.228   9.909 -2.0649 -2.2646  0.3917
  388TMC3    H1 5804   2.739   0.865   9.848  1.4909 -0.3537  0.3587
  388TMC3    H2 5805   2.931   1.155  10.076 -0.3260 -1.5835  1.3817
  388TMC3    C7 5806   2.963   0.921   9.979 -0.0496  0.6043 -0.1178
  388TMC3    C8 5807   2.731   1.301  10.091 -0.3883 -0.0475  0.0252
  388TMC3    O1 5808   3.035   0.949  10.073 -0.5278 -0.1353  0.1796
  388TMC3    O2 5809   2.758   1.257  10.204  0.5426  0.2868 -0.1384
  389MPD2     C 5810   2.103   3.622  10.961 -0.3853  0.6356 -0.6185
  389MPD2    C1 5811   1.982   3.567  10.938  0.4077 -0.4774 -0.5941
  389MPD2    C2 5812   1.916   3.495  11.040  0.0934 -0.5381  0.2993
  389MPD2    C3 5813   1.971   3.501  11.170  0.2374  0.2493  0.3811
  389MPD2    C4 5814   2.095   3.555  11.186  0.1123  0.4584  0.1581
  389MPD2    C5 5815   2.168   3.606  11.079  0.3174  0.0002  0.3916
  389MPD2     H 5816   1.826   3.438  11.017 -0.4679  0.1980  0.6864
  389MPD2    H1 5817   2.146   3.548  11.281  0.5896 -1.0047 -0.2081
  389MPD2    H2 5818   2.151   3.672  10.877  0.0559  0.1078 -0.6736
  389MPD2    H3 5819   2.272   3.628  11.101  0.2733  1.2035 -0.6186
  389MPD2     N 5820   1.914   3.444  11.285 -0.8891 -0.1063 -0.4071
  389MPD2    H5 5821   1.957   3.463  11.375  0.7855 -1.0916 -0.9860
  389MPD2    N1 5822   1.930   3.579  10.808 -0.1207  0.6669  0.8827
  389MPD2    H7 5823   1.986   3.636  10.745  0.7423 -2.1800 -0.9010
  390TMC3    C1 5824   1.745   3.342  11.426  0.0460 -0.3237  0.6491
  390TMC3    C2 5825   1.686   3.224  11.451  0.1205  0.3124  0.1724
  390TMC3    C3 5826   1.619   3.204  11.568 -0.1115  0.1633 -0.0582
  390TMC3    C4 5827   1.722   3.443  11.506  0.1688  0.3665 -0.7520
  390TMC3    C5 5828   1.644   3.430  11.615  0.1412 -0.1831  0.0193
  390TMC3    C6 5829   1.585   3.308  11.646  0.0583  0.2813 -0.1534
  390TMC3     C 5830   1.799   3.364  11.293 -0.8421  1.1538  0.3452
  390TMC3     O 5831   1.755   3.299  11.198  0.5617 -0.0167  0.2315
  390TMC3     H 5832   1.701   3.149  11.375  2.7341  0.1484  0.8345
  390TMC3    H1 5833   1.762   3.539  11.477  0.7439  0.6776  1.1169
  390TMC3    H2 5834   1.516   3.294  11.729  0.5935  0.8490  0.3873
  390TMC3    C7 5835   1.627   3.543  11.705  0.1578 -0.3546  0.0803
  390TMC3    C8 5836   1.559   3.079  11.580 -0.4508  0.4654  0.3012
  390TMC3    O1 5837   1.690   3.643  11.673  0.0803 -0.7048 -0.2593
  390TMC3    O2 5838   1.541   3.013  11.479  0.0849 -0.2269  0.0716
  391MPD2     C 5839   1.109   0.057  11.302  0.5419 -0.0043  0.3082
  391MPD2    C1 5840   1.128   0.189  11.268  0.3217 -0.1755 -0.0146
  391MPD2    C2 5841   1.073   0.236  11.147  0.0755 -0.2211 -0.5139
  391MPD2    C3 5842   1.010   0.154  11.061 -0.5466  0.3963  0.0438
  391MPD2    C4 5843   0.994   0.024  11.096  0.1170 -0.1981  0.3399
  391MPD2    C5 5844   1.040   4.698  11.216 -0.2260 -0.1801 -0.3116
  391MPD2     H 5845   1.062   0.340  11.120  3.4091  0.0259 -0.9794
  391MPD2    H1 5846   0.939   4.671  11.042 -0.9821  2.0959 -1.7709
  391MPD2    H2 5847   1.148   0.028  11.399 -1.1027 -1.6769  0.4856
  391MPD2    H3 5848   1.026   4.594  11.245  1.5379 -0.4610 -0.4381
  391MPD2     N 5849   0.989   0.211  10.933  0.3026 -0.2402 -0.2381
  391MPD2    H5 5850   1.004   0.311  10.923  2.2419 -0.7335 -2.3657
  391MPD2    N1 5851   1.196   0.272  11.359  0.0329 -0.1837 -0.7070
  391MPD2    H7 5852   1.222   0.226  11.446 -0.5777 -1.9534 -1.4658
  392TMC3    C1 5853   0.941   0.200  10.700 -0.0830 -0.9001  0.5460
  392TMC3    C2 5854   0.844   0.171  10.602 -0.2505 -0.1524  0.1789
  392TMC3    C3 5855   0.863   0.214  10.471 -0.1837 -0.2962  0.3102
  392TMC3    C4 5856   1.049   0.277  10.672 -0.5280  0.3436  0.0144
  392TMC3    C5 5857   1.061   0.323  10.543 -0.1884  0.4426 -0.8502
  392TMC3    C6 5858   0.970   0.299  10.446 -0.4537 -0.2095  0.7307
  392TMC3     C 5859   0.920   0.143  10.831  0.0516 -0.7355  0.1636
  392TMC3     O 5860   0.856   0.042  10.841  0.1403 -0.1047 -0.5291
  392TMC3     H 5861   0.749   0.124  10.624 -0.8009  0.0472 -1.7503
  392TMC3    H1 5862   1.122   0.290  10.751  1.1711  1.2260 -1.6831
  392TMC3    H2 5863   0.981   0.337  10.345  1.4251  0.7993  1.3195
  392TMC3    C7 5864   1.172   0.407  10.519  0.3587 -0.2886 -0.0230
  392TMC3    C8 5865   0.743   0.193  10.394 -0.0681  0.1023  1.0704
  392TMC3    O1 5866   1.247   0.416  10.612 -0.2366  0.2078 -0.1095
  392TMC3    O2 5867   0.673   0.093  10.412  0.2575 -0.4618 -0.1155
  393TMC3    C1 5868   4.320   3.099  11.048  0.1555  0.6152 -0.7624
  393TMC3    C2 5869   4.270   3.085  11.175 -0.2202  0.0148 -0.1433
  393TMC3    C3 5870   4.356   3.048  11.271  0.0045 -0.3904  0.0266
  393TMC3    C4 5871   4.456   3.098  11.024  0.0260 -0.2153 -0.8114
  393TMC3    C5 5872   4.535   3.067  11.122  0.0550 -1.1175  0.4007
  393TMC3    C6 5873   4.493   3.047  11.249 -0.6015  1.1161 -0.0375
  393TMC3     C 5874   4.229   3.066  10.943  0.1034  0.3507  0.3259
  393TMC3     O 5875   4.133   2.999  10.981  0.6379 -0.8976  0.0335
  393TMC3     H 5876   4.162   3.092  11.184 -0.1239 -0.8570  1.6555
  393TMC3    H1 5877   4.495   3.126  10.927  0.6088 -1.0454 -0.8185
  393TMC3    H2 5878   4.559   3.048  11.335  1.5924 -1.1827 -1.6866
  393TMC3    C7 5879   4.675   3.108  11.099  0.5498  0.7763  0.7680
  393TMC3    C8 5880   4.292   3.045  11.401 -0.5996 -0.3641 -0.4575
  393TMC3    O1 5881   0.007   3.181  11.181 -0.7802 -0.9797 -0.6831
  393TMC3    O2 5882   4.184   3.101  11.414  0.2203 -0.4628 -0.2329
  394TMC3    C1 5883   1.786   3.563  10.613 -0.0423  0.1735 -0.1488
  394TMC3    C2 5884   1.652   3.577  10.568 -0.6092 -0.3367 -0.4248
  394TMC3    C3 5885   1.623   3.604  10.437 -0.2690 -0.1311  0.3876
  394TMC3    C4 5886   1.889   3.552  10.525 -0.5306 -0.7374 -0.5550
  394TMC3    C5 5887   1.857   3.555  10.390  0.1878 -0.3750 -0.3233
  394TMC3    C6 5888   1.729   3.596  10.350  0.5751  0.1094 -0.3775
  394TMC3     C 5889   1.803   3.542  10.759 -0.5997  0.4142 -0.0892
  394TMC3     O 5890   1.708   3.489  10.820 -0.4004 -0.3017  0.2313
  394TMC3     H 5891   1.570   3.591  10.639  1.1154  0.8932  1.3253
  394TMC3    H1 5892   1.990   3.530  10.558 -0.6354  0.2967  0.4802
  394TMC3    H2 5893   1.710   3.608  10.244  2.0655 -2.6623 -0.9580
  394TMC3    C7 5894   1.965   3.587  10.287 -0.2625  0.6323 -0.6004
  394TMC3    C8 5895   1.518   3.512  10.395  0.1052 -0.8076 -0.1114
  394TMC3    O1 5896   1.930   3.666  10.199 -0.4650 -0.3124  0.3942
  394TMC3    O2 5897   1.414   3.532  10.453 -0.6716 -0.0653  0.0721
  395TMC3    C1 5898   1.776   0.864  14.872 -0.1288 -0.1438 -0.0493
  395TMC3    C2 5899   1.674   0.908  14.804 -0.1841  0.1206 -0.3004
  395TMC3    C3 5900   1.697   0.967  14.685  0.7079  0.0017  0.0539
  395TMC3    C4 5901   1.907   0.886  14.831  0.0384 -0.4169 -0.1900
  395TMC3    C5 5902   1.927   0.942  14.709 -0.2276 -0.1410 -0.2578
  395TMC3    C6 5903   1.824   0.990  14.635  0.2336  0.7933  0.8605
  395TMC3     C 5904   1.767   0.885  15.018 -0.0947  0.4778 -0.4579
  395TMC3     O 5905   1.668   0.937  15.069  0.1414  0.1075  0.0646
  395TMC3     H 5906   1.577   0.902  14.854 -0.3937 -1.5000 -0.8870
  395TMC3    H1 5907   1.993   0.870  14.895 -1.3286  1.1879  2.0486
  395TMC3    H2 5908   1.842   1.054  14.549 -1.1186  2.0986  1.5408
  395TMC3    C7 5909   2.053   1.028  14.701 -0.1322  1.1041 -0.8347
  395TMC3    C8 5910   1.575   1.013  14.620  0.1505 -0.7310  0.9608
  395TMC3    O1 5911   2.037   1.150  14.698  0.3732 -0.1427 -0.4207
  395TMC3    O2 5912   1.470   0.990  14.676 -0.0047 -0.4155  0.2414
  396MPD2     C 5913   1.276   1.938  16.986 -0.0094 -0.3610 -0.6087
  396MPD2    C1 5914   1.368   1.993  17.063  0.0469 -0.5391  0.4301
  396MPD2    C2 5915   1.431   2.108  17.037  0.1297  0.4145  0.7671
  396MPD2    C3 5916   1.419   2.167  16.913  0.3114 -0.6247 -0.8007
  396MPD2    C4 5917   1.332   2.107  16.831  0.5896 -0.2806  0.0750
  396MPD2    C5 5918   1.258   1.993  16.862  0.3990 -0.2665 -0.0800
  396MPD2     H 5919   1.491   2.160  17.111  0.7482  0.2935  0.3521
  396MPD2    H1 5920   1.304   2.163  16.743 -1.7461 -1.2622  0.1672
  396MPD2    H2 5921   1.216   1.850  17.009  0.2094  0.1078  1.7376
  396MPD2    H3 5922   1.180   1.959  16.794 -0.3923 -1.7862  1.5724
  396MPD2     N 5923   1.514   2.260  16.882 -0.0201 -0.4865 -0.4559
  396MPD2    H5 5924   1.577   2.289  16.956 -0.4095  3.4974 -1.6509
  396MPD2    N1 5925   1.401   1.923  17.179  0.6303 -0.5804  0.1209
  396MPD2    H7 5926   1.366   1.828  17.179 -0.4536 -0.1829 -1.0895
  397TMC3    C1 5927   1.464   1.869  17.392 -0.5188 -0.2235  0.1003
  397TMC3    C2 5928   1.580   1.803  17.418  0.1935 -0.1381 -0.3496
  397TMC3    C3 5929   1.587   1.664  17.419 -0.2864  0.4005  0.0995
  397TMC3    C4 5930   1.353   1.790  17.394  0.2319  0.2788 -0.0042
  397TMC3    C5 5931   1.360   1.652  17.407  0.1189  0.0202 -0.2159
  397TMC3    C6 5932   1.480   1.583  17.414  0.5628 -0.0502 -0.1838
  397TMC3     C 5933   1.477   1.965  17.279  0.2877  0.8717 -0.6498
  397TMC3     O 5934   1.560   2.056  17.294  0.1965  0.0224  0.3624
  397TMC3     H 5935   1.666   1.866  17.396  1.0492 -1.7831 -1.6789
  397TMC3    H1 5936   1.253   1.832  17.395  0.2880  0.3981  1.3464
  397TMC3    H2 5937   1.496   1.478  17.395  1.3159 -0.3142  1.9003
  397TMC3    C7 5938   1.242   1.584  17.463  0.7755  0.4957  0.0676
  397TMC3    C8 5939   1.711   1.591  17.461 -0.0909  0.4596  0.4641
  397TMC3    O1 5940   1.143   1.651  17.494 -0.1399 -0.4014 -0.1800
  397TMC3    O2 5941   1.686   1.490  17.528 -0.2762 -0.3750  0.0311
  398MPD2     C 5942   4.505   3.371   0.198 -0.3856  0.3764 -0.3342
  398MPD2    C1 5943   4.577   3.265   0.264 -0.4606 -1.0216 -0.1304
  398MPD2    C2 5944   4.716   3.256   0.243 -0.4084 -0.7335 -0.4385
  398MPD2    C3 5945   0.058   3.342   0.158 -0.1218 -0.2749 -0.6988
  398MPD2    C4 5946   4.711   3.450   0.101 -0.2866 -1.0750 -0.2038
  398MPD2    C5 5947   4.574   3.457   0.115  0.1696 -0.3103 -0.3846
  398MPD2     H 5948   0.055   3.175   0.280  0.7798  0.1062 -0.5816
  398MPD2    H1 5949   0.037   3.511   0.027  3.6688 -2.3649  1.3332
  398MPD2    H2 5950   4.398   3.377   0.212 -0.8040  0.2943 -3.3216
  398MPD2    H3 5951   4.525   3.540   0.066 -1.0166 -0.7557  0.0647
  398MPD2     N 5952   0.190   3.306   0.114 -0.2520  0.0486  0.7633
  398MPD2    H5 5953   0.231   3.222   0.154 -1.3003 -1.7488 -1.9027
  398MPD2    N1 5954   4.516   3.166   0.350  0.6516  0.4494 -0.6072
  398MPD2    H7 5955   4.569   3.091   0.395  0.2033  0.2367 -0.4294
  399TMC3    C1 5956   4.363   3.040   0.460 -0.0375  0.0613  0.0778
  399TMC3    C2 5957   4.428   3.035   0.577 -0.6088 -0.4704  0.5849
  399TMC3    C3 5958   4.374   2.962   0.673  0.6784 -0.3446 -0.1489
  399TMC3    C4 5959   4.243   2.974   0.438  0.1915 -0.0910  0.2113
  399TMC3    C5 5960   4.199   2.890   0.533 -0.2000  0.0713 -0.1282
  399TMC3    C6 5961   4.268   2.877   0.652 -0.0314 -0.0949  0.2804
  399TMC3     C 5962   4.388   3.151   0.366 -0.2232 -0.0302  0.4748
  399TMC3     O 5963   4.294   3.188   0.298 -0.2991  0.4324 -0.4213
  399TMC3     H 5964   4.513   3.100   0.591  0.1754 -0.8907 -2.1928
  399TMC3    H1 5965   4.205   2.971   0.337  0.2715  0.2823  0.1727
  399TMC3    H2 5966   4.243   2.801   0.724  3.0330 -0.3217  1.0626
  399TMC3    C7 5967   4.078   2.821   0.506 -0.0704  0.0729 -0.3825
  399TMC3    C8 5968   4.412   2.979   0.816 -0.5282  0.5406  0.4353
  399TMC3    O1 5969   4.052   2.727   0.580 -0.0954 -0.0807 -0.0821
  399TMC3    O2 5970   4.359   2.906   0.897  0.2641  0.7246  0.2501
  400TMC3    C1 5971   2.726   1.389  16.985 -0.3280  0.3318 -0.4087
  400TMC3    C2 5972   2.623   1.399  16.897  0.6581 -0.2853 -0.3909
  400TMC3    C3 5973   2.543   1.509  16.903  0.2328 -0.0349  0.0629
  400TMC3    C4 5974   2.759   1.492  17.069  0.7035 -0.6594  0.0437
  400TMC3    C5 5975   2.687   1.605  17.072 -0.3068  0.5196  0.3287
  400TMC3    C6 5976   2.578   1.616  16.988 -0.1445  0.0830  0.1275
  400TMC3     C 5977   2.800   1.259  16.996 -0.5486  0.6844  0.2872
  400TMC3     O 5978   2.736   1.165  16.949 -0.6465  0.5188 -0.5487
  400TMC3     H 5979   2.587   1.312  16.843 -0.6467 -0.1531  0.2533
  400TMC3    H1 5980   2.842   1.490  17.138  1.7663 -3.6590 -1.3247
  400TMC3    H2 5981   2.501   1.693  16.999 -0.3030  0.0507 -0.7281
  400TMC3    C7 5982   2.741   1.730  17.129  0.3021  0.1881 -0.2536
  400TMC3    C8 5983   2.476   1.564  16.781  0.1582  0.2782 -0.2934
  400TMC3    O1 5984   2.862   1.743  17.107 -0.2760  0.1629 -0.0925
  400TMC3    O2 5985   2.443   1.683  16.790  0.2546 -0.1550 -0.1695
  401MPD2     C 5986   1.096   4.624   1.195 -0.3054  0.4543 -0.0346
  401MPD2    C1 5987   1.206   4.668   1.119 -0.5488  0.1241  0.5194
  401MPD2    C2 5988   1.290   4.576   1.061  0.2322 -1.4907  0.1714
  401MPD2    C3 5989   1.272   4.445   1.065 -0.4739  0.0894 -0.4124
  401MPD2    C4 5990   1.156   4.401   1.131 -0.0220 -0.1521  0.6993
  401MPD2    C5 5991   1.070   4.487   1.187  0.2696  0.8965 -1.2165
  401MPD2     H 5992   1.376   4.619   1.011  0.9626 -0.8105  2.0127
  401MPD2    H1 5993   1.130   4.296   1.124  0.6293 -0.2494 -0.2633
  401MPD2    H2 5994   1.019   4.685   1.240 -0.4740 -1.5156  2.3455
  401MPD2    H3 5995   0.982   4.438   1.227  2.2329 -0.4454  1.4549
  401MPD2     N 5996   1.371   4.357   1.020 -0.8158 -0.4808  0.3138
  401MPD2    H5 5997   1.453   4.403   0.983 -0.2391 -2.2807 -0.6750
  401MPD2    N1 5998   1.236   0.085   1.102  0.2881 -0.8000 -0.4672
  401MPD2    H7 5999   1.319   0.110   1.050  1.5432 -1.5139  1.1823
  402TMC3    C1 6000   1.483   4.160   0.968 -0.3013 -0.1265 -0.2017
  402TMC3    C2 6001   1.545   4.057   1.034 -0.5202  1.1137  0.1963
  402TMC3    C3 6002   1.673   4.031   0.994 -0.1585  0.9015 -0.2790
  402TMC3    C4 6003   1.536   4.229   0.860 -0.2950 -0.7687 -0.4299
  402TMC3    C5 6004   1.660   4.194   0.825 -0.1535 -0.1166  0.0407
  402TMC3    C6 6005   1.730   4.103   0.894  0.1637  0.1548 -0.2547
  402TMC3     C 6006   1.365   4.220   1.031 -0.3029  0.1728  0.1183
  402TMC3     O 6007   1.292   4.151   1.099 -0.3511  0.6734 -0.1015
  402TMC3     H 6008   1.492   3.999   1.109  1.0118 -0.8010 -0.2161
  402TMC3    H1 6009   1.472   4.286   0.792 -2.2372 -3.3244 -0.7419
  402TMC3    H2 6010   1.829   4.070   0.865  0.4549  1.7530 -1.1054
  402TMC3    C7 6011   1.740   4.277   0.735 -0.2840  0.4282 -0.4266
  402TMC3    C8 6012   1.745   3.914   1.046  0.0509 -0.0928 -0.7408
  402TMC3    O1 6013   1.682   4.374   0.688 -0.1225 -0.3023  0.1695
  402TMC3    O2 6014   1.815   3.852   0.973  1.0576  0.0779  0.1259
  403MPD2     C 6015   3.926   3.113  13.603  0.5505  1.0211 -0.2350
  403MPD2    C1 6016   4.051   3.076  13.568 -0.1171 -0.6773  0.2642
  403MPD2    C2 6017   4.158   3.109  13.641 -0.8081 -0.4840 -0.0959
  403MPD2    C3 6018   4.136   3.182  13.753 -0.0057  0.5682  0.0412
  403MPD2    C4 6019   4.009   3.231  13.787  0.0951 -0.2683 -0.1864
  403MPD2    C5 6020   3.907   3.189  13.711  0.2718 -0.8046  0.4888
  403MPD2     H 6021   4.259   3.088  13.605 -0.5115  0.5822  0.1252
  403MPD2    H1 6022   3.978   3.295  13.869 -1.6079 -1.3456  0.0198
  403MPD2    H2 6023   3.837   3.098  13.541  0.5215 -0.4456  0.1561
  403MPD2    H3 6024   3.806   3.223  13.731  0.3966  0.4887 -1.1028
  403MPD2     N 6025   4.247   3.205  13.843  0.0450  0.5753 -0.4711
  403MPD2    H5 6026   4.335   3.162  13.813  0.5784  1.4619 -0.1815
  403MPD2    N1 6027   4.060   2.986  13.463  0.0534 -0.0462  0.2177
  403MPD2    H7 6028   3.976   2.934  13.441  0.0852 -1.2435  2.9092
  404TMC3    C1 6029   4.146   2.866  13.278 -0.2070 -0.7821 -0.8378
  404TMC3    C2 6030   4.096   2.752  13.327  0.2169  0.0808  0.4216
  404TMC3    C3 6031   4.079   2.644  13.246  0.2461  0.5455 -0.4611
  404TMC3    C4 6032   4.195   2.878  13.158 -0.0558  0.2458  0.5139
  404TMC3    C5 6033   4.172   2.775  13.072 -0.1294  0.5679 -0.5181
  404TMC3    C6 6034   4.113   2.655  13.113  0.0324 -1.1059  0.3107
  404TMC3     C 6035   4.160   2.975  13.373  0.7560  0.5511 -0.0253
  404TMC3     O 6036   4.238   3.061  13.338  0.1391 -0.0510 -0.0443
  404TMC3     H 6037   4.103   2.739  13.435 -2.0434 -1.1232  0.4313
  404TMC3    H1 6038   4.239   2.968  13.116 -1.5289  0.9893  0.5641
  404TMC3    H2 6039   4.102   2.572  13.044 -2.1954  0.2037 -0.9233
  404TMC3    C7 6040   4.171   2.815  12.934 -0.4283  0.4308  0.6877
  404TMC3    C8 6041   4.017   2.520  13.298 -0.0059 -0.0562  0.2748
  404TMC3    O1 6042   4.250   2.902  12.905  0.5496 -0.0319 -0.4324
  404TMC3    O2 6043   4.031   2.420  13.230  0.3128 -0.2550 -0.1991
  405MPD2     C 6044   0.075   3.266  14.705  0.2897  0.0650 -0.3919
  405MPD2    C1 6045   4.675   3.244  14.654 -0.3795  0.1165  0.1989
  405MPD2    C2 6046   4.606   3.351  14.612 -0.5331 -0.1785  0.2845
  405MPD2    C3 6047   4.650   3.481  14.621  0.1561 -0.0637  0.1501
  405MPD2    C4 6048   0.049   3.505  14.685 -0.1984 -0.3895 -0.0360
  405MPD2    C5 6049   0.120   3.396  14.735  0.0762 -0.2668  0.3218
  405MPD2     H 6050   4.512   3.339  14.560  0.3127 -1.9104 -0.8733
  405MPD2    H1 6051   0.081   3.608  14.702  0.3246 -0.3109 -1.4807
  405MPD2    H2 6052   0.128   3.180  14.744 -0.6803  0.8469  2.6823
  405MPD2    H3 6053   0.216   3.413  14.781  0.1098 -0.7901  0.4507
  405MPD2     N 6054   4.557   3.586  14.584 -0.1670 -0.3885 -0.2766
  405MPD2    H5 6055   4.470   3.550  14.544 -1.7140  2.5522  0.4806
  405MPD2    N1 6056   4.632   3.111  14.637 -0.5849  0.6595  0.3043
  405MPD2    H7 6057   4.690   3.038  14.679 -1.8456 -1.8092 -2.1848
  406TMC3    C1 6058   4.287   3.942  14.543 -0.6350 -0.1893 -0.0382
  406TMC3    C2 6059   4.173   3.862  14.531  0.1162 -0.1381 -0.5119
  406TMC3    C3 6060   4.188   3.734  14.559 -0.4605 -0.3998 -0.2593
  406TMC3    C4 6061   4.411   3.895  14.568 -0.4236  0.2224  0.0010
  406TMC3    C5 6062   4.417   3.766  14.618  0.1213 -0.0233 -0.5100
  406TMC3    C6 6063   4.305   3.681  14.607 -0.1214 -0.7136 -0.2762
  406TMC3     C 6064   4.276   4.082  14.502  0.1406  0.0423  0.8287
  406TMC3     O 6065   4.346   4.170  14.544  0.4318  0.1629  0.4291
  406TMC3     H 6066   4.072   3.900  14.521  0.7237  1.7123  0.3497
  406TMC3    H1 6067   4.495   3.962  14.587 -0.7327  0.6718 -0.2066
  406TMC3    H2 6068   4.316   3.581  14.647  1.4897 -0.2751  0.3880
  406TMC3    C7 6069   4.550   3.710  14.630  0.1925 -0.2669 -0.4343
  406TMC3    C8 6070   4.080   3.644  14.548  0.0696  0.5957  0.2346
  406TMC3    O1 6071   4.633   3.775  14.686  0.5708 -0.0836 -0.2937
  406TMC3    O2 6072   3.971   3.682  14.584  0.5727 -0.4790 -0.3496
  407MPD2     C 6073   2.060   4.503   9.424 -0.3313  0.6811 -0.1900
  407MPD2    C1 6074   2.163   4.543   9.507  0.3789 -0.4332 -0.3538
  407MPD2    C2 6075   2.142   4.545   9.640 -0.0091 -0.2885 -0.5451
  407MPD2    C3 6076   2.023   4.489   9.693  1.0485  0.1400 -0.3701
  407MPD2    C4 6077   1.918   4.467   9.609  0.8509 -0.1654  0.0171
  407MPD2    C5 6078   1.934   4.480   9.473  0.5413  0.2820 -0.3189
  407MPD2     H 6079   2.214   4.579   9.713 -0.3100 -1.0759  0.1290
  407MPD2    H1 6080   1.819   4.439   9.644  0.8997  1.8327  1.7943
  407MPD2    H2 6081   2.072   4.507   9.316  0.8269 -1.8077 -0.1539
  407MPD2    H3 6082   1.851   4.469   9.403  1.0018 -3.3403 -0.2746
  407MPD2     N 6083   2.000   4.484   9.829 -0.7757 -0.1491  1.0435
  407MPD2    H5 6084   1.905   4.466   9.858 -1.0699 -1.2705 -0.6260
  407MPD2    N1 6085   2.283   4.591   9.456  0.2192  0.2097 -0.0248
  407MPD2    H7 6086   2.349   4.616   9.529 -0.2914  1.8933 -0.1374
  408TMC3    C1 6087   2.435   4.710   9.324 -0.4676 -0.1230  0.0962
  408TMC3    C2 6088   2.559   4.658   9.355  0.3342 -0.1828 -0.6094
  408TMC3    C3 6089   2.662   0.023   9.392  0.1986 -0.1041 -0.1881
  408TMC3    C4 6090   2.413   0.121   9.351 -0.5049  0.8571  0.8478
  408TMC3    C5 6091   2.517   0.201   9.377  0.0721  0.4890  0.0529
  408TMC3    C6 6092   2.642   0.159   9.403 -0.4840  0.2324 -0.9157
  408TMC3     C 6093   2.310   4.627   9.328  0.5115  0.1412 -0.0945
  408TMC3     O 6094   2.241   4.641   9.233 -0.5622 -0.1248  0.5903
  408TMC3     H 6095   2.579   4.551   9.362 -1.6554 -0.5687 -0.8544
  408TMC3    H1 6096   2.314   0.148   9.317 -0.7726 -0.2223  0.7579
  408TMC3    H2 6097   2.710   0.232   9.445 -0.8779 -0.3822  0.7970
  408TMC3    C7 6098   2.484   0.343   9.381  0.2939  0.0835 -0.5522
  408TMC3    C8 6099   2.792   4.687   9.432  0.9528  0.5160 -0.0330
  408TMC3    O1 6100   2.580   0.419   9.399  0.7031 -0.1304 -0.0106
  408TMC3    O2 6101   2.801   4.566   9.442 -0.6322 -0.4182 -0.2088
  409MPD2     C 6102   1.685   0.923  16.940 -0.0975  0.5707 -0.1128
  409MPD2    C1 6103   1.719   0.973  17.062  0.7283 -0.0771 -0.3328
  409MPD2    C2 6104   1.772   1.100  17.081  0.6154  0.2802 -0.4557
  409MPD2    C3 6105   1.783   1.172  16.963 -0.1217 -0.7390  0.0539
  409MPD2    C4 6106   1.750   1.119  16.839 -0.0597 -0.1123  0.0689
  409MPD2    C5 6107   1.708   0.991  16.828  0.2766  0.6781 -1.0640
  409MPD2     H 6108   1.807   1.132  17.178 -0.2506  0.4951 -0.2164
  409MPD2    H1 6109   1.774   1.165  16.744  1.7010 -0.2461  0.4317
  409MPD2    H2 6110   1.641   0.824  16.935 -1.8934  1.4584 -2.0867
  409MPD2    H3 6111   1.702   0.950  16.728 -0.0650 -1.0708 -0.3187
  409MPD2     N 6112   1.837   1.300  16.958 -0.6269  0.2657 -0.3112
  409MPD2    H5 6113   1.847   1.341  16.866  2.2497  0.3136  0.0034
  409MPD2    N1 6114   1.720   0.883  17.178 -0.5559  0.4049  0.4833
  409MPD2    H7 6115   1.756   0.925  17.263  1.6811 -1.3038  0.3985
  410TMC3    C1 6116   1.948   1.501  17.029 -0.2199  0.2005  0.1860
  410TMC3    C2 6117   2.048   1.540  17.102 -0.3042 -0.0424 -0.3215
  410TMC3    C3 6118   2.141   1.624  17.058 -0.3446  0.0982 -0.0856
  410TMC3    C4 6119   1.926   1.570  16.912  0.5425  0.6156  0.2677
  410TMC3    C5 6120   2.017   1.660  16.866  0.0991  0.4679 -0.3672
  410TMC3    C6 6121   2.125   1.692  16.939  0.6613  0.1633  0.1568
  410TMC3     C 6122   1.882   1.375  17.065  0.8728 -0.2281 -0.2759
  410TMC3     O 6123   1.883   1.346  17.184  0.0405  0.4108  0.0136
  410TMC3     H 6124   2.070   1.497  17.199 -0.6168  0.6613  0.0585
  410TMC3    H1 6125   1.841   1.536  16.854 -0.1874  3.3475 -0.2260
  410TMC3    H2 6126   2.203   1.760  16.907  1.2764 -0.7568 -0.2855
  410TMC3    C7 6127   1.999   1.677  16.725  0.2663  0.7400 -0.1594
  410TMC3    C8 6128   2.256   1.641  17.148  0.3496  0.3851 -0.4580
  410TMC3    O1 6129   1.901   1.625  16.674 -0.5707 -0.1333  0.0461
  410TMC3    O2 6130   2.321   1.744  17.140 -0.0702  0.1287  0.4818
  411MPD2     C 6131   2.419   1.597  14.508  0.5112 -0.0331 -0.3060
  411MPD2    C1 6132   2.391   1.690  14.611  0.2309  0.0641 -0.9549
  411MPD2    C2 6133   2.300   1.656  14.707  0.5620 -0.0346 -0.7933
  411MPD2    C3 6134   2.245   1.531  14.710  0.2220  0.4750  0.6184
  411MPD2    C4 6135   2.282   1.440  14.616 -0.1276  0.2633 -0.1072
  411MPD2    C5 6136   2.371   1.471  14.515 -0.0775 -0.0487 -0.7097
  411MPD2     H 6137   2.272   1.731  14.780  2.8409 -1.3157  1.3978
  411MPD2    H1 6138   2.228   1.346  14.607 -1.0823  0.9878 -2.0183
  411MPD2    H2 6139   2.481   1.627  14.424  0.0265 -0.6644 -0.8891
  411MPD2    H3 6140   2.372   1.402  14.432 -1.4835  0.6812 -1.3362
  411MPD2     N 6141   2.138   1.497  14.794 -0.6289  1.0005 -0.3904
  411MPD2    H5 6142   2.096   1.406  14.784  0.7364  0.4073 -0.7309
  411MPD2    N1 6143   2.446   1.822  14.590 -0.1521 -0.0300  0.3180
  411MPD2    H7 6144   2.494   1.841  14.503  1.4489  0.2280  1.2523
  412TMC3    C1 6145   1.954   1.527  14.940  0.5830  0.2778  0.1404
  412TMC3    C2 6146   1.862   1.623  14.977  0.1072  0.9426 -1.0361
  412TMC3    C3 6147   1.753   1.632  14.899 -0.0353 -0.1449 -0.2557
  412TMC3    C4 6148   1.912   1.415  14.869  0.3207 -0.5249  0.6345
  412TMC3    C5 6149   1.789   1.398  14.823 -0.3694 -0.6558 -0.2751
  412TMC3    C6 6150   1.715   1.516  14.834  0.3574 -0.1693 -1.0920
  412TMC3     C 6151   2.083   1.585  14.891 -0.5098  0.3795  0.0831
  412TMC3     O 6152   2.116   1.700  14.917 -0.3319  0.4678  0.0808
  412TMC3     H 6153   1.918   1.702  15.025  0.0292  1.0670 -1.1508
  412TMC3    H1 6154   1.972   1.325  14.859 -3.3574 -3.1058  1.5099
  412TMC3    H2 6155   1.617   1.505  14.790  0.2074  0.6106 -0.9420
  412TMC3    C7 6156   1.780   1.357  14.683  0.2370 -0.3458  0.5207
  412TMC3    C8 6157   1.772   1.742  14.803  0.0864 -0.1285 -0.7531
  412TMC3    O1 6158   1.678   1.301  14.650 -0.1898  0.0364  0.3636
  412TMC3    O2 6159   1.875   1.813  14.818  0.2237 -0.6178 -0.7109
  413MPD2     C 6160   3.386   4.425  14.816 -0.5678 -0.9013 -0.1535
  413MPD2    C1 6161   3.484   4.520  14.856  0.2884 -0.0126 -0.9907
  413MPD2    C2 6162   3.614   4.481  14.878 -0.0202 -0.3454 -0.5696
  413MPD2    C3 6163   3.645   4.344  14.864  0.3461  0.0125 -0.5874
  413MPD2    C4 6164   3.551   4.253  14.829 -0.3695  0.2407  0.5449
  413MPD2    C5 6165   3.424   4.295  14.799 -0.6266 -0.1930  0.8198
  413MPD2     H 6166   3.688   4.547  14.920  0.6828 -0.5803 -1.4301
  413MPD2    H1 6167   3.572   4.148  14.816  1.3689  0.3547  2.5176
  413MPD2    H2 6168   3.285   4.455  14.793  0.0489  2.2710  1.1635
  413MPD2    H3 6169   3.349   4.222  14.775 -1.8978  1.3050  0.2223
  413MPD2     N 6170   3.781   4.311  14.882  0.2350 -0.0752 -0.5235
  413MPD2    H5 6171   3.853   4.382  14.874 -1.2049  1.2228 -1.7536
  413MPD2    N1 6172   3.443   4.656  14.888  0.3631  0.0950 -0.2821
  413MPD2    H7 6173   3.345   4.671  14.865  0.3796 -1.1158 -1.1685
  414TMC3    C1 6174   3.977   4.184  14.901 -0.3328  0.4435  0.4674
  414TMC3    C2 6175   4.012   4.052  14.885 -0.4714 -0.1028  0.4725
  414TMC3    C3 6176   4.131   4.008  14.930 -0.3266  0.4796 -0.1540
  414TMC3    C4 6177   4.053   4.272  14.975 -0.4703 -0.4866  0.2930
  414TMC3    C5 6178   4.175   4.219  15.019  0.8134  0.1214 -0.5531
  414TMC3    C6 6179   4.220   4.088  14.994  0.4652  0.5492 -0.4800
  414TMC3     C 6180   3.834   4.185  14.894 -0.2863 -0.5067 -1.0375
  414TMC3     O 6181   3.780   4.075  14.885 -0.4362  0.4442 -0.1696
  414TMC3     H 6182   3.956   3.982  14.825  0.2767 -0.6797  0.4391
  414TMC3    H1 6183   4.006   4.368  14.993 -1.2211 -0.0903 -3.7142
  414TMC3    H2 6184   4.308   4.041  15.039  0.2523  2.3047  1.8038
  414TMC3    C7 6185   4.277   4.296  15.089  0.6173  0.6130 -0.0978
  414TMC3    C8 6186   4.151   3.862  14.949  0.3803  0.3795 -0.1314
  414TMC3    O1 6187   4.399   4.271  15.077  0.4041 -0.1321 -0.3437
  414TMC3    O2 6188   4.049   3.797  14.920  0.6855 -0.2524 -0.1687
  415TMC3    C1 6189   4.415   1.845   9.867  0.0133 -0.2089  0.4898
  415TMC3    C2 6190   4.509   1.883   9.775 -0.1526 -0.4524  0.0734
  415TMC3    C3 6191   4.473   1.853   9.645 -0.1087  0.2034  0.2577
  415TMC3    C4 6192   4.287   1.802   9.846 -0.4331 -1.2318 -0.2592
  415TMC3    C5 6193   4.244   1.798   9.714  0.1386  0.0158 -0.1861
  415TMC3    C6 6194   4.339   1.830   9.617 -0.7570 -0.2788 -0.2197
  415TMC3     C 6195   4.437   1.877  10.003 -0.1208  1.0612 -0.4105
  415TMC3     O 6196   4.431   1.800  10.094 -0.6557 -0.4832 -0.6835
  415TMC3     H 6197   4.611   1.905   9.803 -0.2510 -1.4994  1.2542
  415TMC3    H1 6198   4.227   1.789   9.935 -0.1090 -0.3028  0.0937
  415TMC3    H2 6199   4.307   1.846   9.515  0.1639 -1.5102 -0.7096
  415TMC3    C7 6200   4.130   1.712   9.686 -0.4562  0.6890 -0.2759
  415TMC3    C8 6201   4.550   1.879   9.529  0.2465 -0.2123  0.0296
  415TMC3    O1 6202   4.110   1.690   9.567 -0.1850 -0.4931  0.3181
  415TMC3    O2 6203   4.514   1.820   9.430  0.3882  0.3200  0.2146
  416MPD2     C 6204   1.665   1.465  11.372 -0.1528 -0.2176  0.3935
  416MPD2    C1 6205   1.539   1.487  11.320 -0.1111  0.1960  0.6272
  416MPD2    C2 6206   1.495   1.418  11.209 -0.0887 -0.2884 -0.2715
  416MPD2    C3 6207   1.569   1.316  11.156  0.5681 -0.0530  0.1295
  416MPD2    C4 6208   1.695   1.291  11.211  0.5445  0.2897  0.4415
  416MPD2    C5 6209   1.747   1.367  11.320 -0.0108  1.1642  0.3178
  416MPD2     H 6210   1.400   1.445  11.165  0.6084 -0.4837 -1.8927
  416MPD2    H1 6211   1.760   1.223  11.155 -0.0949 -0.9904  1.2612
  416MPD2    H2 6212   1.702   1.517  11.460  0.4233  0.0578 -0.0164
  416MPD2    H3 6213   1.843   1.341  11.362 -0.9998 -0.4569  1.5937
  416MPD2     N 6214   1.520   1.224  11.061 -0.5131  0.3456 -0.1154
  416MPD2    H5 6215   1.582   1.147  11.039 -0.2020  0.9236 -1.2457
  416MPD2    N1 6216   1.472   1.590  11.393  0.5549  0.0068 -0.1697
  416MPD2    H7 6217   1.526   1.627  11.471 -0.2658  0.3253  0.2501
  417TMC3    C1 6218   1.296   1.765  11.433  0.6242 -0.3406  0.3472
  417TMC3    C2 6219   1.330   1.782  11.566 -0.3786 -0.5038  0.5303
  417TMC3    C3 6220   1.252   1.872  11.643 -0.2643 -0.6087 -0.0439
  417TMC3    C4 6221   1.203   1.844  11.370  0.0605 -0.3186 -0.6382
  417TMC3    C5 6222   1.128   1.928  11.445 -0.0727 -0.2596  0.2812
  417TMC3    C6 6223   1.154   1.942  11.576  0.3386  0.2162  0.0560
  417TMC3     C 6224   1.357   1.657  11.350 -0.8009  0.1047  0.5933
  417TMC3     O 6225   1.313   1.641  11.240 -0.5683 -0.2861 -0.5004
  417TMC3     H 6226   1.395   1.717  11.623  0.1773  2.2979  3.1354
  417TMC3    H1 6227   1.188   1.838  11.263  2.0541 -0.1523 -0.9307
  417TMC3    H2 6228   1.104   2.024  11.625 -1.7214 -0.8801 -0.1690
  417TMC3    C7 6229   1.003   1.976  11.391 -0.1707 -0.5876 -0.0473
  417TMC3    C8 6230   1.280   1.891  11.787 -0.7972 -0.9060  0.3525
  417TMC3    O1 6231   1.001   2.076  11.325 -0.0698  0.6564 -0.4519
  417TMC3    O2 6232   1.190   1.942  11.854  0.2627  0.1069  0.2831
  418TMC3    C1 6233   0.494   3.147   0.111  0.1874 -0.1589 -0.6095
  418TMC3    C2 6234   0.394   3.176   0.019 -0.5494  0.6227 -0.1177
  418TMC3    C3 6235   0.391   3.305  17.687  0.7738  0.2860 -0.0076
  418TMC3    C4 6236   0.587   3.235   0.155  0.3362  0.0072 -0.3199
  418TMC3    C5 6237   0.598   3.356   0.089  0.0060  0.3073 -0.1264
  418TMC3    C6 6238   0.491   3.394   0.011  0.4070  0.6364  0.5310
  418TMC3     C 6239   0.441   3.060   0.206 -0.8323  0.0929 -0.0840
  418TMC3     O 6240   0.319   3.065   0.226  0.0514  0.0685  0.0531
  418TMC3     H 6241   0.312   3.110  17.689  1.5123 -1.9271 -0.2229
  418TMC3    H1 6242   0.652   3.200   0.234  1.9602  1.1234 -1.1697
  418TMC3    H2 6243   0.477   3.498  17.675 -1.2734  0.5318  0.9584
  418TMC3    C7 6244   0.655   3.465   0.171 -0.2969 -0.5226 -0.6381
  418TMC3    C8 6245   0.260   3.370   0.025 -0.1228  0.3068 -0.5513
  418TMC3    O1 6246   0.661   3.426   0.289  0.2653 -0.1930  0.2715
  418TMC3    O2 6247   0.252   3.483  17.676  0.1629  0.3592 -0.4868
  419MPD2     C 6248   3.375   1.078  12.078 -0.3352 -0.6453 -0.3922
  419MPD2    C1 6249   3.398   1.214  12.065  0.2765 -0.5408 -0.1403
  419MPD2    C2 6250   3.359   1.284  12.174 -0.6155 -0.0706 -0.2649
  419MPD2    C3 6251   3.302   1.240  12.290 -0.2981  0.0934 -0.3182
  419MPD2    C4 6252   3.278   1.104  12.300 -0.5860 -0.2223 -0.7426
  419MPD2    C5 6253   3.324   1.026  12.195 -0.1318 -0.1931  0.4601
  419MPD2     H 6254   3.376   1.389  12.155  1.0314 -0.6395 -1.9687
  419MPD2    H1 6255   3.232   1.054  12.385  1.9780  1.5331  1.6651
  419MPD2    H2 6256   3.393   1.005  12.000 -1.4964 -0.0129 -1.2557
  419MPD2    H3 6257   3.300   0.920  12.203 -0.1435 -0.1499  0.9777
  419MPD2     N 6258   3.268   1.333  12.394  0.2185 -0.0455  0.6517
  419MPD2    H5 6259   3.286   1.430  12.370 -0.9093 -0.2289 -0.9384
  419MPD2    N1 6260   3.465   1.271  11.955 -0.0359  0.4267 -0.2169
  419MPD2    H7 6261   3.465   1.372  11.949 -0.2449  0.4951  0.8101
  420TMC3    C1 6262   3.204   1.444  12.583  0.7224  0.3838  0.5779
  420TMC3    C2 6263   3.143   1.553  12.521  0.2350  0.4969 -0.0804
  420TMC3    C3 6264   3.149   1.676  12.586  0.2926 -0.7954  0.7639
  420TMC3    C4 6265   3.267   1.454  12.704  0.0579 -0.0067 -0.8351
  420TMC3    C5 6266   3.271   1.580  12.762 -0.3888 -0.0106  0.9029
  420TMC3    C6 6267   3.219   1.694  12.704 -0.0528 -0.3183 -0.2403
  420TMC3     C 6268   3.210   1.313  12.510  0.3180 -0.3419 -0.6698
  420TMC3     O 6269   3.177   1.211  12.568  0.2518  0.8480  0.5675
  420TMC3     H 6270   3.097   1.550  12.424  1.8342 -1.3721 -0.7853
  420TMC3    H1 6271   3.281   1.359  12.753  1.1316  1.7682  2.2880
  420TMC3    H2 6272   3.184   1.766  12.777  1.9883 -0.3472  0.7728
  420TMC3    C7 6273   3.353   1.577  12.889  0.4316  0.0661  0.6592
  420TMC3    C8 6274   3.074   1.784  12.526 -0.1807  0.1425 -0.2292
  420TMC3    O1 6275   3.396   1.471  12.931  0.5638 -0.4257 -0.3421
  420TMC3    O2 6276   3.002   1.759  12.431  0.0182 -0.1134 -0.5395
  421TMC3    C1 6277   4.361   3.251  14.042  0.5386  0.0694 -0.3287
  421TMC3    C2 6278   4.361   3.322  14.159  0.4474  0.1220 -0.0626
  421TMC3    C3 6279   4.471   3.330  14.226  0.0891  0.5033 -0.6123
  421TMC3    C4 6280   4.471   3.179  13.999 -0.5947  0.0016 -0.5117
  421TMC3    C5 6281   4.582   3.177  14.077  0.4137 -0.2631  1.1729
  421TMC3    C6 6282   4.582   3.255  14.192  1.1501  0.1670 -0.0370
  421TMC3     C 6283   4.245   3.268  13.968  0.2173  0.1056  0.0902
  421TMC3     O 6284   4.152   3.330  14.016  0.0417 -0.0627 -0.3661
  421TMC3     H 6285   4.282   3.387  14.197 -0.3862  0.2432 -2.0122
  421TMC3    H1 6286   4.459   3.103  13.923 -2.0885  0.6420 -0.9142
  421TMC3    H2 6287   4.671   3.272  14.250 -0.3899  1.2240  2.0242
  421TMC3    C7 6288   4.709   3.125  14.039 -0.1596  0.1037  0.7520
  421TMC3    C8 6289   4.483   3.451  14.298 -0.0493  0.3375 -0.5860
  421TMC3    O1 6290   0.060   3.098  14.136 -0.7626 -0.3663 -0.0034
  421TMC3    O2 6291   4.394   3.489  14.380 -0.1446  0.4050 -0.4244
  422TMC3    C1 6292   2.173   4.327  12.611  0.1200  0.2528  0.2584
  422TMC3    C2 6293   2.162   4.442  12.685 -0.1175  0.1164  0.4382
  422TMC3    C3 6294   2.074   4.449  12.786  0.4719 -1.3005 -0.4480
  422TMC3    C4 6295   2.090   4.221  12.637 -0.3819 -0.3556  0.5041
  422TMC3    C5 6296   1.984   4.236  12.725  0.4659 -0.0322  0.3521
  422TMC3    C6 6297   1.979   4.348  12.806  0.1783  0.6053  0.7858
  422TMC3     C 6298   2.299   4.299  12.547  0.2373  0.5989  1.1789
  422TMC3     O 6299   2.359   4.396  12.496 -0.0468 -0.5801 -0.0267
  422TMC3     H 6300   2.234   4.522  12.672  0.4983 -0.7442 -1.4113
  422TMC3    H1 6301   2.095   4.130  12.577  2.2370  0.8967 -1.1857
  422TMC3    H2 6302   1.901   4.361  12.880 -1.0511  0.5415 -0.4934
  422TMC3    C7 6303   1.873   4.140  12.718 -0.3592  0.1264  0.0840
  422TMC3    C8 6304   2.089   4.553  12.884 -0.2160 -0.2404  0.1469
  422TMC3    O1 6305   1.898   4.031  12.663  1.2450  0.2824  0.1716
  422TMC3    O2 6306   2.191   4.623  12.874 -0.1824 -0.2148  0.1660
  423MPD2     C 6307   3.700   1.050   0.323  0.2650 -0.1442  0.0115
  423MPD2    C1 6308   3.691   0.946   0.417  0.1617 -0.0096  0.0978
  423MPD2    C2 6309   3.752   0.831   0.380  0.3189 -0.9254 -0.2983
  423MPD2    C3 6310   3.837   0.825   0.265  0.2275  0.1171  0.4300
  423MPD2    C4 6311   3.861   0.936   0.190  1.2592  0.0626  0.1188
  423MPD2    C5 6312   3.785   1.046   0.208 -0.5402 -0.5564 -0.1802
  423MPD2     H 6313   3.739   0.744   0.444 -1.9759  1.0691  1.9670
  423MPD2    H1 6314   3.938   0.932   0.114  1.9992  3.0913  0.7223
  423MPD2    H2 6315   3.632   1.135   0.324 -1.7218 -1.7009 -2.4465
  423MPD2    H3 6316   3.784   1.131   0.141  0.4127  1.3616  2.2487
  423MPD2     N 6317   3.897   0.706   0.218 -0.1696  0.2974  0.3535
  423MPD2    H5 6318   3.963   0.706   0.141 -0.1157 -0.7236  0.4078
  423MPD2    N1 6319   3.607   0.953   0.535  0.5987 -0.0808 -0.0339
  423MPD2    H7 6320   3.606   0.869   0.592  1.9781  0.9010  1.4335
  424TMC3    C1 6321   3.467   1.040   0.707  0.3707  0.0964 -0.2986
  424TMC3    C2 6322   3.537   0.997   0.815 -0.4453 -0.4367 -0.8527
  424TMC3    C3 6323   3.472   1.014   0.935  0.4661 -0.9246 -0.2808
  424TMC3    C4 6324   3.347   1.112   0.714 -0.1109  0.1400 -0.3679
  424TMC3    C5 6325   3.285   1.128   0.839  0.2132  0.7494 -0.8055
  424TMC3    C6 6326   3.344   1.064   0.945 -1.0946  0.3353 -1.1685
  424TMC3     C 6327   3.548   1.065   0.586  0.1689 -0.1186  0.0543
  424TMC3     O 6328   3.522   1.173   0.528 -0.6939 -0.1193  0.3129
  424TMC3     H 6329   3.614   0.924   0.795  0.8678  1.1688 -1.6360
  424TMC3    H1 6330   3.307   1.169   0.631 -0.2142  1.3622  0.5237
  424TMC3    H2 6331   3.298   1.066   1.042  1.3417  0.5488 -0.0153
  424TMC3    C7 6332   3.181   1.232   0.865  0.8500  0.2849  0.3714
  424TMC3    C8 6333   3.520   0.948   1.053 -0.0332 -0.1901 -0.0111
  424TMC3    O1 6334   3.158   1.311   0.771 -0.2808 -0.1502  0.4097
  424TMC3    O2 6335   3.441   0.942   1.150  0.3935 -0.0243 -0.1697
  425MPD2     C 6336   2.693   0.236  17.263 -0.1247  0.2863 -0.7376
  425MPD2    C1 6337   2.683   0.136  17.357 -0.1653  0.6800  0.0070
  425MPD2    C2 6338   2.572   0.128  17.435  0.8765 -0.0747 -0.0411
  425MPD2    C3 6339   2.467   0.214  17.423  0.3725  0.0204  0.4664
  425MPD2    C4 6340   2.481   0.320  17.334  0.2679 -0.5045  0.0402
  425MPD2    C5 6341   2.596   0.333  17.263  0.6495  0.5893 -0.2681
  425MPD2     H 6342   2.562   0.039  17.497  0.5690  0.2508  0.3815
  425MPD2    H1 6343   2.398   0.388  17.314 -1.5608 -2.4218  1.0754
  425MPD2    H2 6344   2.780   0.260  17.204 -1.2569 -0.0369 -2.5453
  425MPD2    H3 6345   2.604   0.424  17.204  2.5018  0.9155  0.4858
  425MPD2     N 6346   2.349   0.187  17.491 -0.0163  0.4560 -0.9074
  425MPD2    H5 6347   2.347   0.096  17.536 -1.6425  0.2773 -1.3527
  425MPD2    N1 6348   2.787   0.040  17.370 -0.3769 -0.4948 -0.5511
  425MPD2    H7 6349   2.855   0.031  17.295 -1.3366 -2.2821 -1.1935
  426TMC3    C1 6350   2.855   4.554  17.448  1.0006  0.6277  0.0026
  426TMC3    C2 6351   2.847   4.508  17.322  0.0239 -0.6630 -0.5750
  426TMC3    C3 6352   2.859   4.374  17.306  0.3000 -0.2589 -0.0964
  426TMC3    C4 6353   2.867   4.475  17.560 -0.5750  0.4896  0.5838
  426TMC3    C5 6354   2.885   4.344  17.541 -0.2403 -0.3917  0.3003
  426TMC3    C6 6355   2.886   4.289  17.413 -0.0535 -0.3463  0.0417
  426TMC3     C 6356   2.802   4.682  17.481 -0.5406 -0.0284  0.3116
  426TMC3     O 6357   2.762   4.690  17.595  0.1336 -0.3738 -0.1291
  426TMC3     H 6358   2.828   4.570  17.236 -0.3814 -0.7584 -0.5519
  426TMC3    H1 6359   2.870   4.523  17.657 -1.4516  2.4149 -0.3298
  426TMC3    H2 6360   2.907   4.183  17.402 -2.5838 -0.9670  1.1325
  426TMC3    C7 6361   2.868   4.246  17.656  0.6186 -0.5180  0.5961
  426TMC3    C8 6362   2.895   4.328  17.174  0.3299 -0.4289 -0.6736
  426TMC3    O1 6363   2.908   4.129  17.629  0.4284 -0.0177 -0.7690
  426TMC3    O2 6364   2.863   4.215  17.139 -0.0036 -0.1292 -0.3982
  427MPD2     C 6365   1.712   2.120  14.910 -0.0616 -0.0151  0.0713
  427MPD2    C1 6366   1.679   2.169  15.029  0.1592  0.6804 -0.2425
  427MPD2    C2 6367   1.562   2.247  15.042 -0.5331 -1.0855  0.2931
  427MPD2    C3 6368   1.468   2.237  14.942 -0.1340  0.2565  0.2388
  427MPD2    C4 6369   1.497   2.173  14.827  0.4969 -0.1880  0.3300
  427MPD2    C5 6370   1.620   2.123  14.806  0.2683  0.2122 -0.0615
  427MPD2     H 6371   1.538   2.300  15.134  2.0385  0.6127 -0.0140
  427MPD2    H1 6372   1.421   2.168  14.749 -0.2916  0.4227  1.0519
  427MPD2    H2 6373   1.806   2.075  14.880 -1.4262 -3.1875  0.5519
  427MPD2    H3 6374   1.650   2.067  14.718  4.1458  2.7180 -0.3454
  427MPD2     N 6375   1.332   2.286  14.956  0.0569  0.0322  0.3614
  427MPD2    H5 6376   1.265   2.249  14.890  1.2508 -0.3676 -0.6445
  427MPD2    N1 6377   1.758   2.138  15.148 -0.0849  0.7465 -1.3141
  427MPD2    H7 6378   1.722   2.164  15.239  2.4419  2.0750 -0.7253
  428TMC3    C1 6379   1.923   2.027  15.289  0.1612  0.4941 -0.4280
  428TMC3    C2 6380   1.847   2.000  15.393 -0.1273  0.1002  0.3438
  428TMC3    C3 6381   1.906   1.956  15.510 -0.3419  0.0094  0.1088
  428TMC3    C4 6382   2.059   2.015  15.292  0.1217  0.2261  0.3685
  428TMC3    C5 6383   2.115   1.972  15.408  0.4392  0.5854 -0.1769
  428TMC3    C6 6384   2.041   1.942  15.517 -0.4695  0.0569 -0.4158
  428TMC3     C 6385   1.863   2.048  15.154 -0.1288  0.3193 -0.1658
  428TMC3     O 6386   1.921   1.985  15.069  0.1146  0.1688  0.2421
  428TMC3     H 6387   1.739   2.009  15.392 -0.1492 -0.0953  0.8224
  428TMC3    H1 6388   2.112   2.049  15.203  1.1118 -0.1324  0.8273
  428TMC3    H2 6389   2.087   1.907  15.609 -1.8324 -0.2480  0.1424
  428TMC3    C7 6390   2.235   2.036  15.458  0.1455 -0.1144 -0.4185
  428TMC3    C8 6391   1.830   1.868  15.597  0.2627 -0.6506  0.7445
  428TMC3    O1 6392   2.246   2.045  15.581 -0.0152 -0.4021  0.9627
  428TMC3    O2 6393   1.894   1.791  15.669  0.2708 -0.2021  0.5077
  429MPD2     C 6394   1.594   1.962   0.023  1.1182 -0.5953  0.2187
  429MPD2    C1 6395   1.712   1.894   0.017 -0.3977 -0.5115 -0.3207
  429MPD2    C2 6396   1.820   1.956  17.650  0.4662 -0.3533 -0.1656
  429MPD2    C3 6397   1.804   2.080  17.585 -0.7739 -0.8072 -0.9141
  429MPD2    C4 6398   1.682   2.141  17.591  0.1180 -0.4349  0.2771
  429MPD2    C5 6399   1.574   2.077  17.655  0.2058 -0.0283  0.2477
  429MPD2     H 6400   1.914   1.903  17.658  0.4743 -0.3254 -0.0728
  429MPD2    H1 6401   1.662   2.244  17.562 -1.9620 -1.0097 -0.2998
  429MPD2    H2 6402   1.511   1.934   0.086  0.3228 -1.6036 -1.2907
  429MPD2    H3 6403   1.478   2.128  17.659  0.3353  0.2411 -0.0457
  429MPD2     N 6404   1.917   2.134  17.518 -0.1405  0.0782  0.4167
  429MPD2    H5 6405   2.002   2.079  17.524 -1.8862 -2.7822 -1.1971
  429MPD2    N1 6406   1.723   1.766   0.079  0.0502  0.2340 -0.2484
  429MPD2    H7 6407   1.815   1.725   0.071  0.2496  1.3394 -3.4062
  430TMC3    C1 6408   2.035   2.270  17.357 -0.2433 -0.2396  0.1131
  430TMC3    C2 6409   2.031   2.355  17.244  0.3144 -0.1019  0.0837
  430TMC3    C3 6410   2.149   2.415  17.205  0.8983 -0.3293  1.1047
  430TMC3    C4 6411   2.145   2.265  17.434 -0.7003 -0.5287  0.3686
  430TMC3    C5 6412   2.262   2.315  17.386 -0.0010  0.2123 -0.5979
  430TMC3    C6 6413   2.263   2.389  17.272  0.2327 -0.4723 -0.0004
  430TMC3     C 6414   1.912   2.231  17.421  0.4225 -0.1699 -0.0152
  430TMC3     O 6415   1.819   2.310  17.396 -0.2371 -0.1639  0.1164
  430TMC3     H 6416   1.939   2.371  17.188  0.4911 -2.5522 -0.8891
  430TMC3    H1 6417   2.147   2.212  17.529 -1.5200  0.0567  0.7060
  430TMC3    H2 6418   2.355   2.428  17.229  0.0857  0.7157  0.7516
  430TMC3    C7 6419   2.363   2.213  17.373 -0.3515 -0.2012 -0.5292
  430TMC3    C8 6420   2.152   2.453  17.071  0.7024 -0.3292  0.5454
  430TMC3    O1 6421   2.316   2.097  17.374  0.5488 -0.4109  0.1178
  430TMC3    O2 6422   2.091   2.388  16.985 -0.7424  0.4883 -0.3557
  431MPD2     C 6423   3.787   1.845  12.379 -0.3256  0.0193 -0.3735
  431MPD2    C1 6424   3.727   1.897  12.265  0.3397  0.2806 -0.2684
  431MPD2    C2 6425   3.708   1.807  12.162 -0.5551  0.6257 -0.5498
  431MPD2    C3 6426   3.746   1.673  12.166 -0.0363  0.5694 -0.9811
  431MPD2    C4 6427   3.816   1.629  12.275  0.4675 -0.4323  0.3212
  431MPD2    C5 6428   3.838   1.717  12.381  0.0426  0.5735  0.1229
  431MPD2     H 6429   3.653   1.842  12.076 -2.7919  1.3970  1.1991
  431MPD2    H1 6430   3.850   1.527  12.291 -0.1583 -0.5895  0.6863
  431MPD2    H2 6431   3.816   1.906  12.463 -1.1473  2.3769 -1.8025
  431MPD2    H3 6432   3.889   1.677  12.468 -0.2460 -0.1538 -0.0471
  431MPD2     N 6433   3.730   1.581  12.058 -0.0789  0.1828  0.2428
  431MPD2    H5 6434   3.769   1.487  12.065 -0.4224  0.0890  0.9019
  431MPD2    N1 6435   3.672   2.027  12.253  0.6260  0.3597 -0.6809
  431MPD2    H7 6436   3.649   2.057  12.159  2.0323  1.4300 -0.6786
  432TMC3    C1 6437   3.674   1.504  11.847 -0.3665  0.3986  0.2215
  432TMC3    C2 6438   3.796   1.459  11.817  0.0294 -0.1119  0.5363
  432TMC3    C3 6439   3.811   1.341  11.758  0.1041  0.2019 -0.3954
  432TMC3    C4 6440   3.559   1.439  11.808  0.1517 -0.1765 -0.0646
  432TMC3    C5 6441   3.581   1.310  11.762  0.0736  0.5328  0.2753
  432TMC3    C6 6442   3.705   1.266  11.721 -0.2212 -0.1852  0.7352
  432TMC3     C 6443   3.657   1.607  11.944  0.0639  0.0255 -0.1535
  432TMC3     O 6444   3.581   1.698  11.911  0.3668 -0.2407  0.4411
  432TMC3     H 6445   3.882   1.523  11.835 -0.5045  1.5948 -3.0214
  432TMC3    H1 6446   3.462   1.485  11.822  0.8785  1.8376 -1.5556
  432TMC3    H2 6447   3.721   1.166  11.682  1.1773 -0.4734  2.0327
  432TMC3    C7 6448   3.523   1.206  11.851  0.1728 -0.4355  0.1627
  432TMC3    C8 6449   3.932   1.315  11.692 -0.6203 -0.1442  0.0232
  432TMC3    O1 6450   3.542   1.088  11.829  0.1961  0.5051  0.8603
  432TMC3    O2 6451   3.924   1.241  11.594  0.2224  0.1120 -0.3546
  433MPD2     C 6452   1.791   0.158  10.722  0.4683  0.4795 -0.2157
  433MPD2    C1 6453   1.765   0.087  10.830  0.5856 -0.4732 -0.7126
  433MPD2    C2 6454   1.806   0.131  10.957  0.2179  0.4235  0.1413
  433MPD2    C3 6455   1.883   0.247  10.968 -0.1592 -0.2436  1.3254
  433MPD2    C4 6456   1.898   0.330  10.860  0.2678  0.2659  0.3617
  433MPD2    C5 6457   1.855   0.284  10.737 -0.1320  0.4691  0.2374
  433MPD2     H 6458   1.790   0.082  11.052  1.1040  1.2227  0.6961
  433MPD2    H1 6459   1.932   0.433  10.864  0.8597  0.1236 -1.4457
  433MPD2    H2 6460   1.758   0.122  10.625 -0.7919 -1.8258  1.0827
  433MPD2    H3 6461   1.858   0.352  10.653 -2.2829  1.3334  0.8679
  433MPD2     N 6462   1.930   0.280  11.096  0.3011 -0.0826  0.7970
  433MPD2    H5 6463   1.901   0.221  11.174 -0.5073 -1.1856 -0.3365
  433MPD2    N1 6464   1.691   4.696  10.806 -0.8276  0.3720 -0.4873
  433MPD2    H7 6465   1.672   4.666  10.711  0.3266  1.3339 -1.0266
  434TMC3    C1 6466   1.622   4.476  10.867 -0.9138  0.3139  0.5180
  434TMC3    C2 6467   1.649   4.380  10.961  0.2400  0.2511  0.2431
  434TMC3    C3 6468   1.694   4.254  10.914 -0.0739 -0.4907 -0.4651
  434TMC3    C4 6469   1.619   4.450  10.733 -0.4640 -0.6455 -0.1321
  434TMC3    C5 6470   1.671   4.333  10.697 -0.6499 -0.6203 -0.5069
  434TMC3    C6 6471   1.714   4.234  10.781 -0.4065  0.0898 -0.4995
  434TMC3     C 6472   1.643   4.614  10.910 -0.4628  0.4063  0.6130
  434TMC3     O 6473   1.644   4.634  11.030  0.2372 -0.1215 -0.5277
  434TMC3     H 6474   1.672   4.411  11.062  1.8703  0.5363 -0.2187
  434TMC3    H1 6475   1.585   4.516  10.654 -0.2854 -0.3071  0.0761
  434TMC3    H2 6476   1.739   4.138  10.737 -0.2078  0.4076 -1.0675
  434TMC3    C7 6477   1.656   4.314  10.559  0.0489 -0.0221 -0.2440
  434TMC3    C8 6478   1.755   4.168  11.012 -0.3179 -0.7786 -0.0456
  434TMC3    O1 6479   1.539   4.328  10.524  0.3085  0.4617  0.0964
  434TMC3    O2 6480   1.719   4.183  11.126  0.3652 -0.4423  0.2073
  435MPD2     C 6481   3.757   0.917  15.683 -0.2889 -0.3778 -0.2730
  435MPD2    C1 6482   3.771   0.915  15.816  0.3940  0.6150 -0.9083
  435MPD2    C2 6483   3.897   0.921  15.869 -0.1940 -0.9962 -0.1051
  435MPD2    C3 6484   4.012   0.922  15.779 -0.0908  0.2339  0.2295
  435MPD2    C4 6485   3.988   0.914  15.647 -0.2486 -0.0875 -0.0952
  435MPD2    C5 6486   3.862   0.923  15.599  0.6741  0.0080  0.1817
  435MPD2     H 6487   3.911   0.922  15.977 -1.4490 -0.2078  0.0403
  435MPD2    H1 6488   4.067   0.915  15.573  1.0348  1.5346  1.2992
  435MPD2    H2 6489   3.662   0.928  15.633 -0.5511 -2.2850 -0.1918
  435MPD2    H3 6490   3.840   0.907  15.494  0.8216  0.6007  0.0614
  435MPD2     N 6491   4.142   0.903  15.841  0.7113 -0.2311 -0.0495
  435MPD2    H5 6492   4.136   0.889  15.941 -0.9863 -1.2250 -0.2905
  435MPD2    N1 6493   3.660   0.917  15.902  0.2035  0.0028  0.9527
  435MPD2    H7 6494   3.674   0.896  16.000 -1.4687  0.0187  1.1986
  436TMC3    C1 6495   3.389   0.959  16.207 -0.0140 -0.1041 -0.1218
  436TMC3    C2 6496   3.480   0.959  16.105  0.2311  0.0451 -0.7741
  436TMC3    C3 6497   3.438   0.924  15.979 -0.2840 -0.5940 -0.1774
  436TMC3    C4 6498   3.253   0.928  16.186 -0.4729 -0.1166 -0.1939
  436TMC3    C5 6499   3.219   0.900  16.054 -0.9619  0.5176  0.6939
  436TMC3    C6 6500   3.310   0.890  15.952  0.3413  0.0231 -0.0721
  436TMC3     C 6501   3.414   1.035  16.332 -0.2421 -0.8272 -0.3203
  436TMC3     O 6502   3.511   1.011  16.404 -0.5496 -0.5885 -0.4675
  436TMC3     H 6503   3.573   1.007  16.132  0.9493 -1.2473 -0.9172
  436TMC3    H1 6504   3.190   0.915  16.273 -0.6748  0.6324 -0.2284
  436TMC3    H2 6505   3.286   0.868  15.849 -1.6494 -1.6714  0.7606
  436TMC3    C7 6506   3.093   0.825  16.039 -1.0370 -0.2172  0.1913
  436TMC3    C8 6507   3.531   0.921  15.865 -0.0634  0.4426  0.2790
  436TMC3    O1 6508   3.042   0.778  16.144 -0.0238  0.0818 -1.0289
  436TMC3    O2 6509   3.483   0.905  15.757 -0.9129  0.7818 -0.5210
  437TMC3    C1 6510   3.315   1.806  12.262 -0.6860  0.5577  0.3632
  437TMC3    C2 6511   3.253   1.791  12.138 -0.5636 -0.2819  0.9397
  437TMC3    C3 6512   3.210   1.910  12.076 -0.0447 -0.6987 -0.2247
  437TMC3    C4 6513   3.341   1.931  12.306 -0.5494 -0.5420  0.6365
  437TMC3    C5 6514   3.291   2.046  12.239  0.0925  0.3139 -0.1871
  437TMC3    C6 6515   3.221   2.037  12.124 -0.4632  0.2969  0.9413
  437TMC3     C 6516   3.378   1.692  12.319  0.3246  0.8931 -0.1914
  437TMC3     O 6517   3.331   1.589  12.282  0.5407 -0.6907  0.0697
  437TMC3     H 6518   3.248   1.690  12.100  2.6390 -0.7531  1.8406
  437TMC3    H1 6519   3.397   1.950  12.397  0.7556  0.2378 -0.3357
  437TMC3    H2 6520   3.209   2.123  12.059 -2.8434  0.3285  1.4155
  437TMC3    C7 6521   3.288   2.174  12.307  1.3354 -0.4801  0.0707
  437TMC3    C8 6522   3.120   1.894  11.965  0.1331 -0.5885  0.6269
  437TMC3    O1 6523   3.370   2.187  12.401 -0.0791 -0.5011 -0.4156
  437TMC3    O2 6524   3.061   1.787  11.953 -0.4671 -0.2873  0.3700
  438MPD2     C 6525   0.434   3.720  16.542 -0.2513  0.3865  0.3762
  438MPD2    C1 6526   0.494   3.600  16.593  0.8861 -0.2983 -0.2677
  438MPD2    C2 6527   0.467   3.559  16.721  0.4811 -0.8650  0.6970
  438MPD2    C3 6528   0.389   3.630  16.800  0.1862  0.0587 -0.2051
  438MPD2    C4 6529   0.337   3.750  16.756  0.5884 -1.0868 -0.5041
  438MPD2    C5 6530   0.355   3.795  16.629 -0.1391  0.3634 -0.1522
  438MPD2     H 6531   0.523   3.473  16.755  2.3236  0.1100  0.0981
  438MPD2    H1 6532   0.290   3.820  16.824 -1.5134 -0.2718 -2.7868
  438MPD2    H2 6533   0.451   3.762  16.443 -2.2768  1.4096  0.4766
  438MPD2    H3 6534   0.312   3.887  16.592 -1.3929 -0.4639 -0.7295
  438MPD2     N 6535   0.366   3.604  16.936 -0.0650  0.6595 -0.7556
  438MPD2    H5 6536   0.307   3.670  16.984 -1.0230 -0.6800 -0.0850
  438MPD2    N1 6537   0.584   3.514  16.519  0.1607  0.6066  0.6440
  438MPD2    H7 6538   0.615   3.426  16.560  2.1714  0.6910 -0.6975
  439TMC3    C1 6539   0.702   3.431  16.342  0.7177 -0.1808 -0.0370
  439TMC3    C2 6540   0.704   3.395  16.206 -0.8841 -0.3399  0.5820
  439TMC3    C3 6541   0.816   3.339  16.153 -0.2782 -0.0369 -0.4428
  439TMC3    C4 6542   0.814   3.414  16.418 -0.3633  0.3161  0.1064
  439TMC3    C5 6543   0.928   3.366  16.357 -0.2932  0.1427 -0.2797
  439TMC3    C6 6544   0.933   3.324  16.233  0.8728  0.0002  0.8307
  439TMC3     C 6545   0.599   3.523  16.383  0.0261 -0.5316 -0.2757
  439TMC3     O 6546   0.546   3.597  16.301 -0.2972 -0.5532 -0.3080
  439TMC3     H 6547   0.613   3.426  16.156 -0.4024 -0.8894 -0.6175
  439TMC3    H1 6548   0.823   3.457  16.517  1.0478 -0.1406  0.1757
  439TMC3    H2 6549   1.028   3.284  16.200 -0.5399 -1.1543 -1.8571
  439TMC3    C7 6550   1.053   3.351  16.445  0.5670  0.6347  0.1438
  439TMC3    C8 6551   0.822   3.295  16.014  0.1338 -0.3105 -0.2774
  439TMC3    O1 6552   1.035   3.340  16.565 -0.0077  0.7124  0.5024
  439TMC3    O2 6553   0.716   3.313  15.955  0.0188  0.0823  0.2029
  440MPD2     C 6554   3.350   3.569  15.008 -0.6007 -0.1093  0.0771
  440MPD2    C1 6555   3.482   3.618  15.032 -0.3720  0.5170 -0.8821
  440MPD2    C2 6556   3.583   3.528  15.021  0.4674  0.2304 -0.0393
  440MPD2    C3 6557   3.556   3.394  15.006 -0.1492 -0.0035  0.0313
  440MPD2    C4 6558   3.426   3.343  15.004 -0.2165  0.1175  0.8703
  440MPD2    C5 6559   3.323   3.430  14.993 -0.1096  0.4658  0.0400
  440MPD2     H 6560   3.682   3.552  15.058  0.6414 -1.3598  0.5033
  440MPD2    H1 6561   3.404   3.238  15.014 -0.5596  0.0577 -0.5159
  440MPD2    H2 6562   3.259   3.627  15.016 -1.4447 -1.5303  0.6056
  440MPD2    H3 6563   3.217   3.407  14.993  0.2188 -1.0232  0.8121
  440MPD2     N 6564   3.656   3.299  14.991 -0.4013  0.9316  0.1040
  440MPD2    H5 6565   3.636   3.204  15.021 -2.0435  1.3197  0.2382
  440MPD2    N1 6566   3.510   3.752  15.069  0.0209 -0.1602 -0.1642
  440MPD2    H7 6567   3.609   3.773  15.077  0.2727 -0.9994 -1.1712
  441TMC3    C1 6568   3.873   3.220  14.949  0.1719 -0.1844 -0.7383
  441TMC3    C2 6569   3.976   3.217  14.857  0.0264  0.3129 -0.2569
  441TMC3    C3 6570   4.083   3.141  14.874 -0.1760 -0.3487  0.6832
  441TMC3    C4 6571   3.881   3.145  15.065  0.0229  0.0244  0.0779
  441TMC3    C5 6572   4.003   3.082  15.092 -0.7809  0.1349  0.2365
  441TMC3    C6 6573   4.095   3.070  14.993  0.5043 -0.8131  0.2697
  441TMC3     C 6574   3.779   3.325  14.934 -0.3813  0.0605  0.0995
  441TMC3     O 6575   3.813   3.424  14.871  0.5063  1.0408 -0.1052
  441TMC3     H 6576   3.972   3.279  14.768 -1.1243  2.2515  1.1456
  441TMC3    H1 6577   3.817   3.172  15.148  0.5574 -0.7066  0.7219
  441TMC3    H2 6578   4.178   3.002  15.008  1.5368  0.5807  0.9044
  441TMC3    C7 6579   4.058   3.154  15.207 -0.5187  0.7906 -0.3480
  441TMC3    C8 6580   4.196   3.223  14.851  1.0600 -0.4862  0.5544
  441TMC3    O1 6581   3.996   3.251  15.249 -0.4786  0.7020  0.3705
  441TMC3    O2 6582   4.305   3.163  14.856 -0.4694  0.0810 -0.2027
  442MPD2     C 6583   2.576   4.350  16.617  0.8330  0.1396 -0.5732
  442MPD2    C1 6584   2.451   4.301  16.648  0.4120  0.1694 -0.3954
  442MPD2    C2 6585   2.423   4.168  16.616  0.6406 -0.4535  0.3574
  442MPD2    C3 6586   2.519   4.100  16.542 -0.3444 -0.1015 -0.1529
  442MPD2    C4 6587   2.645   4.150  16.512 -0.1220 -0.3595  0.0585
  442MPD2    C5 6588   2.673   4.277  16.550  0.1782  0.3720 -0.3411
  442MPD2     H 6589   2.329   4.122  16.646 -0.4143  1.1085 -0.5505
  442MPD2    H1 6590   2.733   4.101  16.472 -0.0101  0.3936 -0.6206
  442MPD2    H2 6591   2.611   4.449  16.645  0.9306  0.4723 -1.8490
  442MPD2    H3 6592   2.774   4.310  16.528  1.2190 -1.2988  1.8895
  442MPD2     N 6593   2.486   3.972  16.489 -0.0638  0.2362 -0.1827
  442MPD2    H5 6594   2.555   3.926  16.431 -0.6692  0.6118 -1.2145
  442MPD2    N1 6595   2.352   4.372  16.717 -0.5718  0.3037 -0.0134
  442MPD2    H7 6596   2.275   4.316  16.753 -0.9574 -0.5764 -2.2619
  443TMC3    C1 6597   2.225   4.557  16.791 -0.4394 -0.4272 -0.1766
  443TMC3    C2 6598   2.169   4.672  16.735  0.0855 -0.1676 -0.1774
  443TMC3    C3 6599   2.033   4.675  16.749 -0.5071  0.1181 -0.7012
  443TMC3    C4 6600   2.164   4.470  16.876  0.0883  0.4784  1.0179
  443TMC3    C5 6601   2.029   4.482  16.895  0.3458 -0.2645  0.4856
  443TMC3    C6 6602   1.967   4.585  16.828  1.3125  0.0305  0.5207
  443TMC3     C 6603   2.351   4.509  16.734 -0.1868 -0.1995  0.4040
  443TMC3     O 6604   2.414   4.591  16.670 -0.1838 -0.0053  0.0056
  443TMC3     H 6605   2.216   0.009  16.659  1.3154 -0.7625  0.1218
  443TMC3    H1 6606   2.209   4.385  16.926  0.6015 -0.4013 -0.9357
  443TMC3    H2 6607   1.859   4.592  16.831  1.1656 -1.5442 -0.7822
  443TMC3    C7 6608   1.950   4.368  16.920 -0.3204  0.3603  0.4524
  443TMC3    C8 6609   1.957   4.705  16.623  0.1420  0.5672 -0.8842
  443TMC3    O1 6610   1.851   4.364  16.848  0.2067  0.2159  0.0129
  443TMC3    O2 6611   1.860   4.636  16.605 -0.3760 -0.1424 -0.1701
  444MPD2     C 6612   2.719   3.808  17.033  0.0875 -0.6982  0.6583
  444MPD2    C1 6613   2.630   3.702  17.008  0.1755 -0.0828  0.1233
  444MPD2    C2 6614   2.677   3.602  16.915 -0.7056  0.0763 -0.3015
  444MPD2    C3 6615   2.798   3.605  16.851  0.3101  0.9287 -0.3195
  444MPD2    C4 6616   2.889   3.707  16.890  0.5610 -0.5453 -0.5745
  444MPD2    C5 6617   2.847   3.804  16.976 -0.6877  0.5776 -0.0895
  444MPD2     H 6618   2.608   3.525  16.882 -2.4965  1.4669  0.1474
  444MPD2    H1 6619   2.986   3.725  16.845  1.0244  1.7942  1.3645
  444MPD2    H2 6620   2.693   3.882  17.108  5.0615  1.0698  0.6270
  444MPD2    H3 6621   2.920   3.876  17.011 -1.8058  1.8710 -0.4273
  444MPD2     N 6622   2.837   3.503  16.761 -0.1003 -0.2143 -0.2579
  444MPD2    H5 6623   2.775   3.424  16.751 -0.5823  0.1890 -0.4587
  444MPD2    N1 6624   2.505   3.695  17.075 -0.0045  0.2600 -0.5997
  444MPD2    H7 6625   2.459   3.605  17.067  0.1912  0.0170  0.9309
  445TMC3    C1 6626   2.968   3.390  16.598 -0.3753  0.4618  0.0788
  445TMC3    C2 6627   2.860   3.333  16.533 -0.4868 -0.0175 -0.3101
  445TMC3    C3 6628   2.891   3.224  16.449 -0.0162  0.1695 -1.0392
  445TMC3    C4 6629   3.095   3.366  16.559  0.5827 -0.1072 -0.3982
  445TMC3    C5 6630   3.120   3.265  16.471 -0.0646  0.4415  0.5543
  445TMC3    C6 6631   3.020   3.191  16.421 -1.1223 -0.0556  0.2714
  445TMC3     C 6632   2.958   3.502  16.689  0.5391  0.6188 -0.1219
  445TMC3     O 6633   3.043   3.588  16.676 -0.7282 -0.3262  0.3161
  445TMC3     H 6634   2.761   3.371  16.558  0.2648  1.7233 -0.0209
  445TMC3    H1 6635   3.184   3.405  16.607 -0.5550 -1.8385  3.1321
  445TMC3    H2 6636   3.033   3.118  16.341  1.9919 -0.4743  1.1520
  445TMC3    C7 6637   3.250   3.247  16.410  0.3640 -0.4562  0.8045
  445TMC3    C8 6638   2.786   3.149  16.382  0.1978  0.2715  0.5627
  445TMC3    O1 6639   3.305   3.353  16.383  0.2494  0.1277  0.0854
  445TMC3    O2 6640   2.813   3.035  16.352 -0.2629  0.1777  0.3044
  446MPD2     C 6641   1.738   4.553  11.450  0.0737 -0.4697  0.0461
  446MPD2    C1 6642   1.733   4.442  11.367  0.7783  1.0040  0.6272
  446MPD2    C2 6643   1.852   4.384  11.322  0.2926  0.2552 -0.0017
  446MPD2    C3 6644   1.976   4.430  11.365 -0.2475  0.1790 -0.5642
  446MPD2    C4 6645   1.980   4.537  11.453  0.8901  0.1812  0.1913
  446MPD2    C5 6646   1.864   4.600  11.488  0.2147  0.0750 -0.3602
  446MPD2     H 6647   1.853   4.303  11.250  1.2345  0.2745 -0.0020
  446MPD2    H1 6648   2.073   4.578  11.492  1.7017 -1.7950  0.3339
  446MPD2    H2 6649   1.648   4.594  11.496  1.9518 -0.8416  4.1058
  446MPD2    H3 6650   1.871   4.681  11.560  0.0979 -0.8981  0.7407
  446MPD2     N 6651   2.088   4.362  11.316  0.3703 -0.3118 -0.4700
  446MPD2    H5 6652   2.085   4.289  11.245  0.3907 -0.7498 -0.0186
  446MPD2    N1 6653   1.613   4.386  11.319 -0.8030 -0.1781  0.9462
  446MPD2    H7 6654   1.616   4.305  11.259 -0.2228 -0.1455  0.9321
  447TMC3    C1 6655   2.311   4.330  11.262  0.0623  0.5288  0.1783
  447TMC3    C2 6656   2.268   4.326  11.130 -0.4088 -0.0222  0.7775
  447TMC3    C3 6657   2.354   4.248  11.053 -0.1762  0.4792  0.6345
  447TMC3    C4 6658   2.437   4.291  11.307 -0.3713 -0.1900  0.2314
  447TMC3    C5 6659   2.514   4.214  11.216  0.2629  0.0512 -0.1238
  447TMC3    C6 6660   2.474   4.191  11.088 -0.0451  0.5084 -0.7966
  447TMC3     C 6661   2.217   4.381  11.356  0.6075  0.4252 -0.7784
  447TMC3     O 6662   2.258   4.444  11.454  0.2163 -0.2762  0.5705
  447TMC3     H 6663   2.186   4.385  11.091  0.1563  0.2274 -0.0236
  447TMC3    H1 6664   2.475   4.327  11.401  1.5366 -1.2926 -0.1040
  447TMC3    H2 6665   2.531   4.122  11.026  0.7168  0.0946  0.3748
  447TMC3    C7 6666   2.644   4.170  11.255 -0.2036  0.2354  0.7329
  447TMC3    C8 6667   2.330   4.260  10.906 -0.0248 -0.4174 -0.2318
  447TMC3    O1 6668   2.703   4.246  11.330 -0.5576  0.0437 -0.2605
  447TMC3    O2 6669   2.217   4.287  10.869  0.4412 -0.5568  0.2177
  448TMC3    C1 6670   0.425   0.388  16.870 -0.0638  0.6106 -0.1408
  448TMC3    C2 6671   0.377   0.308  16.765 -0.0778  0.4177  0.2149
  448TMC3    C3 6672   0.448   0.197  16.736 -0.4794  0.0941 -0.3612
  448TMC3    C4 6673   0.548   0.367  16.930  0.2786 -0.4124  0.7131
  448TMC3    C5 6674   0.620   0.263  16.889  0.0719  0.0277 -0.1596
  448TMC3    C6 6675   0.575   0.175  16.789 -0.0480  0.1195  0.1430
  448TMC3     C 6676   0.331   0.454  16.952  0.0749 -0.2476 -0.0653
  448TMC3     O 6677   0.224   0.460  16.902 -0.6119  0.1452  0.3389
  448TMC3     H 6678   0.291   0.334  16.704  0.9424  1.7693 -0.6517
  448TMC3    H1 6679   0.593   0.436  17.000  1.3317  0.4681 -0.8407
  448TMC3    H2 6680   0.638   0.094  16.755 -0.5356  0.1673 -0.8968
  448TMC3    C7 6681   0.754   0.228  16.939 -0.6533 -0.3741 -0.6620
  448TMC3    C8 6682   0.408   0.133  16.610  0.2427 -0.6575  0.2225
  448TMC3    O1 6683   0.816   0.144  16.874 -0.3257  0.0690 -0.5032
  448TMC3    O2 6684   0.315   0.183  16.545  0.2828 -0.5559  0.2782
  449MPD2     C 6685   2.030   2.611  13.699 -0.2868 -0.7359 -0.4354
  449MPD2    C1 6686   1.979   2.742  13.677  0.4641 -0.1916  0.3002
  449MPD2    C2 6687   1.841   2.762  13.675  0.7142 -0.1743  0.0657
  449MPD2    C3 6688   1.753   2.662  13.712 -0.8341  0.2090 -0.2132
  449MPD2    C4 6689   1.807   2.535  13.733 -0.7282 -0.3837 -0.5998
  449MPD2    C5 6690   1.941   2.511  13.709 -1.1230  0.4773 -0.4223
  449MPD2     H 6691   1.805   2.859  13.645 -0.3132 -0.1814  1.2751
  449MPD2    H1 6692   1.737   2.454  13.750 -2.6066  1.1549 -0.9834
  449MPD2    H2 6693   2.136   2.596  13.680 -0.2505 -0.5598 -0.3750
  449MPD2    H3 6694   1.975   2.410  13.731  0.2733  0.9996 -0.1605
  449MPD2     N 6695   1.618   2.705  13.729  0.5240  0.3209 -0.6589
  449MPD2    H5 6696   1.594   2.799  13.699 -1.3052 -0.5132 -1.8236
  449MPD2    N1 6697   2.055   2.858  13.642 -0.2303 -0.1859 -0.4160
  449MPD2    H7 6698   1.999   2.942  13.624 -1.5161 -0.7463  0.9718
  450TMC3    C1 6699   2.230   3.011  13.601 -0.1612 -0.3800  0.2052
  450TMC3    C2 6700   2.267   3.023  13.470  1.1461  1.4565  0.7549
  450TMC3    C3 6701   2.222   3.134  13.406 -0.3998 -0.1032 -0.2489
  450TMC3    C4 6702   2.149   3.111  13.657 -0.5849  0.2682 -1.0618
  450TMC3    C5 6703   2.094   3.213  13.587  0.1285  0.1772 -0.4654
  450TMC3    C6 6704   2.136   3.224  13.459  0.7356  0.3912  0.3370
  450TMC3     C 6705   2.191   2.875  13.637  0.6676 -0.0871 -0.4211
  450TMC3     O 6706   2.272   2.784  13.641 -0.0398  0.2851 -0.5152
  450TMC3     H 6707   2.295   2.935  13.413 -0.0700  1.3481  0.3240
  450TMC3    H1 6708   2.101   3.099  13.753  3.1151  1.6691  0.9761
  450TMC3    H2 6709   2.121   3.317  13.406 -0.5267 -1.8900 -3.2737
  450TMC3    C7 6710   1.956   3.223  13.613 -0.8302  0.5599  0.2602
  450TMC3    C8 6711   2.255   3.162  13.271 -0.1563  0.6213 -0.2368
  450TMC3    O1 6712   1.903   3.124  13.669  0.3478  0.2222 -0.0104
  450TMC3    O2 6713   2.185   3.245  13.214  0.2358 -0.2038  0.2495
  451MPD2     C 6714   2.639   1.931   1.630  0.4813 -1.0462  0.8387
  451MPD2    C1 6715   2.696   1.977   1.508 -0.0497 -0.0507  0.0133
  451MPD2    C2 6716   2.831   1.959   1.482 -0.2381  0.7644  0.3255
  451MPD2    C3 6717   2.906   1.895   1.579 -0.0701  0.2913  0.8961
  451MPD2    C4 6718   2.844   1.851   1.695  0.2579  0.0945 -0.4334
  451MPD2    C5 6719   2.710   1.870   1.723 -0.1738 -0.4087 -0.1016
  451MPD2     H 6720   2.868   1.988   1.385  0.8456  0.8849  0.7813
  451MPD2    H1 6721   2.901   1.808   1.777 -0.1643  0.0434 -0.1667
  451MPD2    H2 6722   2.534   1.931   1.656  0.5106  1.0723  0.9438
  451MPD2    H3 6723   2.677   1.834   1.820  0.9492  0.7488  0.6988
  451MPD2     N 6724   3.038   1.859   1.557 -0.3342  0.0766  0.1443
  451MPD2    H5 6725   3.072   1.792   1.626  0.1303 -0.8076 -0.9448
  451MPD2    N1 6726   2.610   2.031   1.404 -0.4079 -0.1743 -0.3322
  451MPD2    H7 6727   2.510   2.020   1.414 -0.2909 -0.1050  0.9221
  452TMC3    C1 6728   3.219   1.803   1.419 -0.0302 -0.0484 -0.5007
  452TMC3    C2 6729   3.295   1.733   1.510  0.0435  0.4059 -0.4201
  452TMC3    C3 6730   3.397   1.652   1.470  0.5072  0.8653  0.5592
  452TMC3    C4 6731   3.269   1.811   1.292 -0.2455 -0.1069 -0.3244
  452TMC3    C5 6732   3.360   1.716   1.244  0.0046  0.1609 -0.0243
  452TMC3    C6 6733   3.435   1.643   1.334 -0.6031 -0.0859  0.0140
  452TMC3     C 6734   3.113   1.896   1.453 -0.3765 -0.6449 -0.1132
  452TMC3     O 6735   3.098   1.998   1.390 -0.4113  0.2589 -0.2040
  452TMC3     H 6736   3.265   1.730   1.614 -0.4736  2.1798 -0.5336
  452TMC3    H1 6737   3.220   1.882   1.226  1.4511 -0.2411 -1.7303
  452TMC3    H2 6738   3.497   1.557   1.311 -1.0744 -0.6387  0.7992
  452TMC3    C7 6739   3.433   1.774   1.129 -0.4041 -0.7722  0.5820
  452TMC3    C8 6740   3.441   1.553   1.562 -0.0943  0.5444 -0.2285
  452TMC3    O1 6741   3.360   1.827   1.046  0.0074  0.7636  0.0544
  452TMC3    O2 6742   3.368   1.521   1.656  0.2706 -0.4101 -0.3899
  453TMC3    C1 6743   4.494   3.793  11.858  0.0378 -0.1852 -0.4651
  453TMC3    C2 6744   4.366   3.755  11.890 -1.0432 -0.6265 -0.2352
  453TMC3    C3 6745   4.276   3.728  11.785 -0.0622  0.5634 -0.5082
  453TMC3    C4 6746   4.535   3.796  11.730 -0.4610  0.3075 -0.2865
  453TMC3    C5 6747   4.447   3.754  11.632  0.1848 -0.3094  0.4282
  453TMC3    C6 6748   4.317   3.725  11.656  0.3840 -0.2842  0.1288
  453TMC3     C 6749   4.583   3.851  11.959  0.0566 -0.1050  0.5100
  453TMC3     O 6750   4.676   3.918  11.918 -0.0720  0.3258  0.5654
  453TMC3     H 6751   4.326   3.772  11.989 -0.5409  0.3144 -0.1992
  453TMC3    H1 6752   4.623   3.857  11.714 -0.7245  0.4321 -1.2731
  453TMC3    H2 6753   4.244   3.711  11.577  0.5177  1.6774 -0.3595
  453TMC3    C7 6754   4.476   3.784  11.496  0.7379  0.3071 -0.1369
  453TMC3    C8 6755   4.156   3.656  11.805  0.4414 -0.6373 -0.2574
  453TMC3    O1 6756   4.385   3.778  11.415  0.8446 -0.1314  0.5184
  453TMC3    O2 6757   4.064   3.679  11.727  0.0640 -0.2461 -0.0824
  454MPD2     C 6758   3.472   3.567  16.097  0.3506  0.7344 -0.2560
  454MPD2    C1 6759   3.381   3.626  16.017  0.1673 -0.1192 -0.1264
  454MPD2    C2 6760   3.324   3.746  16.048 -0.2149 -1.0824 -0.4775
  454MPD2    C3 6761   3.355   3.807  16.166  0.0428  0.8910  0.5589
  454MPD2    C4 6762   3.450   3.744  16.247  0.5741 -0.5291 -0.6607
  454MPD2    C5 6763   3.512   3.627  16.212 -0.3427  0.6013  0.7330
  454MPD2     H 6764   3.251   3.789  15.980  0.3186 -2.8172 -2.1666
  454MPD2    H1 6765   3.479   3.792  16.340 -0.6299  0.9243 -1.0315
  454MPD2    H2 6766   3.506   3.465  16.087  1.0215  0.8224  1.1454
  454MPD2    H3 6767   3.586   3.586  16.279  0.0717 -0.8518 -0.6154
  454MPD2     N 6768   3.281   3.917  16.203 -0.3696 -0.9820 -0.1189
  454MPD2    H5 6769   3.200   3.942  16.147  0.0163  1.9387  0.6249
  454MPD2    N1 6770   3.329   3.566  15.901  0.1146  0.4186 -0.1544
  454MPD2    H7 6771   3.252   3.615  15.857 -0.7704  0.3854  1.3426
  455TMC3    C1 6772   3.144   3.969  16.385  0.5603 -0.4004 -0.4673
  455TMC3    C2 6773   3.136   4.014  16.513  0.7470  0.3362 -0.2823
  455TMC3    C3 6774   3.026   3.973  16.586 -0.7513  0.4141 -0.2237
  455TMC3    C4 6775   3.047   3.888  16.329  0.5497  0.6998  0.4170
  455TMC3    C5 6776   2.930   3.856  16.397 -0.6338  1.1523 -0.4628
  455TMC3    C6 6777   2.928   3.892  16.533  0.2952 -0.3488 -0.0948
  455TMC3     C 6778   3.282   3.973  16.329  0.0438  0.7154  0.2105
  455TMC3     O 6779   3.373   3.988  16.411  0.1022  0.3337 -0.9055
  455TMC3     H 6780   3.211   4.082  16.551  0.2285  0.6831  0.1160
  455TMC3    H1 6781   3.064   3.843  16.231  3.1777 -0.1871  1.2927
  455TMC3    H2 6782   2.849   3.866  16.602  0.1534  1.2398  0.3567
  455TMC3    C7 6783   2.863   3.733  16.361  0.3760  0.5276  0.5632
  455TMC3    C8 6784   2.989   4.068  16.689 -0.0458 -0.8484  0.1369
  455TMC3    O1 6785   2.749   3.716  16.396  0.3942  0.2562 -0.0383
  455TMC3    O2 6786   2.923   4.026  16.782  0.6056  0.0528  0.2316
  456MPD2     C 6787   0.922   3.591  15.830 -0.4328 -0.8509  0.1572
  456MPD2    C1 6788   1.002   3.575  15.939 -0.3565 -0.1805  0.7270
  456MPD2    C2 6789   0.966   3.617  16.070 -0.4603 -0.5903 -0.2281
  456MPD2    C3 6790   0.849   3.689  16.089 -0.3819  0.1943  0.8306
  456MPD2    C4 6791   0.767   3.698  15.978  0.5516  0.9562  0.6241
  456MPD2    C5 6792   0.801   3.651  15.854  0.3236 -0.8351 -0.0470
  456MPD2     H 6793   1.014   3.583  16.161 -0.8028 -0.7551 -0.1079
  456MPD2    H1 6794   0.671   3.747  15.991  0.1539  0.1880  0.6576
  456MPD2    H2 6795   0.946   3.555  15.731  1.9368 -0.9911  0.7579
  456MPD2    H3 6796   0.722   3.651  15.780  0.5037  1.4906 -0.2150
  456MPD2     N 6797   0.824   3.770  16.203  0.5866 -0.5354 -0.3673
  456MPD2    H5 6798   0.893   3.774  16.277  2.8774 -2.0917 -2.4012
  456MPD2    N1 6799   1.122   3.505  15.912  0.8408 -0.2154  0.6726
  456MPD2    H7 6800   1.123   3.472  15.816 -0.0448  1.1581  0.1921
  457TMC3    C1 6801   0.720   3.912  16.357  0.0689  0.9971  0.0170
  457TMC3    C2 6802   0.667   4.037  16.362 -0.0849  0.3045  0.0859
  457TMC3    C3 6803   0.667   4.105  16.480  0.4351  0.0096 -0.1478
  457TMC3    C4 6804   0.768   3.841  16.463  0.2824 -0.0140  0.1509
  457TMC3    C5 6805   0.774   3.914  16.576  0.2869 -0.0652 -0.3759
  457TMC3    C6 6806   0.732   4.048  16.583 -0.0140  0.1922 -0.0122
  457TMC3     C 6807   0.712   3.854  16.221 -0.2859 -0.8200  0.7214
  457TMC3     O 6808   0.611   3.877  16.157 -0.6539 -0.5996 -0.3261
  457TMC3     H 6809   0.634   4.081  16.268 -3.2146 -1.1603  0.4812
  457TMC3    H1 6810   0.793   3.736  16.458 -2.2508 -0.6505  0.7146
  457TMC3    H2 6811   0.745   4.091  16.681 -0.5726 -0.7363  0.4716
  457TMC3    C7 6812   0.878   3.872  16.665  0.1497 -0.8416 -0.3626
  457TMC3    C8 6813   0.642   4.251  16.491  0.1244 -0.4134  0.5129
  457TMC3    O1 6814   0.916   3.756  16.659 -0.1553  0.3455 -0.3693
  457TMC3    O2 6815   0.688   4.308  16.590  0.2422  0.6003 -0.2259
  458MPD2     C 6816   3.159   2.677  12.366  0.4611 -0.5101 -0.4315
  458MPD2    C1 6817   3.255   2.598  12.417 -0.4455 -0.1809 -0.3247
  458MPD2    C2 6818   3.257   2.462  12.386  0.2563  0.1053 -0.2161
  458MPD2    C3 6819   3.175   2.403  12.292  0.0485 -0.0645 -0.8370
  458MPD2    C4 6820   3.083   2.483  12.223 -0.1835 -0.5009 -0.1002
  458MPD2    C5 6821   3.075   2.615  12.265 -0.0700 -0.6630  0.2878
  458MPD2     H 6822   3.339   2.403  12.425 -1.4603 -0.1445  3.0198
  458MPD2    H1 6823   3.013   2.452  12.148 -1.4927 -0.9556  1.3112
  458MPD2    H2 6824   3.147   2.779  12.401 -0.7073 -0.4939 -0.8818
  458MPD2    H3 6825   2.995   2.677  12.226  2.1080  1.1905 -1.1795
  458MPD2     N 6826   3.196   2.265  12.254 -0.0064 -0.1863 -0.2594
  458MPD2    H5 6827   3.138   2.228  12.179  0.1610  2.3748 -1.6445
  458MPD2    N1 6828   3.343   2.664  12.510 -0.0415  0.1873  0.0392
  458MPD2    H7 6829   3.349   2.765  12.519 -1.6720  0.0657  2.2804
  459TMC3    C1 6830   3.516   2.660  12.672  1.0275  0.0051 -0.1738
  459TMC3    C2 6831   3.569   2.775  12.619 -0.1569 -0.1253  0.4490
  459TMC3    C3 6832   3.672   2.835  12.689 -0.0583  0.2640  0.0168
  459TMC3    C4 6833   3.564   2.598  12.785  0.0692  0.6087 -0.3627
  459TMC3    C5 6834   3.680   2.650  12.834 -0.1487  0.3589  0.1334
  459TMC3    C6 6835   3.735   2.772  12.796 -0.0762 -0.8811  0.2391
  459TMC3     C 6836   3.404   2.593  12.609 -0.2553  0.0487  0.4284
  459TMC3     O 6837   3.373   2.484  12.653 -0.5249 -0.2202  0.6064
  459TMC3     H 6838   3.527   2.827  12.534  0.5845 -0.3726 -0.0677
  459TMC3    H1 6839   3.501   2.527  12.836 -0.0805 -0.1268 -1.5602
  459TMC3    H2 6840   3.826   2.803  12.846 -1.7427  0.1748  2.5980
  459TMC3    C7 6841   3.759   2.551  12.894 -0.5114  0.2552  0.2046
  459TMC3    C8 6842   3.751   2.952  12.641  0.0037 -0.3418 -0.5299
  459TMC3    O1 6843   3.868   2.584  12.938 -0.4191  0.6924  0.1187
  459TMC3    O2 6844   3.845   2.996  12.712  0.7360  0.5010 -0.1093
  460MPD2     C 6845   2.572   4.240  10.634  0.4307  0.1777 -0.7665
  460MPD2    C1 6846   2.454   4.274  10.691  0.4734 -0.4408  0.1707
  460MPD2    C2 6847   2.348   4.321  10.613  0.0835  0.0921  0.4382
  460MPD2    C3 6848   2.368   4.339  10.476  0.4102  0.1367 -0.5789
  460MPD2    C4 6849   2.490   4.315  10.428  0.3618 -0.7581 -0.6998
  460MPD2    C5 6850   2.592   4.259  10.499 -0.2432 -0.7709  1.0021
  460MPD2     H 6851   2.258   4.351  10.665 -0.8001 -1.4907 -0.1526
  460MPD2    H1 6852   2.498   4.342  10.323 -0.0391  0.6443 -0.3796
  460MPD2    H2 6853   2.649   4.202  10.700 -1.8718 -1.3583  1.0109
  460MPD2    H3 6854   2.684   4.232  10.449 -0.3408 -2.2495  1.6348
  460MPD2     N 6855   2.274   4.382  10.379 -0.1265  1.0658  0.1121
  460MPD2    H5 6856   2.303   4.391  10.282 -0.5337 -0.0849 -0.1161
  460MPD2    N1 6857   2.446   4.251  10.836  0.0642 -1.1258  0.5159
  460MPD2    H7 6858   2.535   4.235  10.883  0.4755  0.7771  0.4044
  461TMC3    C1 6859   2.074   4.466  10.288  0.5815 -0.5915 -0.1440
  461TMC3    C2 6860   2.120   4.450  10.160 -0.8164  0.3923 -0.2226
  461TMC3    C3 6861   2.043   4.505  10.060  1.0710 -0.1922  0.3852
  461TMC3    C4 6862   1.963   4.537  10.315  0.8434  0.4145 -0.1735
  461TMC3    C5 6863   1.902   4.600  10.212  0.1977  0.5264  0.1156
  461TMC3    C6 6864   1.936   4.589  10.077 -0.1379  0.1469 -0.5160
  461TMC3     C 6865   2.139   4.412  10.403  0.2363 -1.0525  0.5881
  461TMC3     O 6866   2.076   4.406  10.509  0.1606  0.1210 -0.5710
  461TMC3     H 6867   2.214   4.400  10.137  0.0711  2.4973 -1.1530
  461TMC3    H1 6868   1.926   4.551  10.417  1.8201  1.2536  0.0690
  461TMC3    H2 6869   1.897   4.656  10.001 -1.6969  0.2769  0.4019
  461TMC3    C7 6870   1.795   4.685  10.252 -0.2196 -0.1243  0.3521
  461TMC3    C8 6871   2.099   4.487   9.925  0.7722  0.6946  0.1247
  461TMC3    O1 6872   1.708   4.650  10.330 -0.4962  0.0947 -0.0141
  461TMC3    O2 6873   2.220   4.476   9.916 -0.0923  0.0134 -0.5817
  462TMC3    C1 6874   2.215   1.619   0.116 -0.5388  0.1158 -0.3358
  462TMC3    C2 6875   2.179   1.560  17.692 -0.0951 -0.5236 -0.1762
  462TMC3    C3 6876   2.246   1.449  17.655  0.6911  0.1805  0.7402
  462TMC3    C4 6877   2.312   1.565   0.192  0.3395 -0.7444 -0.3295
  462TMC3    C5 6878   2.369   1.446   0.165 -0.0920 -0.1967  0.8857
  462TMC3    C6 6879   2.330   1.384   0.052 -0.5594 -0.5362  0.3301
  462TMC3     C 6880   2.117   1.714   0.162 -0.4213 -0.4691  0.1270
  462TMC3     O 6881   2.012   1.712   0.096  0.2561  0.6895  0.1476
  462TMC3     H 6882   2.095   1.594  17.633 -0.2205  0.8167  0.7813
  462TMC3    H1 6883   2.322   1.603   0.293 -1.8314  1.7268 -1.0404
  462TMC3    H2 6884   2.391   1.298   0.024 -0.6918 -0.5464  0.0707
  462TMC3    C7 6885   2.407   1.367   0.285 -0.2849 -0.2516  0.6445
  462TMC3    C8 6886   2.193   1.380  17.542 -0.5263 -0.2173 -0.0599
  462TMC3    O1 6887   2.363   1.397   0.395 -0.4714 -0.1358  0.1292
  462TMC3    O2 6888   2.088   1.413  17.495 -0.3945  0.1398  0.3649
  463MPD2     C 6889   3.233   0.538   1.964 -0.0541 -0.2423  0.2397
  463MPD2    C1 6890   3.176   0.593   1.851 -0.0204 -1.4573 -0.3178
  463MPD2    C2 6891   3.252   0.677   1.775  0.0742  0.1393  0.0208
  463MPD2    C3 6892   3.387   0.706   1.821  0.8782  0.2092 -0.3354
  463MPD2    C4 6893   3.446   0.646   1.928 -0.0134 -0.0345  0.5769
  463MPD2    C5 6894   3.366   0.564   2.001 -0.5051  0.5742  0.2542
  463MPD2     H 6895   3.214   0.714   1.681 -0.9401  0.1437  0.4401
  463MPD2    H1 6896   3.547   0.659   1.965  1.0108 -0.4078 -2.0568
  463MPD2    H2 6897   3.180   0.469   2.028 -1.9456 -1.3399 -2.4736
  463MPD2    H3 6898   3.405   0.529   2.096  0.0238 -1.2288 -0.6297
  463MPD2     N 6899   3.473   0.802   1.749 -0.1554 -0.1734  0.6674
  463MPD2    H5 6900   3.570   0.817   1.776  0.4068 -0.3581 -1.2282
  463MPD2    N1 6901   3.042   0.561   1.812 -0.6139 -0.1119 -0.1455
  463MPD2    H7 6902   3.007   0.599   1.725 -0.3142 -0.7260 -0.5345
  464TMC3    C1 6903   2.836   0.440   1.791  0.1685 -0.0516  0.1350
  464TMC3    C2 6904   2.789   0.537   1.710 -0.7614  0.4969  0.0440
  464TMC3    C3 6905   2.673   0.513   1.640 -0.2267 -0.7240  1.1342
  464TMC3    C4 6906   2.778   0.317   1.802 -0.4839 -0.7534  0.8118
  464TMC3    C5 6907   2.670   0.292   1.723 -0.2922  0.2879  0.1196
  464TMC3    C6 6908   2.620   0.391   1.637  0.6842 -0.1526  1.1142
  464TMC3     C 6909   2.961   0.463   1.871  0.4136  0.2147 -0.6486
  464TMC3     O 6910   2.983   0.383   1.962 -0.4086  0.5937  0.3051
  464TMC3     H 6911   2.828   0.638   1.718 -1.7711  1.0583 -2.0039
  464TMC3    H1 6912   2.830   0.241   1.861  1.7570  1.9596  2.3640
  464TMC3    H2 6913   2.529   0.371   1.581  0.6522  2.0688  0.3650
  464TMC3    C7 6914   2.610   0.159   1.733  0.0600  0.5841  0.1841
  464TMC3    C8 6915   2.632   0.621   1.557  0.6724  0.4544 -0.5558
  464TMC3    O1 6916   2.638   0.103   1.841  0.2337 -0.4924  0.0894
  464TMC3    O2 6917   2.719   0.691   1.514  0.2784  0.1151 -0.2250
  465MPD2     C 6918   0.410   4.248  17.385  0.1187  0.2014 -0.6661
  465MPD2    C1 6919   0.285   4.226  17.441 -0.3021  0.1851  0.0221
  465MPD2    C2 6920   0.198   4.141  17.375 -0.3124 -0.3903 -0.2417
  465MPD2    C3 6921   0.231   4.081  17.257 -0.7749 -0.1516 -0.0144
  465MPD2    C4 6922   0.356   4.106  17.204 -0.0599  0.2051 -0.0616
  465MPD2    C5 6923   0.448   4.189  17.267  0.4870  0.0519 -0.1515
  465MPD2     H 6924   0.098   4.128  17.415 -0.1504 -1.0936 -0.0729
  465MPD2    H1 6925   0.390   4.063  17.110 -1.5828  2.2558 -1.5614
  465MPD2    H2 6926   0.475   4.318  17.437  2.2954 -2.4111  0.1216
  465MPD2    H3 6927   0.543   4.204  17.218  0.0959  0.5652 -0.7690
  465MPD2     N 6928   0.124   4.010  17.199 -0.2205 -0.3634  0.2171
  465MPD2    H5 6929   0.032   4.025  17.241 -0.7295 -1.4966 -0.5098
  465MPD2    N1 6930   0.229   4.282  17.559  0.1290  0.1942  0.6902
  465MPD2    H7 6931   0.134   4.256  17.583 -0.4656  1.5442 -0.2056
  466TMC3    C1 6932   4.506   3.850  17.087  0.1836 -1.0454  0.4649
  466TMC3    C2 6933   4.489   3.845  16.951 -0.3049 -0.0315 -0.1724
  466TMC3    C3 6934   4.595   3.872  16.865 -0.7573 -0.6305 -0.2799
  466TMC3    C4 6935   4.630   3.863  17.144 -0.0553 -0.0513  0.1027
  466TMC3    C5 6936   0.012   3.874  17.052 -0.1831  0.6849 -0.2320
  466TMC3    C6 6937   4.719   3.881  16.916 -0.4188  0.4384 -0.6508
  466TMC3     C 6938   4.396   3.828  17.172  0.6636 -0.6175  0.2510
  466TMC3     O 6939   4.418   3.845  17.290  0.0028  0.2381  0.9833
  466TMC3     H 6940   4.396   3.836  16.895 -0.8797  1.0353  0.6170
  466TMC3    H1 6941   4.655   3.840  17.247  0.7892  1.6293  0.2825
  466TMC3    H2 6942   0.076   3.902  16.845  0.4016  0.4722  0.2800
  466TMC3    C7 6943   0.142   3.913  17.103  0.2523  0.7847  0.2866
  466TMC3    C8 6944   4.573   3.975  16.765 -0.5803 -0.1436 -0.2378
  466TMC3    O1 6945   0.245   3.882  17.045  0.5342 -0.3479 -0.2005
  466TMC3    O2 6946   4.612   3.956  16.648 -0.3409 -0.4706 -0.4606
  467TMC3    C1 6947   1.219   2.390  14.115 -0.4427  0.5425  0.1649
  467TMC3    C2 6948   1.174   2.363  13.990  0.1155  0.7453 -0.9334
  467TMC3    C3 6949   1.039   2.358  13.978 -0.6304 -0.5684  0.1120
  467TMC3    C4 6950   1.141   2.428  14.217  0.7005  0.2140  0.2482
  467TMC3    C5 6951   1.008   2.427  14.203  0.0601  0.2817  0.2676
  467TMC3    C6 6952   0.956   2.392  14.078 -0.2352 -0.0442  0.1999
  467TMC3     C 6953   1.366   2.394  14.123  1.0116  0.5011 -0.2020
  467TMC3     O 6954   1.413   2.493  14.173  0.1031 -0.6108 -0.3268
  467TMC3     H 6955   1.244   2.359  13.907  1.3635  1.7745  0.0589
  467TMC3    H1 6956   1.182   2.458  14.312 -2.3955 -2.2052  2.3196
  467TMC3    H2 6957   0.849   2.383  14.067 -0.1881  0.3742 -0.5877
  467TMC3    C7 6958   0.943   2.386  14.326  0.1414  0.2400 -0.1913
  467TMC3    C8 6959   0.998   2.361  13.837 -0.5426  0.1653 -0.0014
  467TMC3    O1 6960   1.007   2.378  14.432  0.6072  0.4303 -0.0896
  467TMC3    O2 6961   0.897   2.427  13.818  0.3904  0.1402  0.2092
  468MPD2     C 6962   3.877   0.265  11.220  0.0505  0.0444  0.2589
  468MPD2    C1 6963   3.915   0.227  11.088  0.0180  0.0661 -0.4086
  468MPD2    C2 6964   3.924   0.097  11.060 -0.2156  0.0522 -0.3785
  468MPD2    C3 6965   3.913   0.001  11.156  0.1711  0.0082 -0.2970
  468MPD2    C4 6966   3.867   0.034  11.281  0.5223 -0.3129  0.1415
  468MPD2    C5 6967   3.852   0.166  11.312  0.4260  0.3216 -0.2756
  468MPD2     H 6968   3.959   0.072  10.960 -1.4315 -1.0167 -0.5287
  468MPD2    H1 6969   3.844   4.682  11.356  2.3178 -0.5347  0.4935
  468MPD2    H2 6970   3.881   0.370  11.246  0.0077  0.3156 -0.8331
  468MPD2    H3 6971   3.820   0.199  11.410 -1.0304 -0.0116 -0.6395
  468MPD2     N 6972   3.926   4.586  11.134 -0.3048  0.2154 -0.3720
  468MPD2    H5 6973   3.887   4.523  11.204 -2.3132 -0.7974 -2.4016
  468MPD2    N1 6974   3.957   0.319  10.985 -0.0469 -0.2327 -0.0997
  468MPD2    H7 6975   4.004   0.285  10.902 -1.0425 -0.2078 -0.6713
  469TMC3    C1 6976   4.001   0.526  10.883 -0.4831  0.0245 -0.2438
  469TMC3    C2 6977   4.120   0.477  10.838  0.1146 -0.1064 -0.8300
  469TMC3    C3 6978   4.213   0.562  10.792  0.1391 -0.5114 -0.1061
  469TMC3    C4 6979   3.971   0.654  10.876  0.3080  0.1302 -0.2182
  469TMC3    C5 6980   4.067   0.736  10.823 -0.2217 -0.0155  0.3030
  469TMC3    C6 6981   4.190   0.694  10.783 -0.5463 -0.6291  0.9142
  469TMC3     C 6982   3.941   0.452  10.988 -0.8554 -0.1679  0.6408
  469TMC3     O 6983   3.872   0.514  11.069 -0.1279 -0.2644 -0.0077
  469TMC3     H 6984   4.144   0.372  10.825  2.0507  0.3035 -0.6009
  469TMC3    H1 6985   3.878   0.692  10.917 -0.1608 -2.7212  1.3635
  469TMC3    H2 6986   4.262   0.773  10.765  0.9302 -1.3625  3.5316
  469TMC3    C7 6987   4.084   0.845  10.915  0.8205 -0.3816 -1.2330
  469TMC3    C8 6988   4.347   0.518  10.749 -0.2346  0.0236  0.0044
  469TMC3    O1 6989   4.192   0.845  10.973 -0.1668  0.0171  0.4735
  469TMC3    O2 6990   4.412   0.605  10.691 -0.3856 -0.0731  0.6519
  470TMC3    C1 6991   1.477   1.218   0.701 -0.2149  0.1245  0.3838
  470TMC3    C2 6992   1.430   1.313   0.782  1.0048  0.3441  0.3315
  470TMC3    C3 6993   1.476   1.308   0.918 -0.5042  0.0081 -0.3072
  470TMC3    C4 6994   1.548   1.103   0.741 -0.0683 -0.4147  0.0762
  470TMC3    C5 6995   1.581   1.101   0.874  0.0194  0.9650  0.7769
  470TMC3    C6 6996   1.549   1.203   0.964 -0.3055 -0.4704  0.4300
  470TMC3     C 6997   1.453   1.220   0.559 -1.0575  0.0649  0.6982
  470TMC3     O 6998   1.499   1.122   0.497  0.1621 -0.0670 -0.6696
  470TMC3     H 6999   1.386   1.405   0.745  0.5079 -0.0001  0.0860
  470TMC3    H1 7000   1.568   1.018   0.678  1.0165  1.4156 -2.0761
  470TMC3    H2 7001   1.582   1.199   1.068 -0.5750 -1.7047  0.4627
  470TMC3    C7 7002   1.647   0.983   0.927  0.4342 -0.2824 -0.8334
  470TMC3    C8 7003   1.508   1.440   0.972  0.0681  0.4294  0.2203
  470TMC3    O1 7004   1.708   0.915   0.847 -0.4659 -0.1711  0.8062
  470TMC3    O2 7005   1.424   1.527   0.959  0.0971 -0.2425 -0.2297
  471MPD2     C 7006   2.342   2.747  16.701 -0.1919  0.3988 -0.4160
  471MPD2    C1 7007   2.325   2.613  16.694  0.0460 -0.6846 -0.4175
  471MPD2    C2 7008   2.276   2.544  16.812  0.0617  1.0158  0.0683
  471MPD2    C3 7009   2.264   2.618  16.927  0.0143 -0.9619  0.0314
  471MPD2    C4 7010   2.312   2.747  16.932  0.1388  0.3859 -0.0979
  471MPD2    C5 7011   2.332   2.812  16.818 -0.5340  0.6922 -0.6516
  471MPD2     H 7012   2.255   2.438  16.798  0.0866  0.9156  0.7955
  471MPD2    H1 7013   2.313   2.814  17.018 -1.0707 -0.2540  0.4227
  471MPD2    H2 7014   2.378   2.798  16.612  1.1240  1.8154  0.9568
  471MPD2    H3 7015   2.350   2.919  16.823 -1.4760  0.9126 -2.0891
  471MPD2     N 7016   2.224   2.564  17.052  0.3364  0.0894 -0.2935
  471MPD2    H5 7017   2.245   2.615  17.137  1.7260 -0.4420 -0.3155
  471MPD2    N1 7018   2.346   2.538  16.578 -0.1968  0.0502 -0.4930
  471MPD2    H7 7019   2.331   2.437  16.575 -0.8988  0.1052  0.8968
  472TMC3    C1 7020   2.388   2.485  16.355 -1.0214  0.6314  0.4051
  472TMC3    C2 7021   2.307   2.512  16.245 -0.9724 -0.4226 -0.3221
  472TMC3    C3 7022   2.263   2.398  16.179  0.4590 -0.2147  0.3079
  472TMC3    C4 7023   2.416   2.364  16.402  0.4730  0.0659 -0.5969
  472TMC3    C5 7024   2.368   2.265  16.324  0.2923  0.1512  0.5822
  472TMC3    C6 7025   2.292   2.276  16.217  0.2061  0.5087  0.4414
  472TMC3     C 7026   2.367   2.594  16.451  0.1514  0.4570 -0.3691
  472TMC3     O 7027   2.367   2.709  16.408 -0.2809  0.2823 -0.3430
  472TMC3     H 7028   2.251   2.604  16.242 -0.2376  0.1063  1.5335
  472TMC3    H1 7029   2.475   2.336  16.488 -4.3520  0.0565  2.6657
  472TMC3    H2 7030   2.265   2.195  16.150  0.7869 -0.2633  1.1312
  472TMC3    C7 7031   2.349   2.145  16.399  0.0453 -0.0797 -0.3353
  472TMC3    C8 7032   2.118   2.420  16.156 -0.1361  0.6266  0.3958
  472TMC3    O1 7033   2.365   2.149  16.519 -0.0907 -0.1375 -0.0466
  472TMC3    O2 7034   2.089   2.483  16.058  0.0143  0.2516  0.3034
  473MPD2     C 7035   2.075   4.568  14.109  0.7208  0.1086 -0.7173
  473MPD2    C1 7036   2.189   4.599  14.041  0.1326 -0.8259 -0.1602
  473MPD2    C2 7037   2.265   4.701  14.086 -0.5550 -0.6450  0.2327
  473MPD2    C3 7038   2.237   0.046  14.201 -0.8035  0.3809  0.0975
  473MPD2    C4 7039   2.127   0.016  14.276  0.5009 -0.4869 -0.1929
  473MPD2    C5 7040   2.044   4.641  14.221  0.2290 -0.2627  0.3435
  473MPD2     H 7041   2.345   0.021  14.026 -1.2438 -0.5198 -0.5841
  473MPD2    H1 7042   2.102   0.051  14.376  2.4451 -0.3145  0.2320
  473MPD2    H2 7043   2.006   4.493  14.073  1.1973 -0.0891 -1.2222
  473MPD2    H3 7044   1.963   4.609  14.285 -1.8774 -1.0812 -2.7226
  473MPD2     N 7045   2.319   0.140  14.263 -0.0492  0.1888  0.5474
  473MPD2    H5 7046   2.274   0.182  14.344 -0.5064  0.3755  0.1962
  473MPD2    N1 7047   2.216   4.542  13.911 -0.1851  0.5373 -0.1947
  473MPD2    H7 7048   2.304   4.571  13.871  0.5215  0.3932  1.2663
  474TMC3    C1 7049   2.494   0.296  14.295  0.2114 -0.2117 -0.0771
  474TMC3    C2 7050   2.400   0.391  14.329 -1.0851  0.4993  0.1607
  474TMC3    C3 7051   2.451   0.508  14.380  0.0131  0.2467 -0.4661
  474TMC3    C4 7052   2.628   0.323  14.299 -0.5807  0.3738 -0.3581
  474TMC3    C5 7053   2.670   0.441  14.353 -0.2113  0.4597  0.5650
  474TMC3    C6 7054   2.585   0.543  14.394  0.2857  0.0795  0.3806
  474TMC3     C 7055   2.445   0.182  14.220 -0.3228 -0.2582 -0.3946
  474TMC3     O 7056   2.520   0.113  14.151 -0.0548 -0.0007  0.7673
  474TMC3     H 7057   2.295   0.385  14.301 -0.8207 -2.2656 -0.2703
  474TMC3    H1 7058   2.704   0.255  14.260  0.5005  1.0198  0.6187
  474TMC3    H2 7059   2.624   0.642  14.414 -0.0020  0.1773  0.4506
  474TMC3    C7 7060   2.809   0.460  14.377  0.5316  0.1850  0.2718
  474TMC3    C8 7061   2.356   0.623  14.380 -0.4144  0.2257 -0.4259
  474TMC3    O1 7062   2.890   0.402  14.302 -0.2700  0.0567  0.5645
  474TMC3    O2 7063   2.233   0.602  14.396 -0.2957  0.4295 -0.0908
  475MPD2     C 7064   0.370   3.058  10.828  0.1512  0.3061  0.7057
  475MPD2    C1 7065   0.280   2.980  10.764 -0.1324 -0.2224  0.8639
  475MPD2    C2 7066   0.155   2.975  10.820  0.0356  0.3568  0.2991
  475MPD2    C3 7067   0.132   3.053  10.930  0.8784  0.2508 -0.3961
  475MPD2    C4 7068   0.225   3.131  10.989 -0.6536  0.4705 -0.0725
  475MPD2    C5 7069   0.348   3.133  10.940  0.1938  0.6293 -0.5979
  475MPD2     H 7070   0.084   2.902  10.784  1.8988 -1.5911  0.6040
  475MPD2    H1 7071   0.193   3.191  11.073  1.8629  0.2477  1.0434
  475MPD2    H2 7072   0.467   3.062  10.778 -1.1369  1.0973 -1.7577
  475MPD2    H3 7073   0.426   3.197  10.978 -0.5765  0.5779  1.0557
  475MPD2     N 7074   4.722   3.044  10.987 -0.2311 -0.0055  0.6087
  475MPD2    H5 7075   4.658   2.983  10.936  1.4616 -0.9869 -0.3359
  475MPD2    N1 7076   0.322   2.894  10.655 -0.3446 -0.0303  0.9778
  475MPD2    H7 7077   0.420   2.904  10.633  0.4192 -3.9385  2.6631
  476TMC3    C1 7078   0.329   2.743  10.482 -0.0199  0.4771 -0.4056
  476TMC3    C2 7079   0.277   2.641  10.411 -0.0070  0.3822 -0.0978
  476TMC3    C3 7080   0.347   2.539  10.357  0.0920  0.1777  0.5616
  476TMC3    C4 7081   0.458   2.749  10.497 -0.6053  0.4793 -0.5521
  476TMC3    C5 7082   0.534   2.646  10.432  0.0892  0.0979 -0.0038
  476TMC3    C6 7083   0.480   2.541  10.362 -0.0547 -0.4631  0.9219
  476TMC3     C 7084   0.244   2.810  10.579 -0.5111  0.9634 -0.3421
  476TMC3     O 7085   0.124   2.792  10.573  0.2481  0.4793  0.0985
  476TMC3     H 7086   0.171   2.651  10.389 -0.2071  1.4404  1.3122
  476TMC3    H1 7087   0.512   2.842  10.513 -1.0722  0.9816 -1.9044
  476TMC3    H2 7088   0.544   2.482  10.297 -2.1103 -1.6747  0.0171
  476TMC3    C7 7089   0.675   2.651  10.436 -0.3419  0.4777  0.1414
  476TMC3    C8 7090   0.277   2.423  10.310 -0.2507  0.2184  0.9577
  476TMC3    O1 7091   0.735   2.572  10.368 -0.1922  0.6906 -0.5983
  476TMC3    O2 7092   0.154   2.427  10.316  0.1595  0.3433  0.2029
  477MPD2     C 7093   2.723   3.729  11.646 -0.0586 -1.0361 -0.1369
  477MPD2    C1 7094   2.669   3.806  11.756 -0.6690  0.4290  0.1144
  477MPD2    C2 7095   2.756   3.837  11.853  0.4845 -0.1299 -0.6721
  477MPD2    C3 7096   2.885   3.796  11.848  0.2886  0.4605  0.1387
  477MPD2    C4 7097   2.934   3.725  11.746  0.4593 -0.8128  0.0700
  477MPD2    C5 7098   2.853   3.696  11.639  0.3782  0.3401 -0.8267
  477MPD2     H 7099   2.724   3.906  11.931 -1.2292 -1.7514  0.0673
  477MPD2    H1 7100   3.040   3.703  11.734  0.5913  0.0784 -0.4541
  477MPD2    H2 7101   2.663   3.723  11.556  0.1874 -0.8237 -0.3143
  477MPD2    H3 7102   2.889   3.653  11.546 -1.2588  1.1802 -1.8649
  477MPD2     N 7103   2.959   3.822  11.959 -0.5962 -0.3337 -0.0207
  477MPD2    H5 7104   2.919   3.883  12.030  0.0404  1.4896 -1.2209
  477MPD2    N1 7105   2.531   3.844  11.746 -0.2029 -0.1913  0.2444
  477MPD2    H7 7106   2.487   3.823  11.657  0.0244  2.6150 -0.5247
  478TMC3    C1 7107   2.354   3.993  11.779  0.2193 -0.0202 -0.3074
  478TMC3    C2 7108   2.335   4.115  11.825 -0.2530  0.3352  0.1601
  478TMC3    C3 7109   2.255   4.200  11.754  1.3323  0.4003  0.2166
  478TMC3    C4 7110   2.286   3.949  11.668  0.7046 -0.3839  0.4555
  478TMC3    C5 7111   2.217   4.039  11.596 -0.0902 -0.3650 -0.6190
  478TMC3    C6 7112   2.207   4.170  11.628 -0.1214  0.4991 -0.0126
  478TMC3     C 7113   2.468   3.925  11.836  0.5883  0.0273 -0.5355
  478TMC3     O 7114   2.508   3.963  11.945 -0.0879 -0.5176 -0.5755
  478TMC3     H 7115   2.382   4.149  11.917  0.4715 -1.3896  0.4268
  478TMC3    H1 7116   2.289   3.845  11.637  1.6460 -0.2801  0.1981
  478TMC3    H2 7117   2.148   4.243  11.572 -0.9350  1.1515  1.7071
  478TMC3    C7 7118   2.231   4.015  11.451  0.9889  0.2491 -0.1026
  478TMC3    C8 7119   2.234   4.327  11.820 -0.6570  0.5498 -0.9186
  478TMC3    O1 7120   2.335   3.969  11.407  0.2068  0.4681  0.5134
  478TMC3    O2 7121   2.226   4.331  11.942 -0.6032  0.5687 -0.1725
  479MPD2     C 7122   2.497   2.221  15.284  0.9099  0.2709  0.9208
  479MPD2    C1 7123   2.414   2.189  15.388 -0.0145 -0.2611  0.1942
  479MPD2    C2 7124   2.416   2.261  15.503  0.5671  0.9412 -0.0252
  479MPD2    C3 7125   2.482   2.380  15.513  0.6863 -0.3360  0.6944
  479MPD2    C4 7126   2.578   2.409  15.416  0.2229 -0.1576  0.1665
  479MPD2    C5 7127   2.581   2.330  15.303 -0.7983  0.1675  0.4009
  479MPD2     H 7128   2.359   2.235  15.591  0.1468 -1.7514 -1.0946
  479MPD2    H1 7129   2.634   2.502  15.422  1.3095 -0.5987 -3.1420
  479MPD2    H2 7130   2.496   2.172  15.187  0.6237  1.8811  0.1024
  479MPD2    H3 7131   2.648   2.367  15.226 -1.5240 -1.8989 -1.2185
  479MPD2     N 7132   2.482   2.464  15.629 -0.7726  0.5594 -0.4062
  479MPD2    H5 7133   2.562   2.526  15.638 -0.1647 -0.3304  0.3194
  479MPD2    N1 7134   2.318   2.094  15.363  0.0528  0.6492  0.0726
  479MPD2    H7 7135   2.315   2.058  15.268 -2.8188  2.0174 -0.3592
  480TMC3    C1 7136   2.048   2.320  15.725  1.0006  0.0923  0.5783
  480TMC3    C2 7137   2.003   2.323  15.596  0.3360  0.7147 -0.2332
  480TMC3    C3 7138   2.085   2.383  15.507 -0.1858 -0.0655  0.4023
  480TMC3    C4 7139   2.168   2.363  15.760 -0.6713  0.7166  0.4425
  480TMC3    C5 7140   2.243   2.437  15.671  0.1747  0.0213 -0.2835
  480TMC3    C6 7141   2.204   2.445  15.542  0.1617  0.5640  0.1498
  480TMC3     C 7142   1.980   2.231  15.809  0.5955 -0.0963 -1.0421
  480TMC3     O 7143   2.051   2.176  15.893 -0.1804 -0.2331  0.2523
  480TMC3     H 7144   1.907   2.282  15.566  1.2014 -1.2468 -0.2792
  480TMC3    H1 7145   2.202   2.349  15.862  2.3143 -0.6074 -0.7467
  480TMC3    H2 7146   2.266   2.508  15.480  0.4561 -0.2419 -0.3668
  480TMC3    C7 7147   2.382   2.472  15.719  0.2088  0.3474 -0.2561
  480TMC3    C8 7148   2.039   2.379  15.373 -0.1252 -0.7636  0.0526
  480TMC3    O1 7149   2.384   2.533  15.825  0.0578 -0.1272 -0.0730
  480TMC3    O2 7150   1.924   2.348  15.347  0.1398 -0.1566  0.0576
  481MPD2     C 7151   4.015   1.485  13.833  0.4033 -0.1857 -0.3941
  481MPD2    C1 7152   3.903   1.427  13.894  0.1134  0.4708  0.4430
  481MPD2    C2 7153   3.888   1.403  14.026  0.0278 -0.4494  0.3956
  481MPD2    C3 7154   3.992   1.430  14.107  0.1610 -0.2555  1.0011
  481MPD2    C4 7155   4.114   1.493  14.052  0.0159 -0.1221  0.5243
  481MPD2    C5 7156   4.118   1.520  13.919 -0.0892  0.7100  0.1407
  481MPD2     H 7157   3.793   1.371  14.068  0.0783 -1.8826 -0.5597
  481MPD2    H1 7158   4.192   1.534  14.114 -1.0403  2.4387  0.1481
  481MPD2    H2 7159   4.022   1.497  13.725 -1.2253 -1.2839 -0.6201
  481MPD2    H3 7160   4.204   1.567  13.872  0.3740 -0.1749  0.0974
  481MPD2     N 7161   3.991   1.416  14.247  0.0478  0.3305 -0.4216
  481MPD2    H5 7162   4.073   1.428  14.307  0.5104  0.6423 -1.1196
  481MPD2    N1 7163   3.803   1.404  13.800  0.3807 -0.3005 -0.7279
  481MPD2    H7 7164   3.822   1.413  13.701 -1.2320  3.1234 -0.7499
  482TMC3    C1 7165   3.578   1.335  13.725  0.9615 -0.4799 -0.0072
  482TMC3    C2 7166   3.496   1.231  13.744 -0.3521  0.1677 -0.3940
  482TMC3    C3 7167   3.410   1.197  13.649 -0.2345 -0.4478 -0.7961
  482TMC3    C4 7168   3.579   1.407  13.609 -0.4153 -0.1443 -0.3038
  482TMC3    C5 7169   3.477   1.375  13.521 -0.8405 -0.8172  0.0166
  482TMC3    C6 7170   3.392   1.272  13.539 -0.0346  0.6083 -0.2776
  482TMC3     C 7171   3.672   1.361  13.833  0.0385  0.2410 -0.5643
  482TMC3     O 7172   3.632   1.308  13.936 -0.6322  0.3914 -0.2802
  482TMC3     H 7173   3.505   1.166  13.831 -1.2943  0.5175 -0.0320
  482TMC3    H1 7174   3.642   1.494  13.594  0.8803 -1.6051 -3.2494
  482TMC3    H2 7175   3.312   1.250  13.469  0.2888 -1.5805  0.0317
  482TMC3    C7 7176   3.451   1.452  13.400 -0.0541 -0.0430 -0.0787
  482TMC3    C8 7177   3.343   1.072  13.661  0.7095 -0.2869 -0.5614
  482TMC3    O1 7178   3.376   1.402  13.318  0.4776 -0.1397  0.5091
  482TMC3    O2 7179   3.415   0.987  13.706  0.0240  0.5592  0.2190
  483TMC3    C1 7180   1.197   0.319   1.094 -0.1976 -0.1069  0.3108
  483TMC3    C2 7181   1.316   0.328   1.023 -0.2120  0.3590 -0.3317
  483TMC3    C3 7182   1.376   0.451   1.014  0.0168  0.0876  0.6503
  483TMC3    C4 7183   1.157   0.423   1.175  0.0710 -0.1265 -0.2015
  483TMC3    C5 7184   1.234   0.535   1.186 -1.0371  0.7229  0.3868
  483TMC3    C6 7185   1.328   0.556   1.095 -0.3757 -0.7027 -0.2465
  483TMC3     C 7186   1.160   0.189   1.152  0.7001  0.2560  0.4540
  483TMC3     O 7187   1.064   0.192   1.221 -0.2708 -0.0099  0.2274
  483TMC3     H 7188   1.353   0.255   0.952 -1.2147 -0.7070  0.2327
  483TMC3    H1 7189   1.065   0.427   1.231 -0.1116 -2.0047 -0.3593
  483TMC3    H2 7190   1.386   0.646   1.083  1.0564 -1.3958  1.3952
  483TMC3    C7 7191   1.186   0.649   1.261 -0.2025  0.6645  0.1998
  483TMC3    C8 7192   1.521   0.458   1.015 -0.6772  0.6987  0.0680
  483TMC3    O1 7193   1.170   0.752   1.196  0.1920 -0.0620  0.8347
  483TMC3    O2 7194   1.572   0.506   0.916  0.1672 -0.8053 -0.2242
  484MPD2     C 7195   3.667   3.163  12.358  0.1803 -0.5799 -0.0585
  484MPD2    C1 7196   3.751   3.104  12.451  0.0151 -0.5042  0.7594
  484MPD2    C2 7197   3.885   3.148  12.460  0.7072 -0.8305  0.0463
  484MPD2    C3 7198   3.927   3.254  12.378  0.1455  0.9511  0.0986
  484MPD2    C4 7199   3.839   3.310  12.292 -0.9018  0.6699  0.6916
  484MPD2    C5 7200   3.712   3.269  12.286 -0.4058 -0.1192 -0.0109
  484MPD2     H 7201   3.951   3.122  12.542 -1.0994 -0.2202  1.6911
  484MPD2    H1 7202   3.875   3.397  12.237  3.3455 -1.6568 -0.2430
  484MPD2    H2 7203   3.564   3.129  12.357 -0.1938  0.5084  1.3281
  484MPD2    H3 7204   3.650   3.325  12.218 -3.5373 -2.1480  1.1981
  484MPD2     N 7205   4.043   3.323  12.387 -0.0754 -0.0145  0.2238
  484MPD2    H5 7206   4.050   3.396  12.317  0.6352 -1.1499 -0.8977
  484MPD2    N1 7207   3.698   3.001  12.525 -0.7115 -0.1947  0.1524
  484MPD2    H7 7208   3.611   2.962  12.489 -0.7040 -0.5350  0.5019
  485TMC3    C1 7209   4.265   3.381  12.463 -0.3343 -0.6283  0.0627
  485TMC3    C2 7210   4.367   3.364  12.556 -0.1608  0.2513 -0.0222
  485TMC3    C3 7211   4.487   3.433  12.541 -0.4703 -0.6992  0.4429
  485TMC3    C4 7212   4.279   3.463  12.352  0.1989  0.4588  0.1182
  485TMC3    C5 7213   4.399   3.527  12.341 -0.0334  0.3566  0.3313
  485TMC3    C6 7214   4.501   3.520  12.439 -0.0662  0.1397 -0.8090
  485TMC3     C 7215   4.146   3.295  12.476  0.2380 -0.4752 -0.4434
  485TMC3     O 7216   4.170   3.202  12.555 -0.0441 -0.7274 -0.5517
  485TMC3     H 7217   4.363   3.286  12.631  0.9558 -0.1569 -0.3887
  485TMC3    H1 7218   4.214   3.463  12.265 -2.4276  1.3243  2.0996
  485TMC3    H2 7219   4.596   3.565  12.411  0.5259  0.6931  2.1538
  485TMC3    C7 7220   4.453   3.531  12.209 -0.2464  0.8130 -0.1180
  485TMC3    C8 7221   4.609   3.349  12.565  0.3367  0.5006 -0.5125
  485TMC3    O1 7222   4.386   3.574  12.116  0.2985 -0.1453  0.1754
  485TMC3    O2 7223   4.704   3.378  12.496 -0.3542  0.3280  0.5464
  486MPD2     C 7224   2.299   2.726  12.846  0.4403  0.7569  0.7170
  486MPD2    C1 7225   2.239   2.664  12.952 -0.1388 -1.2207 -0.0944
  486MPD2    C2 7226   2.103   2.637  12.952  0.1630 -0.2881 -0.0166
  486MPD2    C3 7227   2.037   2.661  12.834 -0.0672 -0.1696  0.1014
  486MPD2    C4 7228   2.100   2.714  12.722 -0.6126 -0.1349 -0.2256
  486MPD2    C5 7229   2.233   2.748  12.733 -0.2832 -0.2008 -0.4315
  486MPD2     H 7230   2.057   2.582  13.033 -1.5649 -0.2710 -0.9764
  486MPD2    H1 7231   2.044   2.722  12.630  1.8335  0.4447 -1.6749
  486MPD2    H2 7232   2.406   2.743  12.844  0.1815  2.2091 -0.9516
  486MPD2    H3 7233   2.293   2.781  12.649 -0.3437 -0.3898 -0.5487
  486MPD2     N 7234   1.896   2.636  12.832  0.3146  0.2260  0.2822
  486MPD2    H5 7235   1.853   2.622  12.923 -1.8310  2.0894 -0.4414
  486MPD2    N1 7236   2.323   2.652  13.066 -0.1787  0.7259 -0.1663
  486MPD2    H7 7237   2.421   2.661  13.045  0.6994  0.8132  3.8845
  487TMC3    C1 7238   2.399   2.576  13.274  0.9520  0.8003  0.5773
  487TMC3    C2 7239   2.473   2.474  13.232  0.3835  0.5412 -0.2212
  487TMC3    C3 7240   2.536   2.390  13.318 -0.2786 -0.1502  0.2065
  487TMC3    C4 7241   2.387   2.598  13.405 -0.1070  0.4158  0.0238
  487TMC3    C5 7242   2.463   2.521  13.494 -0.3444  0.5154  0.6835
  487TMC3    C6 7243   2.548   2.424  13.449 -0.2356 -0.0590  0.2766
  487TMC3     C 7244   2.281   2.610  13.193  0.3766  0.5888  0.5631
  487TMC3     O 7245   2.170   2.597  13.238 -1.1718  0.5396 -0.1525
  487TMC3     H 7246   2.461   2.442  13.129  1.5703 -0.1731 -0.1293
  487TMC3    H1 7247   2.317   2.670  13.449 -1.2285 -1.2674  1.0078
  487TMC3    H2 7248   2.576   2.353  13.526  0.4633  1.0734  1.0741
  487TMC3    C7 7249   2.398   2.461  13.601 -0.1568 -0.3170  0.3792
  487TMC3    C8 7250   2.481   2.252  13.308  0.0899  0.0687  0.6949
  487TMC3    O1 7251   2.471   2.428  13.698  0.3398  1.3189  0.0254
  487TMC3    O2 7252   2.388   2.238  13.232  0.3221  0.0716  0.5243
  488MPD2     C 7253   1.346   3.981  16.045  0.0685  0.3132 -0.2173
  488MPD2    C1 7254   1.429   4.059  16.127  0.2734 -0.6695 -0.4467
  488MPD2    C2 7255   1.440   4.035  16.262 -0.0584  0.1982  0.4288
  488MPD2    C3 7256   1.366   3.928  16.323  0.2258 -0.5876 -0.5058
  488MPD2    C4 7257   1.277   3.862  16.241  0.0022  0.3440 -0.3311
  488MPD2    C5 7258   1.273   3.884  16.106  0.3805  0.3193  0.1953
  488MPD2     H 7259   1.509   4.100  16.313  0.2849  1.4087 -1.5858
  488MPD2    H1 7260   1.213   3.781  16.272  0.4304  0.4148  0.7436
  488MPD2    H2 7261   1.318   4.001  15.942 -1.6194  2.3811  0.6379
  488MPD2    H3 7262   1.218   3.824  16.033  0.2420 -0.8908  1.2989
  488MPD2     N 7263   1.398   3.893  16.458 -0.8706  0.0114  0.5241
  488MPD2    H5 7264   1.481   3.938  16.496  0.2592 -1.5020 -0.1232
  488MPD2    N1 7265   1.513   4.165  16.077  0.4115  0.1355  0.1905
  488MPD2    H7 7266   1.558   4.211  16.155 -2.0088  0.4394  1.4241
  489TMC3    C1 7267   1.417   3.766  16.647  0.2298  0.0949  0.3931
  489TMC3    C2 7268   1.468   3.872  16.716  0.0248 -0.4866  0.3811
  489TMC3    C3 7269   1.545   3.844  16.826 -0.0255 -0.3559  0.4962
  489TMC3    C4 7270   1.424   3.636  16.693  0.0174  0.0879 -0.0958
  489TMC3    C5 7271   1.505   3.613  16.803 -0.4215 -0.6839 -0.4493
  489TMC3    C6 7272   1.573   3.715  16.861  0.6641  0.6273  0.1879
  489TMC3     C 7273   1.346   3.786  16.527  0.0278 -0.5371  0.3541
  489TMC3     O 7274   1.262   3.705  16.498 -0.0966  0.5325 -0.2207
  489TMC3     H 7275   1.451   3.978  16.696  4.3738  0.4480  1.6263
  489TMC3    H1 7276   1.381   3.555  16.635  0.8807  0.0862 -0.7450
  489TMC3    H2 7277   1.654   3.680  16.923  1.8192 -0.6427 -2.0130
  489TMC3    C7 7278   1.478   3.505  16.896  0.7751 -0.3108 -0.3009
  489TMC3    C8 7279   1.640   3.946  16.873  0.3774 -0.4960 -0.7525
  489TMC3    O1 7280   1.567   3.481  16.975 -0.4335 -0.7943  0.1796
  489TMC3    O2 7281   1.651   4.046  16.795  0.1038  0.2722  0.1086
  490MPD2     C 7282   2.202   3.417   0.081  0.1950 -0.1811 -0.0606
  490MPD2    C1 7283   2.278   3.347  17.686  0.8024  0.3510  0.0867
  490MPD2    C2 7284   2.375   3.418  17.609 -0.8449  0.2584 -0.3828
  490MPD2    C3 7285   2.402   3.548  17.634 -0.8463  0.0603 -0.1834
  490MPD2    C4 7286   2.344   3.612   0.051  0.1577 -0.4418  0.6490
  490MPD2    C5 7287   2.242   3.545   0.121  0.0793 -0.5772 -0.2734
  490MPD2     H 7288   2.423   3.371  17.524 -2.7921 -1.5479 -0.5035
  490MPD2    H1 7289   2.363   3.717   0.066 -3.7329  0.4112 -0.3393
  490MPD2    H2 7290   2.125   3.371   0.142  0.0757 -0.1462 -0.1864
  490MPD2    H3 7291   2.185   3.601   0.194 -1.6454 -0.6478 -1.5768
  490MPD2     N 7292   2.510   3.618  17.570  0.7609  0.2428 -0.2636
  490MPD2    H5 7293   2.533   3.711  17.604 -2.1463 -0.1038  2.7210
  490MPD2    N1 7294   2.256   3.213  17.652 -0.6545  0.7994  0.0687
  490MPD2    H7 7295   2.300   3.176  17.569 -0.0185  0.7418  0.4323
  491TMC3    C1 7296   2.164   2.997  17.672  0.2949 -0.6819  0.3601
  491TMC3    C2 7297   2.134   2.901   0.074  0.0831  0.1448 -0.4892
  491TMC3    C3 7298   2.093   2.781   0.036 -0.8301 -0.7931 -0.0449
  491TMC3    C4 7299   2.135   2.983  17.540 -0.2468  0.1728 -0.0500
  491TMC3    C5 7300   2.094   2.857  17.506  0.4472 -0.4465  0.0751
  491TMC3    C6 7301   2.065   2.762  17.595  0.8257 -0.5518 -0.2213
  491TMC3     C 7302   2.175   3.135   0.034 -0.3533 -0.5146 -0.4443
  491TMC3     O 7303   2.163   3.151   0.156 -0.4137  0.3106 -0.0526
  491TMC3     H 7304   2.170   2.914   0.175  1.3542 -2.5339 -0.5948
  491TMC3    H1 7305   2.136   3.077  17.485 -1.3545 -0.3521 -0.9718
  491TMC3    H2 7306   2.032   2.664  17.561 -2.1258  0.1720  0.5497
  491TMC3    C7 7307   2.060   2.828  17.362 -0.0817  0.7648  0.6935
  491TMC3    C8 7308   2.041   2.688   0.144  0.1337  0.2373 -0.2484
  491TMC3    O1 7309   1.995   2.727  17.348 -0.1829 -0.3912  0.5080
  491TMC3    O2 7310   2.006   2.737   0.250  0.4452 -0.3126  0.9139
  492MPD2     C 7311   2.815   3.218  11.324  0.9961  0.0284  0.1166
  492MPD2    C1 7312   2.734   3.137  11.258 -0.1021 -0.5631 -0.3125
  492MPD2    C2 7313   2.650   3.050  11.329  0.1576 -0.2893  0.4637
  492MPD2    C3 7314   2.643   3.049  11.466  0.1906  0.3048  0.3651
  492MPD2    C4 7315   2.736   3.136  11.533 -0.0073 -0.3943 -0.6730
  492MPD2    C5 7316   2.815   3.221  11.462 -0.0042 -0.0916  0.0636
  492MPD2     H 7317   2.589   2.987  11.266 -0.5493  1.6329 -0.7902
  492MPD2    H1 7318   2.741   3.136  11.642  2.1862  1.3655 -0.7756
  492MPD2    H2 7319   2.879   3.291  11.276  0.3932 -0.9978 -2.2290
  492MPD2    H3 7320   2.880   3.288  11.516 -1.1709  3.2112 -2.6377
  492MPD2     N 7321   2.549   2.966  11.538 -0.0914  0.3812  0.0746
  492MPD2    H5 7322   2.542   2.990  11.636 -0.9752  0.8122 -0.0939
  492MPD2    N1 7323   2.746   3.139  11.115  0.2409  0.0505  0.1076
  492MPD2    H7 7324   2.798   3.215  11.073  0.8683 -0.9043 -0.8524
  493TMC3    C1 7325   2.705   3.094  10.888 -0.2390  0.2046 -1.1116
  493TMC3    C2 7326   2.824   3.161  10.858 -0.0549  0.7201 -0.2199
  493TMC3    C3 7327   2.835   3.207  10.733  0.3322 -0.2820 -0.2188
  493TMC3    C4 7328   2.614   3.064  10.793  0.0846  0.2486 -0.1991
  493TMC3    C5 7329   2.627   3.117  10.668 -0.1060 -0.1189 -0.0836
  493TMC3    C6 7330   2.747   3.180  10.633  0.0596 -0.4889 -0.0339
  493TMC3     C 7331   2.669   3.068  11.026 -0.4299  0.4553  0.4573
  493TMC3     O 7332   2.559   3.016  11.037 -0.2771  0.6539 -0.5937
  493TMC3     H 7333   2.896   3.194  10.931  0.4127 -3.1412  1.0147
  493TMC3    H1 7334   2.522   3.013  10.820  0.2590  0.3751  0.6433
  493TMC3    H2 7335   2.765   3.230  10.539 -0.3962  1.8303  1.1092
  493TMC3    C7 7336   2.524   3.093  10.566 -0.4818  0.4323 -0.2381
  493TMC3    C8 7337   2.970   3.224  10.694  0.1469  0.3225 -0.7087
  493TMC3    O1 7338   2.419   3.042  10.602 -0.3048 -0.8491 -0.1059
  493TMC3    O2 7339   3.048   3.151  10.755  0.0213  0.2999 -0.3530
  494TMC3    C1 7340   3.297   0.571   0.542 -0.4679  0.1013 -0.1781
  494TMC3    C2 7341   3.303   0.446   0.604  0.4311 -0.2403 -0.3967
  494TMC3    C3 7342   3.299   0.335   0.527 -0.6608  0.3382 -0.1656
  494TMC3    C4 7343   3.278   0.580   0.407  0.3212 -0.4222  0.6879
  494TMC3    C5 7344   3.267   0.470   0.334  0.1164 -0.4061  0.2617
  494TMC3    C6 7345   3.277   0.345   0.387 -0.1029 -0.1309  0.1342
  494TMC3     C 7346   3.248   0.678   0.632 -0.3234 -0.0817  0.1334
  494TMC3     O 7347   3.172   0.763   0.582  0.4954  0.0683 -0.4466
  494TMC3     H 7348   3.314   0.433   0.711  2.0264  0.2361 -0.5035
  494TMC3    H1 7349   3.243   0.670   0.357  0.6323 -0.2150  0.8399
  494TMC3    H2 7350   3.268   0.261   0.319  1.1446  1.0591 -1.4883
  494TMC3    C7 7351   3.215   0.486   0.198 -0.5768 -0.3885  0.4075
  494TMC3    C8 7352   3.279   0.207   0.596 -0.2611  0.0563 -0.6053
  494TMC3    O1 7353   3.274   0.569   0.129  0.3462  0.2981  0.4820
  494TMC3    O2 7354   3.260   0.215   0.717 -0.7269  0.4467 -0.0056
  495TMC3    C1 7355   2.491   2.052  14.635  0.2531  0.1412 -0.6747
  495TMC3    C2 7356   2.430   2.096  14.520  0.1157  0.3735  0.2157
  495TMC3    C3 7357   2.406   2.235  14.510 -0.4610 -0.2536 -0.1115
  495TMC3    C4 7358   2.546   2.132  14.736 -0.1613  0.0339  0.1906
  495TMC3    C5 7359   2.509   2.268  14.732 -0.3029 -0.3234 -0.5978
  495TMC3    C6 7360   2.448   2.319  14.618  0.1682  0.5569  0.6346
  495TMC3     C 7361   2.446   1.924  14.684  0.6396  0.5528 -0.8231
  495TMC3     O 7362   2.419   1.932  14.807  0.0984  0.3318 -0.5054
  495TMC3     H 7363   2.389   2.024  14.450  0.7414  0.9105 -0.6969
  495TMC3    H1 7364   2.589   2.093  14.827 -0.0569  1.0855  0.5928
  495TMC3    H2 7365   2.450   2.427  14.609 -0.0961  0.4769 -0.3093
  495TMC3    C7 7366   2.451   2.316  14.855 -0.4021 -0.1608 -0.0770
  495TMC3    C8 7367   2.292   2.276  14.421 -0.5551  0.5661 -0.1459
  495TMC3    O1 7368   2.498   2.275  14.964  0.5764  0.5263 -0.1516
  495TMC3    O2 7369   2.225   2.188  14.369  0.2480 -0.7329 -0.1033
  496MPD2     C 7370   3.928   2.589  15.641  0.2418 -0.7392  0.5409
  496MPD2    C1 7371   3.859   2.473  15.610  1.1094 -0.2513  0.8949
  496MPD2    C2 7372   3.746   2.443  15.685 -0.2501  1.2271  0.0500
  496MPD2    C3 7373   3.696   2.533  15.768 -0.1100 -0.4505 -0.1021
  496MPD2    C4 7374   3.743   2.661  15.779 -0.7398 -0.4361  0.4881
  496MPD2    C5 7375   3.864   2.689  15.707 -0.4329  0.4680 -0.1371
  496MPD2     H 7376   3.697   2.348  15.664  1.3160  1.3890 -4.4680
  496MPD2    H1 7377   3.704   2.734  15.849 -2.2445 -0.3952 -0.3953
  496MPD2    H2 7378   4.022   2.616  15.594  1.4912 -1.2022  2.7722
  496MPD2    H3 7379   3.910   2.786  15.721 -0.9459  0.8701 -1.1877
  496MPD2     N 7380   3.581   2.503  15.843  0.2029 -0.2134 -0.0578
  496MPD2    H5 7381   3.536   2.583  15.887 -0.0293 -0.2241 -0.2764
  496MPD2    N1 7382   3.916   2.386  15.508 -0.5818 -0.7013  0.1639
  496MPD2    H7 7383   4.008   2.415  15.477 -1.0361  1.5929  0.9378
  497TMC3    C1 7384   3.411   2.380  15.948  0.5440  0.0656 -0.7002
  497TMC3    C2 7385   3.363   2.253  15.952 -0.9416 -0.3264  0.2784
  497TMC3    C3 7386   3.393   2.171  16.059 -0.4020 -0.1506  0.0054
  497TMC3    C4 7387   3.453   2.428  16.073 -1.1530  0.2881  0.3283
  497TMC3    C5 7388   3.477   2.352  16.179  0.6654 -0.1199  0.0958
  497TMC3    C6 7389   3.460   2.216  16.165  0.5210 -0.6799  0.5339
  497TMC3     C 7390   3.525   2.382  15.851  0.6388 -0.2307  0.6936
  497TMC3     O 7391   3.554   2.271  15.812  0.4216  0.7040 -0.2336
  497TMC3     H 7392   3.329   2.210  15.859  0.5581  1.6617 -1.1753
  497TMC3    H1 7393   3.488   2.531  16.081 -0.7132  0.1580  0.0181
  497TMC3    H2 7394   3.503   2.154  16.243  0.0447 -2.0510 -0.2862
  497TMC3    C7 7395   3.539   2.399  16.298 -0.9139  1.1893  0.3219
  497TMC3    C8 7396   3.413   2.035  16.012  0.6913  0.0737 -0.5479
  497TMC3    O1 7397   3.499   2.505  16.342  0.1716  0.3577  0.6837
  497TMC3    O2 7398   3.327   1.982  15.939 -0.4936 -0.7693  0.2411
  498MPD2     C 7399   0.294   1.964   9.330 -0.6220 -0.1426 -0.5752
  498MPD2    C1 7400   0.287   2.027   9.450 -0.2287  1.5194  0.1881
  498MPD2    C2 7401   0.171   2.025   9.521 -0.1328  0.1307 -0.7291
  498MPD2    C3 7402   0.060   1.952   9.475 -0.0130 -0.0933 -0.0316
  498MPD2    C4 7403   0.072   1.890   9.348  1.0560 -0.2886  0.8837
  498MPD2    C5 7404   0.186   1.908   9.273  0.4073  0.1441 -0.1225
  498MPD2     H 7405   0.167   2.093   9.605 -0.5122 -1.7146  0.7513
  498MPD2    H1 7406   4.712   1.837   9.303  0.7659  1.1802 -0.3017
  498MPD2    H2 7407   0.385   1.960   9.271 -0.7199  1.7379 -0.8710
  498MPD2    H3 7408   0.191   1.864   9.174 -1.3806 -1.2202  0.3719
  498MPD2     N 7409   4.669   1.942   9.558  0.8054  0.0229 -0.2150
  498MPD2    H5 7410   4.671   1.993   9.646  0.3043  0.5538 -0.5051
  498MPD2    N1 7411   0.409   2.076   9.516 -0.3323 -0.1457 -0.2357
  498MPD2    H7 7412   0.387   2.116   9.607  1.0528 -0.1371  0.0839
  499TMC3    C1 7413   0.637   2.163   9.536  0.4758 -0.0559  0.2847
  499TMC3    C2 7414   0.766   2.123   9.523  0.2901 -0.2592  0.7081
  499TMC3    C3 7415   0.866   2.217   9.559  0.5805  0.6079 -0.1981
  499TMC3    C4 7416   0.595   2.289   9.560 -0.0691  0.0737  0.6364
  499TMC3    C5 7417   0.700   2.381   9.568 -0.4856 -0.2316  0.9063
  499TMC3    C6 7418   0.832   2.348   9.575 -0.8149 -0.4812  0.2824
  499TMC3     C 7419   0.538   2.080   9.463 -0.5543  0.6875 -0.0083
  499TMC3     O 7420   0.582   2.037   9.358 -0.4794 -0.0641 -0.0391
  499TMC3     H 7421   0.789   2.017   9.513  0.2842 -0.0882 -1.1950
  499TMC3    H1 7422   0.491   2.318   9.552 -0.3101 -0.8431  0.4917
  499TMC3    H2 7423   0.896   2.432   9.598  1.6786 -2.2982 -0.0357
  499TMC3    C7 7424   0.662   2.521   9.566  0.3301  0.4589  0.7888
  499TMC3    C8 7425   0.999   2.176   9.532 -0.7013 -0.0281  0.2745
  499TMC3    O1 7426   0.732   2.604   9.623 -0.6251 -0.0551  0.4126
  499TMC3    O2 7427   1.026   2.094   9.440  0.4408 -0.5738 -0.3623
  500MPD2     C 7428   1.782   3.870  10.746 -0.1709 -0.2910  0.3575
  500MPD2    C1 7429   1.779   3.886  10.608 -0.3957  0.4095  0.3951
  500MPD2    C2 7430   1.655   3.917  10.546  0.6121 -0.6342  0.1561
  500MPD2    C3 7431   1.545   3.945  10.622  0.0662  0.4089 -0.1868
  500MPD2    C4 7432   1.553   3.933  10.752  0.5069 -1.4763 -0.1329
  500MPD2    C5 7433   1.667   3.885  10.815 -0.1851  0.2306  0.0513
  500MPD2     H 7434   1.652   3.924  10.437 -0.0857  2.4111  0.3722
  500MPD2    H1 7435   1.467   3.946  10.817 -0.0563 -0.9882 -0.9835
  500MPD2    H2 7436   1.876   3.864  10.801  1.3240 -3.0825 -2.4467
  500MPD2    H3 7437   1.679   3.870  10.921  0.9756  0.0546 -0.1078
  500MPD2     N 7438   1.419   3.981  10.568  0.5259 -0.1658 -0.4975
  500MPD2    H5 7439   1.344   3.989  10.637 -0.9269  3.2985 -2.4715
  500MPD2    N1 7440   1.896   3.860  10.525  0.0433  0.1007  0.5904
  500MPD2    H7 7441   1.886   3.872  10.425  1.1709 -0.5833  0.4020
  501TMC3    C1 7442   2.117   3.837  10.467 -0.9947 -0.0315 -0.2556
  501TMC3    C2 7443   2.083   3.919  10.368  0.4727  0.3369 -0.2410
  501TMC3    C3 7444   2.185   3.999  10.315  0.7749 -0.1199 -1.0252
  501TMC3    C4 7445   2.250   3.810  10.501 -0.4572 -0.2902  0.2185
  501TMC3    C5 7446   2.347   3.884  10.442 -0.5481  0.4987 -0.2088
  501TMC3    C6 7447   2.320   3.983  10.353  0.0960 -0.1703 -0.1340
  501TMC3     C 7448   2.020   3.836  10.573 -0.7629  0.7564  0.3986
  501TMC3     O 7449   2.053   3.789  10.680  0.1580 -0.0869 -0.0148
  501TMC3     H 7450   1.992   3.920  10.309  0.5782  0.1794 -0.4033
  501TMC3    H1 7451   2.271   3.744  10.585  2.0283 -0.0082 -0.1946
  501TMC3    H2 7452   2.390   4.061  10.325  0.4800 -1.6598 -3.3271
  501TMC3    C7 7453   2.487   3.860  10.480  0.5148  0.3133  0.5741
  501TMC3    C8 7454   2.158   4.094  10.209 -0.1051  0.1759  0.4853
  501TMC3    O1 7455   2.498   3.817  10.594  0.6506  0.3712 -0.5975
  501TMC3    O2 7456   2.265   4.134  10.160  0.4654  0.3868 -0.1865
  502TMC3    C1 7457   1.820   3.231  14.926  0.2895  0.3359 -0.5798
  502TMC3    C2 7458   1.780   3.337  14.845 -0.0152 -0.4382 -0.1822
  502TMC3    C3 7459   1.659   3.322  14.789  0.5498 -0.0354 -0.1693
  502TMC3    C4 7460   1.749   3.115  14.946  0.7223 -0.4074 -0.0838
  502TMC3    C5 7461   1.627   3.111  14.895 -0.0578  0.8461 -0.0700
  502TMC3    C6 7462   1.578   3.210  14.806 -0.1539  0.0579  0.2170
  502TMC3     C 7463   1.920   3.265  15.027  0.1310 -0.2708 -0.2500
  502TMC3     O 7464   2.000   3.355  15.000  0.3749  0.1524 -0.8504
  502TMC3     H 7465   1.832   3.432  14.834 -0.8177 -0.2175 -2.1134
  502TMC3    H1 7466   1.793   3.030  14.998 -1.2326 -1.9076 -0.8878
  502TMC3    H2 7467   1.479   3.204  14.761 -0.4976 -1.3360  1.1742
  502TMC3    C7 7468   1.537   3.022  14.957  0.3838 -0.0369 -0.5105
  502TMC3    C8 7469   1.619   3.431  14.708  0.3709  0.1009 -0.4842
  502TMC3    O1 7470   1.585   2.933  15.026  0.1928  0.3345 -0.1497
  502TMC3    O2 7471   1.667   3.539  14.725 -0.3542 -0.3964 -0.0176
  503MPD2     C 7472   3.441   3.904  16.765  0.8635  0.4790  0.1020
  503MPD2    C1 7473   3.500   3.927  16.888 -0.1402 -0.6540  0.1456
  503MPD2    C2 7474   3.553   3.825  16.956  0.1210  0.1783 -0.2687
  503MPD2    C3 7475   3.547   3.693  16.909 -0.3552  0.3129  0.8990
  503MPD2    C4 7476   3.493   3.677  16.783  0.1880 -0.1521 -0.1622
  503MPD2    C5 7477   3.438   3.780  16.714 -0.2396 -0.0101  0.4963
  503MPD2     H 7478   3.597   3.858  17.049 -0.7179  2.8556 -0.8297
  503MPD2    H1 7479   3.496   3.579  16.735 -2.1754  0.2187 -1.0421
  503MPD2    H2 7480   3.386   3.976  16.705 -0.1544 -0.5019 -0.1357
  503MPD2    H3 7481   3.387   3.761  16.620 -1.2803 -0.9801  1.2726
  503MPD2     N 7482   3.612   3.590  16.988  0.3311  0.5813 -0.4305
  503MPD2    H5 7483   3.638   3.622  17.081 -2.2059 -0.1213  0.5194
  503MPD2    N1 7484   3.492   4.048  16.956  0.1677  0.0394  1.0407
  503MPD2    H7 7485   3.521   4.049  17.053 -0.9783  0.3542  1.3823
  504TMC3    C1 7486   3.734   3.409  17.045  0.5237 -0.3650 -0.5970
  504TMC3    C2 7487   3.702   3.390  17.180  0.2127 -0.0890 -0.5691
  504TMC3    C3 7488   3.800   3.354  17.274 -0.1539  0.0437  0.6061
  504TMC3    C4 7489   3.854   3.366  17.005 -0.9880  0.1075 -0.6935
  504TMC3    C5 7490   3.950   3.339  17.105 -0.4052 -0.0538  0.0554
  504TMC3    C6 7491   3.928   3.324  17.239 -0.2165  0.2751 -0.1839
  504TMC3     C 7492   3.647   3.469  16.944 -0.0522 -0.2567 -0.6085
  504TMC3     O 7493   3.645   3.432  16.828 -0.2037 -0.0896  0.1560
  504TMC3     H 7494   3.604   3.414  17.221 -0.0377  0.6922 -1.6338
  504TMC3    H1 7495   3.876   3.364  16.899  0.5873  0.1100 -0.3566
  504TMC3    H2 7496   3.995   3.270  17.305  0.9915  0.2942 -1.4061
  504TMC3    C7 7497   4.091   3.352  17.063  0.3125 -0.4752 -0.0381
  504TMC3    C8 7498   3.748   3.331  17.408 -0.8751 -0.1714  0.7313
  504TMC3    O1 7499   4.107   3.342  16.946 -0.4365  0.4744 -0.2464
  504TMC3    O2 7500   3.631   3.306  17.416 -0.8389 -0.6649 -0.3382
  505MPD2     C 7501   3.758   2.099  10.300 -0.3871 -0.1851 -0.0137
  505MPD2    C1 7502   3.743   1.989  10.387  0.8732 -0.8216  0.2195
  505MPD2    C2 7503   3.824   1.982  10.502  0.3061  0.3268 -0.0404
  505MPD2    C3 7504   3.918   2.078  10.531 -0.3334 -0.0892  0.3220
  505MPD2    C4 7505   3.926   2.191  10.455  0.0005  0.7083  0.1099
  505MPD2    C5 7506   3.841   2.200  10.344 -0.0166  0.3617 -0.4346
  505MPD2     H 7507   3.828   1.894  10.565  2.7608  0.5278  0.0750
  505MPD2    H1 7508   4.001   2.267  10.474  0.9737 -0.1651 -0.2075
  505MPD2    H2 7509   3.694   2.108  10.213 -1.8078  1.3570  1.1888
  505MPD2    H3 7510   3.850   2.279  10.270  2.1227  1.7684  1.3075
  505MPD2     N 7511   4.012   2.063  10.640  0.0495 -0.1694 -0.2950
  505MPD2    H5 7512   4.092   2.125  10.641 -0.3133  0.3119 -2.4693
  505MPD2    N1 7513   3.650   1.892  10.356 -0.2077 -0.1396  0.3848
  505MPD2    H7 7514   3.615   1.904  10.262  1.8719 -0.4208 -0.4420
  506TMC3    C1 7515   3.561   1.670  10.393 -0.7514  0.5075  0.3762
  506TMC3    C2 7516   3.582   1.636  10.264  0.1087  0.9927  1.1524
  506TMC3    C3 7517   3.561   1.505  10.242  0.2558 -0.6166 -0.4083
  506TMC3    C4 7518   3.522   1.582  10.494  0.4486 -0.0833 -0.0518
  506TMC3    C5 7519   3.508   1.448  10.464  0.4094  0.2368  0.2886
  506TMC3    C6 7520   3.530   1.410  10.336 -0.6627  0.4391  0.6516
  506TMC3     C 7521   3.624   1.785  10.441  0.5504 -0.3530 -0.7821
  506TMC3     O 7522   3.644   1.777  10.560  0.1283  0.2155  0.4078
  506TMC3     H 7523   3.617   1.713  10.197 -0.7004 -0.3366 -0.8278
  506TMC3    H1 7524   3.500   1.621  10.593 -1.0766 -1.1327  0.0339
  506TMC3    H2 7525   3.533   1.309  10.297  0.0473  0.8554 -0.4014
  506TMC3    C7 7526   3.588   1.368  10.549  0.5373  1.2757  0.3175
  506TMC3    C8 7527   3.621   1.440  10.127 -0.2499 -0.6058  0.1180
  506TMC3    O1 7528   3.583   1.247  10.540  0.4999  0.6685 -0.3905
  506TMC3    O2 7529   3.551   1.356  10.069  0.0636 -0.5956 -0.5571
  507TMC3    C1 7530   4.367   2.823  14.769  0.0367 -0.2314 -0.4036
  507TMC3    C2 7531   4.247   2.809  14.700 -0.6175 -0.8901 -0.2060
  507TMC3    C3 7532   4.248   2.847  14.569  0.0006 -0.2282  0.0878
  507TMC3    C4 7533   4.474   2.893  14.723 -0.3350 -0.2111  0.3186
  507TMC3    C5 7534   4.463   2.937  14.590 -0.8624 -0.3455  0.0174
  507TMC3    C6 7535   4.357   2.905  14.514 -0.2981  0.1684 -0.8747
  507TMC3     C 7536   4.368   2.745  14.893 -0.3451  0.2030  0.0705
  507TMC3     O 7537   4.288   2.658  14.915 -0.0690 -0.8208  0.1911
  507TMC3     H 7538   4.168   2.763  14.759 -0.3093  1.8893  2.3755
  507TMC3    H1 7539   4.555   2.924  14.788 -0.7098  1.4518 -0.0203
  507TMC3    H2 7540   4.362   2.945  14.413 -0.5666  0.0704 -0.9269
  507TMC3    C7 7541   4.512   3.072  14.565  0.8115 -0.0989 -0.4773
  507TMC3    C8 7542   4.130   2.931  14.532  0.2720 -0.1086  0.9839
  507TMC3    O1 7543   4.441   3.146  14.499  0.7316 -0.2135 -0.4159
  507TMC3    O2 7544   4.035   2.885  14.593 -0.1775 -0.3383  0.3103
  508MPD2     C 7545   0.318   1.238  16.075 -0.1163  0.1691 -0.5459
  508MPD2    C1 7546   0.445   1.289  16.060  0.0341  0.0737  0.3822
  508MPD2    C2 7547   0.482   1.346  15.944  0.1824 -0.2207 -0.3343
  508MPD2    C3 7548   0.396   1.352  15.835  0.4714 -0.3443 -0.2532
  508MPD2    C4 7549   0.269   1.293  15.844  0.5025 -0.2541  0.3151
  508MPD2    C5 7550   0.236   1.241  15.969  0.1402  0.2063  0.6690
  508MPD2     H 7551   0.587   1.373  15.934 -0.3399  1.7539 -0.4747
  508MPD2    H1 7552   0.194   1.304  15.767  0.9408 -0.4955 -0.1427
  508MPD2    H2 7553   0.278   1.187  16.162 -1.6535  1.2928 -0.5844
  508MPD2    H3 7554   0.140   1.192  15.981  0.4387 -0.7156 -0.6036
  508MPD2     N 7555   0.443   1.413  15.721  0.9365 -0.9625 -0.4568
  508MPD2    H5 7556   0.532   1.461  15.719  0.2905  0.3427  2.0034
  508MPD2    N1 7557   0.536   1.267  16.164 -0.3252 -0.0366 -0.2329
  508MPD2    H7 7558   0.497   1.216  16.243 -0.1086  2.2468  1.3499
  509TMC3    C1 7559   0.448   1.717  15.398 -0.4651  0.2136  0.0457
  509TMC3    C2 7560   0.577   1.682  15.360 -1.5252 -0.3945 -0.0970
  509TMC3    C3 7561   0.632   1.567  15.409 -0.5097 -0.5024 -0.7018
  509TMC3    C4 7562   0.376   1.629  15.478  0.3477  0.0902 -0.7033
  509TMC3    C5 7563   0.434   1.507  15.512  0.3038  0.0765  0.1363
  509TMC3    C6 7564   0.563   1.472  15.484  1.1990 -0.0688  0.8386
  509TMC3     C 7565   0.417   1.866  15.403 -0.2821 -0.3396  0.3177
  509TMC3     O 7566   0.329   1.902  15.478  0.7438 -0.2521 -0.2653
  509TMC3     H 7567   0.624   1.736  15.279 -2.4717  0.8061  0.1567
  509TMC3    H1 7568   0.276   1.655  15.509  0.8547 -0.6001  1.4746
  509TMC3    H2 7569   0.618   1.397  15.539  0.6754 -1.9491 -1.2394
  509TMC3    C7 7570   0.363   1.437  15.614 -0.3053 -1.1882 -0.4106
  509TMC3    C8 7571   0.777   1.574  15.419 -0.0191  0.2534 -0.0432
  509TMC3    O1 7572   0.246   1.419  15.597 -0.3039 -0.5303 -0.3143
  509TMC3    O2 7573   0.846   1.473  15.441  0.6582 -0.7166 -0.2278
  510MPD2     C 7574   3.109   2.960  14.529 -0.0744  0.1017 -0.7317
  510MPD2    C1 7575   3.111   2.822  14.537 -0.1833  0.1740  0.8160
  510MPD2    C2 7576   3.178   2.747  14.437 -0.3897  0.6308  0.4499
  510MPD2    C3 7577   3.245   2.804  14.337  1.0045  0.2017 -0.0214
  510MPD2    C4 7578   3.239   2.944  14.327  0.1480 -1.1495 -0.8611
  510MPD2    C5 7579   3.176   3.016  14.421 -0.0762  0.1192  0.0318
  510MPD2     H 7580   3.192   2.642  14.461 -0.4048  0.0256 -2.1801
  510MPD2    H1 7581   3.273   3.004  14.243  1.2682 -0.1058  0.3397
  510MPD2    H2 7582   3.079   3.027  14.609  4.2170  0.3039  0.7016
  510MPD2    H3 7583   3.187   3.123  14.411  0.2652  0.1687  0.9652
  510MPD2     N 7584   3.323   2.730  14.252  0.0388  0.4251 -0.2119
  510MPD2    H5 7585   3.320   2.628  14.252 -0.1093  0.4297  0.1747
  510MPD2    N1 7586   3.060   2.757  14.655  0.3543 -0.1234  0.0660
  510MPD2    H7 7587   3.073   2.657  14.662 -0.5804 -0.1980  0.7094
  511TMC3    C1 7588   3.003   2.725  14.890 -0.0502  0.1808 -0.0261
  511TMC3    C2 7589   2.957   2.767  15.012 -0.1098 -0.3029  0.3643
  511TMC3    C3 7590   2.965   2.692  15.127  0.6080  0.0810 -0.4060
  511TMC3    C4 7591   3.086   2.617  14.892 -0.5498 -0.1589 -0.1005
  511TMC3    C5 7592   3.094   2.532  15.003 -0.0646  0.0991  0.8045
  511TMC3    C6 7593   3.028   2.566  15.120  0.1517  0.8494  0.3772
  511TMC3     C 7594   3.000   2.813  14.769 -0.2394 -0.2810  0.0253
  511TMC3     O 7595   2.967   2.928  14.790  0.4976 -0.4039 -0.3223
  511TMC3     H 7596   2.892   2.854  15.015 -1.0750 -1.0259  0.3459
  511TMC3    H1 7597   3.145   2.596  14.803 -0.5155  1.0056 -0.3566
  511TMC3    H2 7598   3.043   2.514  15.214  0.0659  0.9855  0.4676
  511TMC3    C7 7599   3.165   2.403  14.980 -0.2954  0.1406 -0.8259
  511TMC3    C8 7600   2.872   2.730  15.226  0.4817 -0.2508  0.9494
  511TMC3    O1 7601   3.247   2.402  14.885  0.2557 -0.1040  0.4879
  511TMC3    O2 7602   2.911   2.737  15.341 -0.0668 -0.5173 -0.3718
  512TMC3    C1 7603   2.583   1.725  12.956 -0.4157 -0.2591 -0.6916
  512TMC3    C2 7604   2.681   1.725  13.053 -0.4433  0.2512  0.5942
  512TMC3    C3 7605   2.720   1.598  13.092 -0.1487  0.0662 -0.1458
  512TMC3    C4 7606   2.520   1.614  12.906 -0.1923  0.4064  0.9620
  512TMC3    C5 7607   2.564   1.494  12.947 -0.7201 -0.0527  0.2278
  512TMC3    C6 7608   2.669   1.485  13.040 -0.1221  0.3504 -0.0645
  512TMC3     C 7609   2.514   1.848  12.936 -0.8963  0.7760  0.0577
  512TMC3     O 7610   2.396   1.832  12.965  1.1409 -0.0396 -0.2788
  512TMC3     H 7611   2.719   1.812  13.107  0.8094  0.8739 -1.2826
  512TMC3    H1 7612   2.430   1.633  12.850 -1.3760  0.5991  2.9177
  512TMC3    H2 7613   2.711   1.391  13.075 -0.9370  0.5456  1.4657
  512TMC3    C7 7614   2.467   1.386  12.917 -0.4393 -0.4044  0.4025
  512TMC3    C8 7615   2.744   1.583  13.233  0.1802 -0.3580 -0.1267
  512TMC3    O1 7616   2.387   1.415  12.828 -0.1973 -0.0754  0.4093
  512TMC3    O2 7617   2.725   1.471  13.277  0.7451 -0.0996  0.0114
  513MPD2     C 7618   4.400   2.630  12.717 -0.4129 -0.3550 -0.7770
  513MPD2    C1 7619   4.364   2.505  12.761 -0.2387 -0.4794  0.3392
  513MPD2    C2 7620   4.444   2.449  12.857 -0.2876  0.6627  0.8003
  513MPD2    C3 7621   4.561   2.515  12.909  0.1462  0.1837  0.2402
  513MPD2    C4 7622   4.598   2.642  12.852 -0.0278 -0.5987  0.1668
  513MPD2    C5 7623   4.518   2.698  12.757 -0.1066  0.0750 -0.4571
  513MPD2     H 7624   4.419   2.352  12.898  4.8000 -0.4012  1.4973
  513MPD2    H1 7625   4.694   2.681  12.883 -0.3677  2.6892 -3.0047
  513MPD2    H2 7626   4.342   2.675  12.637 -1.2810 -0.9971 -0.5050
  513MPD2    H3 7627   4.545   2.788  12.705  1.8830 -0.4906 -0.3977
  513MPD2     N 7628   4.629   2.441  13.010 -0.6513 -0.2685  0.0221
  513MPD2    H5 7629   4.585   2.355  13.040 -1.9818  0.0407 -1.0439
  513MPD2    N1 7630   4.242   2.446  12.716  0.1531  0.3970 -0.0872
  513MPD2    H7 7631   4.196   2.493  12.638  1.2977  0.8425 -0.4854
  514TMC3    C1 7632   4.068   2.278  12.698  0.0554 -0.9372  0.3563
  514TMC3    C2 7633   4.070   2.297  12.561 -0.2355  0.2513  0.5859
  514TMC3    C3 7634   4.052   2.190  12.481  0.6770  0.2038  0.8264
  514TMC3    C4 7635   4.066   2.147  12.746 -0.0126  0.6572  0.3441
  514TMC3    C5 7636   4.051   2.041  12.659 -0.2718 -0.8162  0.7515
  514TMC3    C6 7637   4.048   2.059  12.531  0.2290 -0.1254  0.4860
  514TMC3     C 7638   4.171   2.340  12.783  0.0599 -0.6014 -0.7536
  514TMC3     O 7639   4.200   2.282  12.888  0.4205  0.0384  0.3566
  514TMC3     H 7640   4.102   2.389  12.514  0.2460  0.0939  0.6026
  514TMC3    H1 7641   4.042   2.137  12.852 -0.2361  2.3829  0.4533
  514TMC3    H2 7642   4.044   1.974  12.464  1.8532  0.4904 -0.4044
  514TMC3    C7 7643   4.116   1.928  12.705 -0.0149  0.2665 -0.5031
  514TMC3    C8 7644   4.051   2.216  12.337  0.0433  0.1668 -0.0136
  514TMC3    O1 7645   4.103   1.819  12.651  0.3189 -0.0240  0.3590
  514TMC3    O2 7646   4.004   2.321  12.303 -0.3972 -0.5550 -0.4498
  515MPD2     C 7647   1.916   3.875  14.822  0.3704  0.0725  0.0084
  515MPD2    C1 7648   2.013   3.814  14.751  0.6218  0.2508  0.9198
  515MPD2    C2 7649   2.141   3.838  14.808  0.2328 -0.1144  0.0736
  515MPD2    C3 7650   2.161   3.916  14.918 -0.5232 -0.2647 -0.1569
  515MPD2    C4 7651   2.057   3.964  14.991 -0.3827 -0.0123  0.6490
  515MPD2    C5 7652   1.931   3.944  14.941  0.0298 -0.5494  0.3247
  515MPD2     H 7653   2.224   3.790  14.758  1.1604  0.2827  1.2275
  515MPD2    H1 7654   2.072   4.018  15.084  0.4324 -1.8196  1.5658
  515MPD2    H2 7655   1.810   3.861  14.803  0.3600  2.4741 -1.6769
  515MPD2    H3 7656   1.838   3.975  14.988  0.4963  0.6256  0.4594
  515MPD2     N 7657   2.286   3.936  14.983 -0.0432 -0.1822  0.1462
  515MPD2    H5 7658   2.280   3.957  15.082 -1.6729 -1.6810  0.3733
  515MPD2    N1 7659   1.995   3.745  14.634 -0.5227 -0.3822  0.1458
  515MPD2    H7 7660   2.069   3.684  14.601 -0.3313 -0.5032  0.8020
  516TMC3    C1 7661   1.876   3.635  14.467  0.0857 -0.1478  0.2937
  516TMC3    C2 7662   1.825   3.654  14.344 -0.0772  0.1789 -0.4223
  516TMC3    C3 7663   1.800   3.540  14.273 -0.3766  0.6762 -0.8334
  516TMC3    C4 7664   1.897   3.513  14.519  0.6361  0.0921 -0.4262
  516TMC3    C5 7665   1.873   3.400  14.446 -0.3394 -0.6767  0.2656
  516TMC3    C6 7666   1.812   3.409  14.320 -0.6615  0.4879  0.2817
  516TMC3     C 7667   1.878   3.749  14.555  0.0897 -0.0391 -0.4903
  516TMC3     O 7668   1.798   3.843  14.548  0.1202  0.3045 -0.0573
  516TMC3     H 7669   1.789   3.751  14.312  0.8621  0.6414 -0.0663
  516TMC3    H1 7670   1.938   3.508  14.619 -0.2455 -0.4790 -0.0913
  516TMC3    H2 7671   1.785   3.322  14.262  1.0930 -0.2756  0.6343
  516TMC3    C7 7672   1.909   3.274  14.499 -0.2348  0.0579 -0.1346
  516TMC3    C8 7673   1.735   3.559  14.146 -0.2632 -0.3641  0.3735
  516TMC3    O1 7674   1.994   3.289  14.585 -0.3332  0.6686  0.3234
  516TMC3    O2 7675   1.645   3.485  14.108 -0.4074 -0.2459  0.5855
  517MPD2     C 7676   1.686   0.352   0.271  0.4963 -0.2325  0.1560
  517MPD2    C1 7677   1.819   0.353   0.252 -0.6066 -0.5453 -0.2481
  517MPD2    C2 7678   1.897   0.445   0.331  0.2188  0.0454 -0.6187
  517MPD2    C3 7679   1.845   0.515   0.433  0.4617  0.0812 -0.4753
  517MPD2    C4 7680   1.711   0.495   0.459 -0.2898  0.0984  0.7347
  517MPD2    C5 7681   1.637   0.411   0.383 -0.6295  0.1534 -0.2274
  517MPD2     H 7682   2.001   0.448   0.299  0.6278 -2.7871  0.3882
  517MPD2    H1 7683   1.649   0.543   0.534  0.3763  0.3229  1.1387
  517MPD2    H2 7684   1.624   0.282   0.216 -0.3958  1.1722 -0.6254
  517MPD2    H3 7685   1.530   0.400   0.398 -0.6141  1.1284  0.5930
  517MPD2     N 7686   1.927   0.588   0.527  0.2217 -0.4078  0.1212
  517MPD2    H5 7687   1.881   0.594   0.617 -2.1242  0.8878 -1.1731
  517MPD2    N1 7688   1.891   0.285   0.153 -0.5196  0.0170 -0.5454
  517MPD2    H7 7689   1.990   0.305   0.156  0.4496 -4.7874 -0.0374
  518TMC3    C1 7690   1.949   0.132  17.683  0.2266  0.2307  0.0756
  518TMC3    C2 7691   1.944   4.723  17.645  0.5984 -0.8474  0.7578
  518TMC3    C3 7692   2.034   4.683  17.545 -0.0825  0.5154  1.3427
  518TMC3    C4 7693   2.033   0.222  17.633  0.3033  0.5117 -0.3377
  518TMC3    C5 7694   2.123   0.175  17.537 -0.2299 -0.3901 -0.0045
  518TMC3    C6 7695   2.118   0.047  17.495  0.0637  0.2015 -0.4051
  518TMC3     C 7696   1.844   0.187   0.073  0.3033  0.1768 -0.3865
  518TMC3     O 7697   1.730   0.142   0.062  0.1707  0.0494  0.3715
  518TMC3     H 7698   1.871   4.659   0.002 -0.3129 -0.2662  0.1800
  518TMC3    H1 7699   2.049   0.326  17.659  0.0377  1.0323 -2.2249
  518TMC3    H2 7700   2.180   0.019  17.411 -0.0357  2.3319 -1.1975
  518TMC3    C7 7701   2.235   0.260  17.492 -0.0237  0.1690 -0.7656
  518TMC3    C8 7702   2.072   4.543  17.533  0.3725 -0.6712  0.0263
  518TMC3    O1 7703   2.230   0.382  17.493  0.2118  0.2589  0.4003
  518TMC3    O2 7704   2.135   4.509  17.436 -0.3226  0.1899 -0.3070
  519MPD2     C 7705   3.720   3.726  14.008  0.6339  0.3644  0.1010
  519MPD2    C1 7706   3.648   3.640  14.085  0.2394  0.4656 -0.0195
  519MPD2    C2 7707   3.699   3.514  14.122  0.3206  0.5423 -0.4174
  519MPD2    C3 7708   3.829   3.474  14.092  0.1213  0.2936  0.4512
  519MPD2    C4 7709   3.898   3.567  14.017 -0.2489  0.3553 -0.0791
  519MPD2    C5 7710   3.843   3.684  13.971  0.5039 -0.5604  0.2582
  519MPD2     H 7711   3.634   3.448  14.177  4.1729 -0.4863  2.8530
  519MPD2    H1 7712   3.993   3.538  13.973 -1.4398 -1.2896 -1.5881
  519MPD2    H2 7713   3.689   3.826  13.981 -0.2133 -0.4746 -2.0070
  519MPD2    H3 7714   3.905   3.759  13.923  2.4564 -2.6015 -0.3855
  519MPD2     N 7715   3.884   3.343  14.112 -0.5258 -0.2952  0.0243
  519MPD2    H5 7716   3.974   3.317  14.073 -1.1495 -0.2824 -1.4243
  519MPD2    N1 7717   3.529   3.697  14.121  0.2075 -0.6417 -0.4134
  519MPD2    H7 7718   3.495   3.782  14.079 -1.1495 -0.6049  0.7647
  520TMC3    C1 7719   3.867   3.108  14.132  0.3934  0.0670  0.1816
  520TMC3    C2 7720   3.786   3.021  14.067 -0.6084  0.2472  0.3893
  520TMC3    C3 7721   3.839   2.928  13.990 -0.7732  0.3567  0.1425
  520TMC3    C4 7722   4.004   3.100  14.120  0.3644  0.4666  0.4176
  520TMC3    C5 7723   4.060   2.991  14.051  0.8652 -0.4197  0.1802
  520TMC3    C6 7724   3.979   2.903  13.983  0.1250 -0.7144  0.5412
  520TMC3     C 7725   3.817   3.238  14.172  0.2149  0.1752  0.2931
  520TMC3     O 7726   3.704   3.238  14.221  0.8897  0.5863 -0.9837
  520TMC3     H 7727   3.682   3.050  14.057 -1.0416 -2.4783 -2.9684
  520TMC3    H1 7728   4.068   3.168  14.174 -0.5987  0.2396  1.8230
  520TMC3    H2 7729   4.018   2.806  13.954 -1.6028 -0.7754 -1.6060
  520TMC3    C7 7730   4.207   2.953  14.062 -0.3790  0.3263  0.0865
  520TMC3    C8 7731   3.758   2.850  13.896 -0.4814 -0.3109 -0.1972
  520TMC3    O1 7732   4.267   3.000  14.162  0.1179 -0.2959  0.0312
  520TMC3    O2 7733   3.816   2.773  13.823 -0.1968 -0.1262 -0.0886
  521MPD2     C 7734   4.090   1.749  17.499 -0.1768  0.3681  0.4454
  521MPD2    C1 7735   4.093   1.644  17.402 -0.6410 -0.0767  0.0039
  521MPD2    C2 7736   4.203   1.639  17.315  0.6810  0.0016 -0.1383
  521MPD2    C3 7737   4.317   1.724  17.323 -0.2523 -0.9228  0.1999
  521MPD2    C4 7738   4.313   1.818  17.425  0.3708  0.2466  0.2026
  521MPD2    C5 7739   4.204   1.830  17.512  0.2218 -0.1021 -0.0413
  521MPD2     H 7740   4.205   1.555  17.247  0.9404 -0.1597  0.0658
  521MPD2    H1 7741   4.384   1.900  17.430  1.2559 -0.4681 -0.8270
  521MPD2    H2 7742   4.003   1.780  17.556 -1.0639  0.6498 -1.0540
  521MPD2    H3 7743   4.207   1.906  17.589 -0.7355  0.8052 -0.8831
  521MPD2     N 7744   4.426   1.698  17.232  0.0972 -0.1525 -0.1131
  521MPD2    H5 7745   4.413   1.628  17.161  0.2227 -0.5669  0.2731
  521MPD2    N1 7746   3.979   1.569  17.384 -0.3481  0.2444  1.0381
  521MPD2    H7 7747   3.917   1.575  17.464 -0.0056 -1.1844  1.4094
  522TMC3    C1 7748   4.632   1.712  17.130 -0.0098  0.1931  0.7562
  522TMC3    C2 7749   0.046   1.717  17.147 -0.2992 -1.1722 -0.0737
  522TMC3    C3 7750   0.120   1.654  17.052  0.5252  0.2029  0.9168
  522TMC3    C4 7751   4.571   1.653  17.021  0.6050 -0.1799  0.5141
  522TMC3    C5 7752   4.654   1.594  16.929  0.3210  0.3380  0.4299
  522TMC3    C6 7753   0.063   1.587  16.944 -0.6016  0.2104 -0.1869
  522TMC3     C 7754   4.539   1.769  17.228 -0.3480 -0.0962  0.7900
  522TMC3     O 7755   4.579   1.846  17.316 -0.5129 -0.0851  0.1334
  522TMC3     H 7756   0.089   1.761  17.236 -0.5102  2.1101 -1.5827
  522TMC3    H1 7757   4.468   1.667  16.989  2.2678  1.9436 -3.9034
  522TMC3    H2 7758   0.127   1.552  16.864 -0.1712 -0.0173  0.2537
  522TMC3    C7 7759   4.596   1.497  16.837  0.5131  0.0939  0.3245
  522TMC3    C8 7760   0.262   1.658  17.076  0.4766 -0.0980  0.1696
  522TMC3    O1 7761   4.668   1.410  16.784  0.4697 -0.3431 -0.5659
  522TMC3    O2 7762   0.314   1.739  17.155 -0.0875  0.4920  0.2967
  523MPD2     C 7763   1.594   0.191  10.247  0.8201 -0.3226  0.2240
  523MPD2    C1 7764   1.721   0.201  10.186 -0.1797  0.4776 -0.0313
  523MPD2    C2 7765   1.766   0.320  10.128 -0.2070  0.3715  1.1415
  523MPD2    C3 7766   1.681   0.432  10.131  0.0717 -0.3244 -0.6059
  523MPD2    C4 7767   1.555   0.420  10.183 -0.1723  0.4888  0.3834
  523MPD2    C5 7768   1.516   0.303  10.247 -0.1652 -0.6260  0.6326
  523MPD2     H 7769   1.866   0.328  10.087 -1.0511 -3.3619 -1.5619
  523MPD2    H1 7770   1.480   0.498  10.187  0.1229  0.8661 -1.3301
  523MPD2    H2 7771   1.549   0.101  10.288  0.6675 -0.6646 -0.6999
  523MPD2    H3 7772   1.423   0.297  10.303  1.0445  0.1450  2.7253
  523MPD2     N 7773   1.714   0.564  10.084 -0.4229 -0.1843 -0.0487
  523MPD2    H5 7774   1.639   0.631  10.069 -0.0977  0.0124 -0.7766
  523MPD2    N1 7775   1.811   0.091  10.192 -0.3184 -0.4580 -0.1128
  523MPD2    H7 7776   1.902   0.114  10.152  0.0529  0.8698  1.5306
  524TMC3    C1 7777   1.841   0.752  10.016 -0.1551 -0.3927 -0.7693
  524TMC3    C2 7778   1.966   0.797  10.015 -0.3208  0.0838  0.4202
  524TMC3    C3 7779   1.979   0.931  10.044  0.3700 -0.4021  0.0419
  524TMC3    C4 7780   1.724   0.833  10.024 -0.0131  0.3164  0.7726
  524TMC3    C5 7781   1.746   0.967  10.027  0.6041 -0.0336 -0.0847
  524TMC3    C6 7782   1.872   1.014  10.045 -0.3809  1.0873  0.2925
  524TMC3     C 7783   1.834   0.608  10.032  0.2524 -0.2658 -0.5679
  524TMC3     O 7784   1.937   0.540  10.009  0.3653  0.2779 -0.0912
  524TMC3     H 7785   2.037   0.720  10.043  0.3281 -0.3641 -2.3918
  524TMC3    H1 7786   1.624   0.796  10.006 -0.4674  0.9233  2.0533
  524TMC3    H2 7787   1.877   1.117  10.077  0.2397  1.6269 -1.5017
  524TMC3    C7 7788   1.631   1.056  10.020  0.0422  0.0807  0.1993
  524TMC3    C8 7789   2.097   0.981  10.093  0.1489  0.2104  0.8030
  524TMC3    O1 7790   1.521   0.998  10.025  0.1627 -0.4488 -0.0260
  524TMC3    O2 7791   2.079   1.088  10.152  0.0336 -0.0361 -0.2197
  525MPD2     C 7792   0.380   3.221  14.375 -0.4241 -0.9173 -0.3166
  525MPD2    C1 7793   0.487   3.273  14.452 -0.0755  0.4438 -0.1753
  525MPD2    C2 7794   0.523   3.405  14.414  0.5380 -0.8519  0.4111
  525MPD2    C3 7795   0.437   3.490  14.351  0.0578 -0.3480  0.4552
  525MPD2    C4 7796   0.335   3.436  14.281 -0.1552  0.6528  0.2086
  525MPD2    C5 7797   0.308   3.304  14.296 -0.2902  0.7060  0.6557
  525MPD2     H 7798   0.612   3.441  14.465  0.7664 -2.1964  0.9853
  525MPD2    H1 7799   0.260   3.485  14.220 -0.5004  0.2804  0.3341
  525MPD2    H2 7800   0.347   3.118  14.374  0.0108 -1.0542 -0.8894
  525MPD2    H3 7801   0.215   3.256  14.269 -0.7027  1.4757  0.7305
  525MPD2     N 7802   0.469   3.628  14.348  0.3059  0.2845 -0.1597
  525MPD2    H5 7803   0.540   3.670  14.407 -0.3441  1.9469 -0.5504
  525MPD2    N1 7804   0.570   3.202  14.538 -0.0161 -1.2465 -0.0240
  525MPD2    H7 7805   0.659   3.246  14.560 -0.3406 -0.7493  0.2859
  526TMC3    C1 7806   0.648   3.030  14.680  1.2145 -0.0404 -0.0775
  526TMC3    C2 7807   0.611   2.938  14.778 -0.3700 -0.4306  0.5057
  526TMC3    C3 7808   0.706   2.908  14.871 -0.0693  0.3563  0.3604
  526TMC3    C4 7809   0.774   3.081  14.677  0.6920 -0.6317  0.1207
  526TMC3    C5 7810   0.861   3.050  14.778 -0.3731  0.1390 -0.0469
  526TMC3    C6 7811   0.836   2.957  14.871  0.3919 -0.2275 -0.1316
  526TMC3     C 7812   0.538   3.081  14.599  0.1537  0.1463 -0.0304
  526TMC3     O 7813   0.428   3.028  14.593 -0.1176  0.3077 -0.0277
  526TMC3     H 7814   0.516   2.885  14.774 -0.4271 -0.4012  1.5406
  526TMC3    H1 7815   0.801   3.155  14.603  0.1613 -1.8865 -1.3294
  526TMC3    H2 7816   0.899   2.950  14.959 -0.2496  0.4634  0.3774
  526TMC3    C7 7817   1.001   3.077  14.754 -0.3318 -0.2982 -0.2730
  526TMC3    C8 7818   0.670   2.815  14.981 -0.1507  0.1049  0.1773
  526TMC3    O1 7819   1.032   3.188  14.715  0.2052 -0.6716 -0.3005
  526TMC3    O2 7820   0.749   2.820  15.075  0.2871 -0.2407  0.0957
  527MPD2     C 7821   2.749   1.398   1.071 -0.1573  0.0996  0.9318
  527MPD2    C1 7822   2.795   1.291   1.150  1.1957 -0.0701  0.0856
  527MPD2    C2 7823   2.922   1.253   1.128 -0.0971 -0.1225 -0.3852
  527MPD2    C3 7824   2.999   1.293   1.021  0.2039  0.5154 -0.3007
  527MPD2    C4 7825   2.950   1.403   0.948 -1.2685 -0.1127 -0.1532
  527MPD2    C5 7826   2.831   1.458   0.973  0.0649  0.4523  0.5295
  527MPD2     H 7827   2.959   1.174   1.192  0.3002  0.4454  0.0881
  527MPD2    H1 7828   3.003   1.445   0.863  1.0172 -0.9148  0.8944
  527MPD2    H2 7829   2.650   1.433   1.096  0.1098 -0.8925  3.4392
  527MPD2    H3 7830   2.796   1.543   0.916  0.2287 -1.1363 -1.9350
  527MPD2     N 7831   3.117   1.220   0.981 -0.2958  0.6792 -0.8221
  527MPD2    H5 7832   3.135   1.137   1.036 -0.9796  1.7882  1.0943
  527MPD2    N1 7833   2.722   1.238   1.251  1.1081  0.3689  0.3429
  527MPD2    H7 7834   2.771   1.168   1.305 -0.9122 -0.3989  1.1788
  528TMC3    C1 7835   2.548   1.200   1.392 -0.6173  0.4366  0.0565
  528TMC3    C2 7836   2.636   1.152   1.489 -0.2481  0.0313  0.5196
  528TMC3    C3 7837   2.580   1.111   1.604  0.0757  0.1273  0.0885
  528TMC3    C4 7838   2.408   1.198   1.405 -0.6927 -0.0795  0.1898
  528TMC3    C5 7839   2.360   1.153   1.523  0.5210  0.5875 -0.4076
  528TMC3    C6 7840   2.444   1.118   1.622  0.2197 -0.0816  0.5993
  528TMC3     C 7841   2.593   1.260   1.275 -0.5815  0.1625  0.1080
  528TMC3     O 7842   2.509   1.328   1.223 -0.2154  0.1134  0.5495
  528TMC3     H 7843   2.744   1.159   1.483 -0.1825 -2.3953 -1.4211
  528TMC3    H1 7844   2.347   1.203   1.316 -0.9353 -1.0415  0.2967
  528TMC3    H2 7845   2.410   1.085   1.720 -1.0914 -0.9859 -0.1505
  528TMC3    C7 7846   2.216   1.141   1.544  0.1931  0.0568 -0.0259
  528TMC3    C8 7847   2.670   1.075   1.709  0.6107  0.0446 -0.0029
  528TMC3    O1 7848   2.181   1.088   1.649 -0.3140 -0.1787 -0.1961
  528TMC3    O2 7849   2.782   1.117   1.706 -0.3203  0.3606 -0.0160
  529MPD2     C 7850   0.925   0.041   0.893  0.2021 -0.4531  0.7379
  529MPD2    C1 7851   0.959   4.686   0.784 -0.6716 -0.4045 -0.8854
  529MPD2    C2 7852   0.984   0.021   0.663 -0.8417  0.3792  0.0176
  529MPD2    C3 7853   0.972   0.158   0.649 -0.5249 -0.3997 -0.2304
  529MPD2    C4 7854   0.937   0.229   0.759 -0.3531 -0.5050 -0.1562
  529MPD2    C5 7855   0.925   0.177   0.880 -0.3842  0.0436 -0.1699
  529MPD2     H 7856   1.022   4.680   0.583  2.1094  1.2527  0.7007
  529MPD2    H1 7857   0.909   0.334   0.750 -1.0984 -0.5945  1.1050
  529MPD2    H2 7858   0.898   4.708   0.982 -0.3528 -2.0523 -0.4341
  529MPD2    H3 7859   0.907   0.232   0.972 -3.1212 -0.6174 -0.3082
  529MPD2     N 7860   0.961   0.226   0.520  0.0438 -0.0077 -0.0426
  529MPD2    H5 7861   0.923   0.320   0.515 -0.6623 -0.3534 -1.0875
  529MPD2    N1 7862   0.950   4.547   0.783 -0.4038  0.6301  0.1069
  529MPD2    H7 7863   1.005   4.509   0.706 -0.5271 -0.5018  0.5759
  530TMC3    C1 7864   0.926   4.327   0.861 -0.0085 -0.2470  0.7895
  530TMC3    C2 7865   1.049   4.284   0.807  0.0708  0.0663 -0.1580
  530TMC3    C3 7866   1.066   4.147   0.800 -0.7321  0.2938 -1.1268
  530TMC3    C4 7867   0.831   4.239   0.915 -0.4958 -0.4698 -0.6381
  530TMC3    C5 7868   0.856   4.112   0.901  0.0338  0.3146 -0.0054
  530TMC3    C6 7869   0.967   4.064   0.845 -0.1267  0.6118 -0.7886
  530TMC3     C 7870   0.897   4.465   0.886  0.0340  0.7143 -0.5162
  530TMC3     O 7871   0.819   4.493   0.978 -0.1069  0.0037  0.0819
  530TMC3     H 7872   1.128   4.355   0.785 -2.0572  1.9852 -1.5951
  530TMC3    H1 7873   0.739   4.282   0.953  0.1077  1.1280 -0.9765
  530TMC3    H2 7874   0.983   3.956   0.842 -3.2639  0.1979 -2.5259
  530TMC3    C7 7875   0.792   4.018   0.991 -0.4371 -0.5313  0.4898
  530TMC3    C8 7876   1.196   4.093   0.761  0.2263  0.0226 -0.7432
  530TMC3    O1 7877   0.840   3.905   0.989  0.5446  0.7322 -0.0436
  530TMC3    O2 7878   1.276   4.154   0.687  0.3890  0.1778  0.1208
  531MPD2     C 7879   4.466   1.767  13.058 -0.4240  0.3625 -0.1033
  531MPD2    C1 7880   4.475   1.904  13.042 -0.4802  0.0754 -0.7763
  531MPD2    C2 7881   4.393   1.966  12.953  0.3938 -0.0957  0.2571
  531MPD2    C3 7882   4.300   1.897  12.877  0.1552 -0.4528  0.4212
  531MPD2    C4 7883   4.283   1.760  12.896 -0.1963 -0.5647 -1.1280
  531MPD2    C5 7884   4.370   1.698  12.987 -0.0042 -0.2957  0.1566
  531MPD2     H 7885   4.394   2.075  12.950 -1.5774 -0.0207  1.6535
  531MPD2    H1 7886   4.219   1.695  12.836 -0.3305 -0.7316 -0.8067
  531MPD2    H2 7887   4.537   1.718  13.124 -0.8174  0.0581  0.0953
  531MPD2    H3 7888   4.384   1.590  12.988 -1.1710 -0.4460  0.2692
  531MPD2     N 7889   4.210   1.974  12.797 -0.0880  0.8446 -0.0608
  531MPD2    H5 7890   4.212   2.075  12.809 -1.3356  0.6960  1.4167
  531MPD2    N1 7891   4.569   1.972  13.128  0.1227 -0.6733 -0.0344
  531MPD2    H7 7892   4.638   1.918  13.178  2.0265  0.2130 -1.7020
  532TMC3    C1 7893   4.691   2.165  13.219 -0.4145  0.2561  0.0769
  532TMC3    C2 7894   4.688   2.301  13.218  0.7664 -0.2929  0.0510
  532TMC3    C3 7895   0.068   2.371  13.160  0.2918 -0.1973  0.1410
  532TMC3    C4 7896   0.088   2.107  13.190 -0.7210  0.2676  0.4814
  532TMC3    C5 7897   0.200   2.178  13.147 -0.1845  0.7171 -0.6953
  532TMC3    C6 7898   0.186   2.309  13.125  0.3704  0.5755  0.7049
  532TMC3     C 7899   4.577   2.107  13.146 -0.6296 -0.1752 -0.2765
  532TMC3     O 7900   4.506   2.194  13.102  0.5292 -0.1254  0.4832
  532TMC3     H 7901   4.591   2.348  13.230 -0.6510 -3.3088  0.5321
  532TMC3    H1 7902   0.091   2.000  13.203 -0.1086  0.0668 -1.3815
  532TMC3    H2 7903   0.266   2.369  13.083 -0.7880 -0.2476 -2.6777
  532TMC3    C7 7904   0.335   2.124  13.168  1.1313 -0.7711  0.0070
  532TMC3    C8 7905   0.028   2.472  13.066  0.1446 -0.0130  0.7068
  532TMC3    O1 7906   0.432   2.197  13.156 -0.0164 -0.1097  0.0749
  532TMC3    O2 7907   0.096   2.564  13.028 -0.1032 -0.3556 -0.5899
  533TMC3    C1 7908   0.417   3.851  14.326 -0.0362 -1.2116  0.0822
  533TMC3    C2 7909   0.516   3.930  14.278 -0.1301 -0.0449  0.7049
  533TMC3    C3 7910   0.557   4.041  14.353 -0.2802 -0.3802 -0.7012
  533TMC3    C4 7911   0.371   3.868  14.456 -0.0536 -0.4733 -0.0876
  533TMC3    C5 7912   0.409   3.981  14.527  0.6474 -0.1819  0.0421
  533TMC3    C6 7913   0.508   4.062  14.479 -0.7994 -0.1060  0.6169
  533TMC3     C 7914   0.400   3.720  14.272 -0.7305 -1.0268 -0.1992
  533TMC3     O 7915   0.325   3.715  14.178  0.7056  0.0111  0.1801
  533TMC3     H 7916   0.556   3.911  14.179  1.6254 -0.0417  1.4019
  533TMC3    H1 7917   0.286   3.814  14.495 -0.9648  0.0487 -1.3581
  533TMC3    H2 7918   0.536   4.146  14.542  0.0337 -0.4995  0.7606
  533TMC3    C7 7919   0.432   3.946  14.672  0.0552 -0.1186  0.3018
  533TMC3    C8 7920   0.682   4.112  14.316 -0.2854  0.1929 -0.1330
  533TMC3    O1 7921   0.360   3.855  14.720  0.4487  0.4707 -0.5228
  533TMC3    O2 7922   0.762   4.053  14.246  0.4934  0.1325 -0.1044
  534MPD2     C 7923   2.487   4.618   1.716 -0.1131  0.1655 -0.1361
  534MPD2    C1 7924   2.517   4.692   1.603 -0.6926  0.5985 -0.0902
  534MPD2    C2 7925   2.508   4.626   1.482  0.0072  1.1871  0.2574
  534MPD2    C3 7926   2.466   4.494   1.476  0.4195 -0.1727  0.1206
  534MPD2    C4 7927   2.445   4.426   1.593 -0.3662 -0.1790  0.7777
  534MPD2    C5 7928   2.464   4.484   1.709 -0.1759 -0.3074 -0.8600
  534MPD2     H 7929   2.539   4.670   1.388  2.0923 -1.3014 -0.2318
  534MPD2    H1 7930   2.419   4.321   1.596 -0.8136 -0.1332 -1.2347
  534MPD2    H2 7931   2.470   4.664   1.813 -0.9100 -0.3855 -0.0132
  534MPD2    H3 7932   2.443   4.425   1.798  0.8249 -0.9028 -1.0207
  534MPD2     N 7933   2.464   4.411   1.358 -0.2231  0.3044  0.3774
  534MPD2    H5 7934   2.479   4.311   1.353  1.0371  0.5065  0.1373
  534MPD2    N1 7935   2.563   0.102   1.614  0.8495 -0.0776  0.1376
  534MPD2    H7 7936   2.565   0.150   1.524 -2.7390 -0.7777 -0.3160
  535TMC3    C1 7937   2.510   4.367   1.140 -0.2045 -0.2580  0.3600
  535TMC3    C2 7938   2.491   4.234   1.172 -0.5294  0.1384 -0.8333
  535TMC3    C3 7939   2.550   4.139   1.093 -0.1430 -0.1082 -0.5394
  535TMC3    C4 7940   2.581   4.404   1.031 -1.0375 -0.2601  0.1256
  535TMC3    C5 7941   2.625   4.307   0.949  0.1299 -0.1044 -0.1435
  535TMC3    C6 7942   2.613   4.171   0.975 -1.2079  0.1202  0.0426
  535TMC3     C 7943   2.477   4.462   1.236  0.3772  0.0100  0.0345
  535TMC3     O 7944   2.440   4.577   1.209  0.2203  0.3018 -0.5347
  535TMC3     H 7945   2.421   4.197   1.246 -0.8670 -0.0833 -1.2615
  535TMC3    H1 7946   2.599   4.509   1.012 -0.0689 -0.5033 -0.3255
  535TMC3    H2 7947   2.637   4.094   0.903  0.2708 -0.3879  1.0771
  535TMC3    C7 7948   2.717   4.347   0.838 -0.9630  0.9505  0.1949
  535TMC3    C8 7949   2.517   4.003   1.121  0.0101 -0.0447  0.2817
  535TMC3    O1 7950   2.781   4.255   0.796 -0.0495 -0.0951  0.1385
  535TMC3    O2 7951   2.422   3.978   1.194 -0.4137  0.5966 -0.3447
  536MPD2     C 7952   2.086   2.796  16.408  0.2391  0.6565 -0.3821
  536MPD2    C1 7953   1.982   2.709  16.377  0.1371 -0.1196 -0.0300
  536MPD2    C2 7954   1.895   2.741  16.272  0.1991  0.0143 -0.2083
  536MPD2    C3 7955   1.924   2.852  16.196  0.3115 -0.0587 -0.6153
  536MPD2    C4 7956   2.028   2.932  16.228 -0.6993  0.2770  0.1085
  536MPD2    C5 7957   2.110   2.904  16.330 -0.2765 -0.1425 -0.4843
  536MPD2     H 7958   1.824   2.665  16.242  1.7527 -1.2562 -0.6523
  536MPD2    H1 7959   2.042   3.027  16.178 -0.4717 -1.0247 -2.2656
  536MPD2    H2 7960   2.148   2.764  16.490 -0.1301 -0.1478 -0.4116
  536MPD2    H3 7961   2.198   2.966  16.343 -0.1593 -0.6172  1.0212
  536MPD2     N 7962   1.844   2.891  16.084  0.7258  0.6554  0.1343
  536MPD2    H5 7963   1.866   2.973  16.029  3.4922  0.1126  0.4254
  536MPD2    N1 7964   1.967   2.599  16.470  0.0588 -0.5085  0.2792
  536MPD2    H7 7965   2.046   2.572  16.528  1.7440 -0.0913 -1.8088
  537TMC3    C1 7966   1.853   2.450  16.612 -0.4786 -0.3355  0.4435
  537TMC3    C2 7967   1.897   2.519  16.713 -0.1214  0.4416  0.6878
  537TMC3    C3 7968   1.832   2.515  16.837 -0.4322  0.0415  0.5020
  537TMC3    C4 7969   1.739   2.378  16.629 -0.1245  0.2408  0.0139
  537TMC3    C5 7970   1.663   2.383  16.743  0.2774  0.1330  0.2594
  537TMC3    C6 7971   1.710   2.448  16.856 -0.1508  0.0419 -0.1649
  537TMC3     C 7972   1.855   2.522  16.490 -0.0119  0.0511  0.2365
  537TMC3     O 7973   1.744   2.538  16.443 -0.5091 -0.0875 -0.3374
  537TMC3     H 7974   1.997   2.561  16.713 -0.3385  0.9581  0.6545
  537TMC3    H1 7975   1.704   2.334  16.536  0.8501  0.6694 -0.5569
  537TMC3    H2 7976   1.656   2.457  16.949 -1.1676 -0.7501 -0.6765
  537TMC3    C7 7977   1.546   2.298  16.752  0.2548  0.3256  0.2243
  537TMC3    C8 7978   1.878   2.611  16.931 -0.8797 -0.0378 -0.6356
  537TMC3    O1 7979   1.500   2.250  16.648  0.5335 -0.6849  0.2231
  537TMC3    O2 7980   1.847   2.583  17.045  0.4787 -0.2622 -0.1524
  538TMC3    C1 7981   2.378   4.673  10.564  0.5993  0.1918  0.4206
  538TMC3    C2 7982   2.510   4.627  10.590  0.2769 -0.3548  0.1426
  538TMC3    C3 7983   2.615   4.713  10.556  0.3425  0.2469  0.0506
  538TMC3    C4 7984   2.353   0.058  10.488 -0.1135  0.9651  0.5809
  538TMC3    C5 7985   2.456   0.138  10.450  0.3216  0.3629 -0.2766
  538TMC3    C6 7986   2.583   0.106  10.492 -0.0303 -0.7676  0.0490
  538TMC3     C 7987   2.271   4.648  10.657  0.3150  0.4203 -0.8366
  538TMC3     O 7988   2.164   4.706  10.641  0.0995 -0.6425  0.3173
  538TMC3     H 7989   2.534   4.549  10.661 -1.3711 -2.5920 -1.7731
  538TMC3    H1 7990   2.252   0.098  10.477  0.0264  1.0709 -0.3398
  538TMC3    H2 7991   2.671   0.169  10.482 -0.0468 -0.4935  1.5702
  538TMC3    C7 7992   2.414   0.277  10.427 -0.2392 -0.0069 -0.5250
  538TMC3    C8 7993   2.747   4.652  10.550 -0.4503 -0.0232  0.3934
  538TMC3    O1 7994   2.298   0.305  10.409  0.2283 -0.0312  0.1100
  538TMC3    O2 7995   2.755   4.534  10.534 -0.3908  0.2600  0.0291
  539MPD2     C 7996   2.272   4.616  11.906 -0.2357 -0.5013 -0.4812
  539MPD2    C1 7997   2.254   4.575  11.774 -0.3618 -0.1044  0.4144
  539MPD2    C2 7998   2.259   4.673  11.680  0.1764  0.3325 -0.2939
  539MPD2    C3 7999   2.253   0.086  11.717  0.4772 -0.1468  0.7373
  539MPD2    C4 8000   2.259   0.117  11.852 -0.3241 -0.6864  0.4199
  539MPD2    C5 8001   2.280   0.022  11.945 -0.6676  0.3283  0.1033
  539MPD2     H 8002   2.250   4.640  11.577  1.9104 -3.7954  0.8499
  539MPD2    H1 8003   2.262   0.219  11.890  0.9512 -0.3774 -0.4929
  539MPD2    H2 8004   2.276   4.548  11.990  0.3665  2.1789  1.6469
  539MPD2    H3 8005   2.295   0.037  12.052  0.3779 -0.0998  0.0189
  539MPD2     N 8006   2.221   0.188  11.631 -0.2784  0.3232 -0.7329
  539MPD2    H5 8007   2.203   0.279  11.672 -1.6125 -0.3202  0.1015
  539MPD2    N1 8008   2.246   4.440  11.738 -0.5846  0.0424  0.0269
  539MPD2    H7 8009   2.234   4.423  11.638 -0.3828 -0.1124  0.0299
  540TMC3    C1 8010   2.124   0.294  11.455  0.4883 -0.1509  0.3907
  540TMC3    C2 8011   2.061   0.283  11.336  0.0958  0.1000 -0.0300
  540TMC3    C3 8012   2.065   0.397  11.257  0.3893 -0.1102  0.2061
  540TMC3    C4 8013   2.186   0.410  11.497  0.0599 -0.2745  0.3649
  540TMC3    C5 8014   2.197   0.515  11.407 -0.7812  0.8843 -0.5585
  540TMC3    C6 8015   2.135   0.510  11.285  0.1782  0.1006  0.3772
  540TMC3     C 8016   2.166   0.174  11.511 -0.3620 -0.6579 -0.3410
  540TMC3     O 8017   2.158   0.075  11.440  0.2754 -0.2282  0.0312
  540TMC3     H 8018   1.998   0.197  11.317  0.0486  0.3652 -1.0486
  540TMC3    H1 8019   2.235   0.423  11.592  0.6965 -0.2787  0.0368
  540TMC3    H2 8020   2.131   0.601  11.225  2.7052  1.0867  1.7088
  540TMC3    C7 8021   2.190   0.639  11.486 -0.1717  0.8909  0.0682
  540TMC3    C8 8022   2.022   0.387  11.117 -0.5196 -0.2060 -0.3965
  540TMC3    O1 8023   2.142   0.638  11.595 -0.4794 -0.7693  0.8578
  540TMC3    O2 8024   2.074   0.457  11.035 -0.1591 -0.4731  0.2030
  541MPD2     C 8025   1.570   2.272  13.213  0.0245 -0.1038  0.0252
  541MPD2    C1 8026   1.588   2.141  13.176  0.4381  0.1514  0.5247
  541MPD2    C2 8027   1.522   2.101  13.059  0.5534  0.0020  0.5149
  541MPD2    C3 8028   1.454   2.197  12.984  0.1162  0.3503  0.3656
  541MPD2    C4 8029   1.448   2.327  13.020 -0.7416 -0.2630 -0.3110
  541MPD2    C5 8030   1.503   2.359  13.141  0.7252 -0.3875  0.4589
  541MPD2     H 8031   1.519   1.995  13.034 -1.4074  1.1026 -3.9497
  541MPD2    H1 8032   1.401   2.395  12.950 -1.9595 -0.7272  0.0650
  541MPD2    H2 8033   1.614   2.312  13.304  0.2205 -1.9183  0.7304
  541MPD2    H3 8034   1.496   2.461  13.177  1.1592  0.2837 -1.3368
  541MPD2     N 8035   1.376   2.162  12.870  0.5696 -0.4252  0.4571
  541MPD2    H5 8036   1.317   2.238  12.838 -0.8842 -0.3600  3.2339
  541MPD2    N1 8037   1.667   2.060  13.264  0.1179  0.0434  0.3674
  541MPD2    H7 8038   1.687   2.095  13.357 -0.6967 -1.4998  1.1255
  542TMC3    C1 8039   1.276   2.072  12.693 -0.1300  0.5255 -0.1204
  542TMC3    C2 8040   1.314   2.031  12.565  0.4123  0.1166 -0.6436
  542TMC3    C3 8041   1.259   2.095  12.454 -0.2432  0.3556 -0.0529
  542TMC3    C4 8042   1.180   2.163  12.710  0.1070  0.1241 -0.0888
  542TMC3    C5 8043   1.113   2.211  12.598 -0.0063 -0.3082 -0.4957
  542TMC3    C6 8044   1.151   2.184  12.470 -0.2184  0.7397 -0.5806
  542TMC3     C 8045   1.364   2.042  12.806 -0.1567  0.2493 -0.1185
  542TMC3     O 8046   1.432   1.941  12.800  0.6282  0.0243 -0.6387
  542TMC3     H 8047   1.386   1.951  12.554  1.5366  0.9164  0.8489
  542TMC3    H1 8048   1.159   2.207  12.807  1.3131  1.1577 -0.3071
  542TMC3    H2 8049   1.114   2.241  12.385  0.0007 -1.3132 -2.0497
  542TMC3    C7 8050   1.068   2.352  12.619 -0.8594  1.1821  0.1182
  542TMC3    C8 8051   1.284   2.061  12.311 -0.4404  0.1723 -0.5899
  542TMC3    O1 8052   1.130   2.415  12.701  0.6968  0.5472 -0.2130
  542TMC3    O2 8053   1.196   2.080  12.227 -0.0296  0.2962  0.3027
  543TMC3    C1 8054   0.363   3.503  17.144  0.2848  0.6236 -0.0552
  543TMC3    C2 8055   0.302   3.399  17.198 -0.1056  0.2981  0.3633
  543TMC3    C3 8056   0.232   3.418  17.311  0.5671 -0.0739 -0.4711
  543TMC3    C4 8057   0.358   3.629  17.197 -0.3299 -0.7442  0.4563
  543TMC3    C5 8058   0.285   3.644  17.314  0.2895 -0.0644  0.2927
  543TMC3    C6 8059   0.213   3.541  17.371 -0.0349 -0.8284  0.0578
  543TMC3     C 8060   0.416   3.496  17.008 -0.0403 -0.5013 -0.0878
  543TMC3     O 8061   0.460   3.388  16.971  0.7778 -0.1506 -0.1761
  543TMC3     H 8062   0.313   3.303  17.150  1.0507  0.2236  0.7746
  543TMC3    H1 8063   0.403   3.716  17.148 -1.2185 -0.5742 -0.0587
  543TMC3    H2 8064   0.149   3.546  17.458  1.7207  0.0708  1.3114
  543TMC3    C7 8065   0.334   3.753  17.402 -0.0859  0.7994  0.0548
  543TMC3    C8 8066   0.179   3.296  17.373  0.2686  0.7741  0.4808
  543TMC3    O1 8067   0.417   3.823  17.350 -0.1403 -0.0103  0.4205
  543TMC3    O2 8068   0.236   3.190  17.355 -0.1679 -0.2459 -0.5177
  544MPD2     C 8069   4.573   3.065  17.686  0.0088  0.1924  0.0658
  544MPD2    C1 8070   4.706   3.029  17.648  0.0137 -0.1280 -0.3657
  544MPD2    C2 8071   0.051   3.111  17.560 -0.0003  0.0385  0.1261
  544MPD2    C3 8072   4.714   3.230  17.516  0.1451  1.0265  0.1133
  544MPD2    C4 8073   4.586   3.266  17.556  0.6943  0.0046  0.5023
  544MPD2    C5 8074   4.517   3.184  17.641 -0.3651  0.6144 -0.1818
  544MPD2     H 8075   0.155   3.090  17.535 -0.4705 -1.0669 -0.9176
  544MPD2    H1 8076   4.533   3.357  17.533  0.6862  0.0232  0.5956
  544MPD2    H2 8077   4.526   3.003   0.068 -0.7687 -1.1220 -1.4915
  544MPD2    H3 8078   4.414   3.199  17.672  0.0564  1.1246  0.9742
  544MPD2     N 8079   0.062   3.324  17.441 -0.2899  0.4447  0.0569
  544MPD2    H5 8080   0.030   3.420  17.444  3.0774  1.5541  0.0556
  544MPD2    N1 8081   0.036   2.906   0.002 -0.3553 -0.4397  0.2557
  544MPD2    H7 8082   4.691   2.848   0.051 -1.5064  0.3478 -0.3916
  545TMC3    C1 8083   0.186   2.733   0.056  0.3159 -0.5137  0.1604
  545TMC3    C2 8084   0.292   2.654   0.027  0.8092 -0.7209  0.4660
  545TMC3    C3 8085   0.314   2.547   0.110 -0.0013 -0.0032  0.1793
  545TMC3    C4 8086   0.107   2.715   0.164  0.3850  0.9708 -0.0285
  545TMC3    C5 8087   0.137   2.613   0.247 -0.2379  0.4721 -0.1933
  545TMC3    C6 8088   0.235   2.520   0.219 -0.3060 -0.1274  0.2562
  545TMC3     C 8089   0.169   2.854  17.674 -0.2922 -0.1252 -0.1201
  545TMC3     O 8090   0.256   2.903  17.603 -0.0253 -0.0735 -0.3963
  545TMC3     H 8091   0.344   2.670  17.627 -1.3059 -0.5740 -0.7037
  545TMC3    H1 8092   0.019   2.776   0.184 -1.0692 -0.9920 -0.5217
  545TMC3    H2 8093   0.259   2.436   0.284  0.3807  0.4688  0.7719
  545TMC3    C7 8094   0.043   2.596   0.354 -0.5603 -0.3206  0.1528
  545TMC3    C8 8095   0.438   2.469   0.096 -0.3114  1.0938 -0.2188
  545TMC3    O1 8096   4.702   2.695   0.397  0.2553 -0.2050  0.1331
  545TMC3    O2 8097   0.486   2.421   0.197  0.1082  0.1291  0.0891
  546MPD2     C 8098   1.790   3.119  17.490 -0.2337 -0.0993 -0.1792
  546MPD2    C1 8099   1.824   3.140  17.356  0.7413  0.1905  0.6238
  546MPD2    C2 8100   1.923   3.230  17.328 -0.0551 -0.3259  0.7247
  546MPD2    C3 8101   1.963   3.315  17.434 -0.4286  0.3644 -0.4979
  546MPD2    C4 8102   1.916   3.295  17.566 -0.1724 -0.0775 -0.0019
  546MPD2    C5 8103   1.829   3.197  17.597  0.2537  0.5465 -0.3844
  546MPD2     H 8104   1.956   3.248  17.226 -0.3163  2.3443  1.1121
  546MPD2    H1 8105   1.950   3.365  17.641  1.0071 -1.9308  1.1635
  546MPD2    H2 8106   1.711   3.050  17.518 -0.8048  0.3967 -0.5735
  546MPD2    H3 8107   1.780   3.187   0.000 -0.3620 -1.1294 -0.8798
  546MPD2     N 8108   2.052   3.426  17.414 -0.2234  0.1818 -0.5136
  546MPD2    H5 8109   2.058   3.485  17.496  0.6082 -1.1959  0.4152
  546MPD2    N1 8110   1.742   3.084  17.251  0.3957  0.3859  0.1465
  546MPD2    H7 8111   1.682   3.016  17.295  0.1293  1.6435  1.7143
  547TMC3    C1 8112   1.651   3.014  17.041  0.3313 -0.3721  0.5194
  547TMC3    C2 8113   1.585   3.071  16.931 -0.0603  0.0938 -0.3800
  547TMC3    C3 8114   1.479   3.012  16.881 -0.0495 -0.3968 -0.6402
  547TMC3    C4 8115   1.600   2.906  17.107 -0.1612 -0.8571 -0.3601
  547TMC3    C5 8116   1.483   2.855  17.055 -0.5004 -0.8620  0.0751
  547TMC3    C6 8117   1.428   2.906  16.939 -0.1995  0.0940  0.3599
  547TMC3     C 8118   1.740   3.107  17.112 -0.0423  0.3302 -0.1205
  547TMC3     O 8119   1.804   3.187  17.045 -0.5023  0.2356  0.2081
  547TMC3     H 8120   1.621   3.166  16.893  0.1123 -0.1843 -0.9099
  547TMC3    H1 8121   1.635   2.878  17.205 -0.5883 -1.0734 -0.2669
  547TMC3    H2 8122   1.327   2.873  16.916  0.8561 -1.2213 -2.3386
  547TMC3    C7 8123   1.395   2.755  17.114  0.0223 -0.3496 -0.3424
  547TMC3    C8 8124   1.406   3.074  16.769  1.3773  0.1098 -0.8088
  547TMC3    O1 8125   1.390   2.760  17.236  0.5606 -0.0579 -0.1439
  547TMC3    O2 8126   1.296   3.030  16.747 -0.0666 -0.0308 -0.1699
  548MPD2     C 8127   1.694   3.864  12.368 -0.1116  0.8204  0.6183
  548MPD2    C1 8128   1.650   3.741  12.411  0.3452 -0.6125  0.5638
  548MPD2    C2 8129   1.711   3.625  12.364  0.2357 -0.0434  0.4273
  548MPD2    C3 8130   1.815   3.638  12.275  0.6060  0.0217  0.5973
  548MPD2    C4 8131   1.848   3.761  12.224  0.4893  0.1628 -0.9343
  548MPD2    C5 8132   1.784   3.878  12.266 -0.0985  0.0265 -0.0475
  548MPD2     H 8133   1.690   3.527  12.407 -1.8968  0.8470  1.4229
  548MPD2    H1 8134   1.918   3.765  12.142 -1.1995  1.9818 -2.2937
  548MPD2    H2 8135   1.649   3.954  12.410 -1.6856  1.4947 -2.4791
  548MPD2    H3 8136   1.806   3.975  12.224  0.0467  0.3727  0.8263
  548MPD2     N 8137   1.877   3.523  12.237  0.0882  0.4724 -0.4119
  548MPD2    H5 8138   1.855   3.432  12.277  1.3682  0.0507 -0.6458
  548MPD2    N1 8139   1.544   3.739  12.507  0.3461  0.3194  0.2153
  548MPD2    H7 8140   1.491   3.825  12.518 -1.0270 -0.8390  2.6298
  549TMC3    C1 8141   1.375   3.654  12.656  0.1421 -0.4641  0.2212
  549TMC3    C2 8142   1.289   3.758  12.626  0.5987 -0.8522  0.3796
  549TMC3    C3 8143   1.166   3.751  12.688 -0.0516 -0.0432 -0.2808
  549TMC3    C4 8144   1.341   3.553  12.740 -0.2774  0.2302 -0.1551
  549TMC3    C5 8145   1.223   3.553  12.810 -0.1099  0.5808 -0.4568
  549TMC3    C6 8146   1.135   3.663  12.787  0.2823 -0.2151 -0.0269
  549TMC3     C 8147   1.500   3.631  12.579 -0.9288  0.2145  0.1078
  549TMC3     O 8148   1.536   3.512  12.574 -0.5428 -0.1691  0.6072
  549TMC3     H 8149   1.295   3.822  12.538  2.4636 -1.5325  0.0219
  549TMC3    H1 8150   1.404   3.466  12.755  0.4284  0.8295  0.3682
  549TMC3    H2 8151   1.031   3.660  12.819  0.5217 -1.4646  0.6460
  549TMC3    C7 8152   1.144   3.427  12.806  0.3271 -0.1764  0.6819
  549TMC3    C8 8153   1.073   3.859  12.666 -0.2367  0.0377 -0.0860
  549TMC3    O1 8154   1.029   3.435  12.768 -0.1905 -0.1993 -0.0698
  549TMC3    O2 8155   0.956   3.838  12.680 -0.0174  0.1570 -0.2472
  550TMC3    C1 8156   0.613   1.474  12.141  0.6288  1.1645  0.0995
  550TMC3    C2 8157   0.621   1.503  12.273 -0.3195  0.2847  0.2891
  550TMC3    C3 8158   0.682   1.628  12.302 -0.1557  0.4809 -0.0856
  550TMC3    C4 8159   0.646   1.565  12.038  0.1025  0.2696 -0.4699
  550TMC3    C5 8160   0.695   1.688  12.069 -0.3043 -0.3600 -0.1391
  550TMC3    C6 8161   0.713   1.722  12.197  0.7880 -0.9128  0.9370
  550TMC3     C 8162   0.524   1.369  12.105  0.2051  0.4271 -0.0604
  550TMC3     O 8163   0.479   1.309  12.197  0.0227 -0.0812  0.5493
  550TMC3     H 8164   0.579   1.435  12.347 -0.5156 -1.7093 -1.6429
  550TMC3    H1 8165   0.626   1.546  11.933 -0.3792  0.7274 -0.4628
  550TMC3    H2 8166   0.735   1.827  12.216  1.1973 -1.1737  1.9464
  550TMC3    C7 8167   0.610   1.783  11.998  0.3604 -0.3207  0.3275
  550TMC3    C8 8168   0.642   1.690  12.428 -0.1118 -0.3362 -0.0791
  550TMC3    O1 8169   0.515   1.821  12.062 -0.4236 -0.0327 -0.0543
  550TMC3    O2 8170   0.642   1.809  12.426  0.3827 -0.4185 -0.1368
  551TMC3    C1 8171   2.450   4.052  13.361 -0.7241  0.4060  0.2340
  551TMC3    C2 8172   2.576   4.040  13.301 -0.1289 -0.7925  0.4448
  551TMC3    C3 8173   2.667   4.143  13.321  0.5405 -0.2967  0.4383
  551TMC3    C4 8174   2.426   4.150  13.453 -0.3694  0.6100 -0.4459
  551TMC3    C5 8175   2.524   4.237  13.477 -0.1600  0.0789 -0.3338
  551TMC3    C6 8176   2.642   4.241  13.412  0.1926 -0.8923 -0.4537
  551TMC3     C 8177   2.353   3.951  13.318 -0.4091 -0.0732  0.5367
  551TMC3     O 8178   2.386   3.858  13.246 -0.2186 -0.9264 -0.0269
  551TMC3     H 8179   2.584   3.978  13.213 -0.2585  1.2694 -1.0201
  551TMC3    H1 8180   2.331   4.172  13.500 -0.3417 -1.0982  0.4121
  551TMC3    H2 8181   2.711   4.323  13.428 -2.3427  1.3211 -0.8242
  551TMC3    C7 8182   2.502   4.333  13.585 -1.0353  0.3090  0.5053
  551TMC3    C8 8183   2.771   4.159  13.215  0.1338  0.5449  0.5046
  551TMC3    O1 8184   2.436   4.289  13.679  0.3325  0.0302 -0.4323
  551TMC3    O2 8185   2.808   4.061  13.154 -0.7907 -0.2937 -0.2497
  552MPD2     C 8186   4.718   1.516  14.083 -0.1430  0.1011 -0.3131
  552MPD2    C1 8187   0.063   1.634  14.060  0.2316 -0.1977 -0.2138
  552MPD2    C2 8188   0.122   1.701  14.171 -0.0177  1.1090  0.1994
  552MPD2    C3 8189   0.110   1.647  14.296  0.8327 -0.0133  0.2748
  552MPD2    C4 8190   0.043   1.532  14.321 -0.2399 -0.3989  0.4826
  552MPD2    C5 8191   4.703   1.471  14.213 -0.0765  0.7571  0.2817
  552MPD2     H 8192   0.184   1.788  14.154  0.1734  0.8798 -0.2680
  552MPD2    H1 8193   0.021   1.495  14.420 -1.2099  0.2409  0.5040
  552MPD2    H2 8194   4.670   1.462  14.002  0.1514 -1.6360  0.6718
  552MPD2    H3 8195   4.645   1.381  14.229  0.5113  0.4073  0.4087
  552MPD2     N 8196   0.171   1.708  14.404 -0.0432 -0.6968 -0.1581
  552MPD2    H5 8197   0.160   1.665  14.496  1.3815  1.2647  0.9471
  552MPD2    N1 8198   0.082   1.688  13.931  0.2491  0.0900  0.6289
  552MPD2    H7 8199   0.115   1.784  13.928 -0.2010  0.1524 -1.9360
  553TMC3    C1 8200   0.080   1.707  13.703 -0.4326 -0.0526 -0.7556
  553TMC3    C2 8201   0.012   1.701  13.582  0.1940 -0.4416 -0.3172
  553TMC3    C3 8202   0.059   1.768  13.469  0.3344  0.2119  0.3773
  553TMC3    C4 8203   0.202   1.763  13.707 -0.2066  0.7846 -0.0571
  553TMC3    C5 8204   0.245   1.825  13.595  0.3307  0.0892 -0.3339
  553TMC3    C6 8205   0.175   1.829  13.475 -0.0628  0.2728 -0.5239
  553TMC3     C 8206   0.034   1.634  13.816 -0.0143  0.3078  0.3518
  553TMC3     O 8207   4.711   1.523  13.794 -0.1216  0.2040  0.2903
  553TMC3     H 8208   4.645   1.641  13.574  0.1495 -0.3715 -0.3437
  553TMC3    H1 8209   0.254   1.775  13.802 -0.6377 -0.9626  0.4019
  553TMC3    H2 8210   0.225   1.863  13.384 -0.7303  0.7500 -0.7080
  553TMC3    C7 8211   0.382   1.876  13.593  0.4597 -0.2727  1.2796
  553TMC3    C8 8212   0.019   1.731  13.339 -0.1424  0.4611  0.2768
  553TMC3    O1 8213   0.390   1.982  13.531 -0.0332  0.3158 -0.1049
  553TMC3    O2 8214   0.075   1.782  13.239  0.1961 -0.3835  0.1878
  554TMC3    C1 8215   1.375   0.477  11.667  0.0452 -0.1313  0.8052
  554TMC3    C2 8216   1.290   0.436  11.570 -0.1651 -0.0153 -0.1256
  554TMC3    C3 8217   1.335   0.446  11.443  0.1107 -0.3793 -1.1668
  554TMC3    C4 8218   1.506   0.500  11.642 -0.1654 -0.2847  0.0550
  554TMC3    C5 8219   1.546   0.512  11.509 -0.7929  0.0197  0.0115
  554TMC3    C6 8220   1.461   0.486  11.408 -0.2766 -0.9624 -0.5232
  554TMC3     C 8221   1.341   0.413  11.789 -0.5347 -0.8248  0.1262
  554TMC3     O 8222   1.222   0.418  11.818 -0.2158 -0.6206 -0.3863
  554TMC3     H 8223   1.191   0.399  11.596 -0.3203  0.4316 -0.0722
  554TMC3    H1 8224   1.573   0.544  11.715 -0.0759 -1.3401  0.6095
  554TMC3    H2 8225   1.500   0.475  11.307  0.3946 -3.2011 -0.0226
  554TMC3    C7 8226   1.679   0.572  11.482 -0.5888 -0.1463 -0.5226
  554TMC3    C8 8227   1.251   0.398  11.333  0.1484 -0.4625 -0.4064
  554TMC3    O1 8228   1.751   0.594  11.574  0.2713 -0.0796 -0.4588
  554TMC3    O2 8229   1.255   0.461  11.234 -0.1586  0.1128  0.0690
  555TMC3    C1 8230   0.707   0.595  15.388 -0.4093  0.5451 -0.2356
  555TMC3    C2 8231   0.762   0.650  15.501  0.0897  0.4749 -0.2840
  555TMC3    C3 8232   0.790   0.570  15.608 -0.1023  0.0205  0.1233
  555TMC3    C4 8233   0.698   0.456  15.385 -0.2069 -0.2652 -0.0561
  555TMC3    C5 8234   0.727   0.376  15.494 -0.1055 -0.0056 -0.1260
  555TMC3    C6 8235   0.778   0.431  15.608 -0.2001  0.0396 -0.2825
  555TMC3     C 8236   0.696   0.673  15.262  0.7951  0.4934 -0.0463
  555TMC3     O 8237   0.770   0.768  15.247  1.2274  0.4683  0.1848
  555TMC3     H 8238   0.783   0.756  15.500 -1.0275  0.6864 -1.8021
  555TMC3    H1 8239   0.686   0.407  15.289  2.1579 -1.6446  0.3679
  555TMC3    H2 8240   0.816   0.366  15.686  1.6522  0.8557 -0.5054
  555TMC3    C7 8241   0.734   0.235  15.483  0.2567  0.2540  0.2581
  555TMC3    C8 8242   0.846   0.647  15.720  0.1741  0.2401  0.4259
  555TMC3    O1 8243   0.630   0.192  15.436  0.8671 -0.3517 -0.2432
  555TMC3    O2 8244   0.824   0.768  15.718 -0.3683 -0.0050 -0.5765
  556MPD2     C 8245   3.543   0.676  11.523  0.6309  0.5489 -0.0816
  556MPD2    C1 8246   3.494   0.754  11.424  0.0931  0.4039 -0.2271
  556MPD2    C2 8247   3.504   0.708  11.293  0.0840  0.2877  0.8766
  556MPD2    C3 8248   3.549   0.578  11.265 -0.1625  0.2759  0.4340
  556MPD2    C4 8249   3.592   0.500  11.372 -0.3780 -0.1370 -0.0082
  556MPD2    C5 8250   3.600   0.553  11.497  0.6034 -0.0485  0.2445
  556MPD2     H 8251   3.471   0.774  11.214  2.9540 -0.3179 -0.8179
  556MPD2    H1 8252   3.633   0.400  11.361  1.6512  0.6118  0.8016
  556MPD2    H2 8253   3.541   0.708  11.627  0.7814 -1.9667  0.6977
  556MPD2    H3 8254   3.627   0.481  11.573  0.0221 -1.0973 -0.5515
  556MPD2     N 8255   3.543   0.534  11.131  0.3660 -0.9632 -1.0850
  556MPD2    H5 8256   3.507   0.596  11.059  0.5777 -1.7951 -1.9109
  556MPD2    N1 8257   3.434   0.881  11.444  0.3016  0.3669  0.0885
  556MPD2    H7 8258   3.411   0.931  11.358  1.2544  0.3478 -0.1849
  557TMC3    C1 8259   3.582   0.395  10.950 -0.2764 -1.0366  0.3511
  557TMC3    C2 8260   3.587   0.510  10.877 -0.4978 -0.8130 -0.3466
  557TMC3    C3 8261   3.524   0.506  10.753  0.7219  0.6172 -0.6737
  557TMC3    C4 8262   3.525   0.284  10.902  0.5277  0.8580 -0.9863
  557TMC3    C5 8263   3.445   0.293  10.795 -0.2615 -0.1047 -0.8918
  557TMC3    C6 8264   3.448   0.397  10.713 -0.0454 -0.0411 -0.1052
  557TMC3     C 8265   3.562   0.406  11.092 -0.0009 -0.4066  1.3069
  557TMC3     O 8266   3.559   0.300  11.154  0.3074 -0.0721 -0.1506
  557TMC3     H 8267   3.653   0.591  10.907  1.2063 -1.6342 -1.8920
  557TMC3    H1 8268   3.516   0.193  10.960  1.8243  1.0982 -0.3944
  557TMC3    H2 8269   3.388   0.387  10.623  0.0652  1.4163 -0.3333
  557TMC3    C7 8270   3.406   0.171  10.746  0.2030 -0.0680  0.8568
  557TMC3    C8 8271   3.531   0.627  10.675  0.1217 -0.3409 -0.1320
  557TMC3    O1 8272   3.479   0.078  10.753  0.1690  0.2413  0.4506
  557TMC3    O2 8273   3.583   0.726  10.727 -0.1931 -0.1661  0.3811
  558TMC3    C1 8274   1.248   4.011  10.402  0.8219 -0.6086 -0.7085
  558TMC3    C2 8275   1.145   4.016  10.491 -0.1547  0.4222 -0.1592
  558TMC3    C3 8276   1.020   4.026  10.442 -0.3727 -0.0636  0.1968
  558TMC3    C4 8277   1.229   4.013  10.264  0.2836  0.9807 -0.4521
  558TMC3    C5 8278   1.099   4.033  10.228  0.7680  0.1331 -0.3432
  558TMC3    C6 8279   0.995   4.047  10.309 -0.1360 -0.8290 -0.0533
  558TMC3     C 8280   1.389   4.003  10.433 -0.9438 -0.0398  0.2365
  558TMC3     O 8281   1.466   3.997  10.340 -0.1037 -0.7280 -0.3078
  558TMC3     H 8282   1.162   4.019  10.598  1.4018  0.5132 -0.4117
  558TMC3    H1 8283   1.296   3.967  10.193 -1.5636 -1.5599 -0.5466
  558TMC3    H2 8284   0.896   4.070  10.272  0.3327  1.0407 -0.1192
  558TMC3    C7 8285   1.078   4.010  10.090  0.2646 -0.4093  0.3427
  558TMC3    C8 8286   0.910   3.982  10.516 -0.2659 -0.1775 -0.3659
  558TMC3    O1 8287   1.149   4.076  10.018  0.1816 -0.2645  0.1190
  558TMC3    O2 8288   0.799   4.001  10.467 -0.0642 -0.1726  0.6019
  559MPD2     C 8289   0.982   4.613  10.500 -0.6727 -0.8490  1.0404
  559MPD2    C1 8290   0.892   4.560  10.594 -0.2522  0.4702 -0.2091
  559MPD2    C2 8291   0.939   4.512  10.713 -0.0038 -0.1032 -0.2892
  559MPD2    C3 8292   1.075   4.507  10.741 -0.1720  0.2409 -0.3066
  559MPD2    C4 8293   1.164   4.565  10.652  0.1784 -0.0455  0.7212
  559MPD2    C5 8294   1.115   4.617  10.533 -1.6274 -0.0775  0.8671
  559MPD2     H 8295   0.878   4.467  10.790  1.3386 -1.1299  0.1735
  559MPD2    H1 8296   1.272   4.564  10.665  0.2824  1.0470 -0.0554
  559MPD2    H2 8297   0.953   4.646  10.402  0.8443  3.1560  1.9591
  559MPD2    H3 8298   1.190   4.648  10.461 -2.0431  0.8488  0.8365
  559MPD2     N 8299   1.124   4.453  10.862 -0.1305  0.1847 -0.7362
  559MPD2    H5 8300   1.056   4.404  10.918  2.3758  0.0432  2.1899
  559MPD2    N1 8301   0.758   4.563  10.568 -0.4910  0.4897  0.2729
  559MPD2    H7 8302   0.737   4.612  10.481 -0.4470 -1.9455 -1.1051
  560TMC3    C1 8303   1.270   4.403  11.034 -0.7075  0.1455  0.1856
  560TMC3    C2 8304   1.265   4.265  11.021  0.1189 -0.2129  0.4959
  560TMC3    C3 8305   1.333   4.190  11.102  0.9012 -0.1967 -0.1557
  560TMC3    C4 8306   1.329   4.467  11.143  0.4839 -0.0136 -0.0470
  560TMC3    C5 8307   1.396   4.379  11.227 -0.4217 -0.2869  0.0993
  560TMC3    C6 8308   1.407   4.247  11.203  0.6881  0.0009  0.1468
  560TMC3     C 8309   1.243   4.487  10.925 -0.5665  0.2772 -0.6554
  560TMC3     O 8310   1.327   4.569  10.889 -0.0079  0.0504 -0.0866
  560TMC3     H 8311   1.226   4.212  10.934  0.3619 -0.5793  0.6067
  560TMC3    H1 8312   1.333   4.575  11.144 -2.5032  0.0937  1.8757
  560TMC3    H2 8313   1.458   4.185  11.276 -1.3060 -0.1577  1.4262
  560TMC3    C7 8314   1.495   4.448  11.316  0.1476  0.0104  0.0863
  560TMC3    C8 8315   1.347   4.047  11.076 -0.8627 -0.5876  0.0151
  560TMC3    O1 8316   1.466   4.557  11.364  0.1561  0.7785 -0.0086
  560TMC3    O2 8317   1.246   3.994  11.028 -0.5349 -0.6476  0.1545
  561TMC3    C1 8318   3.707   3.275  11.263 -0.0892 -0.3533 -0.1049
  561TMC3    C2 8319   3.665   3.226  11.385 -0.1438 -0.0396  0.4905
  561TMC3    C3 8320   3.595   3.313  11.464 -0.0937 -0.2070  0.1987
  561TMC3    C4 8321   3.692   3.402  11.221 -0.2241 -0.9116 -0.0738
  561TMC3    C5 8322   3.629   3.486  11.311 -0.5473 -0.2041 -0.0183
  561TMC3    C6 8323   3.576   3.446  11.432  0.3453  0.2958  0.6793
  561TMC3     C 8324   3.724   3.170  11.161  0.1228 -0.0112  0.4180
  561TMC3     O 8325   3.776   3.208  11.057  0.2545  0.3629 -0.0260
  561TMC3     H 8326   3.690   3.125  11.416 -1.2418 -0.4825 -0.0464
  561TMC3    H1 8327   3.728   3.430  11.122 -0.8323 -0.7122 -0.2352
  561TMC3    H2 8328   3.498   3.503  11.480 -1.5155  0.5268 -2.6193
  561TMC3    C7 8329   3.638   3.630  11.277 -0.6233 -0.0784 -0.4570
  561TMC3    C8 8330   3.565   3.268  11.605 -0.3150  0.5360  0.2096
  561TMC3    O1 8331   3.707   3.657  11.177  0.3486  1.0324 -0.8294
  561TMC3    O2 8332   3.572   3.147  11.616 -0.1125 -0.0038  0.7027
  562TMC3    C1 8333   0.236   0.758  16.461 -0.1741  0.1037  0.2367
  562TMC3    C2 8334   0.148   0.858  16.425  0.8215  0.0766  0.3647
  562TMC3    C3 8335   0.112   0.857  16.287  0.5812 -0.7447 -0.1945
  562TMC3    C4 8336   0.285   0.663  16.378  0.7757 -0.4773 -0.0838
  562TMC3    C5 8337   0.244   0.668  16.247 -0.0452 -0.0983  0.5741
  562TMC3    C6 8338   0.157   0.759  16.207  0.5641 -0.8405 -0.2607
  562TMC3     C 8339   0.283   0.768  16.597  0.6449 -0.4669 -0.8215
  562TMC3     O 8340   0.217   0.841  16.672  0.2802 -0.2721 -0.1822
  562TMC3     H 8341   0.125   0.942  16.491  2.0835  1.3192 -0.7639
  562TMC3    H1 8342   0.340   0.579  16.416  0.0193 -0.5911  0.7643
  562TMC3    H2 8343   0.123   0.744  16.105 -0.9654 -0.3658  0.1770
  562TMC3    C7 8344   0.260   0.554  16.155  0.1390  0.1588 -0.3378
  562TMC3    C8 8345   0.002   0.933  16.239  0.0191 -0.6524 -0.0658
  562TMC3    O1 8346   0.164   0.527  16.084  0.3096  0.1628  0.4478
  562TMC3    O2 8347   4.640   0.947  16.322 -0.0234 -0.3389  0.5508
  563MPD2     C 8348   3.222   2.267  15.512 -0.5569  0.5162 -0.2071
  563MPD2    C1 8349   3.145   2.155  15.506 -0.5613  0.0884  0.1876
  563MPD2    C2 8350   3.200   2.026  15.507  0.7476 -0.5504 -0.4037
  563MPD2    C3 8351   3.332   2.005  15.537  0.2169 -0.3283 -0.1789
  563MPD2    C4 8352   3.412   2.115  15.557  0.3154 -0.0650  0.0703
  563MPD2    C5 8353   3.356   2.242  15.540 -1.4670  0.1856 -0.1735
  563MPD2     H 8354   3.133   1.941  15.504  0.7282 -0.5860  1.0016
  563MPD2    H1 8355   3.519   2.116  15.578  0.1349  0.0361  0.9562
  563MPD2    H2 8356   3.187   2.369  15.503 -1.9667  0.2756  2.6418
  563MPD2    H3 8357   3.421   2.328  15.547 -0.2009 -0.7562 -0.4939
  563MPD2     N 8358   3.382   1.877  15.567 -0.2983 -0.1588 -0.6347
  563MPD2    H5 8359   3.462   1.877  15.629 -1.3140 -0.8099  0.6801
  563MPD2    N1 8360   3.008   2.173  15.503 -0.5013  0.1713  0.1896
  563MPD2    H7 8361   2.977   2.269  15.497  1.1841  0.5883 -1.8015
  564TMC3    C1 8362   2.784   2.096  15.536  0.1291  0.5555  0.1367
  564TMC3    C2 8363   2.700   1.991  15.523 -0.4491 -0.6338  0.3256
  564TMC3    C3 8364   2.602   1.971  15.620  0.5383  0.4871 -0.3140
  564TMC3    C4 8365   2.765   2.199  15.628  0.4052  1.1046  0.2826
  564TMC3    C5 8366   2.675   2.169  15.729 -0.1575 -0.2158 -0.0010
  564TMC3    C6 8367   2.589   2.061  15.722  0.0975 -0.4879  0.1468
  564TMC3     C 8368   2.913   2.074  15.479 -0.1763  0.3027 -0.0550
  564TMC3     O 8369   2.928   1.970  15.418  0.3542 -0.5145  0.0655
  564TMC3     H 8370   2.723   1.913  15.451 -0.4588 -0.0538 -0.3064
  564TMC3    H1 8371   2.848   2.266  15.648 -1.8213  3.2706  2.3764
  564TMC3    H2 8372   2.529   2.033  15.808  0.5462 -1.8877  0.0044
  564TMC3    C7 8373   2.702   2.233  15.849  0.4496 -0.1330  0.0391
  564TMC3    C8 8374   2.541   1.839  15.640  0.5071  0.4407  0.1553
  564TMC3    O1 8375   2.760   2.343  15.850  0.8029  0.0482  0.4324
  564TMC3    O2 8376   2.474   1.812  15.739 -0.0825  0.2570 -0.2891
  565TMC3    C1 8377   2.881   2.737   9.688 -0.1790  0.5228 -0.4760
  565TMC3    C2 8378   2.872   2.610   9.736  0.1338 -0.4893 -0.3612
  565TMC3    C3 8379   2.790   2.517   9.677 -0.5954 -0.2702 -0.5008
  565TMC3    C4 8380   2.790   2.793   9.602  1.2414  0.3176 -0.1379
  565TMC3    C5 8381   2.693   2.702   9.563  0.8329 -0.5816  0.3766
  565TMC3    C6 8382   2.682   2.571   9.606 -0.0885  0.2935 -0.0653
  565TMC3     C 8383   2.990   2.830   9.729  0.4280  0.0280 -0.6499
  565TMC3     O 8384   3.030   2.917   9.652  0.4995  0.0610 -0.4328
  565TMC3     H 8385   2.950   2.568   9.799 -0.6014 -1.8125 -0.3422
  565TMC3    H1 8386   2.800   2.899   9.584  0.0696  0.1941 -1.5135
  565TMC3    H2 8387   2.613   2.507   9.553 -0.9092  0.3149  0.9603
  565TMC3    C7 8388   2.575   2.757   9.495 -0.2988  0.3823 -0.4942
  565TMC3    C8 8389   2.795   2.386   9.732 -0.4489 -1.0423 -0.4489
  565TMC3    O1 8390   2.474   2.694   9.517  0.6777 -0.0714 -0.4888
  565TMC3    O2 8391   2.871   2.365   9.824 -0.3146  0.0465  0.2699
  566MPD2     C 8392   4.718   4.676  14.601 -0.1348  0.1015 -0.1200
  566MPD2    C1 8393   0.009   0.042  14.499  0.1726 -0.8879 -0.4323
  566MPD2    C2 8394   4.659   0.009  14.385  0.0634 -0.4696 -0.4092
  566MPD2    C3 8395   4.589   4.613  14.363 -0.5131 -0.2207  0.0580
  566MPD2    C4 8396   4.579   4.527  14.473 -1.1124 -0.9155  0.1269
  566MPD2    C5 8397   4.646   4.563  14.589 -0.6943  0.0786 -0.2886
  566MPD2     H 8398   4.657   0.085  14.307 -1.6442  0.7925  0.8824
  566MPD2    H1 8399   4.528   4.431  14.466 -0.2006 -1.2836 -1.7830
  566MPD2    H2 8400   0.047   4.693  14.695  2.6443 -1.8920 -1.2839
  566MPD2    H3 8401   4.645   4.491  14.671 -1.5620  0.1106 -0.2721
  566MPD2     N 8402   4.562   4.583  14.225 -0.0215  0.8053  0.0726
  566MPD2    H5 8403   4.582   4.662  14.164 -0.0040  0.7314 -0.0169
  566MPD2    N1 8404   0.106   0.146  14.504 -0.4827 -0.4213  0.3741
  566MPD2    H7 8405   0.156   0.171  14.589 -1.0650 -0.2111  0.6582
  567TMC3    C1 8406   0.267   0.302  14.415 -0.4671  0.7539  0.1278
  567TMC3    C2 8407   0.287   0.387  14.310 -0.0998  0.0881 -0.1597
  567TMC3    C3 8408   0.398   0.467  14.302 -0.5935 -0.0768 -0.8645
  567TMC3    C4 8409   0.355   0.296  14.514 -0.5561 -0.4227  0.5824
  567TMC3    C5 8410   0.467   0.376  14.510 -0.2158  0.1479  0.5249
  567TMC3    C6 8411   0.495   0.461  14.404 -0.3747  0.5577 -0.3391
  567TMC3     C 8412   0.151   0.216  14.396 -1.0488 -0.0080 -1.3584
  567TMC3     O 8413   0.111   0.213  14.278 -0.2739 -0.8162 -0.3179
  567TMC3     H 8414   0.210   0.404  14.236 -1.7362  0.8438  1.7080
  567TMC3    H1 8415   0.332   0.214  14.582 -2.0390  0.2622  0.9062
  567TMC3    H2 8416   0.580   0.527  14.399  0.5303 -0.5635  0.2684
  567TMC3    C7 8417   0.569   0.351  14.613 -0.7546 -0.5068 -0.1111
  567TMC3    C8 8418   0.445   0.502  14.165  0.7862  0.5146 -0.0088
  567TMC3    O1 8419   0.671   0.417  14.603 -0.0400 -0.0400 -0.1745
  567TMC3    O2 8420   0.407   0.419  14.083  0.3302  0.7889  0.4445
  568MPD2     C 8421   2.315   0.419  16.338  0.1848  0.5924  0.1803
  568MPD2    C1 8422   2.423   0.487  16.394  0.4667 -0.7369 -0.3814
  568MPD2    C2 8423   2.467   0.608  16.347  0.3364 -0.5920  0.1784
  568MPD2    C3 8424   2.428   0.653  16.221  0.7457 -0.1990 -0.9127
  568MPD2    C4 8425   2.328   0.585  16.156  0.1080  0.7776 -0.1100
  568MPD2    C5 8426   2.265   0.480  16.219 -0.1531 -0.5922  0.0883
  568MPD2     H 8427   2.532   0.665  16.412 -1.2610 -0.0735  1.3201
  568MPD2    H1 8428   2.288   0.618  16.062 -1.2163  0.0111  0.1945
  568MPD2    H2 8429   2.277   0.323  16.372  0.6140  0.6548  0.8240
  568MPD2    H3 8430   2.185   0.430  16.166  0.1549  0.2110 -1.1431
  568MPD2     N 8431   2.469   0.782  16.179 -0.3352  0.1705 -0.5114
  568MPD2    H5 8432   2.525   0.836  16.245  1.7791 -0.2477 -1.9592
  568MPD2    N1 8433   2.490   0.420  16.501 -0.5201  0.3853  0.5255
  568MPD2    H7 8434   2.447   0.333  16.531 -3.2435  1.5864  0.0420
  569TMC3    C1 8435   2.471   0.971  16.029 -0.7313  0.2459  0.2613
  569TMC3    C2 8436   2.498   1.059  16.133 -0.5800 -0.1775 -0.3238
  569TMC3    C3 8437   2.532   1.189  16.107  0.0717  0.4148 -0.0488
  569TMC3    C4 8438   2.468   1.018  15.903  0.3754  0.7439 -0.2885
  569TMC3    C5 8439   2.494   1.148  15.891 -0.2406 -0.2486 -0.4216
  569TMC3    C6 8440   2.531   1.241  15.983 -0.2630  0.1295 -0.4029
  569TMC3     C 8441   2.435   0.832  16.057 -0.1091 -0.0427 -0.4599
  569TMC3     O 8442   2.388   0.779  15.959  0.0725 -0.5501  0.2955
  569TMC3     H 8443   2.492   1.035  16.239  0.1471  1.6465  0.1291
  569TMC3    H1 8444   2.417   0.964  15.824  0.1469  0.6551 -0.0806
  569TMC3    H2 8445   2.580   1.337  15.971  0.9476 -0.4069  0.2165
  569TMC3    C7 8446   2.514   1.194  15.754  0.5860 -0.4757 -0.0658
  569TMC3    C8 8447   2.558   1.268  16.226  0.3838  0.5748 -0.7176
  569TMC3    O1 8448   2.537   1.106  15.668 -0.5221 -0.1927 -0.4195
  569TMC3    O2 8449   2.615   1.215  16.320  0.5222  0.2933 -0.0431
  570TMC3    C1 8450   1.620   4.316  15.943  0.5739  0.3609 -0.2126
  570TMC3    C2 8451   1.702   4.325  15.832 -0.8012 -0.8169 -0.7179
  570TMC3    C3 8452   1.782   4.436  15.817 -0.5431 -0.5267  0.7451
  570TMC3    C4 8453   1.628   4.407  16.045 -0.4011 -1.1366  0.4496
  570TMC3    C5 8454   1.713   4.512  16.025 -0.2124  0.5163 -0.1132
  570TMC3    C6 8455   1.777   4.540  15.911  0.7863  0.3015 -0.2548
  570TMC3     C 8456   1.537   4.198  15.952 -0.2167  0.3333 -0.3289
  570TMC3     O 8457   1.497   4.131  15.857  0.2743 -0.5176 -0.0106
  570TMC3     H 8458   1.698   4.250  15.754  0.1106 -1.0749 -0.5253
  570TMC3    H1 8459   1.575   4.398  16.140 -2.2539  0.0161 -0.4776
  570TMC3    H2 8460   1.841   4.626  15.897  3.2426 -1.4821  0.1279
  570TMC3    C7 8461   1.743   4.602  16.142  0.3297  0.4113  0.1310
  570TMC3    C8 8462   1.915   4.430  15.754 -0.4194  0.6011 -0.4916
  570TMC3    O1 8463   1.707   4.562  16.253  0.0379 -0.5954  0.1219
  570TMC3    O2 8464   1.978   4.535  15.747  0.2096 -0.1253 -0.4182
  571MPD2     C 8465   0.148   1.124  17.039  0.0726 -0.3342 -0.0665
  571MPD2    C1 8466   0.228   1.213  17.107 -0.5472  0.1492 -0.9206
  571MPD2    C2 8467   0.171   1.309  17.198  0.1274  0.5219  1.1385
  571MPD2    C3 8468   0.034   1.312  17.203 -0.6630 -0.8607  0.1021
  571MPD2    C4 8469   4.673   1.232  17.129  0.5996 -0.3881 -1.0323
  571MPD2    C5 8470   0.009   1.142  17.048  0.4734 -0.7547  0.6540
  571MPD2     H 8471   0.241   1.369  17.256 -2.4329  3.9635  0.6479
  571MPD2    H1 8472   4.565   1.232  17.134  0.6632  0.2533  0.4437
  571MPD2    H2 8473   0.191   1.044  16.980  1.5864  1.7152 -1.7380
  571MPD2    H3 8474   4.675   1.064  16.999 -1.3751 -0.0042  1.6134
  571MPD2     N 8475   4.694   1.382  17.310  0.7887  0.4016 -0.2570
  571MPD2    H5 8476   4.592   1.375  17.307  0.8650 -0.9727  0.6640
  571MPD2    N1 8477   0.369   1.195  17.086 -0.1683 -0.1511  0.4475
  571MPD2    H7 8478   0.403   1.128  17.017 -1.3190  0.7459 -0.9787
  572TMC3    C1 8479   4.645   1.530  17.488  0.4651 -0.1179 -0.6537
  572TMC3    C2 8480   4.528   1.470  17.507 -1.1013  0.0904 -0.5410
  572TMC3    C3 8481   4.438   1.519  17.598  0.1500  0.1563  0.2588
  572TMC3    C4 8482   4.671   1.653  17.540 -0.2661 -0.9804 -0.4177
  572TMC3    C5 8483   4.566   1.705  17.614 -0.2951 -0.1322 -0.6981
  572TMC3    C6 8484   4.454   1.632  17.662  0.0138 -0.0008 -0.6808
  572TMC3     C 8485   0.021   1.481  17.394 -0.1273  0.1610  0.8439
  572TMC3     O 8486   0.135   1.525  17.398 -0.8226 -0.1105  0.0976
  572TMC3     H 8487   4.511   1.368  17.475  0.7269 -0.4774  0.2927
  572TMC3    H1 8488   0.035   1.711  17.511 -1.3586  1.2705  0.7991
  572TMC3    H2 8489   4.369   1.692   0.003  0.8704  0.5400  0.5206
  572TMC3    C7 8490   4.564   1.837  17.675 -0.3496 -0.1522 -0.0883
  572TMC3    C8 8491   4.307   1.455  17.602  0.6844 -0.6056  0.0542
  572TMC3    O1 8492   4.471   1.869   0.055 -0.2250 -0.8250  0.0638
  572TMC3    O2 8493   4.286   1.361  17.522 -0.2409 -0.5217  0.0078
  573MPD2     C 8494   0.351   1.255   0.894  0.6547 -0.3586 -0.1205
  573MPD2    C1 8495   0.366   1.389   0.861 -0.6245  0.8264  0.1737
  573MPD2    C2 8496   0.276   1.453   0.776 -0.0532 -0.5057  0.3795
  573MPD2    C3 8497   0.168   1.384   0.722  0.6149  0.4449  0.5007
  573MPD2    C4 8498   0.146   1.257   0.765  0.8534 -0.7112 -0.4392
  573MPD2    C5 8499   0.240   1.195   0.836  0.3859 -0.1933  0.3926
  573MPD2     H 8500   0.284   1.554   0.737  0.1810 -0.4734  0.5115
  573MPD2    H1 8501   0.061   1.193   0.745  1.6974 -1.5882 -1.2043
  573MPD2    H2 8502   0.425   1.202   0.953  1.3037  0.8963  0.1902
  573MPD2    H3 8503   0.224   1.095   0.877  1.2248 -0.4681  0.0408
  573MPD2     N 8504   0.073   1.441   0.626 -0.1484 -0.0521  0.3329
  573MPD2    H5 8505   4.716   1.382   0.606  1.5001 -0.8531 -3.7837
  573MPD2    N1 8506   0.486   1.452   0.908  0.0559 -0.2687  0.0346
  573MPD2    H7 8507   0.531   1.412   0.989  0.0260 -0.0703  0.1491
  574TMC3    C1 8508   4.680   1.621   0.519 -0.5738 -0.2205 -0.0064
  574TMC3    C2 8509   4.690   1.751   0.476  1.0174 -0.3910  1.1168
  574TMC3    C3 8510   4.584   1.834   0.480  0.1985  0.4644  0.0278
  574TMC3    C4 8511   4.564   1.565   0.563 -0.0866  0.0143  1.2249
  574TMC3    C5 8512   4.460   1.655   0.560 -0.0868  0.0763  1.2968
  574TMC3    C6 8513   4.461   1.786   0.506  0.0823  0.2419 -1.0014
  574TMC3     C 8514   0.086   1.572   0.568  0.2302  0.0017  0.0630
  574TMC3     O 8515   0.184   1.644   0.570 -0.2874 -0.0722  0.8600
  574TMC3     H 8516   0.057   1.793   0.431  0.5939  0.3266  0.9393
  574TMC3    H1 8517   4.549   1.465   0.602 -2.8678 -0.4066 -0.9107
  574TMC3    H2 8518   4.368   1.841   0.507  0.1899  0.4200 -0.7447
  574TMC3    C7 8519   4.325   1.594   0.568 -0.9472 -0.2894  0.1092
  574TMC3    C8 8520   4.610   1.968   0.446 -0.3396 -0.0707 -0.2881
  574TMC3    O1 8521   4.242   1.652   0.500  0.3285  0.6721 -0.6554
  574TMC3    O2 8522   4.721   1.991   0.396 -0.3394  0.2921  0.2122
  575TMC3    C1 8523   2.795   1.893  10.444 -0.2151 -0.9217  0.3637
  575TMC3    C2 8524   2.841   1.761  10.444  0.2974 -0.0313  0.4156
  575TMC3    C3 8525   2.863   1.711  10.322 -0.4282 -0.2949  0.6927
  575TMC3    C4 8526   2.781   1.965  10.327  0.2031  0.0494 -0.1437
  575TMC3    C5 8527   2.818   1.911  10.211 -0.2994 -0.2918  0.6477
  575TMC3    C6 8528   2.852   1.782  10.209  0.1770  0.2075 -0.1736
  575TMC3     C 8529   2.783   1.963  10.566 -0.0302  0.2320  0.2744
  575TMC3     O 8530   2.740   1.898  10.663  0.2108  0.2929  0.5742
  575TMC3     H 8531   2.839   1.719  10.544 -0.3204  1.6280  1.1124
  575TMC3    H1 8532   2.763   2.072  10.333  0.5018  0.0396  0.9377
  575TMC3    H2 8533   2.865   1.727  10.116  0.1836 -1.4359  0.7998
  575TMC3    C7 8534   2.805   1.991  10.097  0.1803  0.1679  0.6632
  575TMC3    C8 8535   2.925   1.585  10.307  0.5641  0.1812  0.6391
  575TMC3    O1 8536   2.812   2.113  10.115  0.2504 -0.2742 -0.3756
  575TMC3    O2 8537   2.934   1.544  10.189  0.1646 -0.5354  0.5863
  576MPD2     C 8538   2.859   3.740  12.703  0.2115  0.3178  0.1792
  576MPD2    C1 8539   2.867   3.839  12.604 -0.0411  0.4566  0.6997
  576MPD2    C2 8540   2.816   3.966  12.629  0.6867  0.0862 -0.6898
  576MPD2    C3 8541   2.747   3.994  12.741  0.1089  0.5162  0.4530
  576MPD2    C4 8542   2.749   3.898  12.836 -0.2296  0.6616 -0.0081
  576MPD2    C5 8543   2.801   3.770  12.819 -0.1813  0.0398 -0.5992
  576MPD2     H 8544   2.822   4.045  12.554 -1.6549  0.7177 -0.2253
  576MPD2    H1 8545   2.706   3.916  12.934 -0.5749 -3.3457  0.5709
  576MPD2    H2 8546   2.885   3.635  12.694 -0.5036  0.0981  0.6600
  576MPD2    H3 8547   2.797   3.688  12.890  0.7347 -0.1784 -0.8105
  576MPD2     N 8548   2.697   4.126  12.754 -0.1698 -0.0377  0.2583
  576MPD2    H5 8549   2.710   4.184  12.671 -1.6943  0.0643  0.1000
  576MPD2    N1 8550   2.936   3.824  12.479 -0.8336 -0.8971 -0.0409
  576MPD2    H7 8551   2.950   3.906  12.422 -0.2963  1.6336  3.7182
  577TMC3    C1 8552   3.089   3.732  12.337  0.4376  0.3735  0.1614
  577TMC3    C2 8553   3.212   3.676  12.352  0.5642  0.1179  0.1920
  577TMC3    C3 8554   3.297   3.689  12.250 -0.5332 -0.1153 -0.5016
  577TMC3    C4 8555   3.051   3.791  12.220  0.2841  0.1151 -0.0635
  577TMC3    C5 8556   3.139   3.798  12.119  0.7072  0.0076 -0.0765
  577TMC3    C6 8557   3.261   3.750  12.134  0.2592 -0.1452  0.3526
  577TMC3     C 8558   3.002   3.713  12.447 -0.3996  0.1612 -0.1367
  577TMC3     O 8559   3.013   3.605  12.507 -0.0616 -0.6105  0.3905
  577TMC3     H 8560   3.240   3.638  12.449 -1.6052  2.3999  1.6951
  577TMC3    H1 8561   2.946   3.815  12.213  0.0395 -1.0212 -0.3450
  577TMC3    H2 8562   3.334   3.760  12.055 -0.3296  0.8189 -0.0682
  577TMC3    C7 8563   3.090   3.777  11.981  0.1981 -1.0575 -0.7570
  577TMC3    C8 8564   3.347   3.549  12.222 -0.4005 -0.7087 -0.1075
  577TMC3    O1 8565   3.151   3.693  11.914  0.3235  0.5053 -0.1479
  577TMC3    O2 8566   3.306   3.455  12.295  0.3778 -0.0821  0.3829
  578MPD2     C 8567   1.726   3.805   1.394  0.2068 -0.0045 -0.0906
  578MPD2    C1 8568   1.760   3.792   1.261 -0.6437  0.5018  0.3421
  578MPD2    C2 8569   1.832   3.681   1.212 -0.2166  0.1278 -0.1843
  578MPD2    C3 8570   1.877   3.590   1.309 -0.0686  0.2798  0.3425
  578MPD2    C4 8571   1.860   3.613   1.445  0.6487 -0.2072  0.0792
  578MPD2    C5 8572   1.773   3.713   1.489  0.3078  0.1196 -0.1278
  578MPD2     H 8573   1.855   3.671   1.106 -2.5632 -1.4112 -0.5525
  578MPD2    H1 8574   1.911   3.545   1.513  1.3111 -0.2191 -0.4344
  578MPD2    H2 8575   1.666   3.888   1.427 -2.4709 -1.5174 -1.1950
  578MPD2    H3 8576   1.746   3.727   1.592 -0.6535 -0.5482 -0.2873
  578MPD2     N 8577   1.967   3.492   1.267  0.1261 -0.4110 -0.5062
  578MPD2    H5 8578   2.009   3.508   1.175  1.0885  2.6255  0.4773
  578MPD2    N1 8579   1.717   3.897   1.181 -0.1368  0.5020 -0.0296
  578MPD2    H7 8580   1.660   3.969   1.224  1.0738  0.9185  0.8748
  579TMC3    C1 8581   2.086   3.289   1.266 -0.9155  0.0284 -0.0146
  579TMC3    C2 8582   2.189   3.360   1.205 -0.4220 -0.1375  0.6109
  579TMC3    C3 8583   2.272   3.288   1.116  0.6684  0.4742  0.5577
  579TMC3    C4 8584   2.060   3.161   1.237 -0.0534 -0.3745  0.2277
  579TMC3    C5 8585   2.133   3.102   1.139 -0.0235  0.3941  0.4867
  579TMC3    C6 8586   2.238   3.159   1.092  0.2792 -0.0616 -0.8836
  579TMC3     C 8587   1.988   3.370   1.332  0.0863 -0.2198  0.4024
  579TMC3     O 8588   1.923   3.318   1.421  0.8250  0.5687  0.1694
  579TMC3     H 8589   2.209   3.454   1.254  2.2420 -0.7544  0.7360
  579TMC3    H1 8590   1.969   3.119   1.278  0.5827 -4.0634 -2.1166
  579TMC3    H2 8591   2.298   3.100   1.024  1.3506 -4.0687  3.4958
  579TMC3    C7 8592   2.060   2.995   1.064 -0.1625  0.4707  0.2088
  579TMC3    C8 8593   2.382   3.345   1.046  0.6129 -0.1347 -0.6507
  579TMC3    O1 8594   2.119   2.898   1.024  0.1147  0.3395 -0.4639
  579TMC3    O2 8595   2.461   3.275   0.984 -0.4992  0.1526  0.1215
  580TMC3    C1 8596   0.914   3.467  12.421 -0.6067  0.0959 -0.7421
  580TMC3    C2 8597   0.996   3.576  12.396 -0.5341  0.5956  0.4639
  580TMC3    C3 8598   1.133   3.549  12.379 -0.2232  0.3236 -0.0927
  580TMC3    C4 8599   0.970   3.345  12.447  0.0539 -0.1858  0.1274
  580TMC3    C5 8600   1.107   3.327  12.445 -0.1578  0.3227  0.7170
  580TMC3    C6 8601   1.181   3.424  12.398 -0.3497 -0.1043  0.5373
  580TMC3     C 8602   0.792   3.452  12.349  0.9359  0.3617 -0.9305
  580TMC3     O 8603   0.721   3.357  12.375 -0.2389 -0.5353  0.3805
  580TMC3     H 8604   0.958   3.676  12.374  1.7052  1.4753  0.6260
  580TMC3    H1 8605   0.911   3.255  12.458 -0.7534  0.0492 -2.2046
  580TMC3    H2 8606   1.286   3.401  12.387  0.1435  1.4942  1.8975
  580TMC3    C7 8607   1.163   3.189  12.451  0.3219  0.0007 -0.0722
  580TMC3    C8 8608   1.220   3.646  12.308  0.1240  0.0358 -0.1468
  580TMC3    O1 8609   1.268   3.180  12.510 -0.3564 -0.5333 -0.2144
  580TMC3    O2 8610   1.193   3.765  12.323 -0.7948 -0.3224 -0.3332
  581MPD2     C 8611   3.527   3.070  14.570  0.5893  0.0483  0.3792
  581MPD2    C1 8612   3.456   3.004  14.667  0.4941 -0.7808  0.5343
  581MPD2    C2 8613   3.351   3.069  14.728 -0.7199  0.0179  0.2924
  581MPD2    C3 8614   3.317   3.200  14.690  0.4057  0.8533 -0.0791
  581MPD2    C4 8615   3.382   3.257  14.585 -0.1268 -0.3151  0.4245
  581MPD2    C5 8616   3.492   3.195  14.529  0.2884  0.5586  0.4298
  581MPD2     H 8617   3.299   3.017  14.808 -1.0662 -1.0413 -0.6208
  581MPD2    H1 8618   3.341   3.340  14.530 -1.5239  0.2327  2.2781
  581MPD2    H2 8619   3.610   3.023  14.518  0.0202  2.0307 -2.3110
  581MPD2    H3 8620   3.534   3.235  14.437  3.6716 -0.1440  1.6555
  581MPD2     N 8621   3.207   3.262  14.755  0.9761 -0.1986 -0.0333
  581MPD2    H5 8622   3.156   3.202  14.819 -1.0128  1.7768  0.2328
  581MPD2    N1 8623   3.508   2.882  14.707 -0.0130  0.2315 -0.1045
  581MPD2    H7 8624   3.598   2.860  14.667  0.2375 -0.8659  1.0758
  582TMC3    C1 8625   3.558   2.700  14.837 -0.1921  0.0373 -0.2021
  582TMC3    C2 8626   3.689   2.737  14.863  0.2897 -0.3828 -0.3304
  582TMC3    C3 8627   3.758   2.653  14.949 -0.3668 -0.5530  0.6741
  582TMC3    C4 8628   3.511   2.581  14.881  0.0491 -0.0027  0.0728
  582TMC3    C5 8629   3.588   2.496  14.953 -0.0007 -0.2575  0.0060
  582TMC3    C6 8630   3.719   2.525  14.981  0.1533  0.0314 -0.1925
  582TMC3     C 8631   3.462   2.801  14.806  0.5475 -0.3080  0.2199
  582TMC3     O 8632   3.362   2.782  14.866  0.0822 -0.1575  0.9241
  582TMC3     H 8633   3.721   2.837  14.834 -2.2279  0.0746 -1.4808
  582TMC3    H1 8634   3.410   2.554  14.855  1.6876 -4.7087 -1.2599
  582TMC3    H2 8635   3.776   2.462  15.048 -0.6703 -0.0427  0.4393
  582TMC3    C7 8636   3.524   2.473  15.082 -0.4407  1.0364 -0.3612
  582TMC3    C8 8637   3.803   2.723  15.068 -0.3084  0.2964 -0.5139
  582TMC3    O1 8638   3.560   2.371  15.142  0.0813 -0.6119  0.0148
  582TMC3    O2 8639   3.740   2.825  15.083 -0.0482  0.5120  0.1263
  583MPD2     C 8640   3.870   4.471  16.867  0.0353  0.1086 -0.4431
  583MPD2    C1 8641   3.887   4.592  16.804  0.3741  0.2651  1.1493
  583MPD2    C2 8642   3.807   4.700  16.849 -0.0105 -0.0245 -0.2879
  583MPD2    C3 8643   3.722   4.688  16.956  0.3750 -0.1791 -0.4331
  583MPD2    C4 8644   3.721   4.568  17.029  0.1721  0.1215  0.2341
  583MPD2    C5 8645   3.789   4.465  16.981 -0.0379  0.2409 -0.0404
  583MPD2     H 8646   3.815   0.075  16.803  0.0957  0.0696 -0.0691
  583MPD2    H1 8647   3.667   4.549  17.121 -0.8546  0.1921 -0.3508
  583MPD2    H2 8648   3.937   4.387  16.853 -1.6371 -1.1053 -1.1612
  583MPD2    H3 8649   3.769   4.370  17.028 -2.1325 -0.1418 -1.7211
  583MPD2     N 8650   3.658   0.080  17.003 -0.3950 -0.2779  0.2962
  583MPD2    H5 8651   3.663   0.154  16.934  2.2331 -0.4655  0.2774
  583MPD2    N1 8652   3.975   4.606  16.693 -0.0250  0.6210 -0.3543
  583MPD2    H7 8653   3.985   4.698  16.651 -0.7245  0.3320 -1.1597
  584TMC3    C1 8654   3.515   0.208  17.134  0.5540 -0.0603 -0.2020
  584TMC3    C2 8655   3.477   0.288  17.029  0.0901 -0.0227 -0.0212
  584TMC3    C3 8656   3.393   0.395  17.050  0.5111 -0.4927 -0.7033
  584TMC3    C4 8657   3.457   0.223  17.255  0.0114 -0.3304  0.1552
  584TMC3    C5 8658   3.378   0.330  17.277  0.4888  0.1752  0.0589
  584TMC3    C6 8659   3.350   0.425  17.179  0.3371 -0.1596  0.0944
  584TMC3     C 8660   3.581   0.083  17.117 -0.5707 -0.8725 -0.1173
  584TMC3     O 8661   3.580   4.721  17.208 -0.8746  0.4826  0.4498
  584TMC3     H 8662   3.524   0.270  16.933  0.1512 -1.9439  0.3622
  584TMC3    H1 8663   3.470   0.147  17.332  0.6234  1.9116  2.2567
  584TMC3    H2 8664   3.284   0.509  17.198  1.1283  0.6793 -0.9150
  584TMC3    C7 8665   3.318   0.344  17.402 -0.1588 -0.6588  0.4971
  584TMC3    C8 8666   3.412   0.507  16.951 -0.1709  0.2587  0.8742
  584TMC3    O1 8667   3.387   0.304  17.496  0.1130  0.1582  0.1874
  584TMC3    O2 8668   3.441   0.484  16.834 -0.0868  0.0905  0.2892
  585MPD2     C 8669   3.081   3.849   0.395 -0.2141 -0.5039  0.1851
  585MPD2    C1 8670   3.117   3.906   0.276 -1.1808  0.1799 -0.0364
  585MPD2    C2 8671   3.085   3.852   0.156 -0.5688 -0.7627 -0.0225
  585MPD2    C3 8672   3.012   3.735   0.156  0.5264  0.3492  0.2835
  585MPD2    C4 8673   2.973   3.674   0.280 -0.2802 -0.3242 -0.3795
  585MPD2    C5 8674   3.005   3.734   0.399  0.0411 -0.0348  0.0945
  585MPD2     H 8675   3.106   3.904   0.063 -0.5716  1.2424  1.0946
  585MPD2    H1 8676   2.908   3.588   0.283 -1.4772  0.6706  1.8113
  585MPD2    H2 8677   3.102   3.897   0.490 -0.9096 -1.4873  0.8307
  585MPD2    H3 8678   2.978   3.691   0.495  0.0331  0.3201  0.2506
  585MPD2     N 8679   2.965   3.675   0.038 -0.3044 -0.0559 -0.0654
  585MPD2    H5 8680   2.884   3.615   0.038  0.7159 -1.4459 -1.0035
  585MPD2    N1 8681   3.173   4.033   0.281  0.4156 -0.4824  0.5552
  585MPD2    H7 8682   3.175   4.081   0.371 -0.8689  0.6434 -0.0292
  586TMC3    C1 8683   2.925   3.676  17.506 -0.1579  0.6100 -0.4640
  586TMC3    C2 8684   2.973   3.657  17.377 -0.4706  0.3224 -0.3713
  586TMC3    C3 8685   2.881   3.622  17.275 -0.2060 -0.3643 -0.5228
  586TMC3    C4 8686   2.788   3.683  17.531 -0.5371 -0.7890  0.5665
  586TMC3    C5 8687   2.705   3.638  17.434 -0.0990  0.0679 -0.0525
  586TMC3    C6 8688   2.751   3.610  17.305  0.9999 -0.5756  0.2078
  586TMC3     C 8689   3.020   3.703  17.617  0.0453 -0.9030 -0.4590
  586TMC3     O 8690   3.130   3.746  17.578 -0.5231 -0.3300  0.1230
  586TMC3     H 8691   3.079   3.669  17.360 -0.5161 -1.0760 -1.6132
  586TMC3    H1 8692   2.748   3.697  17.631 -1.2649 -0.9640  0.3002
  586TMC3    H2 8693   2.672   3.570  17.242 -0.6577  2.3746  0.3869
  586TMC3    C7 8694   2.592   3.557  17.471  0.3156 -0.2615 -0.2654
  586TMC3    C8 8695   2.926   3.506  17.197  0.0148  0.0251  0.1457
  586TMC3    O1 8696   2.586   3.450  17.418 -0.4351  0.8178  0.0637
  586TMC3    O2 8697   2.846   3.425  17.158  0.0009  0.3847  0.0023
  587TMC3    C1 8698   0.671   2.616  16.480 -0.1513 -0.3234 -0.1014
  587TMC3    C2 8699   0.615   2.715  16.400 -0.6118  1.0369 -0.1379
  587TMC3    C3 8700   0.698   2.777  16.315 -0.2468 -0.4928  0.8130
  587TMC3    C4 8701   0.795   2.570  16.465  0.0470 -0.5097  0.1913
  587TMC3    C5 8702   0.869   2.635  16.368  0.3370  0.4718 -0.3785
  587TMC3    C6 8703   0.827   2.741  16.298  0.6401 -0.8043  0.2936
  587TMC3     C 8704   0.599   2.561  16.600  0.5982 -0.4589  0.0814
  587TMC3     O 8705   0.668   2.508  16.683  0.6024  0.2146  0.2264
  587TMC3     H 8706   0.511   2.741  16.409 -1.0054  0.2431 -2.2958
  587TMC3    H1 8707   0.845   2.518  16.546  1.5792  1.5090  0.5447
  587TMC3    H2 8708   0.882   2.781  16.213 -0.7196 -0.3388 -0.3712
  587TMC3    C7 8709   0.984   2.567  16.314 -0.0083 -0.2545  0.1133
  587TMC3    C8 8710   0.642   2.893  16.241 -0.6038  0.2936  0.3954
  587TMC3    O1 8711   1.065   2.642  16.257 -0.4194 -0.0546 -0.3141
  587TMC3    O2 8712   0.690   2.927  16.137  0.2106  0.2935 -0.4059
  588TMC3    C1 8713   2.503   0.196   9.778 -0.0800 -0.6444  1.3262
  588TMC3    C2 8714   2.490   0.063   9.743 -0.2177 -0.4192 -0.9371
  588TMC3    C3 8715   2.602   4.702   9.756  0.1605  1.0753  0.3134
  588TMC3    C4 8716   2.620   0.249   9.819  0.6320 -0.5027 -0.3684
  588TMC3    C5 8717   2.726   0.162   9.828 -0.1350  0.4048 -0.1098
  588TMC3    C6 8718   2.718   0.035   9.799 -0.3707 -0.0815  0.2200
  588TMC3     C 8719   2.394   0.284   9.783  1.5397  0.5580 -0.1280
  588TMC3     O 8720   2.283   0.242   9.775 -0.4442 -0.0956  0.1816
  588TMC3     H 8721   2.397   0.019   9.712  0.2339 -0.8196 -1.7302
  588TMC3    H1 8722   2.642   0.347   9.858 -0.5258 -1.1261  1.8919
  588TMC3    H2 8723   2.807   4.699   9.818  0.9448  2.0083  0.4638
  588TMC3    C7 8724   2.854   0.220   9.874  0.2393  0.3555 -0.4117
  588TMC3    C8 8725   2.600   4.572   9.703 -0.8685  0.1511  0.0999
  588TMC3    O1 8726   2.923   0.147   9.943  0.1727 -0.6148  0.2239
  588TMC3    O2 8727   2.497   4.535   9.654  0.5823  0.1991 -0.8052
  589TMC3    C1 8728   1.341   2.274   1.182  0.3281 -0.2034 -0.0230
  589TMC3    C2 8729   1.408   2.323   1.292 -0.2141 -0.2061  0.7836
  589TMC3    C3 8730   1.497   2.247   1.354 -0.6512 -0.1729 -0.0345
  589TMC3    C4 8731   1.371   2.157   1.135 -0.1497 -0.2348  0.7386
  589TMC3    C5 8732   1.468   2.080   1.200 -0.5574  0.1486 -0.3447
  589TMC3    C6 8733   1.531   2.123   1.312 -0.2554  0.7545 -0.3531
  589TMC3     C 8734   1.239   2.351   1.106 -0.0189 -0.1950 -0.5508
  589TMC3     O 8735   1.168   2.292   1.026 -0.3326  0.2784 -0.1800
  589TMC3     H 8736   1.393   2.426   1.322 -0.5017  0.2351 -0.8568
  589TMC3    H1 8737   1.327   2.116   1.045  0.3949 -0.0089  0.3662
  589TMC3    H2 8738   1.599   2.063   1.370 -1.7555 -1.5544 -0.9693
  589TMC3    C7 8739   1.486   1.950   1.150  0.5492 -0.5952  0.1639
  589TMC3    C8 8740   1.596   2.321   1.434  0.0740  0.1702  0.0023
  589TMC3    O1 8741   1.401   1.898   1.078  0.2461 -0.0415  0.4527
  589TMC3    O2 8742   1.566   2.426   1.499  0.2046 -0.0276  0.5337
  590MPD2     C 8743   1.306   1.330  16.709 -0.1101 -0.1765  0.2109
  590MPD2    C1 8744   1.257   1.327  16.579 -0.2890  0.3641 -0.2227
  590MPD2    C2 8745   1.349   1.357  16.479  0.2722  0.0875  0.3728
  590MPD2    C3 8746   1.480   1.377  16.507  0.5888  0.2880  0.0589
  590MPD2    C4 8747   1.526   1.372  16.639 -0.2126  0.2262 -0.3174
  590MPD2    C5 8748   1.438   1.337  16.728 -1.2650 -0.3140  0.0364
  590MPD2     H 8749   1.315   1.380  16.378 -0.0714 -1.4183  0.1446
  590MPD2    H1 8750   1.629   1.397  16.663 -0.4854 -0.3074  1.4489
  590MPD2    H2 8751   1.248   1.316  16.799  0.8977 -1.6562  0.6157
  590MPD2    H3 8752   1.473   1.344  16.830 -0.9617 -2.2313  0.0739
  590MPD2     N 8753   1.573   1.416  16.407 -0.2550 -0.1662 -0.0559
  590MPD2    H5 8754   1.546   1.428  16.310 -0.6399  1.6078  0.2603
  590MPD2    N1 8755   1.121   1.312  16.552  0.6103  0.4828 -0.4268
  590MPD2    H7 8756   1.058   1.329  16.629  1.7741  1.4457  0.3202
  591TMC3    C1 8757   1.780   1.445  16.296 -0.2192  0.1736  0.0722
  591TMC3    C2 8758   1.794   1.355  16.195  0.4733  0.0085  0.2542
  591TMC3    C3 8759   1.804   1.405  16.064 -0.0623 -0.2814  0.4336
  591TMC3    C4 8760   1.749   1.574  16.272 -0.3433  0.5050 -0.3499
  591TMC3    C5 8761   1.758   1.619  16.142 -0.0772  0.1023 -0.0566
  591TMC3    C6 8762   1.783   1.537  16.034 -0.1870  0.0769 -0.6282
  591TMC3     C 8763   1.706   1.395  16.418 -0.7610  0.8745 -0.9018
  591TMC3     O 8764   1.762   1.311  16.487 -0.2223 -0.2910 -0.1629
  591TMC3     H 8765   1.834   1.257  16.215  0.5092 -0.0880 -0.3045
  591TMC3    H1 8766   1.720   1.632  16.358  0.0135  1.9234 -1.1992
  591TMC3    H2 8767   1.765   1.565  15.931  1.8066  4.1555  0.1430
  591TMC3    C7 8768   1.688   1.743  16.122  0.3182  0.2177 -0.5621
  591TMC3    C8 8769   1.886   1.328  15.971 -0.4484 -0.6423 -0.2713
  591TMC3    O1 8770   1.590   1.762  16.196 -0.0735  0.2156  0.2070
  591TMC3    O2 8771   1.892   1.206  15.987  0.0526  0.4643  0.4995
  592MPD2     C 8772   1.957   2.837  11.188  0.1642  0.2044 -0.2939
  592MPD2    C1 8773   1.961   2.882  11.317 -0.2950 -0.4783  0.5899
  592MPD2    C2 8774   1.865   2.834  11.402 -0.0619  0.1035  0.2998
  592MPD2    C3 8775   1.777   2.732  11.362  0.7428  0.0585 -0.2615
  592MPD2    C4 8776   1.772   2.702  11.223 -1.3602 -0.6422 -0.2172
  592MPD2    C5 8777   1.864   2.752  11.142  0.1978  0.2769  1.0210
  592MPD2     H 8778   1.858   2.863  11.506  0.5736  0.2316  0.3046
  592MPD2    H1 8779   1.706   2.630  11.177 -3.5553  1.0526  0.2680
  592MPD2    H2 8780   2.027   2.876  11.114 -1.3877  0.5497 -1.5751
  592MPD2    H3 8781   1.853   2.722  11.038 -1.9276  2.5217  0.5833
  592MPD2     N 8782   1.685   2.682  11.454 -0.3110 -0.2391 -0.0327
  592MPD2    H5 8783   1.688   2.728  11.544 -2.6342  0.1687 -0.1738
  592MPD2    N1 8784   2.055   2.983  11.348  0.0850  0.2032  0.6773
  592MPD2    H7 8785   2.116   3.014  11.272 -1.6503 -0.1096 -0.8399
  593TMC3    C1 8786   2.164   3.146  11.476 -0.0430  0.2298 -0.2404
  593TMC3    C2 8787   2.182   3.201  11.599  0.5181 -1.0600 -0.0056
  593TMC3    C3 8788   2.278   3.294  11.599  0.4153 -0.3435  0.0707
  593TMC3    C4 8789   2.234   3.180  11.365 -0.0299  0.8223 -0.1840
  593TMC3    C5 8790   2.323   3.284  11.375  0.2886 -1.0599  0.4153
  593TMC3    C6 8791   2.356   3.335  11.497 -0.8638 -0.5582  0.2918
  593TMC3     C 8792   2.062   3.040  11.471  0.0016  0.2870 -0.0771
  593TMC3     O 8793   1.993   3.028  11.569 -0.7525 -0.2164  1.0735
  593TMC3     H 8794   2.129   3.172  11.689  1.0477  0.6099  0.8442
  593TMC3    H1 8795   2.231   3.120  11.275  0.1966  1.0284 -0.3317
  593TMC3    H2 8796   2.435   3.408  11.511  0.0320 -1.2549 -1.1203
  593TMC3    C7 8797   2.396   3.332  11.257  0.0034 -0.3857 -0.0836
  593TMC3    C8 8798   2.292   3.369  11.725 -0.3039  0.1398 -0.0506
  593TMC3    O1 8799   2.493   3.407  11.282  0.7978  0.3756  0.1073
  593TMC3    O2 8800   2.188   3.396  11.784 -0.1035 -0.1196  0.3136
  594MPD2     C 8801   0.841   2.002  14.219  0.0558 -0.9604 -0.0226
  594MPD2    C1 8802   0.842   1.981  14.359  0.0503  0.0973 -0.1800
  594MPD2    C2 8803   0.960   2.015  14.426  0.1678  0.2397 -0.1775
  594MPD2    C3 8804   1.074   2.061  14.361  0.2992  0.1552 -0.3521
  594MPD2    C4 8805   1.075   2.067  14.225 -0.4641 -0.0085  0.0284
  594MPD2    C5 8806   0.960   2.034  14.155 -0.7136 -0.0480  0.2416
  594MPD2     H 8807   0.967   2.018  14.534 -1.0141 -1.5080 -0.0440
  594MPD2    H1 8808   1.159   2.103  14.166 -0.3973 -0.7501 -0.3204
  594MPD2    H2 8809   0.753   1.978  14.161  0.5509 -1.5127 -0.5363
  594MPD2    H3 8810   0.956   2.042  14.047  0.6863 -2.0933  0.0334
  594MPD2     N 8811   1.174   2.111  14.437 -0.0468 -0.2829  0.7222
  594MPD2    H5 8812   1.152   2.128  14.534 -0.8451 -0.4614  0.5737
  594MPD2    N1 8813   0.726   1.940  14.427  0.4123 -0.2806 -0.2612
  594MPD2    H7 8814   0.655   1.908  14.361 -1.1744  1.3762  0.6333
  595TMC3    C1 8815   1.597   2.324  14.483  0.4267 -0.3096 -0.0320
  595TMC3    C2 8816   1.519   2.217  14.445  0.3148 -0.6163  0.1036
  595TMC3    C3 8817   1.384   2.218  14.475  0.6907  0.6115 -0.4009
  595TMC3    C4 8818   1.545   2.436  14.525  0.7299  0.2763 -0.3280
  595TMC3    C5 8819   1.414   2.436  14.552  0.3073  0.2692  0.1251
  595TMC3    C6 8820   1.330   2.324  14.525  0.0417 -0.0188  0.4598
  595TMC3     C 8821   1.727   2.328  14.418 -0.2395  0.5456 -0.9993
  595TMC3     O 8822   1.777   2.219  14.393 -0.0566  0.5705  0.3158
  595TMC3     H 8823   1.563   2.138  14.385 -1.3995 -0.2687 -1.6229
  595TMC3    H1 8824   1.611   2.518  14.552 -2.3565  1.3626  3.8858
  595TMC3    H2 8825   1.223   2.332  14.542 -0.3192  1.8108 -2.7092
  595TMC3    C7 8826   1.346   2.550  14.598  0.3509 -0.0523 -0.1756
  595TMC3    C8 8827   1.298   2.138  14.385 -1.3035  0.5847  0.4214
  595TMC3    O1 8828   1.243   2.532  14.665  0.5278 -0.4702  0.1412
  595TMC3    O2 8829   1.354   2.097  14.285 -0.2379 -0.3533  0.2939
  596MPD2     C 8830   0.085   4.511  16.560  0.1921  0.2031 -0.0373
  596MPD2    C1 8831   0.001   4.620  16.567  0.2173 -0.4177 -0.2691
  596MPD2    C2 8832   4.649   4.654  16.461 -0.4261  0.1746 -0.1396
  596MPD2    C3 8833   4.644   4.578  16.348 -0.5237  0.1670 -0.3953
  596MPD2    C4 8834   4.723   4.467  16.346 -0.9932  0.0416 -0.1385
  596MPD2    C5 8835   0.091   4.436  16.443  0.2130  0.6413 -0.0078
  596MPD2     H 8836   4.585   0.017  16.477  0.7140  0.9420  0.2579
  596MPD2    H1 8837   0.005   4.392  16.267 -0.0016 -1.4338  1.3266
  596MPD2    H2 8838   0.151   4.487  16.643 -0.6512 -0.2301  0.5018
  596MPD2    H3 8839   0.154   4.348  16.441  0.3771  0.7903 -1.5034
  596MPD2     N 8840   4.582   4.609  16.227 -0.0832 -0.3225  0.4807
  596MPD2    H5 8841   4.600   4.544  16.152  0.2342  1.6484 -1.1556
  596MPD2    N1 8842   0.016   4.688  16.691 -0.4250 -0.3507  0.3081
  596MPD2    H7 8843   0.079   4.646  16.759 -1.2557 -0.0415  1.2799
  597TMC3    C1 8844   4.698   0.128  16.860 -0.7342 -0.2373  0.0053
  597TMC3    C2 8845   0.107   0.110  16.910 -0.9777 -0.3996 -0.5779
  597TMC3    C3 8846   0.117   0.133  17.043  0.5882  1.0376  0.3661
  597TMC3    C4 8847   4.588   0.180  16.927 -0.4816  0.1204 -0.7993
  597TMC3    C5 8848   4.610   0.179  17.061  0.1266  0.0435 -0.4962
  597TMC3    C6 8849   0.010   0.148  17.122  0.2708  1.0325  0.1547
  597TMC3     C 8850   4.673   0.079  16.729  0.5120 -0.3286 -0.4941
  597TMC3     O 8851   4.581   0.133  16.669 -0.2803  0.3242  0.4360
  597TMC3     H 8852   0.192   0.084  16.849  0.7581 -2.9066  2.9284
  597TMC3    H1 8853   4.487   0.187  16.889 -0.5391 -1.0426 -0.8645
  597TMC3    H2 8854   0.023   0.158  17.229  0.3476 -0.1146  0.2434
  597TMC3    C7 8855   4.502   0.216  17.143  0.1564 -0.3938  0.0138
  597TMC3    C8 8856   0.243   0.091  17.097  0.4107  0.0156 -0.5028
  597TMC3    O1 8857   4.514   0.173  17.255  0.0398 -0.1295  0.2137
  597TMC3    O2 8858   0.318   0.044  17.013  0.0135  0.5932 -1.0401
  598TMC3    C1 8859   2.931   1.555  15.464  0.2709  0.2487 -0.5993
  598TMC3    C2 8860   2.875   1.446  15.407 -0.4085 -0.3368  0.0348
  598TMC3    C3 8861   2.866   1.444  15.273 -0.0786 -0.1014 -0.3891
  598TMC3    C4 8862   2.982   1.654  15.386 -0.6450 -0.2485 -0.5446
  598TMC3    C5 8863   2.978   1.642  15.246 -0.5541  0.0159 -0.1348
  598TMC3    C6 8864   2.915   1.541  15.186 -0.8334 -1.1897 -0.0819
  598TMC3     C 8865   2.908   1.569  15.606  0.2457  0.3572 -0.3606
  598TMC3     O 8866   2.917   1.682  15.652 -0.2808  0.0278 -0.0422
  598TMC3     H 8867   2.830   1.365  15.463  1.1820 -1.3460 -0.1726
  598TMC3    H1 8868   3.035   1.736  15.434 -0.4851  0.1676 -1.4207
  598TMC3    H2 8869   2.908   1.536  15.078  1.4775 -0.1905 -0.2682
  598TMC3    C7 8870   3.061   1.713  15.158 -0.0445 -0.8684  0.1804
  598TMC3    C8 8871   2.830   1.323  15.199 -0.6058  0.1297 -0.1570
  598TMC3    O1 8872   3.084   1.672  15.048 -0.4343  0.1355 -0.4715
  598TMC3    O2 8873   2.802   1.329  15.083  0.1427 -0.1566  0.0818
  599MPD2     C 8874   2.897   3.862  15.828 -0.1194 -0.3683 -0.2824
  599MPD2    C1 8875   2.865   3.731  15.853  0.5143  0.4587 -0.0385
  599MPD2    C2 8876   2.754   3.703  15.930 -0.0335  0.0007  0.6288
  599MPD2    C3 8877   2.682   3.807  15.991 -0.2814 -0.4704  0.2429
  599MPD2    C4 8878   2.725   3.935  15.965  0.6299  0.2634 -0.5680
  599MPD2    C5 8879   2.823   3.958  15.875 -0.2159  0.1749  0.5385
  599MPD2     H 8880   2.725   3.600  15.951 -2.2657  0.4238 -0.4593
  599MPD2    H1 8881   2.681   4.021  16.013 -2.4289 -0.4063 -2.1528
  599MPD2    H2 8882   2.981   3.897  15.769  0.2682  1.4797  1.3733
  599MPD2    H3 8883   2.851   4.061  15.855 -1.4796  0.2634 -0.7310
  599MPD2     N 8884   2.572   3.791  16.078  0.1818  0.2580  0.5186
  599MPD2    H5 8885   2.546   3.884  16.111  0.0464  0.5540 -0.4380
  599MPD2    N1 8886   2.955   3.633  15.796 -0.0386  0.1889  0.3752
  599MPD2    H7 8887   3.042   3.670  15.759  0.0736 -0.5582 -0.1029
  600TMC3    C1 8888   2.407   3.696  16.211  0.2433  0.5442  0.4978
  600TMC3    C2 8889   2.317   3.593  16.230 -0.1123 -0.0732 -0.2899
  600TMC3    C3 8890   2.269   3.582  16.362 -0.8194 -0.3658  0.1189
  600TMC3    C4 8891   2.426   3.799  16.304  0.3064  0.2346  0.2658
  600TMC3    C5 8892   2.364   3.786  16.426  0.5306  0.2808  0.5033
  600TMC3    C6 8893   2.289   3.673  16.458 -0.0422 -0.7856 -0.6085
  600TMC3     C 8894   2.509   3.677  16.111  0.4889 -0.3473  0.4181
  600TMC3     O 8895   2.543   3.560  16.083  0.0666  0.1168  0.2605
  600TMC3     H 8896   2.301   3.517  16.155  3.2176 -1.1102  0.0675
  600TMC3    H1 8897   2.497   3.878  16.283 -1.5383  2.3869  2.1465
  600TMC3    H2 8898   2.250   3.661  16.558  0.1173  2.0640 -0.2148
  600TMC3    C7 8899   2.369   3.902  16.513 -0.5325 -0.0177 -0.4164
  600TMC3    C8 8900   2.190   3.464  16.397  0.5444 -1.5305  0.2366
  600TMC3    O1 8901   2.270   3.925  16.576 -0.0111  0.1539 -0.3025
  600TMC3    O2 8902   2.191   3.431  16.511  0.6682 -0.7342 -0.1625
  601MPD2     C 8903   4.710   2.319   0.054 -0.1991  0.0250  0.1137
  601MPD2    C1 8904   4.589   2.257   0.071 -0.1633 -0.1025 -0.0838
  601MPD2    C2 8905   4.584   2.123   0.059  0.0125 -0.3493  0.1207
  601MPD2    C3 8906   4.685   2.051   0.007  0.2316  0.6716  0.6283
  601MPD2    C4 8907   0.087   2.106   0.004  0.7127  1.0294  0.0084
  601MPD2    C5 8908   0.102   2.243   0.020 -0.3840  0.0793  0.1441
  601MPD2     H 8909   4.488   2.074   0.072 -0.8280  1.0624 -0.7664
  601MPD2    H1 8910   0.173   2.043  17.677 -0.9780 -1.6749  1.2443
  601MPD2    H2 8911   4.719   2.426   0.070 -1.5017  0.1623 -0.0696
  601MPD2    H3 8912   0.196   2.297   0.012  0.8561 -1.8756  1.4923
  601MPD2     N 8913   4.678   1.920  17.651  0.6960  0.0868  0.1341
  601MPD2    H5 8914   0.041   1.885  17.608  1.5998  1.0279  1.1493
  601MPD2    N1 8915   4.478   2.334   0.116 -0.1277 -0.4685  0.0503
  601MPD2    H7 8916   4.391   2.285   0.136  0.0625 -0.1377  1.7217
  602TMC3    C1 8917   4.357   2.518   0.219  0.2494  0.1503  0.0525
  602TMC3    C2 8918   4.308   2.640   0.180 -0.5033 -0.6207 -1.2472
  602TMC3    C3 8919   4.174   2.649   0.203  0.1960 -0.6294 -0.3598
  602TMC3    C4 8920   4.276   2.415   0.277  0.4991  0.1238 -0.1705
  602TMC3    C5 8921   4.142   2.436   0.293 -0.0042  0.2739  0.5120
  602TMC3    C6 8922   4.086   2.551   0.250  0.4033  0.5918 -0.2005
  602TMC3     C 8923   4.468   2.473   0.138 -0.5252 -0.2870 -0.5571
  602TMC3     O 8924   4.537   2.563   0.089 -0.2487  0.4781  0.2360
  602TMC3     H 8925   4.378   2.717   0.149  0.2740 -1.3684 -1.3598
  602TMC3    H1 8926   4.317   2.322   0.316  2.3794 -0.0473 -2.5736
  602TMC3    H2 8927   3.984   2.576   0.276 -0.1954 -1.1809 -0.8322
  602TMC3    C7 8928   4.047   2.326   0.313  0.4357  0.9203  0.1406
  602TMC3    C8 8929   4.110   2.755   0.116  0.2193  0.4136 -0.4261
  602TMC3    O1 8930   4.092   2.217   0.349 -0.5284  0.1685  0.1327
  602TMC3    O2 8931   4.168   2.862   0.094 -0.2504 -0.0787 -0.0384
  603TMC3    C1 8932   2.408   2.479  11.236  0.0994 -0.0184  0.4321
  603TMC3    C2 8933   2.445   2.431  11.362  0.2377  0.2493  0.4065
  603TMC3    C3 8934   2.572   2.469  11.414 -0.2701  0.2790 -0.4333
  603TMC3    C4 8935   2.497   2.563  11.167 -0.6338  0.0065  0.1189
  603TMC3    C5 8936   2.623   2.580  11.218  0.1720 -0.4475  0.1423
  603TMC3    C6 8937   2.658   2.551  11.347  0.3938 -0.2530 -0.3880
  603TMC3     C 8938   2.302   2.414  11.157  1.2311 -0.3443  0.2889
  603TMC3     O 8939   2.332   2.387  11.042 -0.1915 -0.5294 -0.3503
  603TMC3     H 8940   2.373   2.371  11.415 -0.6604  0.3174 -0.7243
  603TMC3    H1 8941   2.459   2.606  11.075 -0.8914 -0.0116  0.2169
  603TMC3    H2 8942   2.762   2.560  11.375  0.1110  1.1219  0.2764
  603TMC3    C7 8943   2.729   2.642  11.139 -0.1785  0.9121 -0.3800
  603TMC3    C8 8944   2.601   2.417  11.544  0.2553  0.2705  0.3640
  603TMC3    O1 8945   2.838   2.649  11.191  0.2623  0.4266 -0.2015
  603TMC3    O2 8946   2.511   2.348  11.590  0.2039  0.2590  0.0630
  604MPD2     C 8947   3.217   1.345  16.687 -1.0772  0.3976 -0.3311
  604MPD2    C1 8948   3.127   1.332  16.585 -0.0424 -0.2517  0.0607
  604MPD2    C2 8949   3.162   1.258  16.471  0.1852  0.3717 -0.2734
  604MPD2    C3 8950   3.289   1.202  16.464 -0.6132 -0.5113  0.6093
  604MPD2    C4 8951   3.375   1.207  16.575  0.1152  0.3338  0.4394
  604MPD2    C5 8952   3.343   1.281  16.685 -0.8845 -0.0236 -0.1236
  604MPD2     H 8953   3.097   1.243  16.385  0.9722  2.1603 -1.1743
  604MPD2    H1 8954   3.477   1.171  16.570  0.5192  1.5383  0.0178
  604MPD2    H2 8955   3.204   1.395  16.782  1.8286  0.6343 -0.0579
  604MPD2    H3 8956   3.407   1.291  16.771 -0.2669 -1.6086 -0.3907
  604MPD2     N 8957   3.315   1.128  16.349  0.1350 -0.0605  0.2102
  604MPD2    H5 8958   3.245   1.127  16.277 -1.8634 -0.2277  2.1577
  604MPD2    N1 8959   3.005   1.404  16.605 -0.1865  0.8093 -0.6388
  604MPD2    H7 8960   2.996   1.459  16.690 -0.5612 -2.3014  1.3242
  605TMC3    C1 8961   2.802   1.509  16.542  0.8651 -0.3813 -0.4425
  605TMC3    C2 8962   2.819   1.554  16.671 -0.5128 -0.0575 -0.1250
  605TMC3    C3 8963   2.835   1.688  16.702 -0.3800  0.1959 -0.2463
  605TMC3    C4 8964   2.779   1.599  16.440 -0.2284  0.3107  0.2023
  605TMC3    C5 8965   2.778   1.728  16.472 -0.2442  0.1809  0.3758
  605TMC3    C6 8966   2.811   1.772  16.598  0.1530  0.2082 -0.3397
  605TMC3     C 8967   2.894   1.398  16.520  0.4733 -0.1685 -0.5100
  605TMC3     O 8968   2.886   1.336  16.421  0.5622  0.7724 -0.4933
  605TMC3     H 8969   2.828   1.486  16.755 -0.7523 -0.6787 -0.5957
  605TMC3    H1 8970   2.782   1.570  16.336 -0.9926  0.6644  0.0764
  605TMC3    H2 8971   2.811   1.879  16.620 -0.6659  0.0147  0.5978
  605TMC3    C7 8972   2.749   1.821  16.363 -0.5880 -0.1551  0.7367
  605TMC3    C8 8973   2.959   1.702  16.772 -0.0233 -0.6581 -0.6875
  605TMC3    O1 8974   2.717   1.774  16.257 -0.5376 -0.2894 -0.0619
  605TMC3    O2 8975   3.010   1.601  16.819 -0.6147  0.2646  0.2256
  606TMC3    C1 8976   4.688   4.666  17.463 -0.5073  0.0726 -0.9838
  606TMC3    C2 8977   0.090   4.677  17.521 -0.8057 -0.8170 -0.4465
  606TMC3    C3 8978   0.092   4.689  17.659  0.7240 -0.2063 -0.1785
  606TMC3    C4 8979   4.575   4.652  17.538 -0.1606  0.2124 -0.0808
  606TMC3    C5 8980   4.591   4.644  17.674  0.3715 -0.0071  0.1672
  606TMC3    C6 8981   4.708   4.654   0.042 -0.2523  0.4279 -0.4860
  606TMC3     C 8982   4.685   4.610  17.331 -0.4104  0.5037  0.3700
  606TMC3     O 8983   4.571   4.581  17.302  0.5131  0.0660 -1.2855
  606TMC3     H 8984   0.175   4.717  17.467 -0.1840 -1.6957 -0.1140
  606TMC3    H1 8985   4.477   4.646  17.491  0.6330 -2.9194 -1.2732
  606TMC3    H2 8986   4.716   4.626   0.147 -0.7802 -0.1057 -0.5923
  606TMC3    C7 8987   4.500   4.543   0.031 -0.2333 -0.5885  0.3960
  606TMC3    C8 8988   0.206   0.025   0.029 -0.2292  0.9480 -0.0602
  606TMC3    O1 8989   4.468   4.463  17.637 -0.7174  0.0130  0.0112
  606TMC3    O2 8990   0.320   0.001  17.681 -0.0993 -0.1648  1.0884
  607MPD2     C 8991   1.876   2.397  11.605 -0.4282  0.0564 -0.1700
  607MPD2    C1 8992   1.921   2.486  11.697  0.0673  0.4343 -0.7239
  607MPD2    C2 8993   1.855   2.489  11.823 -0.0265 -0.3251  0.5200
  607MPD2    C3 8994   1.759   2.403  11.862  0.0497 -0.1995 -0.0747
  607MPD2    C4 8995   1.715   2.318  11.766 -0.0849  0.6504 -0.0454
  607MPD2    C5 8996   1.767   2.311  11.639  0.1408 -0.3018 -0.0030
  607MPD2     H 8997   1.884   2.571  11.887 -3.5411 -0.6799  2.5686
  607MPD2    H1 8998   1.627   2.257  11.781  0.2595  0.3329  0.6344
  607MPD2    H2 8999   1.906   2.390  11.501  1.5775 -1.3282  0.5048
  607MPD2    H3 9000   1.719   2.260  11.556  0.3274  1.6760 -1.3468
  607MPD2     N 9001   1.693   2.418  11.987  0.4139  0.2034 -0.0928
  607MPD2    H5 9002   1.733   2.491  12.044  1.8206 -1.1931  0.7198
  607MPD2    N1 9003   2.043   2.553  11.680  0.2555  0.1853  0.0357
  607MPD2    H7 9004   2.070   2.619  11.753  0.1817  0.4976 -0.2178
  608TMC3    C1 9005   2.256   2.604  11.614 -0.1936 -0.4577  0.1801
  608TMC3    C2 9006   2.304   2.578  11.738 -0.4189 -0.2967 -0.4623
  608TMC3    C3 9007   2.410   2.658  11.777  1.0130  0.1619  0.2817
  608TMC3    C4 9008   2.305   2.706  11.529 -0.5466 -0.4565  0.5828
  608TMC3    C5 9009   2.402   2.784  11.582 -0.4809 -0.6379 -0.0267
  608TMC3    C6 9010   2.463   2.761  11.705  0.0387  0.0579 -0.4262
  608TMC3     C 9011   2.129   2.542  11.578 -0.0895 -0.1062  0.3309
  608TMC3     O 9012   2.116   2.495  11.466 -0.1902  0.2315 -0.6369
  608TMC3     H 9013   2.267   2.498  11.801 -0.8711  0.0583 -0.2841
  608TMC3    H1 9014   2.263   2.722  11.430  0.8633 -0.6966 -0.0552
  608TMC3    H2 9015   2.543   2.823  11.744  0.2615 -0.5175  0.0353
  608TMC3    C7 9016   2.457   2.876  11.489 -0.3753 -0.3093  0.1453
  608TMC3    C8 9017   2.424   2.676  11.921  0.0915 -0.5119  0.4069
  608TMC3    O1 9018   2.420   2.870  11.375 -0.3385 -0.0004 -0.0596
  608TMC3    O2 9019   2.527   2.725  11.962  1.0327 -0.2948 -0.3996
  609TMC3    C1 9020   0.429   0.891   9.462 -0.4670  0.2035 -0.4519
  609TMC3    C2 9021   0.349   0.881   9.354 -0.0657 -0.2899 -0.1112
  609TMC3    C3 9022   0.361   0.765   9.272 -0.6246  0.7709 -0.1094
  609TMC3    C4 9023   0.521   0.794   9.488 -0.0835  0.6106  0.5351
  609TMC3    C5 9024   0.529   0.681   9.406 -0.2702  0.0597 -0.1359
  609TMC3    C6 9025   0.435   0.658   9.311 -0.0693 -0.6406  0.8701
  609TMC3     C 9026   0.437   1.020   9.533 -0.1819 -0.4358 -0.5470
  609TMC3     O 9027   0.547   1.059   9.575  0.3110 -0.8170 -0.0193
  609TMC3     H 9028   0.285   0.963   9.324 -1.0583 -1.0802 -0.1513
  609TMC3    H1 9029   0.588   0.808   9.572  0.1980 -4.1218  1.0756
  609TMC3    H2 9030   0.443   0.564   9.257  2.0543  1.1309 -1.9164
  609TMC3    C7 9031   0.655   0.603   9.413 -0.5973  0.0312 -0.2947
  609TMC3    C8 9032   0.276   0.752   9.152 -0.4904 -0.3142 -0.4096
  609TMC3    O1 9033   0.752   0.667   9.451 -0.6110 -0.1047 -0.2677
  609TMC3    O2 9034   0.301   0.673   9.060  0.0347  0.7753 -0.1737
  610TMC3    C1 9035   2.299   2.244  12.457 -0.6073 -0.1405  0.1679
  610TMC3    C2 9036   2.306   2.321  12.346 -0.0994  0.1687 -0.3318
  610TMC3    C3 9037   2.415   2.311  12.267  0.4998  0.6264  0.1675
  610TMC3    C4 9038   2.402   2.156  12.488  0.3574  0.2526  0.4676
  610TMC3    C5 9039   2.509   2.149  12.403  0.2336  1.0364 -0.1832
  610TMC3    C6 9040   2.521   2.222  12.293 -0.3332  0.4823  0.0031
  610TMC3     C 9041   2.206   2.281  12.556 -0.8638 -0.2814 -0.2240
  610TMC3     O 9042   2.148   2.388  12.535  0.4598  0.3162  0.0483
  610TMC3     H 9043   2.226   2.387  12.314  0.2486  0.2691 -1.0105
  610TMC3    H1 9044   2.408   2.106  12.585 -2.4318  0.8650  0.9395
  610TMC3    H2 9045   2.597   2.209  12.218 -0.3033 -0.1297  0.1420
  610TMC3    C7 9046   2.634   2.100  12.453 -0.7629  0.3561  0.0868
  610TMC3    C8 9047   2.389   2.326  12.126  0.7782 -0.4747 -0.2650
  610TMC3    O1 9048   2.627   1.993  12.510  0.3538 -0.1244 -0.2633
  610TMC3    O2 9049   2.489   2.335  12.050  0.1194 -0.4617 -0.9949
  611MPD2     C 9050   2.237   2.053  10.445  0.3302 -0.0913 -0.2574
  611MPD2    C1 9051   2.166   2.149  10.381  0.0173  0.4765 -0.4322
  611MPD2    C2 9052   2.233   2.263  10.343  0.9917  0.0417 -0.1365
  611MPD2    C3 9053   2.367   2.290  10.376 -0.9714  0.3694 -0.0230
  611MPD2    C4 9054   2.434   2.188  10.440 -0.5538 -0.2727  0.1637
  611MPD2    C5 9055   2.369   2.073  10.479  0.1572  0.4184 -0.1445
  611MPD2     H 9056   2.176   2.345  10.300  0.1922  1.5279  3.7846
  611MPD2    H1 9057   2.536   2.202  10.474 -0.7897  1.2485  0.2635
  611MPD2    H2 9058   2.192   1.967  10.493  1.0034  1.1636  2.6522
  611MPD2    H3 9059   2.415   2.000  10.543 -0.0787  1.2408  0.9635
  611MPD2     N 9060   2.431   2.412  10.346 -0.5558  0.8795  0.7895
  611MPD2    H5 9061   2.528   2.425  10.372 -0.1818  0.6510 -0.5047
  611MPD2    N1 9062   2.033   2.128  10.345 -0.1490 -0.6927 -0.5444
  611MPD2    H7 9063   1.993   2.044  10.386  3.2768 -1.5221  1.1560
  612TMC3    C1 9064   2.477   2.603  10.229  0.2947 -0.3535 -0.6013
  612TMC3    C2 9065   2.545   2.657  10.335  0.6125 -0.2582 -0.6468
  612TMC3    C3 9066   2.624   2.756  10.308 -0.0071 -0.5187  0.3687
  612TMC3    C4 9067   2.469   2.667  10.112  0.3854  0.5570 -0.5976
  612TMC3    C5 9068   2.559   2.767  10.088  0.3173 -1.1346  0.0575
  612TMC3    C6 9069   2.637   2.815  10.189  0.3462 -0.5180 -0.0881
  612TMC3     C 9070   2.380   2.501  10.257 -0.1275  0.5673 -0.2985
  612TMC3     O 9071   2.280   2.502  10.188 -0.1313 -0.1840 -0.2683
  612TMC3     H 9072   2.533   2.613  10.433  0.3976  1.9175  0.3122
  612TMC3    H1 9073   2.401   2.623  10.040  0.6512  0.4534 -0.7858
  612TMC3    H2 9074   2.704   2.899  10.177 -1.1128  0.4977 -1.1082
  612TMC3    C7 9075   2.558   2.839   9.961  0.1450 -0.2230 -0.7089
  612TMC3    C8 9076   2.711   2.801  10.416 -0.1580  0.5271  0.0162
  612TMC3    O1 9077   2.450   2.827   9.907  0.2827  0.0962 -0.4318
  612TMC3    O2 9078   2.812   2.861  10.384 -0.2084 -0.1760  0.2617
  613MPD2     C 9079   1.305   4.683  16.898 -0.0624  0.0135  0.2556
  613MPD2    C1 9080   1.228   0.068  16.846  0.2973 -0.6246  0.3807
  613MPD2    C2 9081   1.123   0.033  16.765  0.0447  0.5788 -0.3380
  613MPD2    C3 9082   1.100   4.624  16.738  0.4639 -0.5521 -0.2263
  613MPD2    C4 9083   1.170   4.522  16.799 -0.3952  0.5377 -0.2332
  613MPD2    C5 9084   1.277   4.552  16.881  0.1568  0.3897  0.0436
  613MPD2     H 9085   1.061   0.111  16.723  0.0034  1.2918  1.0624
  613MPD2    H1 9086   1.133   4.421  16.783 -1.5164  1.1329 -1.3447
  613MPD2    H2 9087   1.393   4.717  16.952  1.0402 -1.1427 -0.8006
  613MPD2    H3 9088   1.332   4.478  16.938  0.5074  1.2669  0.8418
  613MPD2     N 9089   0.995   4.587  16.646 -0.7049 -0.1958 -0.1070
  613MPD2    H5 9090   0.981   4.487  16.630 -0.2182 -0.4268  0.8967
  613MPD2    N1 9091   1.282   0.202  16.851 -0.4332 -0.6859  0.0444
  613MPD2    H7 9092   1.340   0.225  16.931  0.5296  1.0242 -1.1433
  614TMC3    C1 9093   1.256   0.283  16.623  0.4442 -0.7622 -0.2888
  614TMC3    C2 9094   1.309   0.168  16.563 -0.4023 -0.7448 -0.4818
  614TMC3    C3 9095   1.280   0.152  16.429 -0.1667  0.3516  0.0675
  614TMC3    C4 9096   1.197   0.387  16.548 -1.1582 -0.2512  0.0041
  614TMC3    C5 9097   1.184   0.367  16.413 -0.6422  0.9875 -0.5286
  614TMC3    C6 9098   1.221   0.249  16.358  0.1502  0.3823  0.2196
  614TMC3     C 9099   1.268   0.305  16.766 -0.2713  0.4487  0.2370
  614TMC3     O 9100   1.306   0.417  16.796 -0.0349 -0.3599 -0.4764
  614TMC3     H 9101   1.369   0.102  16.624  1.7720  1.2968 -0.4057
  614TMC3    H1 9102   1.162   0.478  16.596 -1.1468 -0.9933  1.4246
  614TMC3    H2 9103   1.217   0.229  16.251 -1.5223 -0.3713  0.4240
  614TMC3    C7 9104   1.188   0.493  16.336 -0.1920  0.0528 -0.4769
  614TMC3    C8 9105   1.260   0.014  16.381  0.8799 -0.6582 -0.4764
  614TMC3    O1 9106   1.211   0.595  16.396  0.4810 -0.1531 -0.0737
  614TMC3    O2 9107   1.196   4.715  16.278  0.0314  0.0699 -0.3701
  615MPD2     C 9108   0.099   1.403  16.329  0.0025 -0.1469 -0.0276
  615MPD2    C1 9109   0.183   1.498  16.273 -0.2637 -0.6111  0.7454
  615MPD2    C2 9110   0.171   1.522  16.139  0.2865  0.6153  0.4951
  615MPD2    C3 9111   0.071   1.464  16.059 -0.3279  0.4508 -0.0678
  615MPD2    C4 9112   4.702   1.385  16.122 -0.2207  0.1594  0.0499
  615MPD2    C5 9113   4.716   1.356  16.253 -0.0551 -0.6266 -0.2609
  615MPD2     H 9114   0.226   1.606  16.098  1.2312  0.9120  2.3648
  615MPD2    H1 9115   4.621   1.341  16.065 -0.1214 -1.4564  1.1558
  615MPD2    H2 9116   0.101   1.375  16.434  0.1614 -0.8470 -0.2222
  615MPD2    H3 9117   4.646   1.282  16.290  0.4537  0.3760  2.7175
  615MPD2     N 9118   0.050   1.497  15.921 -0.5370 -0.0204  0.2219
  615MPD2    H5 9119   4.695   1.455  15.870 -1.3803  1.6486  0.1480
  615MPD2    N1 9120   0.282   1.560  16.361 -0.5873  0.3972 -0.2086
  615MPD2    H7 9121   0.265   1.558  16.461 -2.2988 -0.1829 -0.5037
  616TMC3    C1 9122   0.485   1.676  16.413  0.6569 -0.3787  0.1594
  616TMC3    C2 9123   0.617   1.645  16.397 -0.0643 -0.0696  0.7364
  616TMC3    C3 9124   0.700   1.664  16.502 -0.1703 -0.4854  0.0207
  616TMC3    C4 9125   0.431   1.732  16.522 -0.2211  0.2394 -0.1086
  616TMC3    C5 9126   0.518   1.757  16.630 -0.5279 -0.3449 -0.3595
  616TMC3    C6 9127   0.653   1.730  16.615  0.2643  0.0844 -0.2353
  616TMC3     C 9128   0.400   1.610  16.314  0.0637 -0.3291 -0.0054
  616TMC3     O 9129   0.452   1.594  16.203 -0.1015  0.6770 -0.0352
  616TMC3     H 9130   0.644   1.578  16.316  0.1550 -0.8117  1.4259
  616TMC3    H1 9131   0.325   1.750  16.530  0.3257  2.7862  1.6629
  616TMC3    H2 9132   0.720   1.743  16.700  0.3150  3.1276 -0.7657
  616TMC3    C7 9133   0.486   1.826  16.754  0.2943 -0.3122  0.2411
  616TMC3    C8 9134   0.843   1.647  16.487 -0.0221 -0.5021  0.2331
  616TMC3    O1 9135   0.570   1.841  16.837  0.2539  0.1744  0.5195
  616TMC3    O2 9136   0.901   1.635  16.593 -0.3064  0.4541  0.2084
  617MPD2     C 9137   3.205   4.563  13.816  0.4886  0.0646  0.6055
  617MPD2    C1 9138   3.194   4.454  13.733  0.5087 -0.5087  0.1196
  617MPD2    C2 9139   3.067   4.387  13.727  0.1499 -0.2477 -0.4406
  617MPD2    C3 9140   2.973   4.411  13.825 -0.4469 -0.0533  0.5767
  617MPD2    C4 9141   2.992   4.518  13.908  0.2781 -0.4144  0.1242
  617MPD2    C5 9142   3.099   4.597  13.897  0.6535  0.1852 -0.1293
  617MPD2     H 9143   3.072   4.291  13.676  1.4928 -1.0299  1.1524
  617MPD2    H1 9144   2.924   4.546  13.987  1.5767  1.9570  0.3989
  617MPD2    H2 9145   3.289   4.632  13.818  1.1209 -0.8368  3.9102
  617MPD2    H3 9146   3.109   4.694  13.945  2.9283 -0.1857  0.1418
  617MPD2     N 9147   2.861   4.325  13.838 -0.2321 -0.0031  0.0260
  617MPD2    H5 9148   2.797   4.331  13.916  0.6328 -1.5209  0.8514
  617MPD2    N1 9149   3.315   4.405  13.677  0.3811 -0.0574  0.4952
  617MPD2    H7 9150   3.397   4.460  13.698 -0.5184  0.9219  1.4733
  618TMC3    C1 9151   3.462   4.244  13.587 -0.1524 -0.1750  0.0635
  618TMC3    C2 9152   3.485   4.108  13.598  0.3700 -0.2974  0.6160
  618TMC3    C3 9153   3.619   4.070  13.583 -0.0912  0.8575  0.1623
  618TMC3    C4 9154   3.562   4.335  13.557  0.2692 -0.0393  0.5829
  618TMC3    C5 9155   3.688   4.289  13.558  0.4670  0.1483  0.0912
  618TMC3    C6 9156   3.726   4.157  13.576  0.3043 -0.2560  0.4787
  618TMC3     C 9157   3.324   4.282  13.621  0.0848 -0.5713 -0.4937
  618TMC3     O 9158   3.247   4.193  13.581 -0.2148  0.1541  0.4336
  618TMC3     H 9159   3.397   4.045  13.605  0.1879  0.1886  2.8047
  618TMC3    H1 9160   3.538   4.440  13.550 -1.6881 -0.4589  0.9465
  618TMC3    H2 9161   3.831   4.130  13.582  0.0202 -1.6743 -0.8470
  618TMC3    C7 9162   3.790   4.392  13.544 -0.0339  0.3369  0.6358
  618TMC3    C8 9163   3.633   3.923  13.574 -1.1585  0.4641  0.2465
  618TMC3    O1 9164   3.777   4.493  13.611  0.4394 -0.0684 -0.5694
  618TMC3    O2 9165   3.527   3.867  13.556  0.2183 -0.4766  0.1485
  619MPD2     C 9166   0.342   0.940  13.635 -0.6641  0.4402 -0.5918
  619MPD2    C1 9167   0.297   0.931  13.511 -0.0404 -0.0175 -0.1452
  619MPD2    C2 9168   0.180   0.858  13.489 -0.5186 -0.8481  0.9230
  619MPD2    C3 9169   0.116   0.793  13.601  0.6571 -0.5021 -0.4273
  619MPD2    C4 9170   0.170   0.812  13.723 -0.2135  0.6991 -0.9131
  619MPD2    C5 9171   0.279   0.886  13.744 -0.3483  0.0571 -0.5466
  619MPD2     H 9172   0.150   0.839  13.387  0.5397 -1.0705  0.6487
  619MPD2    H1 9173   0.136   0.744  13.801 -2.3018  1.8295 -0.8267
  619MPD2    H2 9174   0.421   1.010  13.659 -1.5023  1.1068  0.2323
  619MPD2    H3 9175   0.338   0.883  13.835 -1.8801  1.4179  0.4996
  619MPD2     N 9176   4.720   0.708  13.587 -0.3355  0.0882  0.3755
  619MPD2    H5 9177   4.688   0.659  13.670  0.8975 -0.4789  0.5119
  619MPD2    N1 9178   0.353   1.003  13.396  0.0385  0.2753  0.1131
  619MPD2    H7 9179   0.306   1.003  13.306 -0.3917 -3.2501  0.3558
  620TMC3    C1 9180   0.472   1.174  13.286 -0.8756 -0.1029  0.5733
  620TMC3    C2 9181   0.368   1.177  13.195 -0.3348 -0.6809 -0.6921
  620TMC3    C3 9182   0.388   1.262  13.092  0.3492 -0.5840 -0.3362
  620TMC3    C4 9183   0.593   1.238  13.273 -0.0363 -0.4507 -0.3810
  620TMC3    C5 9184   0.599   1.333  13.176  0.2886 -0.0731  0.5156
  620TMC3    C6 9185   0.497   1.343  13.085 -0.5669  0.5728 -0.1263
  620TMC3     C 9186   0.454   1.095  13.409 -0.9833 -0.3690  0.1480
  620TMC3     O 9187   0.537   1.096  13.498 -0.3491  0.2120  0.1839
  620TMC3     H 9188   0.275   1.123  13.208  0.2386 -1.2583  0.9547
  620TMC3    H1 9189   0.674   1.239  13.346  0.2078 -0.0773 -0.6566
  620TMC3    H2 9190   0.500   1.414  13.004  0.6995  1.4252  0.6467
  620TMC3    C7 9191   0.637   1.461  13.236  0.1322  0.6856 -0.0381
  620TMC3    C8 9192   0.280   1.355  13.082  0.3336  0.7242  0.0024
  620TMC3    O1 9193   0.737   1.467  13.302 -0.2368 -0.8828  0.3780
  620TMC3    O2 9194   0.305   1.474  13.080 -0.1027  0.0588  0.2842
  621MPD2     C 9195   4.591   0.610  10.091 -0.0287 -0.2738 -0.5716
  621MPD2    C1 9196   4.720   0.571  10.137 -0.7715  0.2805  0.7529
  621MPD2    C2 9197   0.105   0.644  10.102  0.0401 -0.3689  0.3907
  621MPD2    C3 9198   0.088   0.756  10.022 -0.0292  0.2837 -0.2834
  621MPD2    C4 9199   4.687   0.780   9.961 -0.1993  0.4798  0.4457
  621MPD2    C5 9200   4.578   0.706  10.002 -0.0670 -0.2175  0.2748
  621MPD2     H 9201   0.197   0.624  10.157 -0.4541  0.7429  1.6252
  621MPD2    H1 9202   4.666   0.848   9.879  1.4360 -2.7663 -2.6792
  621MPD2    H2 9203   4.500   0.564  10.128  0.4364 -0.8574 -0.1412
  621MPD2    H3 9204   4.482   0.738   9.964 -0.7909 -2.9102 -0.1459
  621MPD2     N 9205   0.205   0.830   9.986  0.4378  0.5225  0.4823
  621MPD2    H5 9206   0.287   0.799  10.037  0.2244  0.3947  0.7447
  621MPD2    N1 9207   0.021   0.459  10.223 -0.4913 -0.0931  0.3111
  621MPD2    H7 9208   0.118   0.433  10.239 -0.4607  0.6398  1.3104
  622TMC3    C1 9209   4.691   0.272  10.351 -0.4741  0.4519  0.5370
  622TMC3    C2 9210   4.626   0.231  10.465 -0.7158  0.1209  0.3339
  622TMC3    C3 9211   4.596   0.105  10.490 -0.2564 -0.3308  0.4952
  622TMC3    C4 9212   0.009   0.177  10.261  0.6371  0.2615  0.3617
  622TMC3    C5 9213   4.705   0.045  10.289 -0.6518  0.4148 -0.2048
  622TMC3    C6 9214   4.636   0.008  10.405 -0.0953  0.1910 -0.8781
  622TMC3     C 9215   4.642   0.393  10.291 -0.0126  0.0922 -1.1668
  622TMC3     O 9216   4.521   0.410  10.309 -0.1221 -0.3329 -0.6649
  622TMC3     H 9217   4.595   0.313  10.530 -0.6611  0.6241 -0.2774
  622TMC3    H1 9218   0.060   0.218  10.175  2.5982  0.7334  1.7296
  622TMC3    H2 9219   4.611   4.626  10.412  2.9624 -0.4081  1.2698
  622TMC3    C7 9220   4.684   4.681  10.175  0.2161 -0.2540 -0.5694
  622TMC3    C8 9221   4.471   0.067  10.551 -0.3129 -0.1234 -0.4893
  622TMC3    O1 9222   4.648   4.569  10.207 -0.1832  0.0287 -0.1296
  622TMC3    O2 9223   4.459   4.671  10.583 -0.0841 -0.4143 -0.1236
  623MPD2     C 9224   3.663   1.261  15.861  0.9212 -0.6173  0.1700
  623MPD2    C1 9225   3.541   1.300  15.919 -0.2932  0.1374 -0.1331
  623MPD2    C2 9226   3.534   1.311  16.056 -0.0834  0.0942  0.2118
  623MPD2    C3 9227   3.640   1.286  16.138 -0.1462  0.5023 -0.4528
  623MPD2    C4 9228   3.755   1.253  16.078  0.5860  0.6292  0.3715
  623MPD2    C5 9229   3.753   1.217  15.951  0.5259 -0.8008  0.0710
  623MPD2     H 9230   3.445   1.338  16.112  0.2555  1.7764 -0.0722
  623MPD2    H1 9231   3.847   1.223  16.126 -0.1726  1.5055  2.3621
  623MPD2    H2 9232   3.683   1.240  15.756 -0.6264 -0.5819 -0.1250
  623MPD2    H3 9233   3.847   1.197  15.901  0.1747 -2.8321  0.2063
  623MPD2     N 9234   3.622   1.310  16.281 -0.7117  0.1822 -0.2032
  623MPD2    H5 9235   3.536   1.349  16.318 -0.8840  0.8527 -1.3001
  623MPD2    N1 9236   3.425   1.338  15.843  0.1965 -0.1080 -0.3640
  623MPD2    H7 9237   3.351   1.376  15.902 -0.1232  2.0189 -2.1440
  624TMC3    C1 9238   3.808   1.443  16.699  0.1358 -0.0080  0.5961
  624TMC3    C2 9239   3.701   1.535  16.725  0.1753  0.1096 -0.3773
  624TMC3    C3 9240   3.598   1.533  16.639 -0.0067  0.5987  0.0674
  624TMC3    C4 9241   3.799   1.353  16.599  0.8866 -0.4668  0.5796
  624TMC3    C5 9242   3.700   1.359  16.515  0.1386 -0.0419 -0.4615
  624TMC3    C6 9243   3.591   1.444  16.536  0.4148 -0.8023 -0.9172
  624TMC3     C 9244   3.929   1.463  16.765  0.0064  0.1118 -0.7168
  624TMC3     O 9245   3.972   1.572  16.794 -0.0948 -0.0673 -0.6161
  624TMC3     H 9246   3.717   1.609  16.803 -0.0361  0.8246 -1.0101
  624TMC3    H1 9247   3.874   1.276  16.587  0.5110 -0.8618  0.7532
  624TMC3    H2 9248   3.512   1.456  16.463  0.6025 -1.5974 -1.2597
  624TMC3    C7 9249   3.720   1.301  16.379 -0.5191  0.2784 -0.5937
  624TMC3    C8 9250   3.475   1.611  16.661 -0.0971 -0.5472 -0.9397
  624TMC3    O1 9251   3.823   1.239  16.375  0.2237  0.2940 -0.4852
  624TMC3    O2 9252   3.378   1.579  16.594  0.0090 -0.7746  0.9320
  625MPD2     C 9253   4.440   3.987   0.663  0.3173  0.3234  0.2305
  625MPD2    C1 9254   4.484   3.857   0.663 -0.0184 -0.9976 -0.3788
  625MPD2    C2 9255   4.615   3.837   0.700  0.0218  0.2455 -0.2054
  625MPD2    C3 9256   4.696   3.951   0.742  0.1107  0.6336 -0.5780
  625MPD2    C4 9257   4.643   4.079   0.743 -0.3062  0.5305  0.2106
  625MPD2    C5 9258   4.512   4.100   0.696  0.4503  0.0012  0.4055
  625MPD2     H 9259   4.652   3.736   0.710  0.1993  0.2610 -0.7177
  625MPD2    H1 9260   4.707   4.166   0.759 -0.2802  0.3072  1.2755
  625MPD2    H2 9261   4.338   4.009   0.633  0.3310 -0.0737 -0.1008
  625MPD2    H3 9262   4.468   4.199   0.701  1.2555  0.4458 -1.3092
  625MPD2     N 9263   0.108   3.924   0.780 -0.0779  1.1188  0.2125
  625MPD2    H5 9264   0.135   3.827   0.788  0.5220  1.3288  0.7671
  625MPD2    N1 9265   4.388   3.763   0.622 -0.4696 -0.0359 -0.4106
  625MPD2    H7 9266   4.293   3.792   0.602  0.4609  3.2684  0.0914
  626TMC3    C1 9267   4.307   3.544   0.572 -0.3598  0.5547 -0.3590
  626TMC3    C2 9268   4.229   3.580   0.464  0.2835  0.6884  0.8707
  626TMC3    C3 9269   4.123   3.495   0.434  0.0192 -0.7167  0.5820
  626TMC3    C4 9270   4.288   3.440   0.652  0.4024 -0.0790  0.6399
  626TMC3    C5 9271   4.177   3.363   0.626  0.0604  0.3418  1.0077
  626TMC3    C6 9272   4.094   3.389   0.519 -0.2535 -0.2311  0.2580
  626TMC3     C 9273   4.420   3.628   0.605 -0.0899  0.5889 -0.2349
  626TMC3     O 9274   4.525   3.574   0.639 -0.5302  0.3931  0.8714
  626TMC3     H 9275   4.248   3.663   0.397  0.5030 -0.6480 -0.7310
  626TMC3    H1 9276   4.352   3.414   0.736  0.8606  0.5283  0.4837
  626TMC3    H2 9277   4.022   3.318   0.481 -0.7313 -0.4808  1.6162
  626TMC3    C7 9278   4.152   3.251   0.717  0.2651  0.1689 -0.6804
  626TMC3    C8 9279   4.068   3.483   0.294  0.2676 -0.2346 -0.9144
  626TMC3    O1 9280   4.238   3.229   0.799  0.3764  0.8913 -0.1928
  626TMC3    O2 9281   4.144   3.518   0.203  0.2221 -0.6902 -0.2333
  627MPD2     C 9282   2.501   3.095  14.557  0.5573  0.5124  0.4066
  627MPD2    C1 9283   2.638   3.081  14.557  0.1209 -0.0165 -0.2258
  627MPD2    C2 9284   2.684   2.950  14.537 -0.1179 -0.0063  0.3144
  627MPD2    C3 9285   2.606   2.844  14.513  0.0209  0.1756  0.1306
  627MPD2    C4 9286   2.465   2.862  14.507  0.4102  0.3647 -0.5612
  627MPD2    C5 9287   2.418   2.987  14.533  0.0167  0.1705  0.1189
  627MPD2     H 9288   2.790   2.935  14.525  0.0306  0.8910  0.4550
  627MPD2    H1 9289   2.385   2.788  14.502  0.7687  0.0775 -2.1706
  627MPD2    H2 9290   2.460   3.195  14.554 -0.0195  0.2479 -0.2980
  627MPD2    H3 9291   2.311   3.003  14.540  0.1001  1.2638 -1.0396
  627MPD2     N 9292   2.664   2.712  14.509  0.0268 -0.4197  0.5045
  627MPD2    H5 9293   2.765   2.701  14.510 -0.0830 -1.4082 -0.7558
  627MPD2    N1 9294   2.730   3.184  14.592  0.1764 -0.3419 -0.0498
  627MPD2    H7 9295   2.827   3.170  14.566 -0.1403 -0.0123 -1.3769
  628TMC3    C1 9296   2.814   3.385  14.695 -0.0897  0.5952 -0.3361
  628TMC3    C2 9297   2.926   3.332  14.752 -0.1938 -0.3161 -0.2928
  628TMC3    C3 9298   3.030   3.412  14.792 -0.2145 -0.4304  0.4260
  628TMC3    C4 9299   2.788   3.521  14.698  0.5735  0.2926  0.0972
  628TMC3    C5 9300   2.885   3.600  14.748 -0.7995  0.3306  0.0608
  628TMC3    C6 9301   3.003   3.549  14.801  0.0233  0.1262 -0.3482
  628TMC3     C 9302   2.697   3.304  14.652 -0.4599  0.2457  0.1410
  628TMC3     O 9303   2.591   3.360  14.680  0.2760 -0.0019 -0.3433
  628TMC3     H 9304   2.957   3.230  14.735 -1.1248 -0.7275  0.5207
  628TMC3    H1 9305   2.694   3.563  14.664  0.2961 -0.1056  0.3702
  628TMC3    H2 9306   3.085   3.615  14.824 -0.3191  0.2931  0.3986
  628TMC3    C7 9307   2.883   3.740  14.732 -0.2914 -0.2501 -0.4517
  628TMC3    C8 9308   3.160   3.391  14.723  0.1581 -0.4292 -0.4507
  628TMC3    O1 9309   2.951   3.797  14.811  0.4294 -0.6337 -0.1725
  628TMC3    O2 9310   3.204   3.486  14.655 -0.2102  0.2721 -0.1398
  629MPD2     C 9311   1.269   1.697  16.210  0.4230 -0.1097 -0.0381
  629MPD2    C1 9312   1.262   1.697  16.349 -0.0904  0.0455  0.5552
  629MPD2    C2 9313   1.134   1.677  16.407  0.0028  0.2564  0.2126
  629MPD2    C3 9314   1.023   1.663  16.321  0.2058  0.0880 -0.1442
  629MPD2    C4 9315   1.042   1.652  16.184 -0.2864 -0.1277 -0.0048
  629MPD2    C5 9316   1.168   1.670  16.132  0.4073  0.2529  0.3780
  629MPD2     H 9317   1.122   1.660  16.513  0.6034  0.3313  0.2936
  629MPD2    H1 9318   0.960   1.644  16.114 -2.5903 -2.7679  3.0126
  629MPD2    H2 9319   1.365   1.707  16.161  0.6795 -2.0774  0.0735
  629MPD2    H3 9320   1.177   1.666  16.024 -0.3679  2.5584  0.2258
  629MPD2     N 9321   0.885   1.658  16.357  0.0389 -0.0849  0.4656
  629MPD2    H5 9322   0.811   1.652  16.287  0.4309  0.8568 -0.0203
  629MPD2    N1 9323   1.380   1.717  16.424  1.0599  0.0023 -0.4463
  629MPD2    H7 9324   1.466   1.719  16.371  1.6396 -0.6912  0.4701
  630TMC3    C1 9325   1.522   1.761  16.614  0.0407 -0.7884 -0.6268
  630TMC3    C2 9326   1.600   1.853  16.543 -0.2948  0.0832  0.0531
  630TMC3    C3 9327   1.686   1.929  16.609 -0.1535  0.0483 -0.2170
  630TMC3    C4 9328   1.540   1.742  16.750  0.8793 -0.4005 -0.2168
  630TMC3    C5 9329   1.639   1.817  16.805  0.0820  0.6104  0.2418
  630TMC3    C6 9330   1.708   1.918  16.741 -0.0572  0.1590 -0.5171
  630TMC3     C 9331   1.386   1.730  16.558  0.0267  0.2587 -0.7812
  630TMC3     O 9332   1.300   1.696  16.639 -0.4775  0.2119  0.4222
  630TMC3     H 9333   1.576   1.867  16.438  0.2008 -1.3007 -0.2509
  630TMC3    H1 9334   1.479   1.668  16.801  0.1854 -0.6093 -1.3335
  630TMC3    H2 9335   1.795   1.968  16.783  1.3112 -0.7343 -2.2432
  630TMC3    C7 9336   1.672   1.791  16.941 -0.8037  0.4439  0.3691
  630TMC3    C8 9337   1.771   2.017  16.535  0.7279  0.4465  0.5334
  630TMC3    O1 9338   1.610   1.698  16.994 -0.0469 -0.6171  0.1213
  630TMC3    O2 9339   1.883   2.042  16.582  0.4539 -0.3356 -0.0170
  631MPD2     C 9340   3.992   1.656  15.513  0.1019  0.2713  0.4583
  631MPD2    C1 9341   4.060   1.736  15.421 -0.1735 -0.1098 -0.1869
  631MPD2    C2 9342   4.196   1.719  15.418  0.0236  0.0238 -0.4842
  631MPD2    C3 9343   4.267   1.628  15.491  0.9011  0.6181  0.6807
  631MPD2    C4 9344   4.189   1.545  15.577 -0.0547  0.2108 -0.0104
  631MPD2    C5 9345   4.053   1.561  15.585  0.3256  0.2608  0.4655
  631MPD2     H 9346   4.250   1.794  15.361  0.7990 -2.0514 -2.4778
  631MPD2    H1 9347   4.237   1.468  15.637 -0.3063 -0.3813 -0.5652
  631MPD2    H2 9348   3.884   1.662  15.523  0.3317  2.4852  1.5993
  631MPD2    H3 9349   4.005   1.494  15.655 -1.6354 -1.3252 -2.3559
  631MPD2     N 9350   4.408   1.635  15.493  0.3570 -0.3991 -0.3348
  631MPD2    H5 9351   4.451   1.699  15.427  0.0026  1.3255  1.1250
  631MPD2    N1 9352   3.984   1.832  15.348 -0.5193 -0.7222 -0.8141
  631MPD2    H7 9353   3.884   1.831  15.364 -0.2799  0.0634  0.7232
  632TMC3    C1 9354   3.957   2.023  15.203 -0.2402  0.6821 -0.7459
  632TMC3    C2 9355   3.896   2.089  15.309 -0.4540 -0.1447  0.2664
  632TMC3    C3 9356   3.916   2.222  15.327 -0.2103  0.0381  0.1356
  632TMC3    C4 9357   4.026   2.101  15.119 -0.0796  0.3158 -0.1828
  632TMC3    C5 9358   4.051   2.231  15.150 -0.1755 -0.1273  0.3850
  632TMC3    C6 9359   3.995   2.302  15.249  0.5713 -0.2498 -0.4176
  632TMC3     C 9360   4.033   1.907  15.241 -0.3807 -0.4187 -0.0782
  632TMC3     O 9361   4.138   1.896  15.180  0.2569  0.5016  0.0568
  632TMC3     H 9362   3.846   2.029  15.384  0.7141 -0.9257  0.4174
  632TMC3    H1 9363   4.077   2.055  15.036 -1.2283  0.9201 -1.2355
  632TMC3    H2 9364   4.003   2.409  15.261 -1.0442 -0.0134 -1.3946
  632TMC3    C7 9365   4.193   2.262  15.141 -0.0580 -0.1749  0.5020
  632TMC3    C8 9366   3.857   2.274  15.452 -0.1770 -0.0328 -0.0707
  632TMC3    O1 9367   4.253   2.292  15.243 -0.2872  0.3971 -0.1979
  632TMC3    O2 9368   3.758   2.215  15.489  0.0953 -0.3449 -0.0814
  633MPD2     C 9369   4.156   4.652   0.006  0.3431 -0.0256  0.3751
  633MPD2    C1 9370   4.114   4.570  17.594  0.0462  0.4950 -0.1591
  633MPD2    C2 9371   4.047   4.449  17.624 -0.1675  0.3613  0.0520
  633MPD2    C3 9372   4.038   4.409   0.062 -0.3514 -0.3360  0.3387
  633MPD2    C4 9373   4.093   4.488   0.168 -0.3318  0.2210  0.0524
  633MPD2    C5 9374   4.149   4.613   0.139 -0.1003  0.3078 -0.3004
  633MPD2     H 9375   4.021   4.386  17.539  1.5918  2.7962 -2.3008
  633MPD2    H1 9376   4.097   4.462   0.273  0.2807 -0.1799 -0.0661
  633MPD2    H2 9377   4.214   0.019  17.684 -0.6683  0.5259 -0.2206
  633MPD2    H3 9378   4.188   4.675   0.219 -1.4059  1.4806 -0.5841
  633MPD2     N 9379   3.989   4.283   0.097  0.3049  0.5079  0.3214
  633MPD2    H5 9380   3.982   4.268   0.197 -2.2037  1.7869  0.3238
  633MPD2    N1 9381   4.134   4.608  17.461  0.4293  0.2985  0.2245
  633MPD2    H7 9382   4.103   4.536  17.396 -0.8005  0.5706  0.5095
  634TMC3    C1 9383   4.169   0.010  17.273  0.3155 -0.8781  0.4866
  634TMC3    C2 9384   4.240   4.635  17.207  1.0074  0.7738  0.5209
  634TMC3    C3 9385   4.232   4.637  17.068  0.0599  0.3291  0.4469
  634TMC3    C4 9386   4.092   0.108  17.213 -0.5622 -0.3374  0.0375
  634TMC3    C5 9387   4.083   0.102  17.076  0.3098  0.1193  0.3362
  634TMC3    C6 9388   4.147   0.003  17.004  0.2642  0.0631 -0.0595
  634TMC3     C 9389   4.166   0.011  17.412  0.7536  0.0141  1.1158
  634TMC3     O 9390   4.176   0.121  17.465 -0.3352  0.0159 -0.0587
  634TMC3     H 9391   4.305   4.571  17.265  0.4696 -0.6673 -0.4533
  634TMC3    H1 9392   4.058   0.192  17.272 -1.8593 -0.3760 -0.6390
  634TMC3    H2 9393   4.135   0.002  16.896  0.5582  2.6609 -0.1342
  634TMC3    C7 9394   4.015   0.213  16.999 -0.3521  0.8647  0.1220
  634TMC3    C8 9395   4.259   4.513  17.010  0.5778  0.3912  0.0961
  634TMC3    O1 9396   4.039   0.224  16.878  0.1139 -0.1838  0.2724
  634TMC3    O2 9397   4.254   4.416  17.084 -0.2189  0.3163  0.0298
  635TMC3    C1 9398   0.602   1.182  17.116 -0.0861  0.0843 -0.4967
  635TMC3    C2 9399   0.718   1.244  17.172  0.3422  0.2480  0.0565
  635TMC3    C3 9400   0.839   1.204  17.126  0.3853 -0.1452 -0.5022
  635TMC3    C4 9401   0.615   1.100  17.004  0.2648 -0.0226  0.1306
  635TMC3    C5 9402   0.740   1.082  16.955 -0.3039 -0.8185 -0.6825
  635TMC3    C6 9403   0.848   1.121  17.020 -0.2332 -0.0857  0.2941
  635TMC3     C 9404   0.471   1.246  17.155  0.3479 -1.0453 -0.6307
  635TMC3     O 9405   0.465   1.302  17.267 -0.0727 -0.5308  0.8072
  635TMC3     H 9406   0.705   1.319  17.249 -0.8047  0.0244  0.0935
  635TMC3    H1 9407   0.529   1.054  16.957 -0.1440 -0.1709  1.0326
  635TMC3    H2 9408   0.942   1.097  16.971 -0.2093 -1.7004  1.1574
  635TMC3    C7 9409   0.766   1.028  16.818  0.9379 -0.2127  0.0080
  635TMC3    C8 9410   0.948   1.288  17.146 -0.0864  0.6425 -0.2007
  635TMC3    O1 9411   0.880   1.020  16.778  0.7854 -0.4401  0.9733
  635TMC3    O2 9412   0.924   1.392  17.198 -0.3691  0.4751  0.0982
  636MPD2     C 9413   0.354   0.323  16.005 -1.0880 -0.1750 -0.9940
  636MPD2    C1 9414   0.411   0.363  16.127  0.1104 -0.2459 -0.5424
  636MPD2    C2 9415   0.506   0.284  16.185 -1.1105  0.1214 -0.0144
  636MPD2    C3 9416   0.559   0.174  16.117 -0.2558  0.5554 -0.2480
  636MPD2    C4 9417   0.522   0.154  15.991  0.0997 -0.3252  0.0534
  636MPD2    C5 9418   0.416   0.222  15.933 -0.2878 -0.3903  0.5586
  636MPD2     H 9419   0.551   0.306  16.281 -1.2514 -0.1262  0.1093
  636MPD2    H1 9420   0.556   0.074  15.926  0.8925 -0.7695  1.0162
  636MPD2    H2 9421   0.289   0.389  15.949  0.6040  0.8664 -1.7209
  636MPD2    H3 9422   0.382   0.208  15.831  1.9071 -0.9583 -0.0926
  636MPD2     N 9423   0.654   0.095  16.181 -0.6042 -0.4587  0.0408
  636MPD2    H5 9424   0.697   0.137  16.263 -0.4891 -0.9804  0.2489
  636MPD2    N1 9425   0.364   0.476  16.195  0.0924 -0.4002  0.8799
  636MPD2    H7 9426   0.409   0.498  16.283 -2.3605  0.5912  1.8728
  637TMC3    C1 9427   0.773   4.618  16.246  0.0630 -0.2293 -0.4410
  637TMC3    C2 9428   0.783   4.667  16.374 -0.1927 -0.3137  0.0374
  637TMC3    C3 9429   0.844   4.592  16.470  0.2899 -0.7782 -0.0442
  637TMC3    C4 9430   0.822   4.498  16.210  0.2784  0.3025  0.3342
  637TMC3    C5 9431   0.888   4.430  16.305 -0.2487  0.2241 -0.0520
  637TMC3    C6 9432   0.890   4.465  16.438 -0.1914  0.1564  0.2618
  637TMC3     C 9433   0.692   4.688  16.146 -0.1436 -0.4848  0.1294
  637TMC3     O 9434   0.669   4.632  16.045  0.3491 -0.3141 -0.3925
  637TMC3     H 9435   0.755   0.046  16.399  2.3861  0.5336 -0.5080
  637TMC3    H1 9436   0.810   4.468  16.107  0.0319 -1.8125  0.9913
  637TMC3    H2 9437   0.936   4.397  16.508  0.1634  0.8460  0.6938
  637TMC3    C7 9438   0.947   4.302  16.267 -0.4674  0.6766  0.0251
  637TMC3    C8 9439   0.913   4.668  16.582  0.0837 -0.9536 -0.3227
  637TMC3    O1 9440   0.863   4.242  16.200  0.0593 -0.2183  0.1457
  637TMC3    O2 9441   0.899   0.064  16.577 -0.1960  0.6733 -0.4306
  638MPD2     C 9442   0.659   4.070  14.942  0.4378  0.3885  0.8898
  638MPD2    C1 9443   0.585   3.979  14.866 -0.1927 -0.0516  0.6670
  638MPD2    C2 9444   0.581   3.844  14.903  0.0782 -0.2174  0.3020
  638MPD2    C3 9445   0.657   3.792  15.005  0.4724  0.2557 -1.2542
  638MPD2    C4 9446   0.734   3.879  15.079 -0.5093 -0.3642  0.3971
  638MPD2    C5 9447   0.729   4.012  15.049  0.3058 -0.3451  0.0856
  638MPD2     H 9448   0.533   3.776  14.834  2.0940 -0.9556 -0.3579
  638MPD2    H1 9449   0.797   3.846  15.160  2.0172  0.2282 -1.3179
  638MPD2    H2 9450   0.677   4.176  14.926  0.9186  0.2747  0.6797
  638MPD2    H3 9451   0.801   4.071  15.105 -0.2817  1.3371 -0.9352
  638MPD2     N 9452   0.653   3.647  15.018 -0.0357 -0.1143 -0.4219
  638MPD2    H5 9453   0.582   3.597  14.966 -2.8888  0.6467  2.8095
  638MPD2    N1 9454   0.516   4.025  14.748  0.1791 -0.5332  0.0809
  638MPD2    H7 9455   0.541   4.117  14.715  0.4271 -0.2237  1.1282
  639TMC3    C1 9456   0.705   3.440  15.108 -0.6533  0.2771  0.8757
  639TMC3    C2 9457   0.574   3.394  15.084  0.2570  0.4515  0.2742
  639TMC3    C3 9458   0.548   3.266  15.117 -0.3170  0.8346 -0.2032
  639TMC3    C4 9459   0.798   3.358  15.160 -0.3122 -0.1086  0.0257
  639TMC3    C5 9460   0.759   3.235  15.206  0.3678 -0.3179 -0.5658
  639TMC3    C6 9461   0.636   3.181  15.178  0.1205 -0.3743 -0.4141
  639TMC3     C 9462   0.742   3.576  15.095 -0.1423 -0.2623 -0.3071
  639TMC3     O 9463   0.843   3.618  15.146 -0.4064  0.0586 -0.1287
  639TMC3     H 9464   0.501   3.450  15.026 -0.7768 -0.1429  1.0106
  639TMC3    H1 9465   0.892   3.394  15.200 -1.1795  0.4021  1.6499
  639TMC3    H2 9466   0.603   3.079  15.192 -0.8895 -0.1763 -1.3373
  639TMC3    C7 9467   0.852   3.125  15.231  0.1683  0.4423 -0.3157
  639TMC3    C8 9468   0.457   3.208  15.020  0.2927 -0.5234  0.5031
  639TMC3    O1 9469   0.810   3.027  15.289 -0.0672  0.4571  0.6033
  639TMC3    O2 9470   0.454   3.257  14.910 -0.0396 -1.1865  0.1351
  640MPD2     C 9471   1.184   1.941   9.771  0.1778  0.4238  0.1522
  640MPD2    C1 9472   1.150   1.829   9.700 -0.1256  0.7153 -0.1465
  640MPD2    C2 9473   1.015   1.793   9.684  1.1358 -0.2069 -0.6275
  640MPD2    C3 9474   0.916   1.870   9.746  0.4325 -0.3022 -0.2341
  640MPD2    C4 9475   0.953   1.982   9.818  0.8445  0.9084 -0.1746
  640MPD2    C5 9476   1.082   2.015   9.826 -0.4881 -0.3843 -0.0399
  640MPD2     H 9477   0.988   1.706   9.626 -2.2202  1.2575 -1.2445
  640MPD2    H1 9478   0.878   2.040   9.870  0.3656  1.4991 -1.5363
  640MPD2    H2 9479   1.288   1.966   9.786  0.9064 -1.3870 -1.9477
  640MPD2    H3 9480   1.114   2.097   9.890  0.3089 -0.1231 -0.7710
  640MPD2     N 9481   0.784   1.844   9.730 -0.4136 -0.4651 -0.0297
  640MPD2    H5 9482   0.723   1.913   9.772  1.2651  1.2219 -0.3860
  640MPD2    N1 9483   1.255   1.744   9.658 -0.3884 -0.3839  0.2734
  640MPD2    H7 9484   1.350   1.780   9.658 -0.1891 -0.8969  0.8496
  641TMC3    C1 9485   1.372   1.550   9.592 -0.6590  0.7090 -0.4540
  641TMC3    C2 9486   1.379   1.417   9.626  0.4608 -0.2687 -0.5113
  641TMC3    C3 9487   1.506   1.362   9.635 -0.1729  0.0474 -0.2164
  641TMC3    C4 9488   1.482   1.627   9.575  0.5842  0.6323  0.1835
  641TMC3    C5 9489   1.606   1.568   9.599 -0.5464 -0.7068  0.4024
  641TMC3    C6 9490   1.618   1.433   9.623 -0.0698  0.0225  0.1838
  641TMC3     C 9491   1.245   1.608   9.644  0.1550  0.1148 -0.4894
  641TMC3     O 9492   1.150   1.532   9.660 -0.5075 -0.5305  0.8227
  641TMC3     H 9493   1.290   1.355   9.632  1.7244 -2.2967 -2.7156
  641TMC3    H1 9494   1.471   1.728   9.536 -0.0017  0.0768 -1.0626
  641TMC3    H2 9495   1.715   1.391   9.649 -0.5230 -0.7540  0.6224
  641TMC3    C7 9496   1.728   1.644   9.584  0.2272 -0.3201  0.4397
  641TMC3    C8 9497   1.516   1.216   9.657 -0.1966  0.2912  0.1442
  641TMC3    O1 9498   1.828   1.578   9.604 -0.0798  0.4880 -0.1232
  641TMC3    O2 9499   1.411   1.152   9.650  0.0799  0.4610 -0.2247
  642TMC3    C1 9500   2.048   3.383  12.156  0.1478 -1.0490  0.4012
  642TMC3    C2 9501   2.184   3.364  12.154  0.7880  0.1659 -0.3915
  642TMC3    C3 9502   2.234   3.245  12.111  0.3522 -0.0207 -0.5589
  642TMC3    C4 9503   1.963   3.282  12.135  0.8110 -0.2028  0.5134
  642TMC3    C5 9504   2.016   3.160  12.098 -0.7410 -0.1260  0.5074
  642TMC3    C6 9505   2.149   3.143  12.088 -0.1228  0.1664  0.1340
  642TMC3     C 9506   1.994   3.516  12.162 -0.7670  0.2473  0.1305
  642TMC3     O 9507   2.073   3.605  12.121  0.2326  0.0205  0.2225
  642TMC3     H 9508   2.255   3.444  12.176  0.8471  0.4291 -1.5546
  642TMC3    H1 9509   1.859   3.304  12.118  0.7684 -0.7373  0.0786
  642TMC3    H2 9510   2.193   3.044  12.093 -0.0587  0.1998  0.2192
  642TMC3    C7 9511   1.933   3.042  12.087  0.4182 -0.7360  0.2903
  642TMC3    C8 9512   2.373   3.195  12.110  0.5821  0.0844  0.5720
  642TMC3    O1 9513   1.971   2.956  12.003  0.2478  0.0686 -0.1259
  642TMC3    O2 9514   2.401   3.114  12.030  0.0157 -0.0928  0.1467
  643TMC3    C1 9515   0.846   2.600   0.018 -0.3293  0.6989  0.8889
  643TMC3    C2 9516   0.744   2.674  17.674 -0.6829 -0.3571  0.0150
  643TMC3    C3 9517   0.715   2.669  17.542  0.2876 -0.0313 -0.3724
  643TMC3    C4 9518   0.916   2.518  17.625 -0.9276 -0.6963 -0.2266
  643TMC3    C5 9519   0.880   2.520  17.497  0.3177  0.1542  0.6876
  643TMC3    C6 9520   0.770   2.589  17.452 -0.4101 -0.3098  0.6048
  643TMC3     C 9521   0.930   2.688   0.092 -0.2082 -0.5646 -0.2296
  643TMC3     O 9522   0.919   2.806   0.059  0.0567  0.4045  0.2737
  643TMC3     H 9523   0.697   2.737   0.056 -1.3061  0.1891 -0.8370
  643TMC3    H1 9524   1.008   2.473  17.659 -0.8980  0.3800  1.1319
  643TMC3    H2 9525   0.764   2.611  17.346 -1.4478 -0.2213  0.6865
  643TMC3    C7 9526   0.989   2.528  17.407 -0.1414  0.1382 -0.2649
  643TMC3    C8 9527   0.655   2.794  17.491 -0.2623 -0.1176 -0.2149
  643TMC3    O1 9528   1.077   2.607  17.434  1.0514 -0.1760 -0.7991
  643TMC3    O2 9529   0.575   2.788  17.401  0.5216  0.7727  0.1071
  644MPD2     C 9530   1.771   2.588   9.894  0.2315 -0.4283 -0.7242
  644MPD2    C1 9531   1.675   2.491   9.931  0.1597  0.0861  0.4191
  644MPD2    C2 9532   1.551   2.542   9.976  0.1344  0.3118  0.4145
  644MPD2    C3 9533   1.519   2.673   9.966 -0.1684  0.1060 -0.6318
  644MPD2    C4 9534   1.613   2.765   9.916 -0.3018  0.3270  0.3542
  644MPD2    C5 9535   1.735   2.720   9.882  0.3371  0.1435  0.2389
  644MPD2     H 9536   1.471   2.481  10.016  0.6124 -2.0867 -2.2401
  644MPD2    H1 9537   1.590   2.871   9.913 -0.6567  0.2666  0.9761
  644MPD2    H2 9538   1.867   2.547   9.864 -0.2990 -1.2651 -1.2661
  644MPD2    H3 9539   1.804   2.797   9.849  0.2707 -0.1315 -0.5507
  644MPD2     N 9540   1.390   2.714  10.011 -0.2254  0.2974  0.4563
  644MPD2    H5 9541   1.338   2.639  10.055 -0.3857 -0.7907 -1.6330
  644MPD2    N1 9542   1.701   2.355   9.922  0.1275 -0.1534 -0.0404
  644MPD2    H7 9543   1.795   2.333   9.892  0.2615 -0.3507  0.5346
  645TMC3    C1 9544   1.217   2.849  10.074 -0.6858 -0.4766  0.2691
  645TMC3    C2 9545   1.181   2.971  10.124 -0.3968  0.3494 -0.5177
  645TMC3    C3 9546   1.061   2.982  10.177 -0.2855 -0.4292  0.0773
  645TMC3    C4 9547   1.131   2.742  10.047  0.2903 -0.3300  0.2509
  645TMC3    C5 9548   0.998   2.766  10.092 -0.1236  0.0777  0.3580
  645TMC3    C6 9549   0.968   2.881  10.155 -0.4368  0.1887 -0.3692
  645TMC3     C 9550   1.339   2.840   9.999  0.9970 -0.0115 -0.0802
  645TMC3     O 9551   1.385   2.945   9.955  0.5295 -0.0048 -0.6552
  645TMC3     H 9552   1.258   3.041  10.157 -0.9925  0.6195  0.3012
  645TMC3    H1 9553   1.155   2.657   9.985 -1.7818 -0.7956  0.0725
  645TMC3    H2 9554   0.867   2.911  10.181 -0.7315 -0.3228 -0.9195
  645TMC3    C7 9555   0.893   2.674  10.061 -1.0345  0.1407 -0.1159
  645TMC3    C8 9556   1.031   3.115  10.221 -0.1271  0.5372  0.1149
  645TMC3    O1 9557   0.930   2.576   9.992 -0.6442 -0.0104  0.0937
  645TMC3    O2 9558   1.097   3.210  10.187  0.3087 -0.4696 -0.4125
  646MPD2     C 9559   1.013   2.670  14.499 -0.1529  0.2779  0.0442
  646MPD2    C1 9560   0.919   2.645  14.601  0.3253 -0.4989  0.5833
  646MPD2    C2 9561   0.789   2.688  14.566  0.5796  0.5458 -0.3272
  646MPD2    C3 9562   0.752   2.727  14.439  0.2444 -0.1518  0.1878
  646MPD2    C4 9563   0.846   2.751  14.343 -0.8337 -0.5443  0.4967
  646MPD2    C5 9564   0.972   2.728  14.380 -0.3786  0.2929 -0.3858
  646MPD2     H 9565   0.716   2.688  14.646  1.2860 -0.7233  0.3264
  646MPD2    H1 9566   0.822   2.789  14.244  1.6657 -1.5633 -0.5061
  646MPD2    H2 9567   1.118   2.640  14.501  0.4420  2.4366  0.8356
  646MPD2    H3 9568   1.050   2.763  14.313  0.6657  2.0816  1.7616
  646MPD2     N 9569   0.616   2.736  14.415  0.0117  0.7979 -0.3172
  646MPD2    H5 9570   0.559   2.712  14.495 -1.6378  1.4234 -1.2861
  646MPD2    N1 9571   0.961   2.588  14.723  0.2994 -0.3085  0.0169
  646MPD2    H7 9572   1.061   2.573  14.729  1.0314  4.8370  0.9378
  647TMC3    C1 9573   0.956   2.493  14.942 -0.1150 -0.3626  0.8384
  647TMC3    C2 9574   0.886   2.459  15.054  0.2239 -0.5661  0.5121
  647TMC3    C3 9575   0.950   2.404  15.164  0.9156  0.9714 -1.0075
  647TMC3    C4 9576   1.087   2.457  14.937 -0.4112  0.0374  0.4462
  647TMC3    C5 9577   1.142   2.381  15.035 -0.7206  0.5218 -1.1028
  647TMC3    C6 9578   1.073   2.369  15.161 -0.1994 -0.2438 -0.4540
  647TMC3     C 9579   0.879   2.540  14.827  0.0649 -0.3789 -0.4433
  647TMC3     O 9580   0.756   2.539  14.829  0.3075  0.3251  0.0784
  647TMC3     H 9581   0.778   2.467  15.049  0.4932  1.8918 -1.1460
  647TMC3    H1 9582   1.139   2.460  14.842  0.0433  0.0877  0.6990
  647TMC3    H2 9583   1.118   2.326  15.249 -0.1893 -0.1197 -0.3985
  647TMC3    C7 9584   1.283   2.367  15.060 -0.2188  0.1519 -0.0312
  647TMC3    C8 9585   0.865   2.309  15.233  0.6955 -0.1179  0.4334
  647TMC3    O1 9586   1.326   2.403  15.172  0.1913 -0.1480  0.1702
  647TMC3    O2 9587   0.898   2.191  15.227  0.4013  0.3963 -0.0473
  648TMC3    C1 9588   4.483   0.019  16.056  0.3475 -0.1266  0.1150
  648TMC3    C2 9589   4.501   4.641  15.974 -0.1911  0.2090 -0.0538
  648TMC3    C3 9590   4.427   4.647  15.851 -0.5664 -0.2277 -0.2853
  648TMC3    C4 9591   4.399   0.124  16.026 -0.0150  0.4751 -0.5462
  648TMC3    C5 9592   4.321   0.122  15.914  0.0703  0.4325 -0.2224
  648TMC3    C6 9593   4.333   0.018  15.824 -0.1744  0.2217  0.2409
  648TMC3     C 9594   4.519   0.007  16.197 -0.4406  0.2923 -0.3778
  648TMC3     O 9595   4.479   0.086  16.280  0.0961  0.0782 -0.5702
  648TMC3     H 9596   4.560   4.553  15.997 -1.3150 -0.6841 -0.6068
  648TMC3    H1 9597   4.398   0.214  16.087  2.3731  0.9564 -1.2295
  648TMC3    H2 9598   4.282   0.011  15.729 -0.3240  0.6623  0.2855
  648TMC3    C7 9599   4.221   0.221  15.878 -0.7202  0.2551 -0.1026
  648TMC3    C8 9600   4.432   4.533  15.759 -0.1852  0.1587 -0.3895
  648TMC3    O1 9601   4.209   0.239  15.755 -0.9721 -0.1111 -0.3747
  648TMC3    O2 9602   4.332   4.526  15.693 -0.0436 -0.6822  0.0399
  649TMC3    C1 9603   3.318   0.588  12.562  0.3401  0.3851  0.3537
  649TMC3    C2 9604   3.390   0.531  12.457  0.2584 -0.0208  0.6330
  649TMC3    C3 9605   3.436   0.403  12.472 -0.6618  0.5078  0.4090
  649TMC3    C4 9606   3.292   0.524  12.679 -0.2736  0.7071 -0.6074
  649TMC3    C5 9607   3.323   0.391  12.684  0.4764  0.0366 -0.1364
  649TMC3    C6 9608   3.396   0.329  12.585 -0.4470  0.2833  0.2355
  649TMC3     C 9609   3.216   0.693  12.540  0.8891 -0.1528  0.6598
  649TMC3     O 9610   3.166   0.752  12.632 -0.3887 -0.1454  0.2014
  649TMC3     H 9611   3.418   0.598  12.376  1.1295  0.9110  1.7086
  649TMC3    H1 9612   3.249   0.573  12.765 -0.4524  0.7895 -0.7418
  649TMC3    H2 9613   3.422   0.224  12.592 -0.4225  0.2841  0.1578
  649TMC3    C7 9614   3.324   0.330  12.814  0.2652  0.2869  1.3237
  649TMC3    C8 9615   3.519   0.355  12.374  0.5283 -0.4586  0.1129
  649TMC3    O1 9616   3.316   0.402  12.912  0.2602  0.7912 -0.5710
  649TMC3    O2 9617   3.550   0.431  12.281 -0.1499 -0.5212  0.1642
  650TMC3    C1 9618   1.671   2.633  12.757  0.3370 -0.5275 -0.0557
  650TMC3    C2 9619   1.616   2.700  12.864 -0.2326  0.1848  0.7021
  650TMC3    C3 9620   1.482   2.694  12.882  0.3763  0.1244 -0.0235
  650TMC3    C4 9621   1.592   2.575  12.662  0.6720  0.2972 -0.5587
  650TMC3    C5 9622   1.457   2.566  12.684  0.0500 -0.1365  0.4315
  650TMC3    C6 9623   1.403   2.622  12.794 -0.7926  0.4706  0.0885
  650TMC3     C 9624   1.813   2.622  12.722 -0.3610  0.0474 -0.2952
  650TMC3     O 9625   1.845   2.622  12.605 -0.1771 -0.7574  0.0198
  650TMC3     H 9626   1.674   2.756  12.936 -1.8625  2.9651 -0.1711
  650TMC3    H1 9627   1.637   2.536  12.572 -2.0157 -2.1906 -0.8265
  650TMC3    H2 9628   1.296   2.613  12.808 -0.6142 -2.5421 -0.4450
  650TMC3    C7 9629   1.383   2.594  12.568  0.5912 -0.1982 -0.5705
  650TMC3    C8 9630   1.426   2.825  12.911 -0.4275 -0.8734 -0.1235
  650TMC3    O1 9631   1.398   2.523  12.469 -0.2091 -0.1861 -0.1688
  650TMC3    O2 9632   1.504   2.919  12.913  0.0496  0.3410  0.6474
  651MPD2     C 9633   4.644   4.184  11.105 -0.0340 -0.4863  0.9189
  651MPD2    C1 9634   4.577   4.264  11.012 -0.0738  0.7608  0.3199
  651MPD2    C2 9635   4.651   4.337  10.920  0.1245 -0.3590 -0.4203
  651MPD2    C3 9636   0.067   4.321  10.904  0.1290  0.4722 -0.2182
  651MPD2    C4 9637   0.132   4.256  11.005  0.7412  0.6754 -0.2890
  651MPD2    C5 9638   0.057   4.191  11.100  0.9994  0.4744 -0.7345
  651MPD2     H 9639   4.600   4.403  10.850  0.2638  3.1797  2.7808
  651MPD2    H1 9640   0.240   4.254  11.011  0.7772  2.5857 -0.2532
  651MPD2    H2 9641   4.599   4.123  11.182  1.0859 -1.0829  1.1087
  651MPD2    H3 9642   0.111   4.139  11.179  0.2809 -1.3574 -1.4624
  651MPD2     N 9643   0.136   4.397  10.807 -0.1036 -0.3199 -0.6143
  651MPD2    H5 9644   0.080   4.454  10.744 -1.8315 -1.4636 -0.1065
  651MPD2    N1 9645   4.442   4.274  11.013 -0.3785 -0.0734  0.0776
  651MPD2    H7 9646   4.412   4.349  10.952 -0.5993 -0.6095 -0.4742
  652TMC3    C1 9647   0.523   4.539  10.601  0.5592  0.7038  0.2407
  652TMC3    C2 9648   0.424   4.442  10.619  0.5075 -0.2394  0.5853
  652TMC3    C3 9649   0.307   4.475  10.678  0.8962 -1.0540 -1.2693
  652TMC3    C4 9650   0.491   4.665  10.637  0.2977 -0.6972 -0.0041
  652TMC3    C5 9651   0.366   4.697  10.687  0.7337  0.7255 -0.0927
  652TMC3    C6 9652   0.275   4.605  10.708 -0.5014  0.2712  0.3391
  652TMC3     C 9653   0.657   4.497  10.638 -0.0760  0.5348  0.8350
  652TMC3     O 9654   0.665   4.407  10.719  0.5619 -1.0814 -0.3458
  652TMC3     H 9655   0.448   4.336  10.614  0.9708 -0.0186 -1.8814
  652TMC3    H1 9656   0.569   0.018  10.643  1.0599 -1.3854 -1.1496
  652TMC3    H2 9657   0.180   4.635  10.749 -0.2504  2.0463 -0.3850
  652TMC3    C7 9658   0.352   0.086  10.777 -0.2127  0.5070  0.3598
  652TMC3    C8 9659   0.270   4.380  10.783  0.2697 -0.3179 -0.2687
  652TMC3    O1 9660   0.305   0.055  10.887 -0.0268 -0.0334  0.3283
  652TMC3    O2 9661   0.355   4.311  10.837 -0.1926 -0.7097 -0.3104
  653MPD2     C 9662   3.750   4.570   0.057  0.5950 -0.1798  0.6670
  653MPD2    C1 9663   3.742   4.668  17.651  0.4745 -0.0797  0.7064
  653MPD2    C2 9664   3.673   4.639  17.530 -0.3629  0.4367  0.2931
  653MPD2    C3 9665   3.609   4.514  17.511  0.1658 -0.4291  0.2536
  653MPD2    C4 9666   3.626   4.418  17.607 -0.6624 -0.5323  0.3947
  653MPD2    C5 9667   3.691   4.444   0.032 -0.3435 -0.2161 -0.7375
  653MPD2     H 9668   3.660   4.707  17.447 -1.4715 -0.2241 -0.0777
  653MPD2    H1 9669   3.588   4.317  17.599 -1.7784 -0.0544 -0.2790
  653MPD2    H2 9670   3.805   4.582   0.149  2.0360  1.1178 -0.3579
  653MPD2    H3 9671   3.686   4.363   0.104 -2.1398  0.8810  0.3550
  653MPD2     N 9672   3.548   4.493  17.381  0.4855 -0.1705  0.0626
  653MPD2    H5 9673   3.533   4.567  17.314 -1.5571 -0.3523  0.3244
  653MPD2    N1 9674   3.798   0.070  17.662  0.2769  0.1169  0.5828
  653MPD2    H7 9675   3.807   0.115  17.572 -0.0244  1.6560  1.3373
  654TMC3    C1 9676   3.427   4.369  17.213  0.1522  0.0421 -0.0157
  654TMC3    C2 9677   3.383   4.487  17.164  0.4911 -0.4111 -0.0380
  654TMC3    C3 9678   3.349   4.486  17.034  0.2028 -0.3027  0.2194
  654TMC3    C4 9679   3.450   4.261  17.130 -0.3237  0.0302 -0.3568
  654TMC3    C5 9680   3.418   4.271  16.996 -0.1897  0.2210  0.4660
  654TMC3    C6 9681   3.364   4.380  16.951  0.2189 -0.6329 -0.0691
  654TMC3     C 9682   3.498   4.371  17.341  0.0811 -0.0414  0.1019
  654TMC3     O 9683   3.532   4.262  17.388  0.7085 -0.1072 -0.0018
  654TMC3     H 9684   3.372   4.572  17.230  0.6105 -0.3629 -0.0807
  654TMC3    H1 9685   3.498   4.173  17.172  0.0464 -0.3912 -1.6489
  654TMC3    H2 9686   3.321   4.390  16.851 -1.8411 -2.5249  0.6246
  654TMC3    C7 9687   3.437   4.165  16.903 -0.0622  0.8135 -0.1573
  654TMC3    C8 9688   3.295   4.613  16.985  0.3863  0.8928  0.5159
  654TMC3    O1 9689   3.403   4.179  16.788 -0.0117 -0.1182  0.0230
  654TMC3    O2 9690   3.212   4.668  17.055  0.0373 -0.2490  0.1061
  655MPD2     C 9691   0.261   0.620  15.699  0.0708 -1.0841  0.1707
  655MPD2    C1 9692   0.156   0.536  15.717 -0.7535  0.4848  0.6551
  655MPD2    C2 9693   0.173   0.406  15.680  0.4535 -0.1230  0.7042
  655MPD2    C3 9694   0.290   0.360  15.627  0.2045  0.3063 -0.2489
  655MPD2    C4 9695   0.396   0.444  15.617 -0.1813  0.3370  0.3526
  655MPD2    C5 9696   0.377   0.575  15.640  0.1803 -0.3491 -0.1449
  655MPD2     H 9697   0.091   0.335  15.684  1.5577 -1.3547  1.4819
  655MPD2    H1 9698   0.487   0.408  15.570 -0.4845  1.0414 -0.7596
  655MPD2    H2 9699   0.264   0.728  15.710  2.4499 -1.0586 -0.5925
  655MPD2    H3 9700   0.457   0.643  15.614  1.1275 -0.8722  1.3547
  655MPD2     N 9701   0.296   0.236  15.568  0.3583 -0.0096  0.3741
  655MPD2    H5 9702   0.376   0.224  15.507 -0.5681  0.8280 -1.0122
  655MPD2    N1 9703   0.029   0.586  15.758 -0.0880 -0.2434 -0.4633
  655MPD2    H7 9704   4.689   0.508  15.774  0.1055  0.0111  1.5189
  656TMC3    C1 9705   4.569   0.722  15.816 -0.0761  0.1241  0.6161
  656TMC3    C2 9706   4.549   0.659  15.932  0.2661 -0.4220 -0.3954
  656TMC3    C3 9707   4.445   0.694  16.011 -0.1709  0.3486 -0.5088
  656TMC3    C4 9708   4.494   0.826  15.779 -0.3504 -0.5334  0.2517
  656TMC3    C5 9709   4.375   0.836  15.850 -0.6621  0.1825 -0.2118
  656TMC3    C6 9710   4.345   0.781  15.969  0.3219 -0.1126 -0.0496
  656TMC3     C 9711   4.708   0.715  15.763 -0.0265 -0.2686 -0.6546
  656TMC3     O 9712   0.038   0.814  15.715 -0.3669 -0.5476 -0.5379
  656TMC3     H 9713   4.630   0.593  15.959  0.9147  1.2299  1.7314
  656TMC3    H1 9714   4.521   0.882  15.690  0.3290  1.0609  1.4499
  656TMC3    H2 9715   4.252   0.787  16.025 -0.5961 -3.7163 -1.2099
  656TMC3    C7 9716   4.258   0.880  15.771 -0.3273  0.5191  0.2386
  656TMC3    C8 9717   4.403   0.590  16.110  0.2091  0.6296 -0.2157
  656TMC3    O1 9718   4.274   0.892  15.646 -0.2929 -0.4623 -0.5847
  656TMC3    O2 9719   4.464   0.481  16.103 -0.3958  0.3059 -0.8488
  657TMC3    C1 9720   3.476   3.980  15.106  0.2764  0.3764  0.1887
  657TMC3    C2 9721   3.592   3.985  15.172 -0.5182  0.8552 -0.1273
  657TMC3    C3 9722   3.637   4.108  15.223  0.9477  0.1243 -0.2970
  657TMC3    C4 9723   3.410   4.093  15.092  0.2949 -0.0771  0.5329
  657TMC3    C5 9724   3.453   4.213  15.138  0.0365 -0.3632 -0.2260
  657TMC3    C6 9725   3.573   4.227  15.201 -0.1751  0.6034 -0.1553
  657TMC3     C 9726   3.418   3.854  15.072 -0.5960 -0.4757 -0.6866
  657TMC3     O 9727   3.299   3.844  15.044  0.2067 -0.5157 -0.0730
  657TMC3     H 9728   3.628   3.894  15.219 -0.8236  0.6951 -0.2018
  657TMC3    H1 9729   3.319   4.085  15.034  0.6345 -0.4105  0.0454
  657TMC3    H2 9730   3.606   4.325  15.233  0.2508  0.2649  0.4456
  657TMC3    C7 9731   3.364   4.322  15.153  0.4815  0.3746  0.0797
  657TMC3    C8 9732   3.770   4.121  15.282  0.6243  0.2170  0.1446
  657TMC3    O1 9733   3.246   4.299  15.128  0.1597 -0.6395 -0.2158
  657TMC3    O2 9734   3.798   4.235  15.324  0.2591 -0.0171 -0.3814
  658MPD2     C 9735   0.683   0.213  15.096 -0.0764  0.1561  0.0261
  658MPD2    C1 9736   0.563   0.155  15.054  0.6897 -0.2534 -0.3659
  658MPD2    C2 9737   0.509   0.169  14.927  0.3809  0.1641 -0.1475
  658MPD2    C3 9738   0.579   0.249  14.837 -0.5158 -0.4496 -0.0153
  658MPD2    C4 9739   0.701   0.310  14.876  0.5304 -0.3669 -0.0935
  658MPD2    C5 9740   0.748   0.291  15.003  0.5443 -0.1242  0.7222
  658MPD2     H 9741   0.414   0.125  14.899 -0.2812  0.5204  1.5369
  658MPD2    H1 9742   0.757   0.377  14.813  1.8302 -0.1307  1.3035
  658MPD2    H2 9743   0.724   0.203  15.196  1.2147  0.8762 -0.4342
  658MPD2    H3 9744   0.835   0.346  15.037  0.5367  1.4505 -1.8053
  658MPD2     N 9745   0.527   0.266  14.711 -0.0589 -0.1800  0.3603
  658MPD2    H5 9746   0.437   0.220  14.699 -0.4613  0.2045  1.9992
  658MPD2    N1 9747   0.497   0.082  15.160  0.2295  0.5103  0.2738
  658MPD2    H7 9748   0.535   0.090  15.254  2.3881 -0.9617 -0.4605
  659TMC3    C1 9749   0.325   4.677  15.261 -0.7378  0.2431 -0.5705
  659TMC3    C2 9750   0.341   0.029  15.383  0.5554 -0.2672  0.7734
  659TMC3    C3 9751   0.241   0.018  15.475  0.6716 -1.0030 -0.0492
  659TMC3    C4 9752   0.228   4.586  15.246 -0.7142  1.1949  0.5779
  659TMC3    C5 9753   0.131   4.578  15.341  0.5940  0.2751  0.3196
  659TMC3    C6 9754   0.141   4.649  15.458  0.1112  0.5165  0.8364
  659TMC3     C 9755   0.384   4.721  15.144  0.0078 -0.5163 -0.6344
  659TMC3     O 9756   0.318   4.699  15.045  0.0903  0.3988 -0.2499
  659TMC3     H 9757   0.423   0.098  15.395 -0.4334  1.0727 -0.2519
  659TMC3    H1 9758   0.224   4.528  15.154 -0.4327 -0.1198  1.3910
  659TMC3    H2 9759   0.062   4.649  15.532 -1.7158  0.1227 -1.1236
  659TMC3    C7 9760   0.001   4.529  15.298 -0.5033 -0.6651 -0.3166
  659TMC3    C8 9761   0.206   0.127  15.567  0.4061 -0.4736  0.2766
  659TMC3    O1 9762   0.007   4.455  15.199 -0.5371  0.0348  0.1825
  659TMC3    O2 9763   0.097   0.125  15.627  0.2300 -0.1885  0.3173
  660MPD2     C 9764   3.372   3.179  12.535 -0.0874  0.0625 -0.6379
  660MPD2    C1 9765   3.265   3.128  12.463  0.1897  0.3685 -0.6545
  660MPD2    C2 9766   3.184   3.023  12.523 -0.4789  0.1512  0.3819
  660MPD2    C3 9767   3.226   2.965  12.644  0.0425 -0.1274  0.2156
  660MPD2    C4 9768   3.321   3.022  12.715  0.9550  0.1617  0.3933
  660MPD2    C5 9769   3.395   3.128  12.667 -0.7026 -0.2738 -0.0361
  660MPD2     H 9770   3.100   2.983  12.466 -0.1857  0.7945 -0.5066
  660MPD2    H1 9771   3.338   2.994  12.818 -3.3834  1.8052  1.5336
  660MPD2    H2 9772   3.427   3.264  12.496 -1.3780  0.3545 -1.8040
  660MPD2    H3 9773   3.474   3.176  12.723 -0.2318  0.1112 -1.0180
  660MPD2     N 9774   3.150   2.864  12.710 -0.2490  0.3814 -0.9482
  660MPD2    H5 9775   3.191   2.836  12.799  0.0784  1.6049 -0.7204
  660MPD2    N1 9776   3.221   3.200  12.347  0.3626  0.2362  0.0880
  660MPD2    H7 9777   3.241   3.299  12.337 -0.8425  0.4740 -0.0449
  661TMC3    C1 9778   3.098   3.249  12.155  0.4207 -0.4348  0.1403
  661TMC3    C2 9779   3.125   3.225  12.023 -0.6640 -0.4787  0.2783
  661TMC3    C3 9780   3.095   3.324  11.932  0.5493  0.2686  0.3772
  661TMC3    C4 9781   3.035   3.359  12.202 -0.5134 -0.2869  0.0283
  661TMC3    C5 9782   3.005   3.452  12.109  0.4708 -0.0930 -0.6769
  661TMC3    C6 9783   3.035   3.435  11.976  0.1922 -0.4824 -0.1244
  661TMC3     C 9784   3.134   3.150  12.253 -0.0549 -0.8438 -0.0505
  661TMC3     O 9785   3.092   3.033  12.246  0.0241  0.7714 -0.4789
  661TMC3     H 9786   3.175   3.135  11.987  1.2641  1.0249 -0.8010
  661TMC3    H1 9787   2.998   3.367  12.304  0.0243  1.7084  0.0598
  661TMC3    H2 9788   3.014   3.520  11.913 -0.7548  0.0397  0.9075
  661TMC3    C7 9789   2.872   3.508  12.143 -0.3560  0.4341 -0.3439
  661TMC3    C8 9790   3.164   3.321  11.809  0.0631  0.6474 -1.2140
  661TMC3    O1 9791   2.827   3.529  12.256 -0.3376 -0.1329 -0.6782
  661TMC3    O2 9792   3.180   3.212  11.762 -0.1933  0.3363  0.0030
  662MPD2     C 9793   3.224   3.238  16.890 -0.0565 -0.5719 -0.0750
  662MPD2    C1 9794   3.118   3.200  16.979  0.6298 -0.0566 -0.4771
  662MPD2    C2 9795   3.074   3.287  17.073  0.0110 -1.2036 -0.1630
  662MPD2    C3 9796   3.117   3.415  17.078  0.2817 -0.4210 -0.3531
  662MPD2    C4 9797   3.231   3.441  17.005  0.7495 -0.7652 -0.3663
  662MPD2    C5 9798   3.281   3.361  16.909  0.3404  0.3934  0.0078
  662MPD2     H 9799   2.993   3.251  17.136 -0.8810  1.5055  0.2837
  662MPD2    H1 9800   3.271   3.541  16.999  0.3482 -0.5811  0.0301
  662MPD2    H2 9801   3.266   3.171  16.816  0.8821 -0.6107  0.4868
  662MPD2    H3 9802   3.374   3.384  16.858 -0.4473 -1.4552 -2.2715
  662MPD2     N 9803   3.053   3.515  17.152  0.4669 -0.5531 -0.1397
  662MPD2    H5 9804   3.110   3.598  17.166  0.5526 -0.5863 -0.2912
  662MPD2    N1 9805   3.063   3.065  16.991 -0.2576 -0.5465 -0.1217
  662MPD2    H7 9806   2.988   3.057  17.059  0.3522 -2.7960  0.2940
  663TMC3    C1 9807   3.007   2.842  16.960 -0.1403 -0.3689 -0.0221
  663TMC3    C2 9808   2.894   2.879  17.025 -0.2367  0.2137  0.0010
  663TMC3    C3 9809   2.861   2.831  17.144 -0.1660  0.5385 -0.4275
  663TMC3    C4 9810   3.083   2.740  17.014  0.5452 -0.5287 -0.0196
  663TMC3    C5 9811   3.043   2.681  17.130  0.2623 -0.2041  0.5169
  663TMC3    C6 9812   2.942   2.736  17.209 -0.3383  0.0904  0.6006
  663TMC3     C 9813   3.082   2.952  16.918  0.1228  0.0917  0.0720
  663TMC3     O 9814   3.166   2.931  16.835 -0.4977 -0.3749  1.0055
  663TMC3     H 9815   2.826   2.941  16.969  0.6204  2.0486  0.9994
  663TMC3    H1 9816   3.175   2.710  16.967 -0.1349  2.4962 -3.2939
  663TMC3    H2 9817   2.902   2.690  17.299  1.4005 -0.7528  0.9378
  663TMC3    C7 9818   3.083   2.543  17.140  0.7350  0.4101  0.0515
  663TMC3    C8 9819   2.829   2.947  17.223 -0.1616  0.4532  0.9126
  663TMC3    O1 9820   3.163   2.498  17.059 -0.3847 -0.0087  0.3437
  663TMC3    O2 9821   2.849   3.054  17.165 -0.2294 -0.3072 -0.3662
  664MPD2     C 9822   1.171   1.223  17.479  0.5468  0.5602  0.0459
  664MPD2    C1 9823   1.154   1.355  17.512 -0.9658 -0.0343  0.3564
  664MPD2    C2 9824   1.077   1.396  17.622  0.2915 -0.4249 -0.0554
  664MPD2    C3 9825   1.028   1.300   0.013  0.1245  0.5304 -0.3645
  664MPD2    C4 9826   1.029   1.169  17.669 -0.6041  0.1267 -0.5916
  664MPD2    C5 9827   1.104   1.131  17.561 -0.0281 -0.2297  0.2965
  664MPD2     H 9828   1.058   1.497  17.656 -1.8830 -1.1936  0.9999
  664MPD2    H1 9829   0.994   1.086   0.037  0.6256 -0.2875 -0.4466
  664MPD2    H2 9830   1.242   1.186  17.405 -0.5594 -1.5966  0.0765
  664MPD2    H3 9831   1.116   1.024  17.549 -2.7769 -0.4094 -0.7266
  664MPD2     N 9832   0.967   1.340   0.139 -0.1806 -0.3065  0.4276
  664MPD2    H5 9833   0.946   1.439   0.134  1.3670 -0.0687 -1.1082
  664MPD2    N1 9834   1.243   1.446  17.454 -0.1785 -0.1339 -0.3929
  664MPD2    H7 9835   1.312   1.413  17.388  0.5431 -1.6098  1.0913
  665TMC3    C1 9836   0.913   1.336   0.368  0.0272 -0.2935  0.3990
  665TMC3    C2 9837   0.862   1.267   0.480  0.0670  0.4172 -0.1506
  665TMC3    C3 9838   0.847   1.340   0.597 -0.2613 -0.3610  0.1881
  665TMC3    C4 9839   0.948   1.468   0.380 -0.5590 -0.1549 -0.4923
  665TMC3    C5 9840   0.930   1.534   0.499 -0.3030 -0.2358  0.4015
  665TMC3    C6 9841   0.872   1.479   0.612 -0.1521  0.3234 -0.0337
  665TMC3     C 9842   0.942   1.264   0.250  0.1710  0.7487 -0.8603
  665TMC3     O 9843   0.943   1.142   0.265  0.4001 -0.2201 -0.0085
  665TMC3     H 9844   0.825   1.166   0.472  0.0932  0.4677 -0.8726
  665TMC3    H1 9845   0.995   1.529   0.304  0.7717 -1.4420 -0.7026
  665TMC3    H2 9846   0.855   1.535   0.704  0.3252 -0.2751  0.4128
  665TMC3    C7 9847   0.975   1.665   0.500  0.8681 -0.3468  0.0022
  665TMC3    C8 9848   0.801   1.279   0.716  0.0940 -0.6818 -0.4346
  665TMC3    O1 9849   0.974   1.725   0.393 -0.3936  0.2372  0.6016
  665TMC3    O2 9850   0.795   1.354   0.812  0.1201 -0.0499  0.1226
  666TMC3    C1 9851   0.338   1.011   9.923 -0.6600  0.2976  0.5997
  666TMC3    C2 9852   0.454   0.940   9.950  0.3729 -0.0582  0.3598
  666TMC3    C3 9853   0.564   1.025   9.969 -0.2087  0.9589  0.4700
  666TMC3    C4 9854   0.326   1.147   9.921  0.6475 -0.2064 -0.0928
  666TMC3    C5 9855   0.427   1.222   9.967  0.5085  0.0559 -0.1117
  666TMC3    C6 9856   0.553   1.164   9.984  0.2558 -0.2971  0.2455
  666TMC3     C 9857   0.213   0.943   9.907 -0.7156 -0.3772  0.1877
  666TMC3     O 9858   0.129   0.998   9.845  0.4891  0.2333 -0.1127
  666TMC3     H 9859   0.466   0.833   9.938 -0.5727 -0.3352  1.9030
  666TMC3    H1 9860   0.229   1.194   9.904  1.2003  1.3113  0.9314
  666TMC3    H2 9861   0.634   1.222  10.029 -0.7209  2.0174 -0.9757
  666TMC3    C7 9862   0.407   1.353  10.009  0.1869  0.6871 -0.7314
  666TMC3    C8 9863   0.686   0.956  10.008 -0.5296  0.1921 -0.0466
  666TMC3    O1 9864   0.298   1.379  10.055  0.2920  0.3535  0.6400
  666TMC3    O2 9865   0.680   0.845  10.060  0.2528 -0.2327  0.0207
  667MPD2     C 9866   2.561   1.085  14.694 -0.0247  0.2923  0.2471
  667MPD2    C1 9867   2.455   1.168  14.737  0.2957  0.3735  0.7026
  667MPD2    C2 9868   2.329   1.121  14.738 -0.3585 -0.0007 -0.3982
  667MPD2    C3 9869   2.303   0.997  14.690  0.1024  0.6069 -0.0683
  667MPD2    C4 9870   2.405   0.916  14.640 -0.1221  0.4372  0.5298
  667MPD2    C5 9871   2.534   0.957  14.644  0.9028  0.0812 -0.3034
  667MPD2     H 9872   2.251   1.190  14.768 -2.1013 -1.4010 -1.6693
  667MPD2    H1 9873   2.378   0.814  14.616  2.5173  0.1258 -1.0042
  667MPD2    H2 9874   2.664   1.116  14.705  0.1581 -0.0186 -0.5703
  667MPD2    H3 9875   2.621   0.894  14.627  0.7210  0.2120 -1.7005
  667MPD2     N 9876   2.167   0.952  14.686 -0.4788 -0.0873 -0.2857
  667MPD2    H5 9877   2.147   0.856  14.658  0.5680 -0.6117  0.7705
  667MPD2    N1 9878   2.478   1.285  14.811 -0.4846 -0.2102 -0.2796
  667MPD2    H7 9879   2.393   1.313  14.858  0.4004  1.0361  0.5669
  668TMC3    C1 9880   2.582   1.480  14.893  0.1949 -0.4984 -0.3066
  668TMC3    C2 9881   2.662   1.586  14.850 -0.6865  0.1262 -0.3861
  668TMC3    C3 9882   2.635   1.707  14.909 -0.6182  0.2187 -0.5547
  668TMC3    C4 9883   2.476   1.494  14.973 -0.1927 -0.3631  0.2896
  668TMC3    C5 9884   2.449   1.619  15.033  0.0826  1.4520  0.2993
  668TMC3    C6 9885   2.531   1.726  14.999  0.1207 -0.3190  0.6826
  668TMC3     C 9886   2.590   1.360  14.819 -0.5436  0.4535 -0.7267
  668TMC3     O 9887   2.688   1.354  14.744 -0.0674 -0.6276  0.4176
  668TMC3     H 9888   2.756   1.573  14.798  0.8893  0.6828  2.2796
  668TMC3    H1 9889   2.402   1.422  15.005 -0.7394 -1.3981 -3.3068
  668TMC3    H2 9890   2.499   1.818  15.046  2.0884  2.5493 -3.5159
  668TMC3    C7 9891   2.343   1.641  15.131  0.6568  0.0781 -0.3561
  668TMC3    C8 9892   2.719   1.824  14.884 -0.5071  0.1269 -0.1625
  668TMC3    O1 9893   2.339   1.749  15.185  0.1213  0.2391  0.1186
  668TMC3    O2 9894   2.716   1.915  14.966 -0.6370  0.1032  0.3084
  669TMC3    C1 9895   0.446   1.731  14.701 -0.8887  0.7387  0.1576
  669TMC3    C2 9896   0.338   1.741  14.621 -0.0819 -0.2156  0.3905
  669TMC3    C3 9897   0.350   1.828  14.514  0.8710  0.3862 -0.8644
  669TMC3    C4 9898   0.553   1.806  14.692 -0.1477 -0.0298  0.2661
  669TMC3    C5 9899   0.566   1.879  14.580  0.2820  0.3854 -0.7333
  669TMC3    C6 9900   0.463   1.902  14.491  0.2925  0.5236  0.3440
  669TMC3     C 9901   0.414   1.677  14.836 -0.1532  0.4886 -0.6417
  669TMC3     O 9902   0.302   1.690  14.877 -0.1184 -0.6418 -0.1913
  669TMC3     H 9903   0.260   1.670  14.644  0.5438 -1.4006 -1.1495
  669TMC3    H1 9904   0.623   1.796  14.773 -0.1868  1.8267  0.5201
  669TMC3    H2 9905   0.465   1.966  14.404 -1.0963  1.8918  1.3240
  669TMC3    C7 9906   0.700   1.932  14.560  0.0025  0.0180 -0.1920
  669TMC3    C8 9907   0.267   1.810  14.396  0.6506  0.4299 -0.0346
  669TMC3    O1 9908   0.778   1.955  14.652  0.1739  0.3333 -0.3881
  669TMC3    O2 9909   0.298   1.883  14.301 -0.0761 -0.2013 -1.0056
  670MPD2     C 9910   3.060   3.674  13.488  0.2434  0.1001  0.4375
  670MPD2    C1 9911   3.180   3.740  13.526  0.4122 -0.4308  0.0220
  670MPD2    C2 9912   3.189   3.798  13.651 -0.5347 -0.1791 -0.2200
  670MPD2    C3 9913   3.089   3.767  13.741  0.5797  0.3253 -0.4696
  670MPD2    C4 9914   2.969   3.699  13.698 -0.2236  0.1549 -0.2158
  670MPD2    C5 9915   2.954   3.661  13.565 -0.5253 -0.0201  0.3081
  670MPD2     H 9916   3.284   3.839  13.682 -1.9665  3.8200 -1.1417
  670MPD2    H1 9917   2.886   3.683  13.766 -0.8228 -0.4446 -1.1016
  670MPD2    H2 9918   3.049   3.628  13.390  1.3665 -0.8812  0.7727
  670MPD2    H3 9919   2.879   3.592  13.528  1.1952 -0.7911 -1.7980
  670MPD2     N 9920   3.114   3.816  13.872  0.1073  0.3688  0.7020
  670MPD2    H5 9921   3.196   3.874  13.890  0.2997  0.0827  0.7617
  670MPD2    N1 9922   3.288   3.764  13.440  1.0126  0.0347  0.7945
  670MPD2    H7 9923   3.359   3.830  13.469  1.6726  0.4829 -1.8850
  671TMC3    C1 9924   3.115   3.785  14.113  0.2628  0.1778 -0.0637
  671TMC3    C2 9925   3.252   3.759  14.109  0.1139 -0.0379  0.1735
  671TMC3    C3 9926   3.301   3.689  14.215  0.2767 -0.1248  0.6929
  671TMC3    C4 9927   3.042   3.763  14.222 -0.4328 -0.1948  0.0738
  671TMC3    C5 9928   3.096   3.684  14.319  0.2247 -0.1970  0.6759
  671TMC3    C6 9929   3.227   3.647  14.315  0.2694  0.0276  0.4621
  671TMC3     C 9930   3.042   3.776  13.981 -0.3277  0.3670 -0.3937
  671TMC3     O 9931   2.933   3.714  13.989 -0.4932 -0.4489  0.4426
  671TMC3     H 9932   3.296   3.738  14.012 -0.0281 -0.8195  0.2805
  671TMC3    H1 9933   2.936   3.783  14.217 -0.3273  0.6379  1.2352
  671TMC3    H2 9934   3.272   3.573  14.381  0.9430  0.5055  0.5449
  671TMC3    C7 9935   3.015   3.562  14.335 -0.6463  0.4955  0.2240
  671TMC3    C8 9936   3.439   3.632  14.206 -0.3114  0.6897 -0.6012
  671TMC3    O1 9937   3.072   3.453  14.322 -0.2540 -0.3433  0.1852
  671TMC3    O2 9938   3.465   3.536  14.277 -0.2097  0.0251  0.3159
  672MPD2     C 9939   2.792   0.181   1.272 -0.3388  0.1523  0.1469
  672MPD2    C1 9940   2.884   0.104   1.337  0.2967  0.1271 -0.1332
  672MPD2    C2 9941   2.964   0.161   1.439  0.3946  0.3968 -0.7346
  672MPD2    C3 9942   2.965   0.295   1.454  1.1033 -0.5168  0.3322
  672MPD2    C4 9943   2.876   0.376   1.387 -0.5470 -0.0262 -0.3006
  672MPD2    C5 9944   2.785   0.314   1.309  0.1214  0.1734 -0.6244
  672MPD2     H 9945   3.037   0.100   1.490 -0.4060  0.4805  0.5199
  672MPD2    H1 9946   2.877   0.482   1.410 -0.3636 -0.2329  0.6447
  672MPD2    H2 9947   2.709   0.142   1.216  0.2438 -0.3068 -0.3898
  672MPD2    H3 9948   2.707   0.372   1.260 -0.7895 -0.0041  0.6284
  672MPD2     N 9949   3.064   0.362   1.520  0.3209  0.1440  0.3852
  672MPD2    H5 9950   3.070   0.460   1.492 -2.6287  0.2898  0.3541
  672MPD2    N1 9951   2.916   4.700   1.291 -0.0926  0.2128 -0.2470
  672MPD2    H7 9952   2.996   4.657   1.337  0.4881  1.4224 -0.1108
  673TMC3    C1 9953   2.950   4.518   1.146 -0.0103  0.0285 -0.4804
  673TMC3    C2 9954   3.006   4.450   1.253  0.0229 -0.0111 -0.1535
  673TMC3    C3 9955   3.065   4.327   1.221  0.3160  0.7227  0.8521
  673TMC3    C4 9956   2.956   4.474   1.013  0.7051  0.0963 -0.0568
  673TMC3    C5 9957   3.032   4.358   0.991 -0.0574 -0.6226  0.0508
  673TMC3    C6 9958   3.090   4.292   1.089 -0.0096  0.4633 -0.3105
  673TMC3     C 9959   2.884   4.648   1.171 -0.4489 -0.2803  0.0418
  673TMC3     O 9960   2.816   4.694   1.083  0.3784  0.6840 -0.4456
  673TMC3     H 9961   2.993   4.476   1.358 -0.2345  1.3352 -0.5123
  673TMC3    H1 9962   2.900   4.525   0.935 -0.1040  1.3443  1.3232
  673TMC3    H2 9963   3.153   4.204   1.080  0.4218  0.8344 -0.9778
  673TMC3    C7 9964   3.108   4.348   0.868  0.2583 -0.6431  0.0533
  673TMC3    C8 9965   3.121   4.252   1.337 -0.0928 -0.4673  0.4946
  673TMC3    O1 9966   3.185   4.253   0.859 -0.3298 -0.2361  0.7633
  673TMC3    O2 9967   3.165   4.320   1.432  1.1457 -0.4614 -0.0814
  674MPD2     C 9968   3.232   3.978  17.235  0.4506  0.4422  0.3816
  674MPD2    C1 9969   3.298   3.947  17.351 -0.2090 -0.1843  0.1817
  674MPD2    C2 9970   3.298   4.029  17.455  0.0641  0.2794  0.3211
  674MPD2    C3 9971   3.246   4.159  17.445 -0.5524 -0.0069  0.5670
  674MPD2    C4 9972   3.180   4.195  17.332 -0.9093 -0.1303 -0.4894
  674MPD2    C5 9973   3.174   4.105  17.231 -0.1052  0.1518 -0.4407
  674MPD2     H 9974   3.341   3.996  17.549  0.4766  0.6804  0.2745
  674MPD2    H1 9975   3.148   4.298  17.319 -1.8621 -0.5626 -1.5454
  674MPD2    H2 9976   3.241   3.909  17.152  0.3667  0.5565  0.2777
  674MPD2    H3 9977   3.126   4.130  17.136 -0.3887  1.7172  0.1204
  674MPD2     N 9978   3.248   4.233  17.558  0.0276 -0.0437 -0.7986
  674MPD2    H5 9979   3.262   4.184  17.646  2.7102 -1.1926 -1.8539
  674MPD2    N1 9980   3.353   3.818  17.381  0.1189  0.4370  0.4116
  674MPD2    H7 9981   3.403   3.806  17.469 -1.3347 -1.9856  0.9083
  675TMC3    C1 9982   3.413   3.605  17.363 -0.5447 -0.3009 -0.3301
  675TMC3    C2 9983   3.334   3.495  17.389 -0.6017  0.2199 -0.3057
  675TMC3    C3 9984   3.353   3.426  17.501 -0.0938 -0.3633  0.3692
  675TMC3    C4 9985   3.514   3.650  17.453 -0.2407 -0.6633 -0.6494
  675TMC3    C5 9986   3.520   3.578  17.571 -0.1037  0.7701 -0.3302
  675TMC3    C6 9987   3.443   3.464  17.599  0.7232  0.5377  0.2489
  675TMC3     C 9988   3.338   3.710  17.306 -0.4480  0.1184  0.1133
  675TMC3     O 9989   3.259   3.690  17.214  0.3002  0.3665  0.1843
  675TMC3     H 9990   3.253   3.464  17.324  0.4924  0.2946 -1.6985
  675TMC3    H1 9991   3.578   3.735  17.433 -1.5959  0.7914  1.1899
  675TMC3    H2 9992   3.469   3.398  17.681  1.2768 -1.9209 -1.8996
  675TMC3    C7 9993   3.624   3.626  17.660  0.3771 -0.5431  0.3373
  675TMC3    C8 9994   3.290   3.294  17.504 -0.1742  0.1245  0.4648
  675TMC3    O1 9995   3.708   3.706  17.619 -0.2127  0.0188 -0.1305
  675TMC3    O2 9996   3.249   3.252  17.396  0.0712 -0.1099 -0.3309
  676MPD2     C 9997   1.208   2.272  10.924  0.0716 -0.1275  1.0600
  676MPD2    C1 9998   1.166   2.197  11.030 -0.0893  0.4620  0.2396
  676MPD2    C2 9999   1.141   2.064  11.009  0.2984  0.2857  0.7100
  676MPD2    C310000   1.151   2.002  10.882 -0.3123 -0.3145  0.4941
  676MPD2    C410001   1.201   2.073  10.780 -0.4006  0.0438 -0.4793
  676MPD2    C510002   1.218   2.208  10.802 -0.4657  0.4472  0.2455
  676MPD2     H10003   1.110   2.000  11.091 -2.6111  1.0436  0.2028
  676MPD2    H110004   1.204   2.041  10.676 -0.9326  2.9347 -1.3774
  676MPD2    H210005   1.238   2.376  10.920 -0.8211  0.1528  1.6232
  676MPD2    H310006   1.267   2.263  10.723  3.2215  0.3526  2.4615
  676MPD2     N10007   1.113   1.866  10.851 -0.1731  0.1672 -0.2645
  676MPD2    H510008   1.121   1.835  10.754 -2.6779 -0.5316 -0.2717
  676MPD2    N110009   1.140   2.258  11.153 -0.7372  0.1042 -0.8937
  676MPD2    H710010   1.107   2.196  11.226  0.0370  2.1401  1.1775
  677TMC3    C110011   1.075   2.421  11.296 -0.0428  0.1037 -0.2543
  677TMC3    C210012   0.949   2.379  11.284 -0.5344 -0.1626  0.2383
  677TMC3    C310013   0.858   2.424  11.376 -0.1066  0.0543 -0.4730
  677TMC3    C410014   1.109   2.531  11.376  0.3590  0.2149  0.2740
  677TMC3    C510015   1.013   2.580  11.461 -0.7131 -0.3167  0.3268
  677TMC3    C610016   0.886   2.526  11.457 -0.0922  0.5238 -0.1203
  677TMC3     C10017   1.161   2.382  11.192  0.3043 -0.0890 -0.2253
  677TMC3     O10018   1.244   2.460  11.147 -0.2103 -0.1631 -0.6288
  677TMC3     H10019   0.919   2.296  11.221  0.9931  0.9506 -1.9231
  677TMC3    H110020   1.208   2.574  11.365  1.8263 -2.6765  1.9037
  677TMC3    H210021   0.816   2.552  11.537 -0.4323  0.5471 -0.4270
  677TMC3    C710022   1.038   2.676  11.560 -0.4180  0.0014 -0.3793
  677TMC3    C810023   0.744   2.341  11.397  1.1356 -0.1550 -0.0721
  677TMC3    O110024   0.954   2.683  11.648 -0.7116  0.6109  0.8270
  677TMC3    O210025   0.688   2.311  11.292  0.1016 -0.3270  0.2291
  678MPD2     C10026   2.080   2.462   1.527 -0.5175  0.1267  0.2827
  678MPD2    C110027   2.072   2.368   1.429 -0.1325 -0.9842  0.2297
  678MPD2    C210028   1.955   2.300   1.397 -0.0414 -0.0161 -0.5921
  678MPD2    C310029   1.836   2.336   1.455  0.0399  0.5196  0.5599
  678MPD2    C410030   1.843   2.427   1.563 -0.0173  0.7084 -0.6015
  678MPD2    C510031   1.961   2.494   1.591  0.7527 -0.3040  0.1988
  678MPD2     H10032   1.952   2.214   1.331 -0.4049  0.1924 -0.8469
  678MPD2    H110033   1.761   2.424   1.635 -0.2683 -1.0036 -0.9712
  678MPD2    H210034   2.168   2.517   1.556 -0.8463  0.8657 -0.1207
  678MPD2    H310035   1.960   2.557   1.679  0.4448 -0.7887  0.5432
  678MPD2     N10036   1.718   2.275   1.411  0.0808  0.1815 -0.0722
  678MPD2    H510037   1.729   2.225   1.323  0.1302  0.7621 -0.3934
  678MPD2    N110038   2.195   2.338   1.363 -0.1890 -0.6303 -0.0449
  678MPD2    H710039   2.275   2.394   1.388 -1.7068  1.1287  0.9070
  679TMC3    C110040   2.553   2.153   1.219 -0.0678 -0.5339 -0.3325
  679TMC3    C210041   2.443   2.202   1.279  0.7356 -0.5840  0.2095
  679TMC3    C310042   2.339   2.238   1.202  0.5144 -0.3375  0.4777
  679TMC3    C410043   2.560   2.144   1.080  0.1937  0.7637  0.4506
  679TMC3    C510044   2.460   2.193   1.007 -0.1012 -0.3596  0.4934
  679TMC3    C610045   2.344   2.233   1.066  0.0593  0.4497  0.3899
  679TMC3     C10046   2.657   2.102   1.296 -0.9998 -0.9561 -0.2473
  679TMC3     O10047   2.766   2.125   1.244  0.5594  0.3491  0.0337
  679TMC3     H10048   2.443   2.218   1.386 -1.3314  0.2379  0.0974
  679TMC3    H110049   2.649   2.100   1.035 -0.7001 -1.6960  1.0546
  679TMC3    H210050   2.266   2.274   1.003  0.0461  0.3924  0.3694
  679TMC3    C710051   2.498   2.247   0.873  0.5895  0.3305  0.6862
  679TMC3    C810052   2.206   2.251   1.254  0.0005  1.0449  0.0761
  679TMC3    O110053   2.453   2.360   0.856 -0.6889  0.1236  0.3273
  679TMC3    O210054   2.127   2.180   1.191 -0.0708 -0.0482 -0.0507
  680MPD2     C10055   2.968   0.729  13.607 -0.5373 -0.5270  0.1454
  680MPD2    C110056   3.104   0.712  13.631 -0.6502  0.5525  0.0730
  680MPD2    C210057   3.183   0.818  13.642 -0.0964 -0.1877 -0.8593
  680MPD2    C310058   3.136   0.946  13.611 -0.9675 -0.4190 -0.2100
  680MPD2    C410059   3.001   0.960  13.569  0.7799 -0.3493 -0.4017
  680MPD2    C510060   2.915   0.853  13.578 -0.3760 -0.1472 -0.4683
  680MPD2     H10061   3.284   0.800  13.678 -0.8501 -0.8514  0.9333
  680MPD2    H110062   2.947   1.054  13.560 -0.6844 -1.1897 -0.3294
  680MPD2    H210063   2.900   0.647  13.588  1.9114 -2.7014  0.7149
  680MPD2    H310064   2.810   0.867  13.556  0.2980  4.8727 -0.3397
  680MPD2     N10065   3.214   1.064  13.616 -0.2568  0.0364  0.5139
  680MPD2    H510066   3.161   1.143  13.584 -0.2039  0.3580  1.2242
  680MPD2    N110067   3.170   0.577  13.633  0.5886  0.1609  0.5399
  680MPD2    H710068   3.271   0.577  13.643  0.5432 -0.1346  0.9847
  681TMC3    C110069   3.196   0.342  13.609 -0.2468 -0.3374 -1.3291
  681TMC3    C210070   3.286   0.338  13.721  1.1904  0.0487  0.1503
  681TMC3    C310071   3.378   0.240  13.730 -0.5824  0.0051  0.4776
  681TMC3    C410072   3.197   0.242  13.517 -0.1813  0.7092 -0.4308
  681TMC3    C510073   3.294   0.153  13.529  0.1713  0.3266  0.3909
  681TMC3    C610074   3.381   0.143  13.632 -0.1817 -0.1577 -0.8954
  681TMC3     C10075   3.109   0.459  13.597 -0.0936  0.3201  0.1399
  681TMC3     O10076   2.997   0.436  13.550  0.3660  0.1368  0.3386
  681TMC3     H10077   3.276   0.409  13.802  1.4655  0.1025  0.1388
  681TMC3    H110078   3.136   0.253  13.427 -1.1453  0.9220  0.2516
  681TMC3    H210079   3.448   0.057  13.636 -1.2373 -0.9217  0.3535
  681TMC3    C710080   3.311   0.066  13.410 -0.9044  0.4234  0.2007
  681TMC3    C810081   3.408   0.178  13.867 -0.3342  0.0689 -0.3866
  681TMC3    O110082   3.352   4.674  13.416 -0.7872 -0.3769 -0.1858
  681TMC3    O210083   3.465   0.067  13.870  0.3634 -0.6631 -0.0749
  682MPD2     C10084   0.193   2.486  10.777  0.0955  0.9079  0.3976
  682MPD2    C110085   0.149   2.363  10.819 -0.2488  0.1326 -0.3970
  682MPD2    C210086   0.072   2.369  10.934  0.5627 -0.0639 -0.0274
  682MPD2    C310087   0.055   2.484  11.011  0.1734 -0.0942  0.0132
  682MPD2    C410088   0.101   2.603  10.967  0.3199  0.0515 -0.6112
  682MPD2    C510089   0.164   2.600  10.845 -0.1573 -0.8324 -0.3575
  682MPD2     H10090   0.033   2.274  10.969 -0.9398  0.0303 -1.4706
  682MPD2    H110091   0.104   2.691  11.031  2.5246 -2.3191  2.4941
  682MPD2    H210092   0.258   2.489  10.690 -0.0471  2.6832  0.3620
  682MPD2    H310093   0.218   2.688  10.813  0.5739 -1.0653  0.2299
  682MPD2     N10094   4.689   2.486  11.124  0.0762 -0.7477  1.0735
  682MPD2    H510095   4.680   2.571  11.179  0.7523 -1.0118  1.6062
  682MPD2    N110096   0.166   2.240  10.757  0.1003  0.0063  0.0403
  682MPD2    H710097   0.114   2.163  10.799 -1.4045  1.1746  0.3109
  683TMC3    C110098   4.533   2.445  11.511  0.2039 -0.6292 -0.3322
  683TMC3    C210099   4.421   2.365  11.520 -0.1424 -0.5008 -0.6590
  683TMC3    C310100   4.368   2.300  11.405  0.7351 -0.3033 -0.7294
  683TMC3    C410101   4.586   2.469  11.390 -0.4547  0.3812  0.7011
  683TMC3    C510102   4.531   2.413  11.280  0.7785 -0.6418  1.0634
  683TMC3    C610103   4.432   2.319  11.291  0.5927  0.1169 -0.1561
  683TMC3     C10104   4.593   2.508  11.628  0.0604  0.2703 -0.2160
  683TMC3     O10105   4.641   2.622  11.614 -0.2800 -0.3165  1.0422
  683TMC3     H10106   4.370   2.347  11.614  0.4499  0.2494 -0.1950
  683TMC3    H110107   4.680   2.524  11.388 -1.0068  1.2377 -1.9629
  683TMC3    H210108   4.394   2.275  11.199  0.4090 -1.1037  0.5049
  683TMC3    C710109   4.612   2.383  11.165  0.1179  0.2495 -0.3153
  683TMC3    C810110   4.303   2.178  11.445 -0.6686 -0.7416  0.3096
  683TMC3    O110111   4.604   2.270  11.118  0.5718  0.4714  0.3571
  683TMC3    O210112   4.206   2.190  11.522 -0.4424  0.2517 -0.4048
  684MPD2     C10113   3.101   1.654  16.251 -0.3173 -0.6992 -0.2745
  684MPD2    C110114   3.118   1.748  16.150 -0.0559 -0.0201 -0.5435
  684MPD2    C210115   3.120   1.881  16.184  0.1647  0.3286 -0.1836
  684MPD2    C310116   3.112   1.917  16.320 -0.6349 -0.5930 -0.4702
  684MPD2    C410117   3.109   1.821  16.421 -0.2316  0.7925  0.3707
  684MPD2    C510118   3.099   1.691  16.386 -0.5615  0.0025  0.0725
  684MPD2     H10119   3.140   1.955  16.107  0.2672 -0.0833 -0.5495
  684MPD2    H110120   3.098   1.843  16.527 -1.6117 -1.3772  0.6726
  684MPD2    H210121   3.095   1.550  16.220 -1.7736 -1.5851  3.0201
  684MPD2    H310122   3.084   1.615  16.462 -1.1281  0.1022  0.0623
  684MPD2     N10123   3.097   2.054  16.360 -0.7102  0.2734  0.6886
  684MPD2    H510124   3.080   2.070  16.458  1.1661  1.7010  0.7729
  684MPD2    N110125   3.144   1.715  16.015  0.5053 -0.4807 -0.5166
  684MPD2    H710126   3.146   1.791  15.947  1.4054  0.5301  0.6416
  685TMC3    C110127   3.218   1.587  15.826 -0.2818  0.1528  0.1907
  685TMC3    C210128   3.267   1.688  15.747 -0.0819 -0.5207 -0.3338
  685TMC3    C310129   3.335   1.660  15.629 -0.2502  0.2274  0.4418
  685TMC3    C410130   3.229   1.456  15.786  1.0875 -0.1709  0.8461
  685TMC3    C510131   3.309   1.440  15.673 -0.0885 -1.1939  0.5104
  685TMC3    C610132   3.357   1.532  15.587  0.2305 -0.0934  0.1974
  685TMC3     C10133   3.190   1.594  15.971  1.0261  0.2397  0.1823
  685TMC3     O10134   3.218   1.498  16.037 -0.2890 -0.3453 -0.1556
  685TMC3     H10135   3.272   1.787  15.792  0.2240  0.5230 -2.6475
  685TMC3    H110136   3.193   1.377  15.851  0.2845  0.9677  1.7999
  685TMC3    H210137   3.388   1.499  15.489  0.6262 -0.0557  0.3078
  685TMC3    C710138   3.417   1.349  15.707 -0.8814  0.0117  0.1062
  685TMC3    C810139   3.326   1.763  15.527  0.8866 -0.0797 -0.2941
  685TMC3    O110140   3.497   1.311  15.621 -0.2204 -0.4723  0.1727
  685TMC3    O210141   3.295   1.731  15.412  0.0421 -0.0780  0.4167
  686MPD2     C10142   4.249   2.080  15.641  0.7558 -0.2409 -0.1883
  686MPD2    C110143   4.342   2.032  15.727  0.7974  0.6345 -0.0627
  686MPD2    C210144   4.464   2.005  15.671  0.2847  0.0493 -0.2822
  686MPD2    C310145   4.492   2.012  15.536 -0.2122  0.0816  0.5447
  686MPD2    C410146   4.400   2.064  15.451  0.6254 -1.4632  0.0032
  686MPD2    C510147   4.270   2.080  15.502  1.4461 -0.7179  0.2915
  686MPD2     H10148   4.535   1.962  15.740  0.2245 -2.7286 -1.9299
  686MPD2    H110149   4.425   2.069  15.345  0.3064  0.0570  0.0064
  686MPD2    H210150   4.150   2.111  15.672  0.3857 -0.4091 -1.2006
  686MPD2    H310151   4.201   2.108  15.423  1.2525  0.1250  0.7500
  686MPD2     N10152   4.614   1.956  15.487 -0.2009 -0.7010  0.5888
  686MPD2    H510153   4.627   1.946  15.387 -0.9552  0.7333  0.3419
  686MPD2    N110154   4.311   2.012  15.869 -0.5396  1.0827  0.0207
  686MPD2    H710155   4.215   2.035  15.892 -1.1902  0.0117 -1.6025
  687TMC3    C110156   0.015   1.783  15.568 -0.3017  0.1096 -0.6055
  687TMC3    C210157   4.642   1.704  15.505 -0.3878  0.4482  0.0466
  687TMC3    C310158   4.617   1.580  15.552  0.1531  0.3583  0.3189
  687TMC3    C410159   0.089   1.740  15.680 -0.0546  0.3862 -0.4266
  687TMC3    C510160   0.061   1.618  15.724 -0.6339  0.1358 -0.0425
  687TMC3    C610161   4.696   1.536  15.657  0.1332  0.6717  0.2242
  687TMC3     C10162   4.721   1.930  15.564 -0.4276  0.0650 -0.2629
  687TMC3     O10163   0.042   1.989  15.662  0.3903  0.1833 -0.6252
  687TMC3     H10164   4.607   1.740  15.409  0.2371  2.4315  0.5706
  687TMC3    H110165   0.160   1.804  15.732  2.3750 -3.1803  0.6227
  687TMC3    H210166   4.681   1.435  15.693  1.4608  0.4075  0.0353
  687TMC3    C710167   0.118   1.587  15.853  0.0373 -0.3665 -0.3247
  687TMC3    C810168   4.476   1.545  15.562  0.4087 -0.3199  0.0497
  687TMC3    O110169   0.213   1.653  15.887  0.1064 -0.4977  0.5935
  687TMC3    O210170   4.447   1.469  15.653 -0.2251  0.9152 -0.4719
  688MPD2     C10171   4.134   0.553  17.235  0.7770 -0.1841  0.0024
  688MPD2    C110172   4.171   0.444  17.314  0.0024  0.2746  0.9564
  688MPD2    C210173   4.270   0.369  17.265 -0.6103 -0.0627  0.0327
  688MPD2    C310174   4.330   0.395  17.139  0.1697 -0.2535 -0.8103
  688MPD2    C410175   4.298   0.504  17.062  0.0554  0.2436 -0.3683
  688MPD2    C510176   4.201   0.583  17.113  0.2875  0.2958  0.5248
  688MPD2     H10177   4.309   0.287  17.325  0.9007 -0.1168 -1.0188
  688MPD2    H110178   4.336   0.524  16.963  1.1472 -0.0318 -0.0115
  688MPD2    H210179   4.053   0.622  17.258  2.2189  1.8333 -1.0736
  688MPD2    H310180   4.170   0.673  17.061  0.8483  1.1722  1.7100
  688MPD2     N10181   4.421   0.307  17.079 -0.4893 -0.0140 -0.0662
  688MPD2    H510182   4.455   0.343  16.992  0.6130 -1.2249 -0.1355
  688MPD2    N110183   4.112   0.410  17.437  0.1762 -0.1561 -0.6066
  688MPD2    H710184   4.152   0.333  17.491 -1.4196  1.2136  2.5411
  689TMC3    C110185   3.980   0.425  17.633 -0.4209 -0.2206  0.1619
  689TMC3    C210186   3.946   0.517   0.031 -0.0143  0.1574  0.7519
  689TMC3    C310187   3.891   0.479   0.151  0.2207 -0.3724  0.0953
  689TMC3    C410188   3.943   0.291  17.649  0.0821 -0.2144 -0.6895
  689TMC3    C510189   3.891   0.252   0.076  0.3567  0.2109  1.0371
  689TMC3    C610190   3.872   0.344   0.181 -0.0071  0.1632  0.7210
  689TMC3     C10191   4.012   0.478  17.501  0.7657 -0.1393  0.3727
  689TMC3     O10192   3.946   0.573  17.454 -0.5031  0.4605  0.1140
  689TMC3     H10193   3.956   0.620   0.000 -1.6773 -0.5146 -2.0539
  689TMC3    H110194   3.954   0.222  17.566 -2.8387 -0.0067 -1.2662
  689TMC3    H210195   3.823   0.314   0.272  3.2321 -1.0243  2.0586
  689TMC3    C710196   3.835   0.122   0.086  0.6529 -0.2431 -0.3444
  689TMC3    C810197   3.861   0.578   0.259 -0.0616  0.0678  0.3822
  689TMC3    O110198   3.814   0.097   0.204  0.0778 -0.7266 -0.0196
  689TMC3    O210199   3.801   0.544   0.357 -0.4629 -0.6853  0.2354
  690MPD2     C10200   1.721   2.554  15.779  0.0128  0.0586  0.1004
  690MPD2    C110201   1.640   2.564  15.669  0.1208 -0.1081  0.1655
  690MPD2    C210202   1.701   2.612  15.551 -0.1618 -0.7416 -0.2963
  690MPD2    C310203   1.831   2.658  15.549  0.5544 -0.3340  0.2991
  690MPD2    C410204   1.910   2.646  15.662 -0.2095  0.3240 -0.2330
  690MPD2    C510205   1.851   2.588  15.768 -0.1948 -0.1213  0.1631
  690MPD2     H10206   1.653   2.622  15.455 -1.4968  0.5273  0.4960
  690MPD2    H110207   2.010   2.685  15.674 -0.2590  0.3479  0.1095
  690MPD2    H210208   1.684   2.507  15.870  0.9152 -0.2376  0.3108
  690MPD2    H310209   1.918   2.568  15.852 -0.1943 -2.8505 -0.4639
  690MPD2     N10210   1.883   2.712  15.428 -0.0648  0.3166  0.1376
  690MPD2    H510211   1.818   2.735  15.353  0.3128 -1.4177 -0.7383
  690MPD2    N110212   1.502   2.539  15.666  0.8872 -0.4903 -0.3819
  690MPD2    H710213   1.461   2.544  15.573 -0.7129  3.0961  0.5433
  691TMC3    C110214   1.296   2.460  15.752 -0.4854 -0.4018  0.3541
  691TMC3    C210215   1.206   2.459  15.852  0.9438 -0.1945  0.0489
  691TMC3    C310216   1.110   2.360  15.864 -0.2494 -0.2473  0.3561
  691TMC3    C410217   1.289   2.360  15.651  0.4352 -0.4727 -0.5931
  691TMC3    C510218   1.180   2.276  15.655  0.4063  0.0843 -0.0294
  691TMC3    C610219   1.094   2.270  15.762 -0.2096  0.1146  0.2977
  691TMC3     C10220   1.420   2.531  15.777  0.5705  0.0971  0.1075
  691TMC3     O10221   1.440   2.576  15.884  0.3441 -0.2906  0.0801
  691TMC3     H10222   1.201   2.542  15.922  1.7102  0.1345 -0.2860
  691TMC3    H110223   1.356   2.369  15.566 -1.6887  1.7651 -2.0434
  691TMC3    H210224   0.999   2.218  15.765 -1.5181  2.4822 -0.5473
  691TMC3    C710225   1.194   2.151  15.578  0.1704 -0.4895 -0.1266
  691TMC3    C810226   0.985   2.378  15.942 -0.1338  0.2047 -0.5049
  691TMC3    O110227   1.299   2.152  15.512  0.2499  0.3281 -1.2406
  691TMC3    O210228   0.924   2.274  15.972 -0.1061  0.0582  0.3133
  692TMC3    C110229   3.026   3.424  15.726  0.7842 -0.2231 -0.3277
  692TMC3    C210230   3.151   3.471  15.750 -0.4971  0.3200  0.3104
  692TMC3    C310231   3.256   3.386  15.767  1.0427  0.6963  0.4834
  692TMC3    C410232   3.004   3.292  15.740  0.4699  0.3485 -0.2310
  692TMC3    C510233   3.099   3.209  15.778 -0.2003  0.0038 -0.2299
  692TMC3    C610234   3.228   3.254  15.805  0.4045 -0.1310  0.1536
  692TMC3     C10235   2.911   3.512  15.756 -0.3700  0.1354 -0.0688
  692TMC3     O10236   2.795   3.466  15.753  0.3183 -0.1433 -0.2895
  692TMC3     H10237   3.181   3.567  15.710  0.2069 -0.2941 -0.6470
  692TMC3    H110238   2.902   3.261  15.724  1.0101 -1.2078 -0.5768
  692TMC3    H210239   3.307   3.181  15.820 -2.2492 -2.6863  1.7322
  692TMC3    C710240   3.090   3.069  15.748  0.5984 -0.3246 -0.9295
  692TMC3    C810241   3.364   3.442  15.848 -1.0697 -0.4759  0.3565
  692TMC3    O110242   3.052   3.050  15.633 -0.6311 -0.2279 -0.0584
  692TMC3    O210243   3.450   3.362  15.885 -0.0038 -0.5922 -0.0956
  693MPD2     C10244   2.487   0.780  10.481  0.2128  0.1768 -0.0077
  693MPD2    C110245   2.368   0.715  10.467  0.3586  0.3958 -0.1730
  693MPD2    C210246   2.383   0.583  10.449 -0.1756  0.2785 -0.4774
  693MPD2    C310247   2.501   0.514  10.432 -0.8204 -0.0691  0.1326
  693MPD2    C410248   2.615   0.590  10.442  0.0777  0.0045  0.1391
  693MPD2    C510249   2.603   0.727  10.467 -0.2488  0.3281  0.2048
  693MPD2     H10250   2.291   0.527  10.458  0.6916 -1.7346 -3.6490
  693MPD2    H110251   2.714   0.550  10.428 -0.4347 -0.9869 -0.6435
  693MPD2    H210252   2.483   0.887  10.496  0.1044  0.0962  0.5489
  693MPD2    H310253   2.697   0.781  10.468 -1.0556  1.6702  1.8143
  693MPD2     N10254   2.523   0.369  10.431 -0.6717  0.7867  0.4698
  693MPD2    H510255   2.616   0.332  10.448 -0.0648  1.5381 -1.2109
  693MPD2    N110256   2.244   0.777  10.482 -1.1369  0.2518  1.2174
  693MPD2    H710257   2.252   0.875  10.507 -0.4633 -0.0273  2.0953
  694TMC3    C110258   2.008   0.786  10.498 -0.3045 -0.9975  0.4734
  694TMC3    C210259   1.889   0.730  10.454 -0.3154  1.0111  0.2149
  694TMC3    C310260   1.791   0.720  10.553  0.0037 -0.1614 -0.2695
  694TMC3    C410261   2.032   0.830  10.630  0.2994  0.4108 -0.2326
  694TMC3    C510262   1.929   0.818  10.720  0.7932 -0.5389 -0.3335
  694TMC3    C610263   1.812   0.749  10.681  0.1185  0.2048  0.1430
  694TMC3     C10264   2.123   0.734  10.433  0.5373 -0.3490  0.5271
  694TMC3     O10265   2.095   0.647  10.353  0.4097 -0.0314  0.0041
  694TMC3     H10266   1.862   0.711  10.350  0.0476 -0.7398  0.4365
  694TMC3    H110267   2.118   0.891  10.658 -0.2955  2.0348 -1.9532
  694TMC3    H210268   1.728   0.733  10.749 -1.4762  2.0937 -1.3759
  694TMC3    C710269   1.957   0.840  10.858  0.2586  0.0588 -0.2098
  694TMC3    C810270   1.663   0.665  10.521  1.4897  0.0338  0.0265
  694TMC3    O110271   2.051   0.917  10.880  0.3353 -0.1352  0.6463
  694TMC3    O210272   1.626   0.566  10.583 -0.2698  0.4670  0.1820
  695MPD2     C10273   3.541   2.748  13.719  0.0493  0.1976  0.2001
  695MPD2    C110274   3.519   2.831  13.827  0.4493  0.1805  0.3893
  695MPD2    C210275   3.387   2.864  13.861 -0.3964 -0.0430 -0.9005
  695MPD2    C310276   3.283   2.822  13.787 -0.6703  0.4990 -0.1304
  695MPD2    C410277   3.307   2.732  13.687  0.1571 -0.1557 -0.3466
  695MPD2    C510278   3.440   2.693  13.661  0.0667  1.1656 -0.3077
  695MPD2     H10279   3.360   2.927  13.945 -2.2632 -0.2222 -1.3748
  695MPD2    H110280   3.227   2.679  13.636  0.8759 -0.3656 -1.2567
  695MPD2    H210281   3.640   2.716  13.690  0.1051  0.1792  0.4137
  695MPD2    H310282   3.467   2.622  13.584  0.2301  0.7071  0.1709
  695MPD2     N10283   3.158   2.864  13.844  0.8420 -0.8384  0.1804
  695MPD2    H510284   3.148   2.912  13.932  0.5029 -2.1544  0.8645
  695MPD2    N110285   3.622   2.875  13.908 -0.0566 -0.2195 -0.3908
  695MPD2    H710286   3.589   2.925  13.990  1.6740  1.5006 -0.7434
  696TMC3    C110287   2.920   2.914  13.829  0.1729 -0.1854 -0.1738
  696TMC3    C210288   2.913   2.960  13.962  0.7089  0.0610  0.4115
  696TMC3    C310289   2.810   3.027  14.007  0.5752 -0.8678 -0.4474
  696TMC3    C410290   2.821   2.937  13.737  0.5004  0.0152  0.3861
  696TMC3    C510291   2.717   3.017  13.789  0.4720 -0.7500 -0.1603
  696TMC3    C610292   2.709   3.047  13.921  0.3222 -0.4150  0.1330
  696TMC3     C10293   3.039   2.848  13.773  0.5140  0.3223 -0.4302
  696TMC3     O10294   3.026   2.792  13.662  0.2932  0.6834 -0.6836
  696TMC3     H10295   2.986   2.948  14.041  1.3799  1.1456 -0.0360
  696TMC3    H110296   2.821   2.902  13.635 -1.8612  0.1206  0.3495
  696TMC3    H210297   2.625   3.110  13.949  0.8203  0.8181 -1.1050
  696TMC3    C710298   2.654   3.100  13.690 -0.1115  0.3251  0.3240
  696TMC3    C810299   2.834   3.119  14.126 -0.8818 -0.1560  0.3760
  696TMC3    O110300   2.653   3.067  13.572  0.4953  0.1594  0.0877
  696TMC3    O210301   2.946   3.124  14.175  0.3004 -0.2173  0.1149
  697MPD2     C10302   2.920   0.303  15.669 -0.2331 -0.3169  0.7151
  697MPD2    C110303   2.935   0.270  15.538 -0.0498  0.3537  0.1874
  697MPD2    C210304   2.981   0.364  15.443 -0.9277 -0.3049 -0.1423
  697MPD2    C310305   3.026   0.484  15.490  0.2753  0.3245  0.1828
  697MPD2    C410306   3.003   0.521  15.620 -0.4160  0.5111 -0.2817
  697MPD2    C510307   2.953   0.428  15.708 -0.0052 -1.0077 -0.0012
  697MPD2     H10308   2.986   0.334  15.338 -0.8038  0.5479 -0.3815
  697MPD2    H110309   3.031   0.617  15.662 -0.9502  0.1305  0.9505
  697MPD2    H210310   2.882   0.238  15.747  0.9214 -1.1283  0.6066
  697MPD2    H310311   2.947   0.452  15.814  0.0562 -1.5123  0.1152
  697MPD2     N10312   3.081   0.571  15.404  0.6124  0.2228  0.1188
  697MPD2    H510313   3.099   0.534  15.311  3.8018  1.0034  0.4431
  697MPD2    N110314   2.873   0.143  15.493  0.1079  0.0316  0.0299
  697MPD2    H710315   2.877   0.118  15.395  2.0852  0.6660 -0.0426
  698TMC3    C110316   3.127   0.776  15.295 -0.1107 -0.0432 -0.4826
  698TMC3    C210317   3.167   0.905  15.295 -0.2507 -0.2564 -0.1673
  698TMC3    C310318   3.185   0.965  15.174  0.3464  0.6033  0.7759
  698TMC3    C410319   3.106   0.713  15.178  0.8452 -0.3979  0.2950
  698TMC3    C510320   3.118   0.775  15.058 -0.4717  0.4231 -0.2988
  698TMC3    C610321   3.158   0.908  15.050 -1.0348  0.1175  0.1444
  698TMC3     C10322   3.102   0.708  15.422  0.3907  0.4905 -0.3573
  698TMC3     O10323   3.103   0.776  15.524  0.1485 -0.4653  0.2676
  698TMC3     H10324   3.176   0.964  15.385 -1.9463 -1.5118  0.8120
  698TMC3    H110325   3.062   0.614  15.169  1.2709 -0.7264  1.8084
  698TMC3    H210326   3.180   0.961  14.958 -0.8594  1.2722  0.8483
  698TMC3    C710327   3.069   0.713  14.932 -0.1040  0.6883 -0.2515
  698TMC3    C810328   3.207   1.106  15.177  0.2549  0.1356  0.4204
  698TMC3    O110329   3.013   0.604  14.939  0.3244 -0.2363  0.0792
  698TMC3    O210330   3.150   1.165  15.265  0.1754 -0.3842 -0.1641
  699TMC3    C110331   2.965   2.728  12.782  0.3837  0.0956  0.5838
  699TMC3    C210332   3.042   2.657  12.872 -0.1005  0.1401 -0.6917
  699TMC3    C310333   2.977   2.600  12.983  0.1195 -0.6054  0.2994
  699TMC3    C410334   2.828   2.746  12.787  0.5628 -0.0254  0.5915
  699TMC3    C510335   2.764   2.689  12.900 -0.4701 -0.1823 -0.5623
  699TMC3    C610336   2.837   2.622  12.998  0.0099  0.0109  0.4136
  699TMC3     C10337   3.026   2.807  12.677  0.3668  0.6343  0.6555
  699TMC3     O10338   2.953   2.831  12.583  0.1691 -0.5511  0.4819
  699TMC3     H10339   3.149   2.649  12.858 -0.2534 -1.9400 -0.7164
  699TMC3    H110340   2.779   2.807  12.712 -0.8652 -2.0554 -0.1348
  699TMC3    H210341   2.792   2.581  13.087  2.5519 -0.7376  1.3334
  699TMC3    C710342   2.648   2.763  12.948 -0.6169 -0.4754  0.6627
  699TMC3    C810343   3.054   2.569  13.107  0.5423  0.0043  0.2135
  699TMC3    O110344   2.611   2.720  13.059 -0.3657 -0.0885 -0.0293
  699TMC3    O210345   3.010   2.600  13.216 -0.0795 -0.5586 -0.3737
  700TMC3    C110346   1.742   0.692  17.303 -0.5043 -0.8538 -0.5330
  700TMC3    C210347   1.838   0.597  17.271 -0.2925  0.1949 -0.1669
  700TMC3    C310348   1.964   0.600  17.331  0.6899  0.2547  0.7497
  700TMC3    C410349   1.777   0.783  17.403 -0.2882  0.2313  0.0677
  700TMC3    C510350   1.902   0.781  17.463 -0.1338 -0.7389 -0.1187
  700TMC3    C610351   2.000   0.693  17.424 -0.7089 -0.1943  0.1244
  700TMC3     C10352   1.687   0.751  17.186  0.3749  0.1551  0.3289
  700TMC3     O10353   1.636   0.676  17.103 -0.1740 -0.1146 -0.1652
  700TMC3     H10354   1.831   0.525  17.190 -1.6503  1.6405 -1.3456
  700TMC3    H110355   1.708   0.861  17.434  0.1249 -0.5704  2.9665
  700TMC3    H210356   2.102   0.698  17.459 -0.0019 -0.4532 -1.8847
  700TMC3    C710357   1.932   0.892  17.550 -0.3310  0.2979 -0.1951
  700TMC3    C810358   2.067   0.524  17.258  0.1388 -0.6205  0.3934
  700TMC3    O110359   1.874   0.992  17.517  0.1457  0.1730 -0.2838
  700TMC3    O210360   2.175   0.575  17.231 -0.3693 -0.3366 -0.3021
  701TMC3    C110361   1.870   4.526  15.367 -0.8607 -0.1012  0.2191
  701TMC3    C210362   1.923   4.471  15.254  0.3320  0.2897  0.1590
  701TMC3    C310363   2.047   4.508  15.213 -0.3603 -0.1518 -0.1598
  701TMC3    C410364   1.944   4.620  15.442  0.1365 -0.7324 -0.3007
  701TMC3    C510365   2.076   4.642  15.402  0.3030  0.5335  0.2723
  701TMC3    C610366   2.130   4.588  15.284  0.0014  0.0207 -0.1637
  701TMC3     C10367   1.743   4.479  15.414  0.8231 -0.1296 -0.5813
  701TMC3     O10368   1.718   4.365  15.378  0.2516 -0.2871 -0.2158
  701TMC3     H10369   1.860   4.409  15.191  1.5700 -1.7935  0.9622
  701TMC3    H110370   1.910   4.657  15.538  1.2336 -1.0335  0.2026
  701TMC3    H210371   2.235   4.598  15.264  0.1367 -0.1869  0.4246
  701TMC3    C710372   2.165   0.000  15.476 -0.0200  0.5635 -0.0794
  701TMC3    C810373   2.082   4.468  15.083  0.3016 -0.2740 -1.1175
  701TMC3    O110374   2.255   0.054  15.412  0.4320  0.2663  0.1121
  701TMC3    O210375   2.193   4.492  15.041 -0.1806 -0.2298  0.0943
  702MPD2     C10376   1.314   1.464  10.362  0.3906 -0.4216 -0.4977
  702MPD2    C110377   1.265   1.573  10.432  0.7131  0.0648  0.0227
  702MPD2    C210378   1.326   1.695  10.418  0.0625 -0.3392 -0.0217
  702MPD2    C310379   1.440   1.712  10.347 -0.1945 -0.1748  0.5637
  702MPD2    C410380   1.500   1.597  10.289  0.0104  0.0813  0.4428
  702MPD2    C510381   1.428   1.481  10.292 -0.1668  0.4894  0.0584
  702MPD2     H10382   1.298   1.785  10.471  1.8366  0.8919 -1.1770
  702MPD2    H110383   1.598   1.607  10.244 -1.1006  1.7043 -1.5939
  702MPD2    H210384   1.274   1.364  10.371 -1.5437  0.4171  0.2766
  702MPD2    H310385   1.477   1.392  10.253  2.1979  1.1989  1.3977
  702MPD2     N10386   1.513   1.840  10.360  0.3069 -0.2368 -0.0231
  702MPD2    H510387   1.479   1.904  10.432  1.5895  0.9032 -0.4298
  702MPD2    N110388   1.174   1.563  10.542 -0.1139  0.0958  0.1168
  702MPD2    H710389   1.150   1.649  10.591 -3.2612 -1.0953  0.6858
  703TMC3    C110390   1.656   2.003  10.310 -0.2842 -0.0576 -0.0885
  703TMC3    C210391   1.552   2.092  10.340 -0.6720  0.1615 -0.0819
  703TMC3    C310392   1.587   2.232  10.338  0.0442  0.5234  0.1172
  703TMC3    C410393   1.787   2.046  10.298 -0.5401  0.1588 -0.7032
  703TMC3    C510394   1.810   2.179  10.295  0.2266  0.4031 -0.5531
  703TMC3    C610395   1.712   2.273  10.310 -0.5040  0.3212  0.2041
  703TMC3     C10396   1.625   1.867  10.289  0.0680  0.0207  0.6136
  703TMC3     O10397   1.696   1.792  10.229  0.0110  0.4824 -0.5080
  703TMC3     H10398   1.449   2.059  10.337 -0.8014  0.7775 -2.6035
  703TMC3    H110399   1.871   1.980  10.282 -1.2033  0.2029 -4.4116
  703TMC3    H210400   1.718   2.378  10.286 -0.0643  0.0765 -0.7585
  703TMC3    C710401   1.946   2.217  10.286 -0.2312  0.4747 -0.2621
  703TMC3    C810402   1.489   2.337  10.364 -0.5771  0.0558  0.0694
  703TMC3    O110403   1.965   2.324  10.228  0.5481 -0.3423  0.2711
  703TMC3    O210404   1.527   2.454  10.361  0.3145  0.2135  0.0509
  704TMC3    C110405   3.479   4.416  12.679  0.9285 -0.4202 -0.1235
  704TMC3    C210406   3.605   4.461  12.684  0.7226 -0.1784  0.5020
  704TMC3    C310407   3.674   4.423  12.796  0.3598 -0.1324 -0.2419
  704TMC3    C410408   3.422   4.353  12.783 -0.5395 -0.1706  0.4571
  704TMC3    C510409   3.494   4.310  12.890  0.1764  0.5591 -0.2019
  704TMC3    C610410   3.624   4.344  12.895  0.5239  0.5881  0.4711
  704TMC3     C10411   3.407   4.437  12.558  0.3963  0.3523 -0.7699
  704TMC3     O10412   3.290   4.461  12.573 -0.2958 -0.0709 -0.3718
  704TMC3     H10413   3.643   4.526  12.606  1.2398  2.5791  3.0711
  704TMC3    H110414   3.317   4.326  12.774 -0.8223  1.3096 -0.6024
  704TMC3    H210415   3.681   4.310  12.980  1.3937 -1.2644 -0.8587
  704TMC3    C710416   3.505   4.170  12.876  0.2543  0.1015 -0.4237
  704TMC3    C810417   3.809   4.386  12.754 -0.6360  0.1750  0.9666
  704TMC3    O110418   3.597   4.134  12.809 -0.6116 -0.1882  0.2694
  704TMC3    O210419   3.827   4.365  12.634  0.1267  0.3608  0.2365
  705MPD2     C10420   3.526   2.922  16.113 -0.2815  0.4169 -0.0804
  705MPD2    C110421   3.514   3.060  16.097 -0.0892 -0.0782  1.2870
  705MPD2    C210422   3.436   3.134  16.190  0.4069 -0.7022  0.8051
  705MPD2    C310423   3.371   3.062  16.295 -0.4275 -0.1013  0.0971
  705MPD2    C410424   3.384   2.926  16.308 -0.5196 -0.2124 -0.2235
  705MPD2    C510425   3.463   2.863  16.216  0.1474  0.0487 -1.1350
  705MPD2     H10426   3.441   3.242  16.187  1.7276 -0.8472 -1.3950
  705MPD2    H110427   3.326   2.868  16.380  1.4305 -1.7365  0.1039
  705MPD2    H210428   3.592   2.852  16.064 -0.6913 -0.2129  0.2691
  705MPD2    H310429   3.474   2.755  16.216 -2.0654 -0.1874  1.6511
  705MPD2     N10430   3.276   3.116  16.382  0.7428 -0.0210 -0.7314
  705MPD2    H510431   3.217   3.048  16.428 -0.9124  1.3399 -0.8234
  705MPD2    N110432   3.580   3.131  15.996  0.1468  0.1920 -0.6916
  705MPD2    H710433   3.567   3.231  15.990 -1.0987  0.0052 -1.0320
  706TMC3    C110434   3.889   3.158  15.638  0.3476  0.2218  0.7349
  706TMC3    C210435   3.927   3.282  15.682  0.4277 -0.3527 -0.4548
  706TMC3    C310436   3.852   3.349  15.775  0.5664  0.1487  0.3075
  706TMC3    C410437   3.787   3.094  15.709 -0.5907 -0.6155 -0.5012
  706TMC3    C510438   3.727   3.158  15.812 -0.8731  0.4989 -0.8098
  706TMC3    C610439   3.758   3.290  15.848 -0.2967 -0.4054 -0.4503
  706TMC3     C10440   3.998   3.070  15.591  0.8591 -0.1026 -0.2725
  706TMC3     O10441   4.114   3.082  15.622  0.1321  0.4506 -0.4663
  706TMC3     H10442   4.016   3.328  15.639  0.5130  0.0066  0.1103
  706TMC3    H110443   3.746   2.996  15.687 -1.9682 -0.6435  2.2126
  706TMC3    H210444   3.717   3.331  15.939 -0.4510  1.3877 -1.3200
  706TMC3    C710445   3.663   3.068  15.903  0.6561  0.2449  0.2279
  706TMC3    C810446   3.882   3.475  15.826  0.4155  0.2254  0.5190
  706TMC3    O110447   3.710   2.954  15.895 -0.3722 -0.8174 -0.3898
  706TMC3    O210448   3.999   3.505  15.821 -0.1789 -0.1311  0.4531
  707TMC3    C110449   0.661   2.437   1.184  0.1617 -0.2426  0.7709
  707TMC3    C210450   0.701   2.381   1.302  0.4806 -0.1983 -0.8323
  707TMC3    C310451   0.619   2.284   1.359  0.4441  0.1982 -0.3242
  707TMC3    C410452   0.553   2.392   1.115 -0.1065  0.0752  0.8098
  707TMC3    C510453   0.494   2.279   1.153  0.4407  0.0313 -0.3762
  707TMC3    C610454   0.529   2.223   1.273 -0.1097 -0.0477 -0.1632
  707TMC3     C10455   0.754   2.530   1.130 -0.0992  1.2663 -0.2048
  707TMC3     O10456   0.786   2.631   1.189 -0.1286 -0.3158  0.1163
  707TMC3     H10457   0.789   2.427   1.345 -0.4323 -1.6605  2.5700
  707TMC3    H110458   0.518   2.446   1.028  2.8194  0.1220 -0.3594
  707TMC3    H210459   0.457   2.156   1.318  1.7351 -1.7055  0.3223
  707TMC3    C710460   0.393   2.212   1.063  0.0859  0.3169 -0.2692
  707TMC3    C810461   0.676   2.210   1.469 -0.1945  0.0453 -0.2018
  707TMC3    O110462   0.332   2.289   0.985 -0.2871  0.8942 -0.2341
  707TMC3    O210463   0.763   2.266   1.541  0.6582 -0.2348  0.2888
  708MPD2     C10464   1.996   1.366  14.223 -0.8628  0.0584 -0.2637
  708MPD2    C110465   2.063   1.458  14.303  0.3430  0.1701  0.1312
  708MPD2    C210466   2.027   1.460  14.439  0.3101 -0.4596  0.0309
  708MPD2    C310467   1.913   1.403  14.487 -0.7976 -0.2004  0.3636
  708MPD2    C410468   1.843   1.314  14.401 -0.2847  0.0667  0.0172
  708MPD2    C510469   1.883   1.307  14.270 -0.5801  0.6545  0.0598
  708MPD2     H10470   2.077   1.530  14.506  0.7420 -1.3075  0.5957
  708MPD2    H110471   1.762   1.249  14.429 -1.6808  2.6187  1.8908
  708MPD2    H210472   2.014   1.361  14.116 -0.4547 -1.2114 -0.1396
  708MPD2    H310473   1.830   1.236  14.208 -2.5479  1.2785  1.0347
  708MPD2     N10474   1.880   1.420  14.625 -0.1366 -0.1370 -0.7540
  708MPD2    H510475   1.938   1.467  14.693  0.5084 -0.6552 -0.9438
  708MPD2    N110476   2.162   1.552  14.256  0.1100  1.0883 -0.5993
  708MPD2    H710477   2.199   1.605  14.334 -0.2058 -0.5192  0.6432
  709TMC3    C110478   2.237   1.711  14.111 -0.4084  0.2033 -0.1855
  709TMC3    C210479   2.199   1.768  13.991  0.1273 -0.1228 -0.0922
  709TMC3    C310480   2.143   1.892  13.998  0.6275 -0.3389  0.1022
  709TMC3    C410481   2.243   1.781  14.229 -0.0344 -0.1909  0.2159
  709TMC3    C510482   2.177   1.903  14.240 -0.2643 -0.0177 -0.4393
  709TMC3    C610483   2.132   1.957  14.122 -0.3655 -0.4081  0.1524
  709TMC3     C10484   2.202   1.574  14.127 -0.0645  0.5747 -0.6760
  709TMC3     O10485   2.177   1.519  14.019 -0.4420 -0.9244 -0.0775
  709TMC3     H10486   2.208   1.727  13.891 -0.1748  1.1044 -0.6158
  709TMC3    H110487   2.287   1.737  14.318 -0.7492 -0.7285  0.2986
  709TMC3    H210488   2.068   2.044  14.125 -0.2760 -0.3125 -0.7212
  709TMC3    C710489   2.084   1.893  14.355 -0.7583 -0.5178  0.4680
  709TMC3    C810490   2.087   1.944  13.876 -0.2076  0.5285  0.2719
  709TMC3    O110491   2.129   1.847  14.461 -0.3903  0.1202  0.2556
  709TMC3    O210492   2.046   1.855  13.798  0.2636  0.6662 -0.2332
  710TMC3    C110493   2.878   2.912   0.537 -0.1950 -0.1447  0.4421
  710TMC3    C210494   2.904   2.936   0.403 -0.0853 -0.7602 -0.0459
  710TMC3    C310495   2.860   2.839   0.317  0.0105 -0.6541 -0.1080
  710TMC3    C410496   2.802   2.802   0.589 -0.0221 -0.2349  0.0058
  710TMC3    C510497   2.752   2.723   0.495 -0.1182 -0.2520 -0.1225
  710TMC3    C610498   2.770   2.746   0.359  0.4232 -0.2148 -0.0552
  710TMC3     C10499   2.944   2.996   0.637 -0.2758 -0.1641 -0.1794
  710TMC3     O10500   3.051   3.045   0.603 -0.5242  0.2172 -0.2413
  710TMC3     H10501   2.976   3.014   0.382 -0.9073  0.0664  0.1864
  710TMC3    H110502   2.798   2.770   0.692  0.4838 -3.1829 -0.8609
  710TMC3    H210503   2.725   2.681   0.285 -0.0683 -2.6840  2.4316
  710TMC3    C710504   2.681   2.607   0.535  0.2635 -0.0205 -0.1374
  710TMC3    C810505   2.866   2.870   0.170 -0.0570  0.4721 -0.1643
  710TMC3    O110506   2.627   2.629   0.642  0.2143  0.6801  0.2563
  710TMC3    O210507   2.846   2.770   0.101  0.1686 -0.1611  0.7012
  711TMC3    C110508   2.515   3.938  15.017 -0.3664  1.0188 -0.5940
  711TMC3    C210509   2.508   4.010  15.134  1.0044 -0.3215  0.2391
  711TMC3    C310510   2.619   4.018  15.215 -0.0235  0.6608  0.2103
  711TMC3    C410511   2.621   3.868  14.976 -0.2023 -0.6167 -0.2518
  711TMC3    C510512   2.723   3.861  15.067 -0.1634  0.4010 -0.0235
  711TMC3    C610513   2.725   3.929  15.189 -0.2313  0.0584  0.2105
  711TMC3     C10514   2.411   3.943  14.917 -0.2489 -0.0994  0.5931
  711TMC3     O10515   2.435   3.912  14.803 -0.0417  0.1809  0.0769
  711TMC3     H10516   2.423   4.071  15.162  0.3907 -0.7410 -0.7045
  711TMC3    H110517   2.618   3.814  14.883  0.6011  1.3779 -1.4380
  711TMC3    H210518   2.802   3.922  15.265  0.0434  2.3488  0.1509
  711TMC3    C710519   2.799   3.739  15.070 -0.4373 -0.5467  0.2268
  711TMC3    C810520   2.619   4.113  15.326 -0.0232 -0.1862 -0.5831
  711TMC3    O110521   2.913   3.745  15.111 -0.2052 -0.4408 -0.3092
  711TMC3    O210522   2.514   4.166  15.356 -0.1004 -0.0538  0.3816
  712MPD2     C10523   4.433   0.189  14.204 -0.3077 -0.2905  0.1371
  712MPD2    C110524   4.355   0.160  14.092 -0.1866  0.0399  0.7950
  712MPD2    C210525   4.374   0.227  13.974 -0.8266  0.6074  0.4082
  712MPD2    C310526   4.456   0.336  13.976 -0.3576 -0.9368  0.1449
  712MPD2    C410527   4.520   0.374  14.092 -0.2489  0.2936 -0.6325
  712MPD2    C510528   4.505   0.304  14.207  0.2884 -0.1027  0.3140
  712MPD2     H10529   4.330   0.207  13.877 -1.1858  2.2596  0.2237
  712MPD2    H110530   4.582   0.462  14.096 -0.8024  0.7022 -1.0159
  712MPD2    H210531   4.422   0.137  14.299 -2.4653  0.6626  0.4184
  712MPD2    H310532   4.560   0.333  14.296  0.5029  1.2576 -0.2591
  712MPD2     N10533   4.458   0.421  13.865 -0.6793 -0.5819  0.7428
  712MPD2    H510534   4.530   0.493  13.872  0.5022 -1.4728 -2.3261
  712MPD2    N110535   4.265   0.050  14.082 -0.3929 -0.6422  0.7558
  712MPD2    H710536   4.229   0.037  13.988 -0.3188 -1.5395  0.8550
  713TMC3    C110537   4.385   0.537  13.675 -0.2395 -0.1372 -0.5884
  713TMC3    C210538   4.515   0.560  13.631 -0.0741  0.1723  0.6994
  713TMC3    C310539   4.527   0.618  13.504  0.2202  0.3297  0.6344
  713TMC3    C410540   4.277   0.588  13.604 -0.2317  0.2434 -0.5088
  713TMC3    C510541   4.301   0.662  13.490 -0.0231  0.0131  0.4615
  713TMC3    C610542   4.424   0.672  13.439 -0.3328  0.1375  0.7250
  713TMC3     C10543   4.359   0.437  13.777  0.6175 -0.4700  0.5516
  713TMC3     O10544   4.245   0.391  13.780 -0.7591 -0.1219 -0.5463
  713TMC3     H10545   4.595   0.510  13.685  1.0756 -0.1738 -1.3152
  713TMC3    H110546   4.183   0.605  13.655 -0.3566 -2.1925  0.0954
  713TMC3    H210547   4.434   0.733  13.350 -1.9586 -2.0586 -0.9651
  713TMC3    C710548   4.240   0.792  13.498 -0.1640 -0.9016 -0.2386
  713TMC3    C810549   4.646   0.685  13.473 -0.0546 -0.6306 -0.0910
  713TMC3    O110550   4.323   0.884  13.510 -0.0371 -0.2344 -0.2497
  713TMC3    O210551   4.667   0.730  13.360  0.5687 -0.0658 -0.4453
  714MPD2     C10552   1.545   3.749   0.728  0.2756 -0.5842  0.5652
  714MPD2    C110553   1.477   3.725   0.845  0.4893 -0.0587 -0.5913
  714MPD2    C210554   1.372   3.812   0.872 -0.0721  0.1431 -0.5332
  714MPD2    C310555   1.330   3.896   0.780 -0.1706  0.1919  0.0938
  714MPD2    C410556   1.387   3.904   0.656 -0.6322 -0.4003  0.2514
  714MPD2    C510557   1.501   3.836   0.636  1.2425 -0.1602 -0.1037
  714MPD2     H10558   1.312   3.801   0.962  2.9858 -0.3263  1.4723
  714MPD2    H110559   1.365   3.982   0.584 -3.0762 -1.9408 -0.6370
  714MPD2    H210560   1.638   3.701   0.701  0.1769 -1.0416  1.0260
  714MPD2    H310561   1.560   3.844   0.546  0.6142 -1.5689 -0.6271
  714MPD2     N10562   1.224   3.974   0.820  0.2231  0.1210 -0.5559
  714MPD2    H510563   1.180   3.964   0.911 -1.2346 -1.3413 -1.4342
  714MPD2    N110564   1.525   3.620   0.937 -0.0244  0.4263  0.2649
  714MPD2    H710565   1.599   3.556   0.907 -1.5909 -0.5206 -1.5315
  715TMC3    C110566   1.547   3.509   1.152  0.1782  0.4385 -0.5551
  715TMC3    C210567   1.577   3.385   1.096 -0.2992 -0.0168 -0.1028
  715TMC3    C310568   1.607   3.282   1.179 -0.5845 -0.3388 -0.0475
  715TMC3    C410569   1.545   3.535   1.290  0.1745  0.0415 -0.0879
  715TMC3    C510570   1.562   3.421   1.373 -0.0311 -0.4149 -0.2249
  715TMC3    C610571   1.592   3.294   1.316 -0.2978 -0.1050 -0.6951
  715TMC3     C10572   1.489   3.615   1.070  0.4866  0.1430 -0.4919
  715TMC3     O10573   1.432   3.705   1.133  0.0703  0.0369  0.2668
  715TMC3     H10574   1.568   3.361   0.991  0.2843  2.3729 -0.7073
  715TMC3    H110575   1.525   3.632   1.334  0.5381  0.2085 -0.2861
  715TMC3    H210576   1.587   3.210   1.384  0.8408  0.6910  0.3697
  715TMC3    C710577   1.541   3.432   1.520  0.3775  0.0116  0.0111
  715TMC3    C810578   1.593   3.148   1.126  0.1486 -0.0843 -0.2657
  715TMC3    O110579   1.568   3.331   1.587  0.2045  0.2104  0.3676
  715TMC3    O210580   1.540   3.123   1.020  0.4366 -1.0149 -0.4337
  716MPD2     C10581   1.813   0.996   9.665  0.6922  0.9969  0.1055
  716MPD2    C110582   1.681   1.023   9.673 -0.3066 -0.3799  0.2488
  716MPD2    C210583   1.583   0.920   9.680 -0.0920  0.6335 -0.0400
  716MPD2    C310584   1.633   0.787   9.673 -0.3123  0.1929  0.4456
  716MPD2    C410585   1.770   0.768   9.658 -0.0923 -0.9659  0.3895
  716MPD2    C510586   1.859   0.868   9.649  0.3923 -0.2553  0.0781
  716MPD2     H10587   1.476   0.936   9.685 -0.1438 -0.3772  2.3603
  716MPD2    H110588   1.816   0.670   9.654  1.9228 -0.0293  0.7591
  716MPD2    H210589   1.881   1.079   9.653 -0.0950  1.4856 -0.9727
  716MPD2    H310590   1.966   0.852   9.645  0.0383 -2.6104  0.3191
  716MPD2     N10591   1.545   0.679   9.690 -0.2069  0.2881 -0.4287
  716MPD2    H510592   1.447   0.707   9.684  0.2129  1.1269 -3.0602
  716MPD2    N110593   1.645   1.165   9.669  0.3055 -0.1756 -0.1151
  716MPD2    H710594   1.726   1.225   9.669 -0.6749  1.1296 -0.8049
  717TMC3    C110595   1.457   0.456   9.727  0.6098  0.2726  0.7817
  717TMC3    C210596   1.344   0.480   9.657 -1.0035 -0.1035  0.5938
  717TMC3    C310597   1.248   0.383   9.648  0.4249 -0.0889 -0.8033
  717TMC3    C410598   1.474   0.338   9.798 -1.3465 -0.0827 -0.6052
  717TMC3    C510599   1.375   0.241   9.783  0.3315 -0.6675  0.7908
  717TMC3    C610600   1.258   0.266   9.710  0.0904 -0.6242 -0.3029
  717TMC3     C10601   1.573   0.550   9.728 -0.6341 -0.6580 -0.2344
  717TMC3     O10602   1.678   0.497   9.755 -0.3114  0.2842  0.3199
  717TMC3     H10603   1.334   0.576   9.609  0.0937 -0.6827 -0.7861
  717TMC3    H110604   1.566   0.303   9.844 -0.1304  0.5615 -2.5199
  717TMC3    H210605   1.175   0.197   9.716 -0.8633  0.5379 -0.2302
  717TMC3    C710606   1.398   0.120   9.854  0.0198  0.1906 -0.1231
  717TMC3    C810607   1.118   0.416   9.585 -0.4157 -0.2087  0.5386
  717TMC3    O110608   1.493   0.111   9.936  0.1098 -0.3250  0.0261
  717TMC3    O210609   1.075   0.534   9.601  0.1476  0.2591  0.6370
  718MPD2     C10610   0.750   1.166  12.820  0.1266 -0.1332 -0.5039
  718MPD2    C110611   0.735   1.063  12.731  0.1965 -0.4064  0.1506
  718MPD2    C210612   0.768   0.936  12.768  0.2200  0.3266 -0.5146
  718MPD2    C310613   0.792   0.905  12.896  0.2403  0.1034 -0.3929
  718MPD2    C410614   0.798   1.001  12.990  0.6922  0.0639 -0.4669
  718MPD2    C510615   0.781   1.133  12.949 -0.1744 -0.1684 -0.2143
  718MPD2     H10616   0.769   0.857  12.694 -2.7712 -0.1002 -0.0868
  718MPD2    H110617   0.829   0.976  13.091 -1.4539 -0.9567 -0.0579
  718MPD2    H210618   0.737   1.270  12.790  0.9405  0.2942  0.6168
  718MPD2    H310619   0.786   1.212  13.023  0.7827 -2.6091  2.3130
  718MPD2     N10620   0.816   0.763  12.912  0.2547  0.4919  0.4767
  718MPD2    H510621   0.833   0.711  12.827  0.9512  1.3589  0.0789
  718MPD2    N110622   0.702   1.084  12.596 -0.2446 -0.3847  0.1822
  718MPD2    H710623   0.717   1.006  12.532 -2.1100  0.3170 -1.0872
  719TMC3    C110624   0.674   1.184  12.392 -0.2836 -0.5546 -0.2082
  719TMC3    C210625   0.604   1.076  12.341  0.4931  0.5304 -0.5633
  719TMC3    C310626   0.661   0.995  12.248  0.6614 -0.0489  0.3597
  719TMC3    C410627   0.779   1.233  12.324 -0.0011 -0.2613 -0.4114
  719TMC3    C510628   0.838   1.139  12.240  0.0450  0.1397 -0.2765
  719TMC3    C610629   0.778   1.024  12.186 -0.1413 -0.2961  0.8882
  719TMC3     C10630   0.680   1.205  12.537  0.3997 -0.5701 -0.1162
  719TMC3     O10631   0.685   1.326  12.568  0.0090 -0.1978 -0.2731
  719TMC3     H10632   0.525   1.038  12.406  0.1171 -0.3228 -1.5049
  719TMC3    H110633   0.840   1.315  12.360  0.4350 -1.2313  1.0820
  719TMC3    H210634   0.837   0.961  12.121 -0.5836 -0.7377  0.9203
  719TMC3    C710635   0.950   1.179  12.158 -0.7955  0.6953 -0.1970
  719TMC3    C810636   0.660   0.865  12.308 -0.0152  0.4560 -0.1586
  719TMC3    O110637   0.996   1.103  12.076 -0.4880  0.4098  0.7794
  719TMC3    O210638   0.664   0.867  12.430 -0.2469  0.0349 -0.1970
  720MPD2     C10639   4.406   1.791  13.815  0.1534  0.8058  0.3953
  720MPD2    C110640   4.465   1.909  13.767  0.1495  0.1563  0.3518
  720MPD2    C210641   4.539   1.977  13.862 -0.3466  0.2916  0.3841
  720MPD2    C310642   4.560   1.938  13.993 -0.7253  0.0434 -0.2610
  720MPD2    C410643   4.498   1.824  14.037  0.7501 -0.4864  0.7385
  720MPD2    C510644   4.425   1.752  13.944 -0.3616  0.3510 -1.2693
  720MPD2     H10645   4.591   2.064  13.823  1.4099 -1.0943 -0.3922
  720MPD2    H110646   4.517   1.769  14.129 -2.1817 -3.0906 -0.2200
  720MPD2    H210647   4.344   1.721  13.761 -1.4155  0.6270  2.4246
  720MPD2    H310648   4.389   1.654  13.973  1.7485 -0.4704 -1.4292
  720MPD2     N10649   4.630   2.013  14.087  0.2578 -0.5049 -0.4569
  720MPD2    H510650   4.694   2.085  14.058 -0.4316  0.9824  1.7653
  720MPD2    N110651   4.436   1.959  13.636  0.4633 -0.1915 -1.0291
  720MPD2    H710652   4.494   2.038  13.610 -0.1929  0.5234 -0.3269
  721TMC3    C110653   4.684   2.102  14.300  0.8312  0.5300  0.4321
  721TMC3    C210654   4.633   2.169  14.405 -0.1873  0.8531  0.2359
  721TMC3    C310655   4.715   2.264  14.466  0.0259  0.5939 -0.2517
  721TMC3    C410656   0.084   2.124  14.256  0.3168  0.1435 -0.2185
  721TMC3    C510657   0.165   2.210  14.317 -0.1351 -0.0028  0.6318
  721TMC3    C610658   0.120   2.291  14.419 -0.5625  0.4656 -0.2453
  721TMC3     C10659   4.588   2.018  14.224 -0.2866  0.2935  0.0303
  721TMC3     O10660   4.480   1.988  14.272 -0.5019  0.5892  0.4749
  721TMC3     H10661   4.545   2.135  14.458  1.0276 -1.7248  0.6173
  721TMC3    H110662   0.123   2.049  14.188 -0.4534 -1.4400  1.1026
  721TMC3    H210663   0.184   2.367  14.463  1.8343 -2.7719  1.8700
  721TMC3    C710664   0.307   2.211  14.302 -0.4046 -0.2559  0.0232
  721TMC3    C810665   4.690   2.310  14.607  0.3248  0.5785  0.4272
  721TMC3    O110666   0.361   2.243  14.199 -0.1021 -0.2641 -0.3634
  721TMC3    O210667   0.044   2.395  14.642 -0.3122 -0.1124  1.0460
  722MPD2     C10668   3.086   0.492  13.157  0.0701 -0.4019 -0.0119
  722MPD2    C110669   3.044   0.581  13.253  0.0829  0.5558 -0.5427
  722MPD2    C210670   2.909   0.578  13.287 -0.5877  0.1467 -0.0584
  722MPD2    C310671   2.819   0.491  13.229 -0.0487  0.4888 -0.4043
  722MPD2    C410672   2.859   0.412  13.125  0.3471  0.3578 -0.2475
  722MPD2    C510673   2.996   0.413  13.099 -1.0528 -0.0374 -0.3623
  722MPD2     H10674   2.872   0.636  13.371  0.1933  2.7498 -1.5189
  722MPD2    H110675   2.790   0.344  13.077  0.0885  1.2955 -1.2083
  722MPD2    H210676   3.186   0.496  13.115 -0.7856  0.6981 -1.9541
  722MPD2    H310677   3.032   0.339  13.028  0.9679  1.6458 -1.0867
  722MPD2     N10678   2.691   0.501  13.269 -0.2037  0.0323  0.5648
  722MPD2    H510679   2.677   0.567  13.345  0.0843  0.0790  0.5769
  722MPD2    N110680   3.123   0.683  13.309  0.1780 -0.1037  0.0093
  722MPD2    H710681   3.080   0.738  13.382 -0.6372 -2.2896  1.1753
  723TMC3    C110682   2.463   0.476  13.279  0.0840 -0.2819  0.8381
  723TMC3    C210683   2.370   0.379  13.309 -0.3761 -0.6649  0.5713
  723TMC3    C310684   2.243   0.419  13.330 -0.0346  0.2186 -1.0431
  723TMC3    C410685   2.428   0.607  13.270  0.3459 -0.0409 -0.4383
  723TMC3    C510686   2.293   0.644  13.292  0.2771 -0.0677 -0.0987
  723TMC3    C610687   2.201   0.547  13.328 -0.1166 -0.4130 -0.1175
  723TMC3     C10688   2.578   0.447  13.204  0.2480  0.8121 -0.1508
  723TMC3     O10689   2.565   0.381  13.104  0.7432 -0.2797 -0.5133
  723TMC3     H10690   2.393   0.274  13.317  0.3189 -0.4610  1.2282
  723TMC3    H110691   2.504   0.677  13.238 -0.4526  1.7916  1.6712
  723TMC3    H210692   2.096   0.570  13.343  0.0485  1.1464 -1.3333
  723TMC3    C710693   2.238   0.773  13.252 -0.1984  0.0374  0.2913
  723TMC3    C810694   2.147   0.312  13.341 -0.4836 -0.0543 -0.1648
  723TMC3    O110695   2.118   0.785  13.244 -0.2070  0.4678  0.1231
  723TMC3    O210696   2.067   0.326  13.434  0.1600 -0.5812 -0.1134
  724TMC3    C110697   2.464   3.539   9.757 -0.8289  0.2661 -0.5651
  724TMC3    C210698   2.542   3.525   9.867  0.5339  0.0608  0.0541
  724TMC3    C310699   2.667   3.574   9.876 -0.0665 -0.2264  0.6260
  724TMC3    C410700   2.509   3.612   9.649 -0.0563  0.1170 -0.2878
  724TMC3    C510701   2.628   3.681   9.672 -0.7164 -0.2694 -0.2215
  724TMC3    C610702   2.702   3.671   9.786 -0.8174  0.7892 -0.7899
  724TMC3     C10703   2.348   3.456   9.731 -0.7659  0.0462  0.4434
  724TMC3     O10704   2.312   3.442   9.617  0.2997 -0.4956 -0.3294
  724TMC3     H10705   2.514   3.452   9.942 -0.5754 -0.0643 -0.4738
  724TMC3    H110706   2.445   3.633   9.564  0.2028 -0.8540 -0.7333
  724TMC3    H210707   2.796   3.726   9.785 -0.1679 -0.3180 -1.3862
  724TMC3    C710708   2.689   3.765   9.575  0.0056  0.0740  0.0630
  724TMC3    C810709   2.760   3.527   9.972 -0.2700 -0.2281  0.0576
  724TMC3    O110710   2.805   3.747   9.556  0.1191 -0.1885  0.1574
  724TMC3    O210711   2.709   3.448  10.053  0.6902  0.0117 -0.2262
  725TMC3    C110712   0.334   2.344  12.793  0.0133  0.6674  0.2573
  725TMC3    C210713   0.195   2.356  12.779  0.6211 -0.3253 -0.1173
  725TMC3    C310714   0.132   2.239  12.768  0.3823  0.2121 -0.7724
  725TMC3    C410715   0.390   2.222  12.810  0.7606  0.8069  0.1771
  725TMC3    C510716   0.314   2.107  12.814 -0.2992 -0.0253  0.2303
  725TMC3    C610717   0.187   2.112  12.791 -0.2068  0.1700 -0.1544
  725TMC3     C10718   0.410   2.467  12.803 -0.2174 -0.1605  0.2368
  725TMC3     O10719   0.344   2.568  12.818 -0.1306 -0.9770  0.5044
  725TMC3     H10720   0.147   2.453  12.769 -0.1646 -0.6616  0.3723
  725TMC3    H110721   0.497   2.213  12.823  0.5129  1.0859  2.3637
  725TMC3    H210722   0.138   2.016  12.779 -2.2802  1.0429  1.3921
  725TMC3    C710723   0.374   1.975  12.775  0.7033  0.1790  0.5579
  725TMC3    C810724   0.007   2.232  12.696 -0.8616 -0.1979 -0.7132
  725TMC3    O110725   0.309   1.920  12.688 -0.2655  0.2767  0.0191
  725TMC3    O210726   4.674   2.123  12.702  0.1730 -0.1007  0.0311
  726MPD2     C10727   2.450   3.634  10.177  0.7690  0.0092 -0.2000
  726MPD2    C110728   2.344   3.705  10.134  0.1802  0.0209  0.5577
  726MPD2    C210729   2.218   3.665  10.174  0.1112  0.0157 -0.3169
  726MPD2    C310730   2.200   3.553  10.256 -1.0515 -0.8046 -0.0134
  726MPD2    C410731   2.314   3.484  10.301  0.0410 -0.3705 -0.3876
  726MPD2    C510732   2.434   3.526  10.257  0.0478  0.2084  0.0367
  726MPD2     H10733   2.135   3.729  10.149 -1.4749 -1.8473  0.2006
  726MPD2    H110734   2.313   3.395  10.362 -1.9672 -1.1302 -1.5056
  726MPD2    H210735   2.555   3.656  10.157  0.5948  0.3120 -0.7741
  726MPD2    H310736   2.525   3.478  10.291  0.7964  0.2466 -1.9074
  726MPD2     N10737   2.079   3.526  10.314 -0.0036  0.6135  0.2042
  726MPD2    H510738   2.077   3.450  10.381  2.9877 -1.3747 -1.9397
  726MPD2    N110739   2.349   3.806  10.044  0.3143 -0.2407 -0.1106
  726MPD2    H710740   2.262   3.853  10.019  0.1277 -0.1595  0.7065
  727TMC3    C110741   2.459   4.003   9.937  0.9804  0.3306  0.0392
  727TMC3    C210742   2.541   4.101   9.983  0.9876  0.6162 -0.2537
  727TMC3    C310743   2.513   4.226   9.936 -0.3972 -0.2425  0.3181
  727TMC3    C410744   2.360   4.011   9.845  0.2508  0.6335  0.4913
  727TMC3    C510745   2.337   4.136   9.802 -0.7599 -0.3202  0.0621
  727TMC3    C610746   2.415   4.245   9.846 -0.9730  0.0394 -0.3284
  727TMC3     C10747   2.467   3.882  10.024  0.2735 -0.0616  0.5570
  727TMC3     O10748   2.569   3.875  10.093 -0.1551 -0.1462 -0.2724
  727TMC3     H10749   2.629   4.084  10.043  0.3552  0.0496  0.5154
  727TMC3    H110750   2.325   3.917   9.804  1.3407  1.3451 -2.0303
  727TMC3    H210751   2.406   4.347   9.809  0.4723  0.2001 -0.2221
  727TMC3    C710752   2.255   4.140   9.686 -0.2165 -0.0580  0.4729
  727TMC3    C810753   2.564   4.342  10.018  0.3591  0.4266 -0.1059
  727TMC3    O110754   2.182   4.046   9.660  0.4206  0.2971  0.0384
  727TMC3    O210755   2.660   4.321  10.088  0.7793 -0.3223 -0.3602
  728TMC3    C110756   2.059   2.824  15.299 -1.1253  0.2206 -0.2096
  728TMC3    C210757   2.169   2.901  15.297 -0.0542  0.2258  1.0502
  728TMC3    C310758   2.212   2.962  15.175  0.2937  0.9379 -0.0122
  728TMC3    C410759   1.984   2.807  15.186  0.2588  0.0794  0.1343
  728TMC3    C510760   2.036   2.855  15.071  0.4303 -0.5602  0.3570
  728TMC3    C610761   2.145   2.935  15.061 -0.3418 -1.0033 -0.2632
  728TMC3     C10762   2.014   2.759  15.418  0.2021  0.4321 -0.4475
  728TMC3     O10763   2.109   2.719  15.480 -0.1470  0.6141 -0.2519
  728TMC3     H10764   2.235   2.904  15.384  0.1408 -3.4151  1.0143
  728TMC3    H110765   1.898   2.741  15.184  1.2270 -1.2007  0.2060
  728TMC3    H210766   2.179   2.965  14.962  1.3981  2.4791  1.3836
  728TMC3    C710767   1.971   2.807  14.951  0.3221  0.0623  0.2847
  728TMC3    C810768   2.302   3.070  15.182  0.0688 -0.4821 -0.6215
  728TMC3    O110769   1.883   2.719  14.960  0.2474 -0.1028 -0.2687
  728TMC3    O210770   2.293   3.146  15.087  0.4679 -0.2251 -0.0955
  729MPD2     C10771   4.037   3.761  17.079  0.0645 -0.3784 -0.1447
  729MPD2    C110772   4.147   3.776  17.166 -0.3942  0.4384 -0.4409
  729MPD2    C210773   4.122   3.777  17.306 -0.2401 -0.2060 -0.6151
  729MPD2    C310774   3.985   3.763  17.351  0.9378  0.1917  0.2858
  729MPD2    C410775   3.875   3.765  17.268 -0.2038  0.9737  0.2912
  729MPD2    C510776   3.908   3.757  17.132  0.0361  0.9443  0.0827
  729MPD2     H10777   4.208   3.793  17.369  0.1316  0.8595 -1.3930
  729MPD2    H110778   3.773   3.770  17.305 -0.0465  1.1406  0.6943
  729MPD2    H210779   4.056   3.768  16.972 -0.7259 -0.4598 -0.2894
  729MPD2    H310780   3.826   3.763  17.061 -0.5341  0.4625  0.7039
  729MPD2     N10781   3.959   3.774  17.485 -0.1580 -0.0790  0.2355
  729MPD2    H510782   3.861   3.799  17.496  0.4003  2.4921 -0.6223
  729MPD2    N110783   4.277   3.797  17.103  0.1481 -0.5575  0.2827
  729MPD2    H710784   4.279   3.782  17.002 -0.4863  0.6078  0.0977
  730TMC3    C110785   4.011   3.861  17.690  0.0113 -0.0777 -0.0792
  730TMC3    C210786   4.095   3.855   0.103 -0.6855 -0.0325  0.4709
  730TMC3    C310787   4.078   3.948   0.196 -0.3463  0.1631 -0.1585
  730TMC3    C410788   3.928   3.971  17.666 -0.0280 -0.6376 -0.0470
  730TMC3    C510789   3.919   4.059   0.073 -0.1850 -0.1107  0.2029
  730TMC3    C610790   3.990   4.046   0.190 -0.2593 -0.7693  0.5299
  730TMC3     C10791   4.051   3.777  17.580  0.2723  0.6077 -0.1027
  730TMC3     O10792   4.156   3.717  17.576 -0.2278  0.1045 -0.7116
  730TMC3     H10793   4.180   3.787   0.106 -0.8917 -0.2249  1.7483
  730TMC3    H110794   3.863   3.976  17.579 -0.6240  2.8541  0.6012
  730TMC3    H210795   3.974   4.112   0.274  1.0953 -0.4684  0.5418
  730TMC3    C710796   3.925   4.195   0.015 -0.0643 -1.1523  0.1094
  730TMC3    C810797   4.192   3.996   0.267 -0.1105 -0.2243  0.7220
  730TMC3    O110798   3.867   4.217  17.603  0.0714 -0.5802  0.5031
  730TMC3    O210799   4.201   3.956   0.382  0.0067  0.0958 -0.3138
  731MPD2     C10800   4.224   2.134  11.860  0.0235  1.1572 -0.3831
  731MPD2    C110801   4.315   2.083  11.952  0.4593  0.3701 -0.0879
  731MPD2    C210802   4.279   2.079  12.088  0.6871  0.3410 -0.5126
  731MPD2    C310803   4.164   2.138  12.133  0.8141 -0.0800 -0.4231
  731MPD2    C410804   4.082   2.203  12.045  0.2521 -0.2709  0.4583
  731MPD2    C510805   4.111   2.195  11.911 -0.2366 -0.1919 -0.1471
  731MPD2     H10806   4.345   2.027  12.157  0.7819  1.5114  0.2840
  731MPD2    H110807   3.989   2.253  12.069  0.8333  1.4964 -0.9265
  731MPD2    H210808   4.241   2.141  11.753  1.0207  4.6654 -0.0081
  731MPD2    H310809   4.041   2.225  11.834 -1.0956  0.4552  0.8935
  731MPD2     N10810   4.138   2.125  12.273  0.5523 -0.0667  0.6758
  731MPD2    H510811   4.187   2.058  12.331  2.3400  1.1193  0.5227
  731MPD2    N110812   4.431   2.016  11.907 -0.6201 -0.3137 -0.4481
  731MPD2    H710813   4.476   1.952  11.972  1.3714  0.7461 -0.7896
  732TMC3    C110814   4.597   1.946  11.751  0.4997 -0.1140  0.2988
  732TMC3    C210815   4.574   1.817  11.784 -0.2428  0.6400 -0.5616
  732TMC3    C310816   4.652   1.719  11.726 -0.5572  0.2000  0.3011
  732TMC3    C410817   4.679   1.980  11.647  0.9126 -0.4773  0.0516
  732TMC3    C510818   0.034   1.878  11.593 -1.0851  0.3996  0.3444
  732TMC3    C610819   0.032   1.754  11.639  0.1133  0.2055  0.1425
  732TMC3     C10820   4.500   2.048  11.792  0.6088 -0.6528 -0.4010
  732TMC3     O10821   4.489   2.149  11.727 -0.3547 -0.5271 -0.4283
  732TMC3     H10822   4.513   1.802  11.872  1.5504 -0.1509  0.5330
  732TMC3    H110823   4.693   2.081  11.609  0.3713 -0.7006 -0.7362
  732TMC3    H210824   0.098   1.682  11.593  0.4683  1.1646 -0.8549
  732TMC3    C710825   0.169   1.930  11.551 -0.8934 -0.7799 -0.0878
  732TMC3    C810826   4.607   1.579  11.726 -0.2204  0.1543  0.5220
  732TMC3    O110827   0.170   2.033  11.479  0.3864 -0.0216  0.3242
  732TMC3    O210828   4.690   1.508  11.674  0.3547 -0.3215 -0.0279
  733TMC3    C110829   0.670   0.377  12.982 -0.2201  1.3756 -0.1745
  733TMC3    C210830   0.728   0.479  13.054 -0.5581 -0.1326  0.0941
  733TMC3    C310831   0.833   0.553  13.003  0.0225  0.0019 -0.1239
  733TMC3    C410832   0.709   0.353  12.856 -0.4661 -0.2318  0.4993
  733TMC3    C510833   0.812   0.432  12.806 -0.1765 -0.9192 -0.0760
  733TMC3    C610834   0.883   0.527  12.877  0.2001  0.6925 -0.2577
  733TMC3     C10835   0.557   0.297  13.020 -0.0029 -0.1643 -0.2209
  733TMC3     O10836   0.491   0.233  12.936 -0.2797  0.4071  0.0079
  733TMC3     H10837   0.683   0.505  13.150  0.0124  0.4733  0.1985
  733TMC3    H110838   0.667   0.272  12.798 -1.2158 -0.0954  0.8523
  733TMC3    H210839   0.960   0.591  12.837  0.0635  0.0946 -1.4996
  733TMC3    C710840   0.790   0.499  12.677 -0.3250 -0.1053  0.7206
  733TMC3    C810841   0.808   0.695  13.031 -0.3123 -0.2788 -0.2171
  733TMC3    O110842   0.804   0.620  12.680  1.0533 -0.6012 -0.1243
  733TMC3    O210843   0.739   0.726  13.128 -0.0585 -0.0285 -0.1102
  734MPD2     C10844   2.208   2.642  12.396 -0.1528 -0.0485 -0.4413
  734MPD2    C110845   2.114   2.622  12.304  1.0763 -0.2933 -0.2540
  734MPD2    C210846   2.145   2.631  12.163  0.2557  0.4780  0.3347
  734MPD2    C310847   2.273   2.658  12.127 -0.1302  0.0127  0.1896
  734MPD2    C410848   2.370   2.699  12.223  0.4675 -0.2765  0.3760
  734MPD2    C510849   2.335   2.684  12.358  0.5471 -0.1701  0.3684
  734MPD2     H10850   2.062   2.604  12.099 -1.4196  1.1459  2.2015
  734MPD2    H110851   2.476   2.705  12.200 -0.1359  1.7268 -1.9429
  734MPD2    H210852   2.193   2.621  12.502  0.8304  0.4116 -0.2122
  734MPD2    H310853   2.413   2.698  12.432  0.4695 -1.6572  0.7209
  734MPD2     N10854   2.302   2.647  11.990 -0.2113 -0.0279 -0.2776
  734MPD2    H510855   2.219   2.636  11.933 -0.3500  2.2000 -0.5060
  734MPD2    N110856   1.990   2.574  12.349 -0.3893  0.1050 -0.3299
  734MPD2    H710857   1.991   2.541  12.445 -1.2888  2.7478  0.5777
  735TMC3    C110858   1.778   2.473  12.333 -0.8225  0.4997  0.5802
  735TMC3    C210859   1.676   2.459  12.245 -0.6583  0.0765  0.4221
  735TMC3    C310860   1.649   2.331  12.197 -0.1571  0.3724  0.0964
  735TMC3    C410861   1.841   2.355  12.383 -0.9040 -0.1119  0.1067
  735TMC3    C510862   1.804   2.229  12.362  0.6717 -0.1887  0.0597
  735TMC3    C610863   1.708   2.220  12.257  0.1469  0.0338 -0.0966
  735TMC3     C10864   1.882   2.557  12.271 -0.3469  0.8453  0.5459
  735TMC3     O10865   1.854   2.589  12.156  0.2335  0.1950 -0.2957
  735TMC3     H10866   1.630   2.552  12.218  0.5467  0.8857  1.1501
  735TMC3    H110867   1.929   2.368  12.445 -0.1324 -3.0775 -0.3725
  735TMC3    H210868   1.683   2.126  12.209  0.6231  0.0227 -0.3288
  735TMC3    C710869   1.918   2.145  12.336 -0.4797  0.5337 -1.0148
  735TMC3    C810870   1.619   2.325  12.056 -0.1947  0.4378 -0.2065
  735TMC3    O110871   2.018   2.200  12.290 -0.0111  0.0959 -0.2144
  735TMC3    O210872   1.558   2.231  12.006  0.1349 -0.6752 -0.1808
  736MPD2     C10873   1.923   1.782  12.388 -0.7495  0.2692  0.7643
  736MPD2    C110874   1.981   1.906  12.358 -0.4177 -0.5241  0.9858
  736MPD2    C210875   2.117   1.917  12.329 -0.4538  0.3010 -0.2174
  736MPD2    C310876   2.199   1.801  12.340 -0.5659 -0.0263  0.1239
  736MPD2    C410877   2.142   1.688  12.382  0.0390 -0.6073 -0.4390
  736MPD2    C510878   2.007   1.672  12.404  0.5281 -0.1727 -0.3775
  736MPD2     H10879   2.157   2.012  12.298 -0.1299 -0.1442 -1.1772
  736MPD2    H110880   2.206   1.603  12.401 -1.1879 -1.7709 -1.5489
  736MPD2    H210881   1.819   1.774  12.418 -0.7538  0.9177  0.9324
  736MPD2    H310882   1.971   1.573  12.431  0.2711 -0.2108 -0.8480
  736MPD2     N10883   2.332   1.796  12.306  0.4226  0.7717 -0.0120
  736MPD2    H510884   2.388   1.723  12.349 -0.0940 -0.7820 -2.0186
  736MPD2    N110885   1.893   2.018  12.368  0.6086 -0.0023  0.0201
  736MPD2    H710886   1.801   2.000  12.407  0.8178 -1.6970 -0.2805
  737TMC3    C110887   2.538   1.870  12.195  0.6610  0.4646 -0.5912
  737TMC3    C210888   2.608   1.963  12.118  0.5249  0.1233 -0.0015
  737TMC3    C310889   2.744   1.960  12.120  0.2120 -0.8872 -0.2078
  737TMC3    C410890   2.606   1.780  12.268  0.9298  0.2719 -0.6367
  737TMC3    C510891   2.745   1.776  12.260  0.1381 -0.0419 -0.5107
  737TMC3    C610892   2.820   1.866  12.187 -0.0698 -0.9115  0.0365
  737TMC3     C10893   2.396   1.888  12.226  0.4852 -0.6334  0.3207
  737TMC3     O10894   2.335   1.956  12.147  0.3615 -0.1408  0.2835
  737TMC3     H10895   2.549   2.043  12.074 -0.2124  1.6296  3.8008
  737TMC3    H110896   2.548   1.707  12.323 -1.1920  1.1267 -1.7357
  737TMC3    H210897   2.924   1.888  12.211 -0.3999 -0.3258  0.9319
  737TMC3    C710898   2.786   1.641  12.255 -0.3110 -0.3696  0.4987
  737TMC3    C810899   2.820   2.075  12.077 -0.7045 -0.3210  0.3192
  737TMC3    O110900   2.733   1.558  12.334 -0.4029  0.1833  0.2800
  737TMC3    O210901   2.917   2.100  12.144  0.6336 -0.2542  0.4164
  738MPD2     C10902   3.301   1.380  15.126 -0.4289 -0.0161  0.3396
  738MPD2    C110903   3.330   1.271  15.038  0.4463  0.3663 -0.5886
  738MPD2    C210904   3.417   1.291  14.928  0.6325  0.0285 -0.4876
  738MPD2    C310905   3.483   1.412  14.910 -0.2810 -0.6393 -0.2246
  738MPD2    C410906   3.451   1.518  14.997 -0.6367 -0.6496 -0.0172
  738MPD2    C510907   3.356   1.501  15.094  0.3815  0.2060 -0.1241
  738MPD2     H10908   3.439   1.207  14.863  2.0524  0.1546 -0.1587
  738MPD2    H110909   3.500   1.614  14.985 -0.1614 -0.8813  0.0700
  738MPD2    H210910   3.216   1.370  15.192 -0.0383 -0.6920  0.7445
  738MPD2    H310911   3.333   1.594  15.144 -0.4171  0.5679 -1.1688
  738MPD2     N10912   3.586   1.439  14.813  0.0290 -0.1404  0.2728
  738MPD2    H510913   3.632   1.529  14.826 -1.4503  0.7758 -0.6791
  738MPD2    N110914   3.281   1.144  15.072 -0.1721 -0.1666 -0.8683
  738MPD2    H710915   3.307   1.065  15.013  0.5148 -0.1750 -0.5628
  739TMC3    C110916   3.758   1.387  14.662  0.3130  0.5864 -0.1390
  739TMC3    C210917   3.786   1.338  14.538 -0.1633  0.3574 -0.0250
  739TMC3    C310918   3.888   1.386  14.464  1.1580 -0.9897  1.2803
  739TMC3    C410919   3.841   1.475  14.722 -0.3539 -1.1358  0.2450
  739TMC3    C510920   3.940   1.524  14.640 -0.2923  0.3032  0.3016
  739TMC3    C610921   3.972   1.474  14.517  0.1414 -0.0737 -0.2464
  739TMC3     C10922   3.627   1.359  14.709  0.4756 -0.2706  0.9215
  739TMC3     O10923   3.584   1.250  14.684 -0.2432  0.1933  0.1958
  739TMC3     H10924   3.726   1.256  14.501  2.2715 -1.0914 -0.7430
  739TMC3    H110925   3.823   1.500  14.826 -0.3622 -2.5601  0.5850
  739TMC3    H210926   4.039   1.527  14.450 -0.2412 -1.0166 -1.3690
  739TMC3    C710927   4.026   1.616  14.719  0.2322 -0.6420  0.4065
  739TMC3    C810928   3.875   1.376  14.323 -0.2561  0.3417  0.0442
  739TMC3    O110929   3.993   1.642  14.834  0.1084  0.0311 -0.2850
  739TMC3    O210930   3.761   1.339  14.290  0.0188  0.0571  0.3143
  740TMC3    C110931   3.530   2.676  14.156 -0.3114 -0.0499  0.0919
  740TMC3    C210932   3.651   2.709  14.206 -0.0866  0.8086  0.0169
  740TMC3    C310933   3.757   2.643  14.155 -0.3654 -0.2520 -0.5223
  740TMC3    C410934   3.515   2.572  14.061  0.4003  0.2406  0.1706
  740TMC3    C510935   3.626   2.502  14.025 -0.6617  0.4742 -0.3131
  740TMC3    C610936   3.752   2.543  14.061 -0.3583 -1.0703 -0.5642
  740TMC3     C10937   3.427   2.784  14.179  0.0560  1.0594 -0.1018
  740TMC3     O10938   3.475   2.895  14.187  0.3592  0.0115  0.1222
  740TMC3     H10939   3.667   2.792  14.273  4.7009  0.3414 -0.5283
  740TMC3    H110940   3.418   2.546  14.019  0.0667 -0.2871  1.2550
  740TMC3    H210941   3.838   2.482  14.037 -1.5702 -2.3124 -1.7710
  740TMC3    C710942   3.622   2.426  13.901 -0.1145 -0.5208 -1.5496
  740TMC3    C810943   3.871   2.646  14.238  0.1156  0.3767  0.2914
  740TMC3    O110944   3.532   2.345  13.895  0.3772 -0.5479 -0.0294
  740TMC3    O210945   3.855   2.695  14.352  0.0476  0.1235  0.2193
  741TMC3    C110946   3.797   1.696  14.147 -0.7076 -0.7975  0.1310
  741TMC3    C210947   3.675   1.653  14.187  0.1187  0.1379 -0.0626
  741TMC3    C310948   3.644   1.651  14.326  0.5752 -0.3806  0.4412
  741TMC3    C410949   3.885   1.749  14.237  0.3786 -0.1410  0.3431
  741TMC3    C510950   3.849   1.753  14.368 -0.1715 -0.1039 -0.1363
  741TMC3    C610951   3.728   1.711  14.413 -0.4440 -0.3378 -0.1894
  741TMC3     C10952   3.807   1.745  14.012  0.1109  0.0101 -0.7124
  741TMC3     O10953   3.712   1.727  13.936  0.7380 -0.0683 -0.3801
  741TMC3     H10954   3.612   1.600  14.116 -0.1892 -2.0217  1.7987
  741TMC3    H110955   3.985   1.784  14.217  0.7396 -1.7426 -0.6323
  741TMC3    H210956   3.712   1.715  14.520 -1.9592 -0.0518 -0.4274
  741TMC3    C710957   3.913   1.865  14.437  1.0785 -0.0551  0.0824
  741TMC3    C810958   3.529   1.590  14.385  0.4969 -0.2274 -0.5371
  741TMC3    O110959   4.032   1.881  14.431 -0.2719 -0.7548 -0.3359
  741TMC3    O210960   3.517   1.601  14.506  0.2451 -0.1119  0.1413
  742TMC3    C110961   3.343   0.341  15.057  0.0362 -0.6608 -0.2500
  742TMC3    C210962   3.237   0.353  14.974 -0.0058  0.2035 -0.2302
  742TMC3    C310963   3.237   0.271  14.866  0.5695  0.1474 -0.6133
  742TMC3    C410964   3.434   0.237  15.056  0.1794 -1.0186 -0.5750
  742TMC3    C510965   3.421   0.159  14.944 -0.5156 -0.5826  0.2512
  742TMC3    C610966   3.330   0.175  14.844 -0.0452 -0.6282 -0.2828
  742TMC3     C10967   3.346   0.424  15.171  0.3090 -0.8521 -0.6841
  742TMC3     O10968   3.245   0.472  15.213 -0.9150  0.4732 -0.6912
  742TMC3     H10969   3.167   0.435  14.984 -2.4563 -1.6056 -2.7086
  742TMC3    H110970   3.499   0.211  15.139  0.6540 -1.3095 -1.0439
  742TMC3    H210971   3.336   0.115  14.754  1.3823  1.0764 -1.3231
  742TMC3    C710972   3.511   0.043  14.939 -0.3511 -0.1377 -0.1279
  742TMC3    C810973   3.118   0.248  14.789 -0.3732  0.3660 -0.1540
  742TMC3    O110974   3.619   0.053  14.997  0.4839  0.2314  0.5426
  742TMC3    O210975   3.124   0.151  14.716  0.0089  0.1271 -0.0615
  743MPD2     C10976   0.847   1.122   1.960 -0.1477  0.4201 -0.8241
  743MPD2    C110977   0.870   1.107   1.823 -0.5630  0.1128 -0.6752
  743MPD2    C210978   0.964   1.014   1.781 -0.1207 -0.3007 -0.7112
  743MPD2    C310979   1.043   0.949   1.878  0.2384  0.3403 -1.0885
  743MPD2    C410980   1.012   0.963   2.014  0.6724 -0.6264 -0.3461
  743MPD2    C510981   0.912   1.048   2.049 -0.1783  0.4824  0.2289
  743MPD2     H10982   0.997   1.007   1.678  0.2025  1.6955 -0.7394
  743MPD2    H110983   1.069   0.912   2.091  0.2915  0.6515  0.7824
  743MPD2    H210984   0.783   1.196   2.007 -0.3809 -0.6485  0.5732
  743MPD2    H310985   0.904   1.077   2.153  0.2011  0.3322  0.2984
  743MPD2     N10986   1.157   0.872   1.834  0.3406 -0.2418  0.5902
  743MPD2    H510987   1.179   0.882   1.735 -2.7794  1.1919  0.0180
  743MPD2    N110988   0.789   1.175   1.729 -0.2945  0.5022 -0.4760
  743MPD2    H710989   0.734   1.252   1.765 -1.1615  1.1016 -3.0502
  744TMC3    C110990   0.673   1.215   1.530 -0.3242  0.7176  0.0504
  744TMC3    C210991   0.656   1.346   1.563  0.1207 -0.7418 -0.0441
  744TMC3    C310992   0.576   1.417   1.473  0.4121  0.6708 -0.5774
  744TMC3    C410993   0.617   1.147   1.423  0.2113 -0.1139 -0.6910
  744TMC3    C510994   0.529   1.224   1.345 -0.4138  0.0985 -0.2010
  744TMC3    C610995   0.505   1.352   1.375  0.0256  0.4298  0.8220
  744TMC3     C10996   0.776   1.135   1.592 -0.3851  0.2082 -0.0559
  744TMC3     O10997   0.811   1.033   1.536 -0.3256 -0.1136 -0.7683
  744TMC3     H10998   0.739   1.398   1.610  1.2387 -2.1498 -0.4401
  744TMC3    H110999   0.660   1.055   1.385 -0.3060 -0.2143 -1.0318
  744TMC3    H211000   0.441   1.418   1.317 -1.5466 -2.5438 -0.8363
  744TMC3    C711001   0.548   1.208   1.204 -0.1327  0.0391 -0.0367
  744TMC3    C811002   0.568   1.563   1.475 -0.0056 -0.3348 -0.2979
  744TMC3    O111003   0.529   1.302   1.131 -0.3626 -0.2641 -0.0162
  744TMC3    O211004   0.520   1.620   1.375 -0.6534  0.5068 -0.2359
  745TMC3    C111005   4.102   4.623  14.145 -0.0187 -0.2064  0.7828
  745TMC3    C211006   4.002   4.698  14.096  0.0111 -0.8514 -0.2886
  745TMC3    C311007   3.946   4.658  13.972 -0.6351  0.0009 -0.0518
  745TMC3    C411008   4.133   4.501  14.089 -0.5353 -0.0936  0.0026
  745TMC3    C511009   4.069   4.463  13.976  0.0543  0.1811  0.2425
  745TMC3    C611010   3.979   4.540  13.913 -0.1825 -0.3104 -0.0924
  745TMC3     C11011   4.219   4.696  14.189  0.6463  0.0255  0.0008
  745TMC3     O11012   4.229   4.706  14.309 -0.2807  0.9423  0.2034
  745TMC3     H11013   3.961   0.058  14.152 -0.8324 -1.0819 -0.5565
  745TMC3    H111014   4.209   4.434  14.128 -0.3458  0.2964  0.2952
  745TMC3    H211015   3.922   4.503  13.828 -0.3185 -0.3460  0.0158
  745TMC3    C711016   4.146   4.380  13.890  0.1798  0.9897  0.0825
  745TMC3    C811017   3.857   0.021  13.903  0.8421 -0.6073 -0.5988
  745TMC3    O111018   4.220   4.298  13.946  0.0303  0.0980 -0.3097
  745TMC3    O211019   3.797   4.696  13.807  0.0172 -0.0331 -0.2674
  746TMC3    C111020   1.046   1.656  10.885 -0.3066 -0.3566  0.2203
  746TMC3    C211021   1.121   1.603  10.788 -0.0396  0.1347  0.0641
  746TMC3    C311022   1.072   1.489  10.726 -0.0420 -0.0345 -1.1561
  746TMC3    C411023   0.932   1.598  10.930 -0.0294  0.3738 -0.0636
  746TMC3    C511024   0.895   1.474  10.875  0.5712 -0.8725  0.0695
  746TMC3    C611025   0.962   1.424  10.773  0.0794 -0.1321 -0.1789
  746TMC3     C11026   1.076   1.777  10.944 -0.1332  0.6254 -0.2279
  746TMC3     O11027   1.071   1.783  11.065 -0.0932 -0.4883 -0.1036
  746TMC3     H11028   1.213   1.652  10.761  0.5665 -0.8538  0.3252
  746TMC3    H111029   0.885   1.640  11.018 -1.0155  0.1901 -0.5002
  746TMC3    H211030   0.942   1.329  10.725  0.5908  0.1385 -0.9380
  746TMC3    C711031   0.792   1.395  10.927 -0.0107  0.4889  0.6245
  746TMC3    C811032   1.117   1.448  10.594  0.2492 -0.2256 -0.0049
  746TMC3    O111033   0.746   1.311  10.849 -0.4101 -0.1110 -0.1820
  746TMC3    O211034   1.089   1.343  10.540 -0.5350  0.4795  0.5401
  747TMC3    C111035   3.304   1.033  11.552  0.7730  0.5582 -0.0205
  747TMC3    C211036   3.205   1.051  11.642 -0.0035 -1.1870 -0.1808
  747TMC3    C311037   3.174   1.178  11.684  0.8523 -0.0565 -0.0073
  747TMC3    C411038   3.370   1.139  11.496 -0.4031 -0.1819  0.1472
  747TMC3    C511039   3.316   1.260  11.517  0.1723 -0.1460  0.8674
  747TMC3    C611040   3.229   1.285  11.620  0.5454 -0.3650 -0.0363
  747TMC3     C11041   3.380   0.910  11.565  0.2247 -0.5135  0.4618
  747TMC3     O11042   3.357   0.832  11.658 -0.0672 -0.2700  0.2917
  747TMC3     H11043   3.157   0.963  11.683 -1.4785  0.9146  2.6661
  747TMC3    H111044   3.456   1.129  11.430  0.1738  1.6368  0.6234
  747TMC3    H211045   3.201   1.389  11.631 -1.8753 -1.1316  1.0859
  747TMC3    C711046   3.384   1.374  11.457  0.0196  0.3095  0.1085
  747TMC3    C811047   3.109   1.187  11.813 -0.1856  0.0521 -0.2475
  747TMC3    O111048   3.416   1.470  11.530  0.4468  0.0554 -0.0778
  747TMC3    O211049   3.058   1.084  11.856  0.5754  0.8979  0.0681
  748MPD2     C11050   0.173   2.481   1.332 -0.2922 -0.0417  0.0269
  748MPD2    C111051   0.292   2.487   1.407 -0.0734  0.0631 -0.3392
  748MPD2    C211052   0.388   2.580   1.376 -0.0364 -0.5711 -0.4238
  748MPD2    C311053   0.385   2.662   1.269  0.0841 -0.1711  0.0223
  748MPD2    C411054   0.281   2.647   1.185 -0.0908 -0.0395 -0.4050
  748MPD2    C511055   0.176   2.560   1.217 -0.0699  0.1067 -0.7851
  748MPD2     H11056   0.482   2.580   1.430 -0.7697  2.0513  0.8347
  748MPD2    H111057   0.272   2.712   1.099 -0.8583  0.8009  0.3122
  748MPD2    H211058   0.092   2.413   1.354  0.7592 -1.6407 -1.0008
  748MPD2    H311059   0.087   2.554   1.155  0.0937 -3.0973 -0.7184
  748MPD2     N11060   0.499   2.747   1.259  0.8621 -0.6009 -0.1639
  748MPD2    H511061   0.563   2.749   1.338 -2.5927 -2.2276  2.6949
  748MPD2    N111062   0.299   2.409   1.525  0.3245  0.5111 -0.4749
  748MPD2    H711063   0.217   2.351   1.540 -0.3631  1.6619  0.2213
  749TMC3    C111064   0.631   2.920   1.168 -0.0193  0.4736 -0.1042
  749TMC3    C211065   0.711   2.905   1.279 -0.2626  0.4071  0.5435
  749TMC3    C311066   0.820   2.985   1.295 -0.3761 -0.8683  0.3444
  749TMC3    C411067   0.671   2.995   1.058  0.6395  0.5158 -0.6665
  749TMC3    C511068   0.793   3.064   1.078  0.6338 -0.2242 -0.3962
  749TMC3    C611069   0.864   3.063   1.195  1.0538 -0.4135 -0.0365
  749TMC3     C11070   0.519   2.830   1.153  0.2185 -0.4627 -0.4982
  749TMC3     O11071   0.446   2.851   1.058 -0.1200  0.0539 -0.0755
  749TMC3     H11072   0.702   2.845   1.368  3.9950 -1.1416 -0.0599
  749TMC3    H111073   0.607   3.026   0.977  1.3847 -0.8261 -1.7605
  749TMC3    H211074   0.946   3.129   1.219 -0.8393  2.1743 -0.6927
  749TMC3    C711075   0.867   3.110   0.958  0.4917  0.6087  0.8418
  749TMC3    C811076   0.925   2.943   1.387  0.4910 -0.6126  0.4638
  749TMC3    O111077   0.979   3.150   0.982 -0.0478 -0.1998  0.5413
  749TMC3    O211078   0.987   3.030   1.447  0.1661 -0.5476 -0.0707
  750MPD2     C11079   1.301   3.500  11.397  0.3799 -0.1140 -0.1227
  750MPD2    C111080   1.174   3.459  11.386 -0.3693  0.1235 -0.7400
  750MPD2    C211081   1.141   3.331  11.347 -1.2645  0.9343  0.6720
  750MPD2    C311082   1.243   3.251  11.301  0.2171  0.2229 -0.4087
  750MPD2    C411083   1.375   3.290  11.322 -0.2423  0.2149 -0.0254
  750MPD2    C511084   1.402   3.413  11.373  0.3003 -0.0323 -0.3800
  750MPD2     H11085   1.037   3.301  11.342 -1.2976  1.0480  0.6977
  750MPD2    H111086   1.454   3.224  11.285  0.0318  0.3149  0.3801
  750MPD2    H211087   1.314   3.606  11.419 -0.5229  0.2830 -1.5336
  750MPD2    H311088   1.499   3.461  11.371  0.5569 -0.5593 -0.4679
  750MPD2     N11089   1.229   3.127  11.235 -0.1863  0.0100 -0.9191
  750MPD2    H511090   1.316   3.082  11.209  2.0480  3.0703  1.1097
  750MPD2    N111091   1.078   3.555  11.423 -0.1384 -0.2860 -0.2599
  750MPD2    H711092   1.116   3.644  11.453  2.0040 -1.0677 -0.6167
  751TMC3    C111093   1.127   2.943  11.132  0.0347  0.7128  0.7480
  751TMC3    C211094   1.015   2.857  11.140  0.1133  0.5856 -0.3499
  751TMC3    C311095   1.021   2.738  11.074  0.6544  0.3777 -0.1287
  751TMC3    C411096   1.237   2.915  11.056  0.6971 -0.0964  0.3191
  751TMC3    C511097   1.244   2.795  10.998 -0.1663  0.1889  0.3624
  751TMC3    C611098   1.142   2.704  11.008  1.1840 -0.5331  0.3771
  751TMC3     C11099   1.109   3.065  11.206  0.6068  0.6222  0.0791
  751TMC3     O11100   0.995   3.107  11.233  0.1344 -0.0894 -0.0802
  751TMC3     H11101   0.927   2.893  11.192  1.2077  0.2611  1.7085
  751TMC3    H111102   1.326   2.977  11.049 -0.0092  1.1996  2.7058
  751TMC3    H211103   1.162   2.607  10.964  2.3281 -1.4095  2.8055
  751TMC3    C711104   1.376   2.749  10.948 -0.3561  0.0869  0.5943
  751TMC3    C811105   0.912   2.653  11.072 -0.0246  0.2030 -0.2396
  751TMC3    O111106   1.457   2.833  10.908  0.7061 -0.2499  0.9032
  751TMC3    O211107   0.923   2.557  10.998  0.0942 -0.1822 -0.4989
  752TMC3    C111108   0.244   4.360   0.088  0.0124  0.3725  0.0032
  752TMC3    C211109   0.287   4.447   0.183  0.0533  0.0349  0.3516
  752TMC3    C311110   0.226   4.442   0.309 -0.1377 -0.0310 -0.0733
  752TMC3    C411111   0.156   4.266   0.121  0.1926  0.6462  0.5211
  752TMC3    C511112   0.099   4.259   0.243  0.2358  0.3302  0.5962
  752TMC3    C611113   0.133   4.343   0.345 -0.4335 -0.3671  0.5674
  752TMC3     C11114   0.301   4.361  17.650 -0.2095 -0.1699 -0.9229
  752TMC3     O11115   0.418   4.398  17.642 -0.0230  0.5966 -0.2014
  752TMC3     H11116   0.362   4.517   0.147 -0.7084 -0.0225 -1.3742
  752TMC3    H111117   0.144   4.182   0.054  1.4013 -1.4693  2.9432
  752TMC3    H211118   0.087   4.334   0.443  1.6630 -0.6490  1.5201
  752TMC3    C711119   0.015   4.145   0.281 -0.4764  0.4839  0.2077
  752TMC3    C811120   0.262   4.536   0.417 -0.0099 -0.1362 -0.1073
  752TMC3    O111121   0.024   4.098   0.395  0.0748 -0.1092 -0.2364
  752TMC3    O211122   0.197   4.531   0.516  0.2661  0.3900 -0.3128
  753TMC3    C111123   2.274   4.626  13.521  0.2705 -0.1867  0.4138
  753TMC3    C211124   2.242   4.615  13.649  0.3228 -0.2581 -0.3981
  753TMC3    C311125   2.153   4.512  13.689 -0.3812  0.3540 -0.7862
  753TMC3    C411126   2.228   4.543  13.423  0.5045  1.1544  0.2309
  753TMC3    C511127   2.139   4.445  13.465 -0.2365  0.2626  0.4202
  753TMC3    C611128   2.101   4.430  13.593  0.1069 -0.5909 -0.2336
  753TMC3     C11129   2.340   0.030  13.488  0.1626  0.9229 -0.5810
  753TMC3     O11130   2.308   0.124  13.563 -0.2171  0.2490 -0.8792
  753TMC3     H11131   2.289   4.681  13.721 -0.6612 -0.3272  0.3116
  753TMC3    H111132   2.221   4.571  13.319 -1.0798  0.7082  0.2226
  753TMC3    H211133   2.048   4.340  13.623  0.1456 -0.6652 -0.3864
  753TMC3    C711134   2.092   4.350  13.368  0.3475  0.3045  0.5798
  753TMC3    C811135   2.129   4.474  13.830 -0.1512  0.7674 -0.5283
  753TMC3    O111136   2.175   4.314  13.282  0.2998 -0.5317 -0.1078
  753TMC3    O211137   2.027   4.412  13.853  0.3975 -0.2322  0.3362
  754MPD2     C11138   1.324   3.479  13.311 -0.5021  0.4220  0.3398
  754MPD2    C111139   1.295   3.345  13.269  0.4572 -0.5076 -1.1190
  754MPD2    C211140   1.184   3.326  13.197 -0.0085 -0.5213  1.0047
  754MPD2    C311141   1.084   3.419  13.195 -0.2262  1.1104  0.0300
  754MPD2    C411142   1.103   3.537  13.262  0.1908 -0.6438 -0.0565
  754MPD2    C511143   1.228   3.572  13.305 -0.5636  0.8643  0.0434
  754MPD2     H11144   1.172   3.236  13.138  1.3620 -0.0045 -0.0484
  754MPD2    H111145   1.026   3.614  13.270  3.6354  3.1258 -2.8431
  754MPD2    H211146   1.416   3.496  13.367 -0.4537 -1.1887  0.7569
  754MPD2    H311147   1.228   3.673  13.344 -1.9053  0.1188  1.9766
  754MPD2     N11148   0.959   3.393  13.131 -0.1430  0.9751  0.7450
  754MPD2    H511149   0.897   3.473  13.122 -2.4177 -0.6228  2.2033
  754MPD2    N111150   1.386   3.243  13.287 -0.1846  0.1750  0.0392
  754MPD2    H711151   1.485   3.263  13.299  0.1756 -1.6672  0.2371
  755MPD2     C11152   0.188   3.810  13.243  0.2505 -0.2783  0.0649
  755MPD2    C111153   0.185   3.693  13.317  0.0273 -0.1724 -0.4419
  755MPD2    C211154   0.281   3.597  13.297 -0.0693  0.0431  0.0561
  755MPD2    C311155   0.384   3.620  13.201  0.2782  0.1859  0.1358
  755MPD2    C411156   0.389   3.740  13.139  0.1293  0.5447  0.6947
  755MPD2    C511157   0.290   3.837  13.160 -0.3134  0.1801 -0.0219
  755MPD2     H11158   0.286   3.504  13.353  0.2072 -0.6619 -1.1390
  755MPD2    H111159   0.464   3.748  13.061 -0.0340 -0.6685  0.4160
  755MPD2    H211160   0.120   3.893  13.258 -0.1627 -1.3188  3.9416
  755MPD2    H311161   0.293   3.933  13.110  0.7455 -0.3036 -0.8906
  755MPD2     N11162   0.474   3.522  13.157  0.0531  0.2893 -0.0356
  755MPD2    H511163   0.560   3.552  13.112  0.6516 -0.1168  0.8379
  755MPD2    N111164   0.081   3.652  13.401 -0.0801  0.0092 -0.2296
  755MPD2    H711165   0.081   3.556  13.436 -3.1412  0.9007  2.1813
  756MPD2     C11166   0.940   3.968   9.835  0.6740  0.5444  0.0277
  756MPD2    C111167   0.926   3.879   9.942  0.2119  0.6276  0.3504
  756MPD2    C211168   0.846   3.771   9.932 -0.1721  0.3357  1.5937
  756MPD2    C311169   0.783   3.732   9.815 -0.2332 -0.3901 -0.3770
  756MPD2    C411170   0.799   3.821   9.713 -0.2154  0.5938 -0.2454
  756MPD2    C511171   0.877   3.935   9.720 -0.0139  0.5030 -0.1766
  756MPD2     H11172   0.832   3.712  10.023  0.4807 -1.4925  0.5211
  756MPD2    H111173   0.749   3.807   9.618  0.2938  1.6131 -0.6680
  756MPD2    H211174   1.013   4.045   9.815 -0.2183  1.5738  0.7068
  756MPD2    H311175   0.887   4.011   9.643 -1.2346  1.0337  0.1791
  756MPD2     N11176   0.707   3.608   9.810  0.7108  0.4871 -0.1623
  756MPD2    H511177   0.680   3.571   9.900 -0.2112 -0.5938 -0.8773
  756MPD2    N111178   0.986   3.912  10.070  0.0921 -0.3588 -0.0668
  756MPD2    H711179   0.968   3.857  10.153 -0.6140 -1.1738 -0.7601
  757MPD2     C11180   0.503   2.693   9.299  0.0302 -0.1981 -0.6752
  757MPD2    C111181   0.548   2.675   9.428  0.0122  0.3809  0.0559
  757MPD2    C211182   0.550   2.785   9.507 -0.2543 -0.0001  0.2356
  757MPD2    C311183   0.503   2.909   9.467 -0.0799  0.3790 -0.1503
  757MPD2    C411184   0.456   2.930   9.341  0.1123 -0.9722 -0.1166
  757MPD2    C511185   0.463   2.820   9.254  0.0420  0.4292  0.0542
  757MPD2     H11186   0.566   2.777   9.614 -0.4285  0.8661  0.3215
  757MPD2    H111187   0.411   3.024   9.308 -0.7564 -1.0661  0.7899
  757MPD2    H211188   0.512   2.622   9.218 -0.9593 -0.8408 -0.2149
  757MPD2    H311189   0.433   2.831   9.150  1.6471  0.1607 -0.4346
  757MPD2     N11190   0.510   3.014   9.562  0.5813 -0.2950 -0.3839
  757MPD2    H511191   0.537   2.989   9.657 -0.8288  2.4321  0.7255
  757MPD2    N111192   0.583   2.545   9.465 -0.2516 -0.1506  0.1848
  757MPD2    H711193   0.568   2.464   9.406 -1.1586  0.8520 -0.9624
  758MPD2     C11194   1.053   3.074  15.619  0.0280  0.3601  0.4270
  758MPD2    C111195   1.144   3.066  15.728  0.5525  0.0934  1.0016
  758MPD2    C211196   1.092   3.125  15.843  0.4819 -0.1048 -0.4620
  758MPD2    C311197   0.965   3.193  15.846 -0.2480  0.3499  0.1384
  758MPD2    C411198   0.880   3.189  15.740  0.3029  0.3169 -0.7653
  758MPD2    C511199   0.935   3.134  15.626  0.6657  1.0156  0.4759
  758MPD2     H11200   1.151   3.133  15.934 -0.9926  2.2972  0.2969
  758MPD2    H111201   0.785   3.241  15.740  0.1766  0.0675  0.8214
  758MPD2    H211202   1.082   3.036  15.522 -0.4798  0.0359  0.4057
  758MPD2    H311203   0.877   3.143  15.534 -0.7451 -1.3495  1.1369
  758MPD2     N11204   0.943   3.248  15.975 -0.1696  0.6136  0.0281
  758MPD2    H511205   1.021   3.252  16.040  2.1297  0.3308 -2.7058
  758MPD2    N111206   1.270   3.006  15.722  0.1609 -0.0920 -0.5261
  758MPD2    H711207   1.301   2.960  15.637 -0.3619 -0.3240 -0.5959
  759MPD2     C11208   3.912   1.198  10.344  0.8199 -0.0596 -0.3633
  759MPD2    C111209   3.938   1.109  10.243  0.4792  0.5145  1.0543
  759MPD2    C211210   4.012   1.153  10.133 -0.0459 -0.4470  0.4865
  759MPD2    C311211   4.062   1.277  10.128 -0.1804  0.7078  0.7118
  759MPD2    C411212   4.039   1.365  10.227  0.4186 -0.3696 -0.1934
  759MPD2    C511213   3.955   1.330  10.333 -0.1154 -0.0372  0.5481
  759MPD2     H11214   4.026   1.082  10.052 -2.0541  0.0120 -0.2638
  759MPD2    H111215   4.054   1.472  10.221 -2.1002  0.0752  1.4467
  759MPD2    H211216   3.850   1.165  10.426  1.0605  0.5382  0.0574
  759MPD2    H311217   3.906   1.411  10.386  1.2856  0.6847  0.7279
  759MPD2     N11218   4.132   1.311  10.011 -0.1963  0.2864  0.1799
  759MPD2    H511219   4.132   1.245   9.934  1.8480  0.1566  0.2709
  759MPD2    N111220   3.909   0.976  10.255 -0.4859 -0.5043  0.0788
  759MPD2    H711221   3.929   0.913  10.178 -1.4575 -2.1260  1.1572
  760MPD2     C11222   3.956   3.451  11.905 -0.1341 -0.4628 -0.1605
  760MPD2    C111223   4.088   3.456  11.942 -0.0580  0.0189 -0.4850
  760MPD2    C211224   4.134   3.346  12.013 -0.2726  0.2797  0.5725
  760MPD2    C311225   4.059   3.232  12.044  0.3135 -0.1159 -0.3592
  760MPD2    C411226   3.927   3.239  12.001 -0.0400 -0.3023  0.4024
  760MPD2    C511227   3.880   3.343  11.937 -0.1689 -0.3512 -0.3872
  760MPD2     H11228   4.232   3.355  12.058  0.1082  2.1778 -0.6131
  760MPD2    H111229   3.863   3.157  12.029 -0.9453  0.2545 -0.0518
  760MPD2    H211230   3.908   3.529  11.848 -2.4227 -1.7948 -0.0519
  760MPD2    H311231   3.777   3.343  11.904 -0.5346 -0.9335  0.7536
  760MPD2     N11232   4.116   3.119  12.106  0.5757  0.0068  0.1199
  760MPD2    H511233   4.074   3.027  12.094  0.9769 -0.2824  0.9139
  760MPD2    N111234   4.179   3.558  11.905  0.1258 -0.2357 -0.2867
  760MPD2    H711235   4.273   3.544  11.942  0.0007 -2.2146 -0.6876
  761MPD2     C11236   0.418   2.489  11.147 -0.0162 -0.6592  0.6899
  761MPD2    C111237   0.507   2.481  11.043  0.1027  0.3106 -0.5050
  761MPD2    C211238   0.623   2.549  11.045 -0.4487  0.0245 -0.3300
  761MPD2    C311239   0.668   2.629  11.152  0.4741  0.0385 -0.2500
  761MPD2    C411240   0.577   2.635  11.257 -0.2189 -0.2861  0.6905
  761MPD2    C511241   0.454   2.569  11.247  0.7222 -0.0228  0.1064
  761MPD2     H11242   0.692   2.542  10.961 -0.1065 -0.7668  0.0248
  761MPD2    H111243   0.590   2.693  11.347 -2.3357  2.7748 -0.9774
  761MPD2    H211244   0.323   2.437  11.147 -0.8758  0.9314  3.1119
  761MPD2    H311245   0.381   2.585  11.325 -0.0723  2.8220 -1.2263
  761MPD2     N11246   0.803   2.687  11.155  0.1020  0.3128  0.0861
  761MPD2    H511247   0.819   2.758  11.225 -0.1251 -1.1806  1.6681
  761MPD2    N111248   0.481   2.395  10.934  0.3772 -0.5223 -0.0038
  761MPD2    H711249   0.404   2.329  10.945  0.2437 -0.0187  2.2241
  762MPD2     C11250   1.074   2.470  10.626  0.1006 -0.2829 -0.2408
  762MPD2    C111251   1.038   2.367  10.553  0.6886 -0.1899  0.2944
  762MPD2    C211252   1.136   2.309  10.474 -0.5728 -0.9866  0.2609
  762MPD2    C311253   1.269   2.363  10.464 -0.1223  0.8255  0.2616
  762MPD2    C411254   1.302   2.468  10.540 -0.3938 -0.2272 -0.1295
  762MPD2    C511255   1.206   2.523  10.618 -0.5584  0.1862  0.2003
  762MPD2     H11256   1.106   2.223  10.415 -0.4330 -1.3108  0.6638
  762MPD2    H111257   1.398   2.517  10.539  0.4821 -1.9452 -0.7090
  762MPD2    H211258   1.005   2.523  10.690  1.3884  3.3066 -1.8336
  762MPD2    H311259   1.207   2.619  10.669 -0.3431  0.6840 -0.7401
  762MPD2     N11260   1.359   2.292  10.386  0.7475  0.2210 -0.9467
  762MPD2    H511261   1.332   2.197  10.361  2.5790 -0.1117 -1.6783
  762MPD2    N111262   0.907   2.326  10.581 -0.2430  0.3700  0.4096
  762MPD2    H711263   0.852   2.380  10.647 -3.3964 -0.3958 -1.5733
  763MPD2     C11264   2.974   3.294  16.078 -0.6833  0.7111 -0.3399
  763MPD2    C111265   2.850   3.348  16.103 -0.0932  0.1086  0.8007
  763MPD2    C211266   2.842   3.457  16.188  0.8704  0.2575 -0.0965
  763MPD2    C311267   2.955   3.520  16.239 -0.3926  0.2378  0.2484
  763MPD2    C411268   3.075   3.473  16.199  0.6455  0.2864 -0.2567
  763MPD2    C511269   3.083   3.363  16.115 -0.4889 -0.6540 -0.6450
  763MPD2     H11270   2.744   3.486  16.224 -0.2342 -1.8774 -1.3976
  763MPD2    H111271   3.168   3.519  16.230  2.3737 -0.7876 -3.8681
  763MPD2    H211272   2.986   3.215  16.004  1.1972  2.0642 -1.4970
  763MPD2    H311273   3.181   3.329  16.081  0.4585  2.6233 -1.2418
  763MPD2     N11274   2.957   3.644  16.311  0.7270  0.2194 -0.1314
  763MPD2    H511275   3.051   3.672  16.336  1.1818 -2.1227  0.7405
  763MPD2    N111276   2.739   3.293  16.043  0.2700 -0.5330 -0.2432
  763MPD2    H711277   2.648   3.338  16.056  0.7489 -0.3895  2.5638
  764MPD2     C11278   0.999   0.146  17.111  0.1474 -0.2093 -0.1150
  764MPD2    C111279   0.905   0.239  17.147  0.5340 -0.1196 -0.0021
  764MPD2    C211280   0.902   0.279  17.279 -1.0796 -0.1898 -0.3403
  764MPD2    C311281   0.983   0.220  17.375  0.3975 -0.4382 -0.3452
  764MPD2    C411282   1.071   0.122  17.337  0.2385  0.4170 -0.1820
  764MPD2    C511283   1.083   0.095  17.206 -0.2289 -0.1327  0.0819
  764MPD2     H11284   0.830   0.348  17.320 -2.4235 -2.2118  0.6826
  764MPD2    H111285   1.140   0.076  17.407  1.8583 -0.2971 -2.2443
  764MPD2    H211286   1.011   0.098  17.014  0.3751  0.7001 -0.5355
  764MPD2    H311287   1.161   0.030  17.166 -1.1285 -1.3878  0.3583
  764MPD2     N11288   0.965   0.268  17.513  0.0527 -0.4843  0.2920
  764MPD2    H511289   0.907   0.348  17.536 -1.4699 -1.6661  0.5384
  764MPD2    N111290   0.791   0.282  17.062 -0.0080 -0.2793 -0.6774
  764MPD2    H711291   0.731   0.351  17.105  0.0028  0.3166 -1.6035
  765MPD2     C11292   0.549   2.627  16.019  0.0105 -0.1643  0.5230
  765MPD2    C111293   0.625   2.705  15.941  0.6388  0.0911 -0.0081
  765MPD2    C211294   0.755   2.673  15.925 -0.2595  0.6661 -0.1682
  765MPD2    C311295   0.805   2.553  15.980  0.0828 -0.1685  0.6854
  765MPD2    C411296   0.727   2.478  16.064  0.9891  0.2523 -0.0321
  765MPD2    C511297   0.597   2.518  16.081  0.3574  0.2194  0.3261
  765MPD2     H11298   0.813   2.732  15.856  1.4920 -1.1290 -0.2110
  765MPD2    H111299   0.776   2.398  16.118  0.7847  0.3335  0.2785
  765MPD2    H211300   0.444   2.648  16.032 -0.0863 -1.1895  1.3536
  765MPD2    H311301   0.529   2.458  16.142 -1.6699  1.8015 -0.3731
  765MPD2     N11302   0.937   2.509  15.935 -0.6989  0.0804  0.5393
  765MPD2    H511303   0.987   2.580  15.881 -2.0285 -0.2975 -1.1724
  765MPD2    N111304   0.560   2.801  15.865  0.2790  0.5304  0.3201
  765MPD2    H711305   0.459   2.789  15.864  0.3102  0.4588 -1.4531
  766MPD2     C11306   0.296   2.636  15.262 -0.2047  0.1222  0.3542
  766MPD2    C111307   0.376   2.744  15.288 -0.5324  0.3694 -0.2262
  766MPD2    C211308   0.465   2.788  15.189  0.5951  0.7258 -0.8950
  766MPD2    C311309   0.463   2.720  15.065 -0.3290 -0.3974  0.2863
  766MPD2    C411310   0.382   2.613  15.043 -0.0768  0.2182  0.0370
  766MPD2    C511311   0.295   2.576  15.138 -0.2614 -0.1301 -0.3650
  766MPD2     H11312   0.529   2.873  15.207 -0.7547  1.4157  0.6486
  766MPD2    H111313   0.391   2.559  14.949  0.6933  1.4681 -0.6107
  766MPD2    H211314   0.223   2.601  15.334 -0.7811 -0.0626 -0.3310
  766MPD2    H311315   0.224   2.495  15.124  0.1364  0.0498 -3.4598
  766MPD2     N11316   0.556   2.753  14.960  0.2169  0.3532  0.7028
  766MPD2    H511317   0.538   2.719  14.867 -3.7149 -1.3209  2.0979
  766MPD2    N111318   0.369   2.801  15.414 -0.4348 -0.2915  0.5572
  766MPD2    H711319   0.320   2.746  15.483  0.7934 -1.3835  0.5423
  767MPD2     C11320   0.203   2.953  15.068 -0.4347 -0.5000 -0.3803
  767MPD2    C111321   0.288   3.034  14.996  0.1881  0.3854 -0.1484
  767MPD2    C211322   0.275   3.030  14.856  1.4238  0.3321 -0.2884
  767MPD2    C311323   0.194   2.925  14.794 -1.0807  0.4276  0.3960
  767MPD2    C411324   0.127   2.838  14.866  0.0440 -0.1683 -0.1802
  767MPD2    C511325   0.126   2.859  15.001 -0.5366 -0.1630 -0.7567
  767MPD2     H11326   0.321   3.103  14.791 -2.2931  2.5344 -0.4460
  767MPD2    H111327   0.076   2.753  14.823  0.6640 -0.0846 -1.0800
  767MPD2    H211328   0.194   2.957  15.176  0.3337  2.8112 -0.4381
  767MPD2    H311329   0.083   2.786  15.069 -0.4826 -0.6570 -1.2594
  767MPD2     N11330   0.217   2.904  14.659 -0.9628  0.0644  0.3030
  767MPD2    H511331   0.298   2.954  14.624 -0.5559 -1.4138 -0.8475
  767MPD2    N111332   0.378   3.107  15.075  0.2508  0.3622  0.6536
  767MPD2    H711333   0.378   3.093  15.176 -1.1010 -0.5058  0.5393
  768MPD2     C11334   0.641   1.057  10.543 -0.0935 -0.4552 -0.2459
  768MPD2    C111335   0.637   1.028  10.680 -0.5151 -0.8189 -0.0163
  768MPD2    C211336   0.751   1.023  10.761  0.1343  0.0110  0.3359
  768MPD2    C311337   0.870   1.061  10.707 -0.5398 -0.2582  0.0545
  768MPD2    C411338   0.870   1.110  10.575 -0.3516  0.0812 -0.3409
  768MPD2    C511339   0.764   1.093  10.488 -0.3314  0.2582  0.0136
  768MPD2     H11340   0.745   0.994  10.865 -2.1870  0.9275  0.4598
  768MPD2    H111341   0.965   1.138  10.531  1.2043 -1.5287  1.9742
  768MPD2    H211342   0.553   1.043  10.481 -1.0162  0.0727  0.9466
  768MPD2    H311343   0.779   1.123  10.385  0.7796 -0.8593 -0.1582
  768MPD2     N11344   0.993   1.050  10.775 -0.2131  0.0705 -0.3163
  768MPD2    H511345   1.075   1.089  10.729 -0.8485  0.4905 -1.0925
  768MPD2    N111346   0.510   1.007  10.746  0.4727  0.7161 -0.1678
  768MPD2    H711347   0.515   0.981  10.844 -1.5104 -1.7502 -0.7352
  769MPD2     C11348   2.019   4.151  14.672  0.4533 -0.1669  0.5070
  769MPD2    C111349   1.903   4.218  14.697  0.1229 -0.1014 -0.6691
  769MPD2    C211350   1.895   4.294  14.812  0.0338 -0.0980  0.7180
  769MPD2    C311351   2.004   4.327  14.891 -0.7444  0.4321 -0.3903
  769MPD2    C411352   2.128   4.283  14.854 -0.4785 -0.3742  0.1196
  769MPD2    C511353   2.132   4.194  14.748 -0.4236 -0.5854  0.4447
  769MPD2     H11354   1.798   4.339  14.831  0.0924  0.6093 -0.6354
  769MPD2    H111355   2.218   4.299  14.912 -0.1785 -0.2108 -0.4000
  769MPD2    H211356   2.036   4.078  14.594  1.0550 -0.4548  0.9074
  769MPD2    H311357   2.229   4.147  14.737  0.0170  0.7821 -1.4130
  769MPD2     N11358   1.985   4.403  15.011 -0.5773  0.4025 -0.6018
  769MPD2    H511359   1.890   4.416  15.044 -0.9308  1.5791 -2.0778
  769MPD2    N111360   1.796   4.200  14.604  0.3367 -0.0471 -0.5561
  769MPD2    H711361   1.814   4.143  14.521 -0.7077  2.4139 -2.4573
  770MPD2     C11362   1.390   3.438  14.429 -0.1008 -0.9838 -0.1703
  770MPD2    C111363   1.475   3.482  14.517 -0.4271  0.3045 -0.0823
  770MPD2    C211364   1.513   3.614  14.500  0.0497  0.1013  1.1448
  770MPD2    C311365   1.466   3.692  14.398  0.1006 -0.2629 -0.1823
  770MPD2    C411366   1.381   3.638  14.303 -0.4108  0.6827  0.0846
  770MPD2    C511367   1.344   3.509  14.324  0.2628  0.7689 -0.0364
  770MPD2     H11368   1.576   3.661  14.575  1.1166  1.1650 -0.4434
  770MPD2    H111369   1.343   3.687  14.214 -2.9194 -1.8371 -0.2134
  770MPD2    H211370   1.346   3.339  14.429  2.0118 -1.9299 -1.9899
  770MPD2    H311371   1.293   3.445  14.253 -1.2309 -0.3218  2.0090
  770MPD2     N11372   1.491   3.830  14.401 -0.3590  0.1331 -0.1519
  770MPD2    H511373   1.547   3.865  14.478 -1.1692 -2.1625  1.4830
  770MPD2    N111374   1.522   3.397  14.616  0.0126 -0.3022  0.4973
  770MPD2    H711375   1.483   3.303  14.619 -2.2768  0.6437  0.7216
  771MPD2     C11376   2.878   1.749  13.696  0.0651  0.0403  0.4975
  771MPD2    C111377   2.928   1.839  13.600  0.6396  0.7176 -0.8424
  771MPD2    C211378   2.908   1.815  13.463  0.7120 -0.2917  0.1570
  771MPD2    C311379   2.840   1.700  13.421 -0.7024  0.1907 -0.1256
  771MPD2    C411380   2.810   1.605  13.519  0.0514  0.2249 -0.8629
  771MPD2    C511381   2.822   1.637  13.653 -0.4638 -0.2826  0.2780
  771MPD2     H11382   2.926   1.891  13.387 -0.0921  0.9217  1.1836
  771MPD2    H111383   2.763   1.512  13.490  0.8425 -0.6687  0.7090
  771MPD2    H211384   2.886   1.777  13.801  1.0298  0.3546  0.3466
  771MPD2    H311385   2.789   1.561  13.724 -0.3996  1.3923  2.1064
  771MPD2     N11386   2.819   1.682  13.286 -0.6537 -0.1221  0.6484
  771MPD2    H511387   2.855   1.752  13.223 -0.7903 -0.7224 -0.0946
  771MPD2    N111388   3.002   1.956  13.638 -0.0062  0.0470  0.0504
  771MPD2    H711389   3.059   1.986  13.560 -1.0892 -1.6957 -1.4094
  772MPD2     C11390   2.960   2.678  14.131  0.4062 -0.0019 -0.3225
  772MPD2    C111391   2.894   2.580  14.054  0.4696  0.5945  0.2621
  772MPD2    C211392   2.758   2.591  14.051  0.3470  0.0913 -0.5307
  772MPD2    C311393   2.679   2.683  14.122  0.1674 -0.6127  0.4006
  772MPD2    C411394   2.748   2.771  14.195 -0.2889 -0.0965 -0.3106
  772MPD2    C511395   2.888   2.769  14.205  0.0463  0.0163 -0.0838
  772MPD2     H11396   2.710   2.512  13.995  0.2521  1.7704 -2.8470
  772MPD2    H111397   2.689   2.849  14.242 -0.7981 -0.3095 -0.5908
  772MPD2    H211398   3.067   2.684  14.146  0.8111  0.1492 -3.1875
  772MPD2    H311399   2.943   2.849  14.253 -0.4766 -0.0026  0.5579
  772MPD2     N11400   2.536   2.677  14.108  0.2189 -0.0376 -0.1611
  772MPD2    H511401   2.480   2.756  14.139 -0.4023 -1.1147  1.4219
  772MPD2    N111402   2.946   2.493  13.953 -0.0458 -0.0914 -0.2662
  772MPD2    H711403   2.882   2.443  13.893  1.6780 -1.3638 -1.0386
  773MPD2     C11404   1.554   3.353   0.057  0.2293  0.6859  0.1037
  773MPD2    C111405   1.447   3.285   0.002  0.2591  0.4820 -0.6726
  773MPD2    C211406   1.412   3.160   0.045 -1.3934 -0.8673 -0.0233
  773MPD2    C311407   1.467   3.105   0.159 -0.6583 -0.3066 -0.3460
  773MPD2    C411408   1.552   3.187   0.229  0.1064 -0.2494  0.3487
  773MPD2    C511409   1.604   3.295   0.175  0.0682  0.2835 -0.3722
  773MPD2     H11410   1.333   3.101  17.693 -0.0582 -1.2632 -1.8722
  773MPD2    H111411   1.598   3.162   0.324  2.9655  1.6830 -0.5129
  773MPD2    H211412   1.589   3.454   0.036 -2.4428  1.2589 -1.5602
  773MPD2    H311413   1.687   3.337   0.230 -0.6352  0.6291  0.4268
  773MPD2     N11414   1.425   2.975   0.199  0.7432  0.6760 -0.1886
  773MPD2    H511415   1.364   2.926   0.135 -0.6393 -1.2303  2.6216
  773MPD2    N111416   1.373   3.326  17.582 -0.1624 -0.0339 -0.6538
  773MPD2    H711417   1.299   3.263  17.555  1.0826 -1.6572 -0.2353
  774MPD2     C11418   1.160   2.205  13.560 -0.5751  0.3936 -0.7837
  774MPD2    C111419   1.098   2.302  13.634 -0.1038  0.4259 -0.5908
  774MPD2    C211420   1.089   2.426  13.577 -0.4958 -0.4935  0.3747
  774MPD2    C311421   1.137   2.458  13.456  0.1813  0.8558  0.3696
  774MPD2    C411422   1.199   2.361  13.381 -0.0437 -0.1122  0.0294
  774MPD2    C511423   1.211   2.237  13.434  0.0741 -0.1084 -0.5651
  774MPD2     H11424   1.036   2.502  13.633  0.2201 -0.4089  0.9280
  774MPD2    H111425   1.237   2.374  13.280  0.0260 -1.1947 -0.0779
  774MPD2    H211426   1.182   2.110  13.608  2.2775  1.3739 -0.1312
  774MPD2    H311427   1.246   2.155  13.371 -1.8458 -1.0045 -0.4659
  774MPD2     N11428   1.133   2.595  13.421  0.1782  0.3828 -0.4015
  774MPD2    H511429   1.067   2.656  13.470 -0.0444  0.2168 -0.4945
  774MPD2    N111430   1.062   2.265  13.762  0.0159 -0.3270 -0.0931
  774MPD2    H711431   1.091   2.177  13.804 -1.1622 -0.0835  1.2066
  775MPD2     C11432   2.019   4.178  15.508 -0.5931  0.0980  0.5568
  775MPD2    C111433   2.033   4.289  15.587  0.7059 -0.1458  0.6629
  775MPD2    C211434   2.144   4.370  15.572 -0.3049  0.2941  0.4973
  775MPD2    C311435   2.240   4.336  15.485 -0.1490  0.2789 -0.5663
  775MPD2    C411436   2.216   4.229  15.399  0.1679  0.5194  1.5667
  775MPD2    C511437   2.107   4.145  15.410 -0.3472  0.8211 -0.2710
  775MPD2     H11438   2.157   4.459  15.633 -0.8788  1.7240 -1.4897
  775MPD2    H111439   2.291   4.191  15.330 -0.4727 -0.3058  1.3185
  775MPD2    H211440   1.932   4.113  15.511  1.2820 -2.4163  0.3074
  775MPD2    H311441   2.091   4.063  15.341  1.1785  0.5131 -0.2755
  775MPD2     N11442   2.363   4.397  15.466 -0.1803  0.0141  0.3089
  775MPD2    H511443   2.425   4.354  15.398 -0.4864 -1.2900  0.8687
  775MPD2    N111444   1.934   4.316  15.686 -0.4869  0.2299  0.4587
  775MPD2    H711445   1.866   4.241  15.689 -2.3722  1.9115 -0.1586
  776MPD2     C11446   1.223   3.984  11.873  0.2652 -0.2444  0.1944
  776MPD2    C111447   1.111   4.033  11.802  0.1222 -0.0450 -0.1871
  776MPD2    C211448   1.085   4.166  11.809  0.5892 -0.4229  0.1414
  776MPD2    C311449   1.168   4.247  11.882 -0.2491 -0.1606 -0.1416
  776MPD2    C411450   1.279   4.199  11.950  0.2156 -0.0589  0.0826
  776MPD2    C511451   1.301   4.061  11.953 -0.0184 -0.0286  0.3625
  776MPD2     H11452   0.996   4.208  11.763  0.4831  0.5710  1.2391
  776MPD2    H111453   1.340   4.273  12.001  0.8270 -1.0033  0.7115
  776MPD2    H211454   1.249   3.879  11.880  0.5007 -0.2911 -1.4335
  776MPD2    H311455   1.388   4.024  12.006 -1.1609 -1.0329  1.5273
  776MPD2     N11456   1.144   4.382  11.887 -0.7616 -0.2619 -0.1132
  776MPD2    H511457   1.221   4.436  11.926 -1.1096  2.1303 -2.7544
  776MPD2    N111458   1.036   3.941  11.725  0.0200  0.3768 -0.1118
  776MPD2    H711459   1.075   3.847  11.719 -0.6006  0.1031  0.1793
  777MPD2     C11460   1.122   2.086   0.765 -0.5932  0.6795 -0.1644
  777MPD2    C111461   1.087   1.981   0.854  0.0783 -0.2509 -0.2900
  777MPD2    C211462   1.054   1.859   0.800  0.0051 -0.0235  0.0519
  777MPD2    C311463   1.051   1.837   0.664 -0.1575 -0.6774  0.7971
  777MPD2    C411464   1.074   1.944   0.579 -0.0063 -0.6358 -0.1092
  777MPD2    C511465   1.102   2.064   0.635 -0.5355  0.2422  0.0057
  777MPD2     H11466   1.037   1.777   0.869 -3.1661  1.6819  1.2915
  777MPD2    H111467   1.065   1.932   0.472 -0.0779 -0.3548 -0.1358
  777MPD2    H211468   1.133   2.193   0.784  1.9911  0.2231  0.9391
  777MPD2    H311469   1.134   2.145   0.570 -0.8089  0.8155  0.5830
  777MPD2     N11470   1.007   1.711   0.624 -0.0178 -0.3532  0.0371
  777MPD2    H511471   1.005   1.645   0.701 -0.5463 -0.5976 -0.1819
  777MPD2    N111472   1.078   2.012   0.990 -0.3267 -0.2708  0.3295
  777MPD2    H711473   1.090   2.110   1.012 -1.6960  0.1074 -0.6438
  778MPD2     C11474   2.921   2.032  14.792 -0.0939  0.1830  0.5295
  778MPD2    C111475   2.888   1.916  14.724 -0.4129  0.1415  0.0126
  778MPD2    C211476   2.949   1.893  14.605  0.3338 -0.1396  0.5257
  778MPD2    C311477   3.052   1.967  14.566 -1.1098 -0.3065 -0.0357
  778MPD2    C411478   3.088   2.075  14.636 -0.3056 -0.0508 -0.2362
  778MPD2    C511479   3.022   2.112  14.748 -0.0926 -0.0809  0.3476
  778MPD2     H11480   2.913   1.809  14.546  0.0367 -0.0501  0.5807
  778MPD2    H111481   3.164   2.146  14.606  0.9300 -1.4232 -0.3570
  778MPD2    H211482   2.869   2.060  14.883 -2.3654 -0.9794 -0.4032
  778MPD2    H311483   3.042   2.207  14.797  1.3465  0.1700 -0.7398
  778MPD2     N11484   3.125   1.948  14.454 -0.4009 -0.3666  0.1940
  778MPD2    H511485   3.196   2.021  14.449 -0.5227 -0.3422 -1.4306
  778MPD2    N111486   2.790   1.827  14.764 -0.0614  0.6139  0.3420
  778MPD2    H711487   2.770   1.754  14.696  2.0526 -1.8043  2.3037
  779MPD2     C11488   2.254   0.902  14.368  0.2696  0.5178 -0.3419
  779MPD2    C111489   2.378   0.862  14.317 -0.4028  0.9136  0.3352
  779MPD2    C211490   2.470   0.950  14.263  0.6980 -0.7055 -0.0512
  779MPD2    C311491   2.438   1.083  14.258  0.7135 -0.8162  0.9067
  779MPD2    C411492   2.313   1.122  14.308 -0.4841  0.6726 -0.6846
  779MPD2    C511493   2.224   1.035  14.358 -0.4738 -0.0822 -0.2665
  779MPD2     H11494   2.567   0.914  14.232  1.3639 -0.2475  1.5059
  779MPD2    H111495   2.272   1.222  14.308 -1.3613  0.3120  1.7185
  779MPD2    H211496   2.181   0.827  14.397 -0.8622  2.3595  1.5920
  779MPD2    H311497   2.120   1.061  14.370  0.1238  1.8802  0.6850
  779MPD2     N11498   2.536   1.167  14.204  0.2411  0.2589  0.7992
  779MPD2    H511499   2.615   1.123  14.159 -0.2677  0.3882 -0.2285
  779MPD2    N111500   2.422   0.725  14.315  0.3176 -0.1820  0.1132
  779MPD2    H711501   2.504   0.698  14.263 -0.1338 -0.8313 -0.2556
  780MPD2     C11502   1.775   0.375   1.273  0.3115  0.5625  1.0376
  780MPD2    C111503   1.716   0.425   1.157 -0.2681 -0.3198 -0.4102
  780MPD2    C211504   1.807   0.465   1.062 -0.4183 -0.3280  0.1687
  780MPD2    C311505   1.940   0.470   1.083 -0.5324  0.8355 -0.6324
  780MPD2    C411506   1.993   0.428   1.198 -0.4016  0.1845 -0.2052
  780MPD2    C511507   1.910   0.382   1.296 -0.2271  0.1046  1.0098
  780MPD2     H11508   1.775   0.502   0.965 -1.5843  0.4606  0.8492
  780MPD2    H111509   2.100   0.425   1.215 -0.5596 -0.3903  0.7076
  780MPD2    H211510   1.722   0.322   1.352 -0.1076  1.0238  1.0662
  780MPD2    H311511   1.946   0.329   1.384  0.4942 -1.3413 -0.1445
  780MPD2     N11512   2.019   0.525   0.972  0.7449 -0.1293 -0.0892
  780MPD2    H511513   1.968   0.557   0.891  2.0994  0.6626 -0.6287
  780MPD2    N111514   1.579   0.405   1.126  0.8546 -0.8829  0.0753
  780MPD2    H711515   1.522   0.365   1.199  0.2527 -0.7295 -0.3168
  781MPD2     C11516   4.016   2.545  11.859 -0.0236 -0.0637 -0.0492
  781MPD2    C111517   3.897   2.483  11.849  0.2771 -0.1595 -0.1967
  781MPD2    C211518   3.854   2.425  11.733 -0.4062 -0.7392  0.5295
  781MPD2    C311519   3.942   2.416  11.622  0.0968  0.4473  0.3390
  781MPD2    C411520   4.062   2.483  11.631 -0.3786  0.1945  0.0414
  781MPD2    C511521   4.098   2.546  11.750  0.3121  0.3704 -0.1954
  781MPD2     H11522   3.762   2.369  11.733 -0.5311 -0.5571 -2.3995
  781MPD2    H111523   4.135   2.472  11.553 -0.6611 -1.7253  0.0395
  781MPD2    H211524   4.056   2.594  11.946  0.5398  0.1583 -0.4284
  781MPD2    H311525   4.193   2.599  11.748  0.6019 -0.1117  0.8857
  781MPD2     N11526   3.926   2.319  11.516  0.4303  0.3739 -0.5429
  781MPD2    H511527   4.004   2.317  11.451  0.7338  0.4920 -0.1830
  781MPD2    N111528   3.831   2.471  11.972  0.3437 -0.0236  0.5641
  781MPD2    H711529   3.884   2.501  12.054 -0.1870  0.0770  0.8700
  782MPD2     C11530   1.406   3.003  10.394  0.0030  0.5478  0.4325
  782MPD2    C111531   1.519   3.028  10.322 -0.5172 -0.0076 -0.5033
  782MPD2    C211532   1.569   3.157  10.305 -0.1383  0.4384 -0.1615
  782MPD2    C311533   1.501   3.270  10.352 -0.2383  0.2547 -0.2131
  782MPD2    C411534   1.372   3.243  10.398 -0.4270 -0.6475  0.2450
  782MPD2    C511535   1.326   3.115  10.417 -0.1117  0.2244 -0.3331
  782MPD2     H11536   1.665   3.175  10.258 -0.0737 -0.4503 -0.3588
  782MPD2    H111537   1.294   3.314  10.424 -0.8721 -0.7575 -0.8021
  782MPD2    H211538   1.371   2.901  10.408 -0.2545  0.4634 -0.7687
  782MPD2    H311539   1.220   3.108  10.436  0.1135 -2.8125 -0.1945
  782MPD2     N11540   1.557   3.397  10.334  0.4443 -0.0819 -0.2216
  782MPD2    H511541   1.645   3.396  10.284  1.4223 -3.5831  1.5858
  782MPD2    N111542   1.598   2.913  10.297  0.3768 -1.0873  0.8832
  782MPD2    H711543   1.568   2.826  10.340 -1.1195 -0.8190  0.4061
  783MPD2     C11544   1.523   2.420  10.922  0.1347  0.0675 -0.2114
  783MPD2    C111545   1.500   2.551  10.888  0.0150  0.5257 -0.5325
  783MPD2    C211546   1.578   2.607  10.782 -0.6765  0.4258  0.4165
  783MPD2    C311547   1.668   2.536  10.708  0.3254  0.3420 -0.3005
  783MPD2    C411548   1.685   2.406  10.746 -0.3791  0.0301 -0.3047
  783MPD2    C511549   1.613   2.352  10.845  0.0292 -1.1259 -0.7209
  783MPD2     H11550   1.561   2.711  10.754 -0.1474  0.9007  1.8797
  783MPD2    H111551   1.746   2.332  10.697  0.4335  1.2437 -1.1008
  783MPD2    H211552   1.465   2.369  10.998  0.9898 -0.8316 -0.1537
  783MPD2    H311553   1.619   2.247  10.873  0.4889 -1.2817 -1.4145
  783MPD2     N11554   1.733   2.597  10.592 -0.2355 -0.6336 -0.4130
  783MPD2    H511555   1.696   2.687  10.564  0.9436  0.2514  0.8719
  783MPD2    N111556   1.387   2.613  10.943 -0.1332 -0.9819  0.0360
  783MPD2    H711557   1.317   2.564  10.998  0.7268 -2.4274 -0.1397
  784MPD2     C11558   3.315   3.829   1.568  0.0210 -0.0342  0.7678
  784MPD2    C111559   3.324   3.962   1.600  0.6301 -0.5485 -0.3498
  784MPD2    C211560   3.249   4.050   1.519 -0.2777 -0.3746  0.2809
  784MPD2    C311561   3.174   4.020   1.409  0.0495 -0.1383  0.0033
  784MPD2    C411562   3.168   3.885   1.380 -0.2020  0.1367  0.0836
  784MPD2    C511563   3.236   3.802   1.462 -0.4038 -0.4855  0.5372
  784MPD2     H11564   3.269   4.153   1.544 -0.7781 -0.1968 -0.0472
  784MPD2    H111565   3.114   3.848   1.294 -0.4012  1.2498 -0.2801
  784MPD2    H211566   3.380   3.758   1.617  0.0950 -0.0491  0.6492
  784MPD2    H311567   3.229   3.697   1.436 -1.8359 -0.0289 -0.9426
  784MPD2     N11568   3.123   4.117   1.317  0.2109  0.0863 -0.5770
  784MPD2    H511569   3.075   4.087   1.233  0.5216  0.1855 -0.7904
  784MPD2    N111570   3.406   4.019   1.699  0.3879  0.1782 -0.0283
  784MPD2    H711571   3.387   4.118   1.713  0.0717 -0.0270  1.0043
  785MPD2     C11572   4.046   1.357  10.786  1.1047 -0.4612  0.4893
  785MPD2    C111573   4.013   1.489  10.766 -0.3650 -0.3873 -0.0317
  785MPD2    C211574   3.889   1.513  10.712  0.1837 -0.1072  0.2812
  785MPD2    C311575   3.798   1.417  10.678 -0.1900  0.0546  0.1357
  785MPD2    C411576   3.835   1.287  10.699  0.5943 -0.7328 -0.4089
  785MPD2    C511577   3.955   1.257  10.750  0.6061  0.5510 -1.0252
  785MPD2     H11578   3.858   1.613  10.682 -1.1113 -0.8870 -0.9649
  785MPD2    H111579   3.769   1.202  10.688  0.3426 -0.7114  0.9390
  785MPD2    H211580   4.140   1.325  10.830  1.0686  1.3368  1.8554
  785MPD2    H311581   3.976   1.152  10.770 -1.7077 -0.2544 -2.8118
  785MPD2     N11582   3.675   1.452  10.612 -0.1164 -0.6294 -0.0037
  785MPD2    H511583   3.677   1.552  10.593  1.6405 -0.8515 -1.0258
  785MPD2    N111584   4.086   1.596  10.802 -0.1433 -0.0097  0.1417
  785MPD2    H711585   4.043   1.685  10.779  0.3676 -0.2033 -1.5206
  786MPD2     C11586   2.617   0.206  14.702  0.3323  0.3061 -0.1082
  786MPD2    C111587   2.725   0.145  14.642 -0.0034  0.5159  0.0394
  786MPD2    C211588   2.851   0.180  14.682  0.1862  0.7159 -0.8057
  786MPD2    C311589   2.874   0.281  14.776 -0.3290 -0.8080  0.1127
  786MPD2    C411590   2.767   0.351  14.827 -0.6800  0.3848  0.5563
  786MPD2    C511591   2.642   0.307  14.789  0.5290  0.4197 -0.6581
  786MPD2     H11592   2.928   0.126  14.629 -0.2230 -0.6603  0.0158
  786MPD2    H111593   2.771   0.432  14.898 -0.0556  0.4370  0.4615
  786MPD2    H211594   2.513   0.180  14.682  0.2340  1.4084 -1.0539
  786MPD2    H311595   2.552   0.341  14.839 -0.8557 -1.9026 -1.5539
  786MPD2     N11596   3.001   0.322  14.817 -0.3548  0.2160  0.1968
  786MPD2    H511597   3.008   0.400  14.882 -3.3933  1.0616 -0.4998
  786MPD2    N111598   2.714   0.032  14.551  0.1618  0.0783  0.5409
  786MPD2    H711599   2.805   0.002  14.516 -0.4804  0.7956 -1.7591
  787MPD2     C11600   3.175   4.441  14.506 -0.1213  0.1413 -0.2784
  787MPD2    C111601   3.093   4.419  14.391  0.4988  0.3467 -0.1493
  787MPD2    C211602   3.154   4.439  14.270 -0.1208  0.1577  0.2872
  787MPD2    C311603   3.296   4.474  14.259 -0.1109 -0.3679  0.2900
  787MPD2    C411604   3.368   4.490  14.376 -0.6510  0.3139  0.5970
  787MPD2    C511605   3.304   4.476  14.502 -0.7369  0.8215 -0.0251
  787MPD2     H11606   3.090   4.413  14.186  0.3137  0.9085 -0.2729
  787MPD2    H111607   3.472   4.518  14.371 -0.9743  0.9369 -2.5767
  787MPD2    H211608   3.137   4.426  14.607  0.1002  1.5968  0.0297
  787MPD2    H311609   3.358   4.510  14.590 -1.1313  0.3360  0.4009
  787MPD2     N11610   3.349   4.468  14.133  0.2140  0.2951 -0.3497
  787MPD2    H511611   3.283   4.442  14.060  1.4791  0.1278 -1.4228
  787MPD2    N111612   2.959   4.386  14.416 -0.3893  0.6898  0.1450
  787MPD2    H711613   2.920   4.390  14.509 -2.2467 -0.3476 -0.5935
  788MPD2     C11614   0.701   3.952   0.324 -0.2295 -0.9241  0.2896
  788MPD2    C111615   0.673   3.836   0.394 -0.3732  0.2127  0.4842
  788MPD2    C211616   0.657   3.718   0.328  0.2906 -0.2574 -0.1857
  788MPD2    C311617   0.673   3.710   0.191  0.5110  0.7862 -0.4204
  788MPD2    C411618   0.704   3.828   0.123 -0.1212 -0.1332  0.5874
  788MPD2    C511619   0.722   3.940   0.190  0.3005  0.3129 -0.8905
  788MPD2     H11620   0.636   3.632   0.390 -0.4776  0.5633  0.6834
  788MPD2    H111621   0.716   3.827   0.015  1.5067  0.7635  0.7584
  788MPD2    H211622   0.706   4.050   0.371 -1.0996 -0.1259 -1.2764
  788MPD2    H311623   0.755   4.026   0.133  3.5136 -0.3843 -0.0859
  788MPD2     N11624   0.667   3.587   0.119  0.2505  0.5528 -0.0204
  788MPD2    H511625   0.653   3.595   0.019 -0.1440 -1.8381 -0.1495
  788MPD2    N111626   0.632   3.824   0.534 -0.0484  0.3014  0.0703
  788MPD2    H711627   0.595   3.736   0.569 -1.1247  0.0181 -1.7878
  789MPD2     C11628   0.477   3.099  16.128 -0.5788  0.6284 -0.1613
  789MPD2    C111629   0.483   3.075  16.261  0.5207 -0.0515  0.1513
  789MPD2    C211630   0.410   3.157  16.342 -0.1468 -0.6173  0.1268
  789MPD2    C311631   0.334   3.262  16.298 -0.0693 -0.1686  0.1514
  789MPD2    C411632   0.329   3.280  16.161  0.4033  0.0729 -1.0146
  789MPD2    C511633   0.408   3.204  16.075 -0.4144  0.1068 -0.1162
  789MPD2     H11634   0.413   3.137  16.449 -0.0271  3.2123  0.8608
  789MPD2    H111635   0.273   3.367  16.129  0.0825  0.2618  0.0491
  789MPD2    H211636   0.526   3.031  16.058  1.0473  2.7105 -1.0450
  789MPD2    H311637   0.407   3.225  15.969 -3.0973  0.6575  0.0156
  789MPD2     N11638   0.247   3.338  16.380 -0.5739 -0.8158  0.6280
  789MPD2    H511639   0.179   3.401  16.339 -0.8168 -1.7750 -0.4475
  789MPD2    N111640   0.557   2.970  16.313 -0.3649 -0.0009 -1.0928
  789MPD2    H711641   0.547   2.945  16.411  0.4405 -0.5862 -1.1608
  790MPD2     C11642   1.197   0.114  13.449 -0.0110 -0.0251  0.3103
  790MPD2    C111643   1.155   4.709  13.496  1.0041 -0.0839 -0.9353
  790MPD2    C211644   1.095   4.620  13.419  0.2728  0.3940  0.1539
  790MPD2    C311645   1.074   4.641  13.286 -0.5184 -0.2508  0.0983
  790MPD2    C411646   1.109   0.041  13.234 -0.4242 -0.2663 -0.6593
  790MPD2    C511647   1.173   0.134  13.316  0.5878  0.0647 -1.0009
  790MPD2     H11648   1.068   4.524  13.463  1.0334 -0.1821 -0.6404
  790MPD2    H111649   1.099   0.049  13.126 -1.1536 -2.7286 -0.7693
  790MPD2    H211650   1.260   0.182  13.504  0.1235 -0.9974  1.3552
  790MPD2    H311651   1.197   0.228  13.267 -2.3540  2.1752  1.6283
  790MPD2     N11652   1.022   4.539  13.201  0.2253  0.2087 -0.1814
  790MPD2    H511653   1.007   4.447  13.242 -1.4456  0.2662 -0.6263
  790MPD2    N111654   1.166   4.673  13.633  0.5685 -0.1291 -0.4139
  790MPD2    H711655   1.123   4.585  13.661  1.4210  0.1035  1.6460
  791MPD2     C11656   0.380   4.377  12.975  0.6608  0.0176  0.1098
  791MPD2    C111657   0.466   4.280  12.914  0.0328 -0.0923  0.1460
  791MPD2    C211658   0.420   4.157  12.867  0.2588 -0.2759 -0.2977
  791MPD2    C311659   0.287   4.127  12.875  0.4404 -0.6178  0.3549
  791MPD2    C411660   0.205   4.222  12.942 -0.1639 -0.6378 -0.2246
  791MPD2    C511661   0.249   4.341  12.989 -0.1708  0.8762  0.2431
  791MPD2     H11662   0.489   4.086  12.822  0.8360 -0.6871  1.2246
  791MPD2    H111663   0.098   4.214  12.952 -0.2654  1.0586  0.0980
  791MPD2    H211664   0.406   4.475  13.013  0.1568  0.9443 -1.9378
  791MPD2    H311665   0.178   4.413  13.027  1.6521  1.1037  3.1626
  791MPD2     N11666   0.238   4.000  12.835 -0.3177  0.4420  0.2157
  791MPD2    H511667   0.308   3.941  12.790 -0.4733 -0.7711  1.5429
  791MPD2    N111668   0.608   4.304  12.919  0.6765 -0.0555 -0.6732
  791MPD2    H711669   0.634   4.383  12.977 -2.7594 -0.8221  1.9217
  792MPD2     C11670   1.621   3.828  11.180  0.4418 -0.5128  0.0932
  792MPD2    C111671   1.492   3.860  11.137  0.4173 -0.0195  0.6042
  792MPD2    C211672   1.405   3.761  11.098 -0.2554  0.3273 -0.2311
  792MPD2    C311673   1.452   3.632  11.088 -0.4250  0.7395  0.2009
  792MPD2    C411674   1.586   3.607  11.118  0.3640  0.3433  0.1731
  792MPD2    C511675   1.669   3.704  11.162  0.6100 -0.1161 -0.5521
  792MPD2     H11676   1.302   3.778  11.071 -0.4182 -0.2465  0.0223
  792MPD2    H111677   1.634   3.511  11.103 -2.4421 -1.0865  0.4201
  792MPD2    H211678   1.686   3.906  11.219 -0.5008  0.4670 -0.2712
  792MPD2    H311679   1.763   3.665  11.199  0.0669  1.0034  2.0126
  792MPD2     N11680   1.373   3.517  11.059  0.1392 -0.2337 -0.2886
  792MPD2    H511681   1.422   3.428  11.066  1.3834  0.2031 -3.4778
  792MPD2    N111682   1.467   3.999  11.131 -0.6649 -0.1211 -0.3131
  792MPD2    H711683   1.533   4.066  11.169 -0.8417 -1.0602  1.6439
  793MPD2     C11684   0.723   3.845  10.696  0.7289  0.5210 -0.1742
  793MPD2    C111685   0.856   3.831  10.707  0.1134  0.2833  0.0986
  793MPD2    C211686   0.906   3.745  10.802  0.0412  0.4770  0.0897
  793MPD2    C311687   0.823   3.661  10.875 -0.2495 -0.0250 -0.3595
  793MPD2    C411688   0.686   3.681  10.865  0.3588  0.2097  0.4147
  793MPD2    C511689   0.638   3.775  10.781  0.4519 -0.0300 -0.2703
  793MPD2     H11690   1.012   3.723  10.792 -0.1146  0.3484 -1.3312
  793MPD2    H111691   0.623   3.626  10.934  0.2587 -1.4697 -1.0307
  793MPD2    H211692   0.668   3.907  10.627 -0.4719  0.2645  0.5372
  793MPD2    H311693   0.532   3.783  10.765  0.6703  0.6270 -1.3970
  793MPD2     N11694   0.877   3.568  10.959 -0.0249  0.0115 -0.7451
  793MPD2    H511695   0.973   3.577  10.991 -0.1276 -1.1907 -0.0724
  793MPD2    N111696   0.948   3.900  10.625  0.0529 -0.2362 -0.0760
  793MPD2    H711697   1.048   3.883  10.630 -0.0082 -0.2933  0.9692
  794MPD2     C11698   1.258   3.985  16.993  0.3333 -0.3813 -0.3456
  794MPD2    C111699   1.181   3.875  16.978  0.0896 -0.0453 -0.7806
  794MPD2    C211700   1.078   3.881  16.878  0.3197  0.3701 -0.1176
  794MPD2    C311701   1.065   3.986  16.788 -0.0641 -0.3593 -0.1023
  794MPD2    C411702   1.155   4.092  16.798  0.1744  0.3452 -0.9617
  794MPD2    C511703   1.247   4.092  16.903 -0.3508 -0.8857 -0.0759
  794MPD2     H11704   1.010   3.796  16.879  1.7475 -0.7765  0.1651
  794MPD2    H111705   1.143   4.176  16.730  3.0681  1.1363 -0.4945
  794MPD2    H211706   1.331   3.983  17.073 -1.5362  0.9364  1.3766
  794MPD2    H311707   1.317   4.175  16.906 -1.0922 -0.4556  4.2386
  794MPD2     N11708   0.956   3.983  16.693  0.3576  0.3080  0.2282
  794MPD2    H511709   0.927   4.067  16.645 -0.8651  0.9411  2.0972
  794MPD2    N111710   1.184   3.756  17.054  0.2536 -0.5150 -0.0769
  794MPD2    H711711   1.118   3.680  17.045 -0.7325  0.3394 -0.1598
  795MPD2     C11712   3.854   1.123  13.448  0.9767 -0.1947 -0.3957
  795MPD2    C111713   3.798   0.995  13.433  1.1368  0.0851 -0.0397
  795MPD2    C211714   3.878   0.881  13.459  0.1169 -0.1059 -0.1708
  795MPD2    C311715   4.016   0.900  13.493  0.2283  0.1974 -0.8234
  795MPD2    C411716   4.069   1.028  13.506 -0.1696 -0.1247 -0.5557
  795MPD2    C511717   3.985   1.136  13.488  0.5714 -0.1553 -0.0833
  795MPD2     H11718   3.839   0.781  13.446 -0.8227  0.3941 -1.2499
  795MPD2    H111719   4.174   1.046  13.528 -0.5858  2.4855 -0.6668
  795MPD2    H211720   3.799   1.214  13.427 -0.3492 -0.6110  1.3204
  795MPD2    H311721   4.030   1.234  13.484 -0.4021  0.3341  0.9823
  795MPD2     N11722   4.103   0.784  13.502 -0.3919  0.0553 -0.2609
  795MPD2    H511723   4.061   0.692  13.494  0.7844 -0.5279  0.3377
  795MPD2    N111724   3.668   0.967  13.394 -1.0238 -0.7206  0.1445
  795MPD2    H711725   3.624   0.879  13.419  1.1121 -1.4837  1.2138
  796MPD2     C11726   3.143   2.571  15.854 -1.1660  0.3566 -0.7042
  796MPD2    C111727   3.152   2.643  15.973 -0.5812 -0.6702 -0.4992
  796MPD2    C211728   3.140   2.784  15.974 -0.4160 -0.0671  0.0103
  796MPD2    C311729   3.134   2.851  15.852  0.0566  0.3388 -0.0747
  796MPD2    C411730   3.147   2.782  15.736 -0.0777 -0.2076 -0.4128
  796MPD2    C511731   3.155   2.646  15.738  0.3469 -1.0621  0.0146
  796MPD2     H11732   3.134   2.840  16.067 -1.4611  2.1292 -1.3898
  796MPD2    H111733   3.146   2.833  15.640  0.5339  2.7976  1.1681
  796MPD2    H211734   3.147   2.463  15.849 -0.4779  0.4460 -2.0742
  796MPD2    H311735   3.165   2.595  15.643 -1.8982 -2.5337  0.5678
  796MPD2     N11736   3.126   2.990  15.854 -0.5277  0.9881 -0.1237
  796MPD2    H511737   3.145   3.028  15.946  1.5598  1.5177 -0.7642
  796MPD2    N111738   3.141   2.566  16.090  0.2806 -0.5155  0.0265
  796MPD2    H711739   3.139   2.465  16.078  2.3465 -0.4133 -1.2197
  797MPD2     C11740   3.821   2.139   0.275  0.1348 -0.4759  0.0944
  797MPD2    C111741   3.817   2.268   0.242  0.0966 -0.3972 -0.1464
  797MPD2    C211742   3.716   2.322   0.164  0.0219  0.0872 -0.2209
  797MPD2    C311743   3.606   2.242   0.133  0.8543 -0.4165  0.1192
  797MPD2    C411744   3.606   2.114   0.172 -0.2130  0.3963  0.1462
  797MPD2    C511745   3.715   2.062   0.238 -0.8264 -0.4338 -0.0971
  797MPD2     H11746   3.722   2.427   0.139  1.3210  0.6564  2.4441
  797MPD2    H111747   3.529   2.045   0.141 -0.8470  1.1623 -0.0055
  797MPD2    H211748   3.901   2.091   0.329  0.5454  0.1095  0.0057
  797MPD2    H311749   3.707   1.959   0.272  1.6524  0.3848  2.8977
  797MPD2     N11750   3.504   2.284   0.048 -0.0119 -0.2880 -0.0549
  797MPD2    H511751   3.443   2.214   0.009  0.6462 -1.1629  0.4948
  797MPD2    N111752   3.927   2.357   0.263 -0.4059 -0.2672  0.3239
  797MPD2    H711753   3.912   2.449   0.222 -1.4363 -0.2925  0.6567
  798MPD2     C11754   3.704   2.911  17.537  0.3662  0.3497  0.0914
  798MPD2    C111755   3.681   2.787  17.595 -0.1963  0.0559 -0.0705
  798MPD2    C211756   3.783   2.718  17.656  0.4796  0.3073 -0.0572
  798MPD2    C311757   3.907   2.781  17.669  0.1658  0.1996 -1.2091
  798MPD2    C411758   3.930   2.908  17.624 -0.5071  0.6675 -0.0038
  798MPD2    C511759   3.824   2.967  17.565 -0.1070  0.0586 -0.1154
  798MPD2     H11760   3.756   2.630   0.020  1.0207  1.1650  1.5037
  798MPD2    H111761   4.025   2.960  17.629 -0.4113  0.4741  0.1800
  798MPD2    H211762   3.626   2.971  17.492  0.0360  0.5413  0.9110
  798MPD2    H311763   3.833   3.070  17.533 -0.1260  0.1325  0.1098
  798MPD2     N11764   3.997   2.711   0.052  0.4373 -0.1931  0.3579
  798MPD2    H511765   3.970   2.614   0.051 -2.6244  0.6293  2.3227
  798MPD2    N111766   3.567   2.711  17.584  0.2674 -0.2563  0.3805
  798MPD2    H711767   3.554   2.630  17.643 -0.2972 -0.4292  0.0179
  799MPD2     C11768   2.999   3.945  14.548 -0.1253 -0.3372  0.1433
  799MPD2    C111769   2.876   3.881  14.530  0.6664  0.1748 -0.0950
  799MPD2    C211770   2.797   3.913  14.418 -0.3933 -0.5833  0.7201
  799MPD2    C311771   2.847   3.999  14.315 -0.0571 -0.5036  0.3385
  799MPD2    C411772   2.973   4.048  14.341  1.2905  0.3188 -0.4831
  799MPD2    C511773   3.049   4.022  14.451  0.2509 -0.4891  0.3217
  799MPD2     H11774   2.700   3.865  14.417 -0.9004  0.4594  0.1161
  799MPD2    H111775   3.007   4.116  14.263  1.3863  0.2547 -0.4981
  799MPD2    H211776   3.064   3.931  14.633  0.3339  1.5695  0.1188
  799MPD2    H311777   3.146   4.072  14.459  0.8269 -1.4176 -0.8613
  799MPD2     N11778   2.791   4.041  14.196 -0.2119 -0.3875 -0.0548
  799MPD2    H511779   2.844   4.092  14.126 -1.1036  1.5793  0.6987
  799MPD2    N111780   2.826   3.782  14.611 -0.1006  0.4327  0.5659
  799MPD2    H711781   2.741   3.734  14.581  0.3796 -1.1467  1.7359
  800MPD2     C11782   3.743   0.494  13.727 -0.4884 -1.1881  0.2970
  800MPD2    C111783   3.841   0.501  13.826 -0.3223  0.4333 -0.0540
  800MPD2    C211784   3.887   0.384  13.886 -0.5185  0.4792  0.5392
  800MPD2    C311785   3.833   0.258  13.866 -0.7060  0.5859 -0.0977
  800MPD2    C411786   3.730   0.254  13.771  0.5350 -0.4109 -0.3573
  800MPD2    C511787   3.688   0.368  13.706  0.0640  0.2530  0.0662
  800MPD2     H11788   3.976   0.394  13.947 -0.4096  3.6570 -0.1224
  800MPD2    H111789   3.665   0.169  13.757  1.5631 -1.5570  1.9871
  800MPD2    H211790   3.705   0.580  13.672  0.6457  0.2229  1.7475
  800MPD2    H311791   3.606   0.358  13.637  1.1550  0.8098 -1.3117
  800MPD2     N11792   3.880   0.147  13.936 -0.2201 -0.0546 -0.4391
  800MPD2    H511793   3.955   0.157  14.004  1.0224  3.3599 -2.3374
  800MPD2    N111794   3.924   0.608  13.859  0.2843  0.7624  0.1392
  800MPD2    H711795   3.999   0.594  13.925  0.9804 -1.0550 -1.0374
  801MPD2     C11796   4.100   1.115  14.343  0.8498  0.7583 -0.0234
  801MPD2    C111797   3.997   1.063  14.263  0.2805  0.5284 -0.0645
  801MPD2    C211798   3.881   1.009  14.315  1.2759  0.3712  0.4306
  801MPD2    C311799   3.869   1.001  14.453 -0.6017 -0.4051 -0.2240
  801MPD2    C411800   3.973   1.042  14.533 -0.2313  0.2825  0.3144
  801MPD2    C511801   4.086   1.102  14.476  0.1759 -0.0069 -0.0742
  801MPD2     H11802   3.797   0.993  14.248  1.5470  2.2283 -0.3259
  801MPD2    H111803   3.960   1.037  14.641 -0.7234 -1.7234  0.1709
  801MPD2    H211804   4.200   1.145  14.313  0.2660  1.5390 -1.2209
  801MPD2    H311805   4.163   1.139  14.544  0.6837  0.9792 -1.1903
  801MPD2     N11806   3.751   0.942  14.515 -1.1863 -0.6801  0.3394
  801MPD2    H511807   3.750   0.935  14.617 -2.0969  1.0856  0.4513
  801MPD2    N111808   4.001   1.064  14.120  0.6063  0.5336 -0.3811
  801MPD2    H711809   3.928   1.016  14.070  0.7129  0.9705 -0.9536
  802MPD2     C11810   2.107   1.170  17.350 -0.2195 -0.1067 -0.4732
  802MPD2    C111811   2.203   1.155  17.451  0.6789 -0.3611 -0.3778
  802MPD2    C211812   2.275   1.036  17.458  0.0237  0.4609 -0.2583
  802MPD2    C311813   2.249   0.924  17.374  0.6754 -0.1443 -0.4473
  802MPD2    C411814   2.150   0.946  17.276 -0.8385  0.1523 -0.1788
  802MPD2    C511815   2.094   1.067  17.268  0.2138  0.5877 -0.4125
  802MPD2     H11816   2.347   1.033  17.538 -0.8817  1.3171  0.5911
  802MPD2    H111817   2.118   0.877  17.199 -0.3923 -0.3101  0.0498
  802MPD2    H211818   2.063   1.265  17.321  1.5514  1.0793  0.7188
  802MPD2    H311819   2.034   1.088  17.180 -0.3421  2.6347  0.4557
  802MPD2     N11820   2.329   0.806  17.378  0.2728 -0.2563 -0.1169
  802MPD2    H511821   2.326   0.736  17.304 -0.0170 -1.1444  0.7305
  802MPD2    N111822   2.240   1.251  17.548 -0.9426 -0.5721 -0.1586
  802MPD2    H711823   2.300   1.224  17.626  0.6286 -0.8938 -1.4692
  803MPD2     C11824   4.082   3.859  12.088 -0.6090 -0.0200  0.1088
  803MPD2    C111825   4.141   3.860  12.214  0.7688  0.3197  0.8984
  803MPD2    C211826   4.085   3.797  12.325  0.4435  0.0460 -0.6894
  803MPD2    C311827   3.972   3.728  12.308 -0.3528  0.7081 -1.0893
  803MPD2    C411828   3.925   3.702  12.178  0.0904 -0.1429  0.7987
  803MPD2    C511829   3.977   3.772  12.071 -0.4620  0.4179 -0.3010
  803MPD2     H11830   4.121   3.816  12.425  1.3944  0.2072 -1.0595
  803MPD2    H111831   3.840   3.640  12.154  0.5731 -0.8635  0.9511
  803MPD2    H211832   4.126   3.907  12.001 -0.7562 -2.4180 -1.3163
  803MPD2    H311833   3.921   3.766  11.979 -1.0724  2.2837 -0.0525
  803MPD2     N11834   3.907   3.666  12.414 -0.1978 -0.3732 -0.5599
  803MPD2    H511835   3.958   3.679  12.502  0.3767  0.9437 -1.0862
  803MPD2    N111836   4.241   3.959  12.247 -0.2332  0.7004  0.0121
  803MPD2    H711837   4.248   3.978  12.346  2.4125  0.8871 -0.1994
  804MPD2     C11838   3.464   0.774  16.814 -0.6045 -0.2839 -0.2908
  804MPD2    C111839   3.449   0.753  16.948  0.4438 -0.1384  0.4258
  804MPD2    C211840   3.461   0.868  17.027 -0.4225  0.1623 -0.1971
  804MPD2    C311841   3.498   0.994  16.977 -0.1648  0.0670  0.0245
  804MPD2    C411842   3.511   1.006  16.837  0.3778  0.4111  0.6721
  804MPD2    C511843   3.487   0.902  16.757 -0.5342  0.2996  0.9079
  804MPD2     H11844   3.452   0.852  17.133  1.0684  1.5061  0.1435
  804MPD2    H111845   3.547   1.097  16.791 -1.2735  0.3127 -0.7985
  804MPD2    H211846   3.449   0.692  16.745  0.4203 -1.5568  0.9854
  804MPD2    H311847   3.497   0.912  16.649 -1.5023  0.0833  0.8054
  804MPD2     N11848   3.558   1.091  17.065 -0.3343 -0.8267 -0.5940
  804MPD2    H511849   3.555   1.061  17.162  3.3984  1.2184  0.1779
  804MPD2    N111850   3.419   0.630  17.016  0.0015 -0.2466 -0.5844
  804MPD2    H711851   3.430   0.635  17.117 -2.6392  0.9363 -0.3529
  805MPD2     C11852   2.685   4.231  15.602 -0.2873  0.0842  0.3881
  805MPD2    C111853   2.781   4.178  15.512 -0.9707  0.1955 -1.3476
  805MPD2    C211854   2.907   4.159  15.570 -0.4884  0.1502  0.1854
  805MPD2    C311855   2.944   4.226  15.682  0.1556 -0.2291  0.3700
  805MPD2    C411856   2.848   4.287  15.767 -0.3635 -0.9106  0.6872
  805MPD2    C511857   2.720   4.274  15.729  0.1088  0.3513  0.1021
  805MPD2     H11858   2.982   4.104  15.514 -0.7421 -0.4308  0.4150
  805MPD2    H111859   2.872   4.337  15.859  0.4358  0.1105 -0.0750
  805MPD2    H211860   2.579   4.238  15.581 -0.4972  0.1474  1.4332
  805MPD2    H311861   2.640   4.308  15.794 -0.1751  1.1497 -0.6598
  805MPD2     N11862   3.077   4.237  15.717 -0.3184 -0.5645  0.0553
  805MPD2    H511863   3.151   4.202  15.657  1.4180  1.9246  0.7120
  805MPD2    N111864   2.744   4.126  15.384  0.4218  0.2778  0.1545
  805MPD2    H711865   2.825   4.085  15.337 -1.2012 -2.1284 -0.5634
  806MPD2     C11866   3.201   2.846   0.036 -0.5410  0.4462  0.2552
  806MPD2    C111867   3.264   2.931   0.125  0.6605 -1.1125  0.1297
  806MPD2    C211868   3.299   3.059   0.089 -0.0352 -0.0607 -0.3427
  806MPD2    C311869   3.267   3.094  17.655 -0.2323  0.2909  0.0491
  806MPD2    C411870   3.223   3.006  17.562  0.0750  0.1602 -0.1877
  806MPD2    C511871   3.184   2.886  17.600 -0.1301 -0.1358  0.2210
  806MPD2     H11872   3.343   3.130   0.159 -0.7405 -0.2694  0.3113
  806MPD2    H111873   3.208   3.036  17.458  1.5766 -0.0157 -0.4436
  806MPD2    H211874   3.160   2.750   0.064 -0.3216  0.1418 -0.4684
  806MPD2    H311875   3.152   2.819  17.520 -0.5955  0.3412  0.0074
  806MPD2     N11876   3.292   3.236  17.627  0.0161  0.1007 -0.4578
  806MPD2    H511877   3.312   3.297   0.012  1.5711 -1.0346  0.0266
  806MPD2    N111878   3.290   2.877   0.252 -0.5883 -0.2987  0.2735
  806MPD2    H711879   3.265   2.780   0.268  0.8798 -0.6617  0.3895
  807MPD2     C11880   2.881   2.570   0.826 -0.3052  0.3755 -0.5699
  807MPD2    C111881   2.976   2.647   0.878  0.4683 -0.4095 -0.3431
  807MPD2    C211882   2.956   2.702   1.006  0.2785 -0.4704 -0.2123
  807MPD2    C311883   2.841   2.677   1.077 -0.1000 -0.9817  0.0409
  807MPD2    C411884   2.736   2.604   1.019 -0.4728  0.2593  0.8134
  807MPD2    C511885   2.764   2.557   0.897  0.0341  0.3235 -0.1294
  807MPD2     H11886   3.038   2.756   1.053 -1.6082  0.4119  2.0403
  807MPD2    H111887   2.639   2.585   1.063 -0.6348 -1.1671 -0.1761
  807MPD2    H211888   2.892   2.520   0.730 -4.1210 -0.7976 -0.4404
  807MPD2    H311889   2.686   2.494   0.856 -1.2729  3.1394 -1.9266
  807MPD2     N11890   2.834   2.744   1.199 -0.0850  0.5531  0.4633
  807MPD2    H511891   2.912   2.799   1.233 -0.3038  0.0716  1.7631
  807MPD2    N111892   3.093   2.674   0.816 -0.0223  0.0999 -0.5977
  807MPD2    H711893   3.161   2.725   0.872  0.1912 -1.1096  0.2321
  808MPD2     C11894   3.801   4.255  10.140 -0.1225 -0.1096 -0.2618
  808MPD2    C111895   3.732   4.198  10.034 -0.4865 -0.5526  0.2378
  808MPD2    C211896   3.684   4.282   9.935 -0.4582  0.8343 -0.1237
  808MPD2    C311897   3.711   4.417   9.934  0.9060 -0.4091  0.0440
  808MPD2    C411898   3.788   4.473  10.031  0.9966  0.5702 -0.8733
  808MPD2    C511899   3.826   4.389  10.132  0.6857  0.9774  0.0901
  808MPD2     H11900   3.619   4.234   9.862  1.4651 -0.0053 -1.2774
  808MPD2    H111901   3.818   4.577  10.032 -2.1259  1.4861 -1.8869
  808MPD2    H211902   3.835   4.205  10.230  2.1566 -0.2259 -1.1713
  808MPD2    H311903   3.880   4.426  10.218 -0.0503  2.1679  0.0387
  808MPD2     N11904   3.664   4.506   9.833 -0.0981 -0.5351  0.2108
  808MPD2    H511905   3.690   4.604   9.837 -2.8632  0.1601  1.4061
  808MPD2    N111906   3.698   4.061  10.021  1.1924 -0.1903  0.4169
  808MPD2    H711907   3.655   4.040   9.931 -0.4300  1.7386  0.7372
  809MPD2     C11908   4.193   4.506   9.077  0.4548  0.0114  0.6381
  809MPD2    C111909   4.202   4.611   9.165 -0.2174  0.0049  0.1016
  809MPD2    C211910   4.095   4.624   9.254  0.8598 -0.1773  0.5314
  809MPD2    C311911   3.979   4.551   9.241  0.8650  0.6012  0.0682
  809MPD2    C411912   3.976   4.442   9.168  0.1022  0.5749 -0.9360
  809MPD2    C511913   4.081   4.423   9.087 -0.0684 -0.3354 -0.3385
  809MPD2     H11914   4.102   4.709   9.321 -1.1051  0.2124  0.2295
  809MPD2    H111915   3.883   4.386   9.160  0.4869  0.0442 -1.6983
  809MPD2    H211916   4.264   4.493   8.997 -0.5877 -2.9213  0.1770
  809MPD2    H311917   4.079   4.339   9.019  2.4482 -0.5826 -0.1258
  809MPD2     N11918   3.866   4.577   9.317 -0.2066 -0.3650  0.1119
  809MPD2    H511919   3.802   4.498   9.325  0.0987 -0.6039  0.2039
  809MPD2    N111920   4.308   4.697   9.186  0.1262  0.2902 -0.0259
  809MPD2    H711921   4.303   0.040   9.263  1.1487  2.1231 -1.5439
  810MPD2     C11922   3.568   4.224  10.426 -0.4345  0.2744  0.1486
  810MPD2    C111923   3.474   4.234  10.326  0.0885 -0.2379  0.5451
  810MPD2    C211924   3.429   4.362  10.296  0.0314 -0.1330 -0.6252
  810MPD2    C311925   3.452   4.465  10.379 -0.3973 -0.6553 -0.2674
  810MPD2    C411926   3.543   4.460  10.477  0.4060 -0.1169 -0.0237
  810MPD2    C511927   3.607   4.338  10.495  0.1787 -0.6347 -0.8600
  810MPD2     H11928   3.371   4.376  10.205  0.5181 -1.3123 -1.1227
  810MPD2    H111929   3.552   4.540  10.549 -0.1108  0.1847 -0.2916
  810MPD2    H211930   3.608   4.128  10.457  0.6656  1.3093  1.9218
  810MPD2    H311931   3.673   4.323  10.579  0.0710 -1.1596 -0.8696
  810MPD2     N11932   3.382   4.582  10.352 -0.3422 -0.4042 -0.5199
  810MPD2    H511933   3.426   4.665  10.390 -1.5537  0.0491 -0.1154
  810MPD2    N111934   3.422   4.120  10.260 -0.4747  0.2566  0.1411
  810MPD2    H711935   3.452   4.034  10.305 -0.6238  0.6004  0.9012
  811MPD2     C11936   2.801   4.095   9.681  0.6559 -0.1060 -0.0863
  811MPD2    C111937   2.864   4.169   9.780  0.6790 -1.1845  0.1942
  811MPD2    C211938   2.831   4.306   9.797  0.8287 -0.1339 -0.0089
  811MPD2    C311939   2.737   4.371   9.719  0.0530  0.4921 -0.3819
  811MPD2    C411940   2.676   4.299   9.620  0.0435  0.2670 -0.0522
  811MPD2    C511941   2.715   4.166   9.597 -0.2397  0.4691  0.2296
  811MPD2     H11942   2.880   4.367   9.872 -1.6258 -0.1562  1.6309
  811MPD2    H111943   2.598   4.342   9.558  0.4583 -0.5942 -1.1809
  811MPD2    H211944   2.803   3.987   9.674  0.0686 -0.1032 -0.3268
  811MPD2    H311945   2.672   4.115   9.512  3.1170  0.2757 -1.3360
  811MPD2     N11946   2.702   4.497   9.753 -0.5818  0.0452 -0.2775
  811MPD2    H511947   2.761   4.535   9.827 -0.3266 -0.5423 -0.1776
  811MPD2    N111948   2.956   4.115   9.881 -0.3702 -0.9885 -0.5114
  811MPD2    H711949   2.999   4.173   9.952 -2.6514  1.4355 -1.1245
  812MPD2     C11950   2.206   4.079  12.185 -0.4535 -0.3467 -0.3039
  812MPD2    C111951   2.090   4.115  12.256  0.1205  0.2573 -0.7318
  812MPD2    C211952   2.048   4.034  12.354  0.3847  0.2649  0.5446
  812MPD2    C311953   2.107   3.906  12.382  0.6971 -0.0374 -0.2353
  812MPD2    C411954   2.217   3.866  12.304  0.7834  0.5452  0.3901
  812MPD2    C511955   2.263   3.956  12.210 -0.1601  0.1781 -0.4769
  812MPD2     H11956   1.964   4.063  12.417  0.2200  1.8352 -0.4122
  812MPD2    H111957   2.276   3.777  12.319 -3.3106 -2.1168  0.6678
  812MPD2    H211958   2.247   4.147  12.111  2.4633  0.5939  2.2194
  812MPD2    H311959   2.352   3.927  12.154 -0.3387  0.3721 -0.8566
  812MPD2     N11960   2.062   3.835  12.489 -0.7855  0.4758  0.0783
  812MPD2    H511961   1.981   3.880  12.531 -1.0306  0.2618 -0.1569
  812MPD2    N111962   2.048   4.253  12.228 -0.3982 -0.7752  0.6002
  812MPD2    H711963   2.097   4.301  12.153  0.4447 -1.4133  0.7340
  813MPD2     C11964   2.570   1.940  13.481  1.0599  0.0134  0.3014
  813MPD2    C111965   2.488   2.027  13.407  0.0289 -0.2394  0.5855
  813MPD2    C211966   2.356   1.982  13.367 -0.2309  0.2756  0.0688
  813MPD2    C311967   2.311   1.859  13.416  0.0461 -0.0954 -0.5719
  813MPD2    C411968   2.395   1.778  13.480  0.1365 -0.9147 -0.0351
  813MPD2    C511969   2.521   1.815  13.511  0.5303  0.3088  0.3716
  813MPD2     H11970   2.289   2.059  13.329 -0.6703 -0.8795 -1.4752
  813MPD2    H111971   2.372   1.676  13.509 -0.3368 -0.4294  1.2867
  813MPD2    H211972   2.673   1.957  13.510  1.1724 -0.5304  0.2320
  813MPD2    H311973   2.588   1.742  13.556  0.0103 -0.8025 -0.6867
  813MPD2     N11974   2.177   1.833  13.389  0.6629 -0.2624  0.6084
  813MPD2    H511975   2.132   1.910  13.341 -0.7967 -1.3178  0.2920
  813MPD2    N111976   2.542   2.156  13.387  0.5402 -0.4270 -0.3931
  813MPD2    H711977   2.629   2.183  13.431 -0.8169  0.1993  1.9578
  814MPD2     C11978   1.489   2.809  12.158 -0.2125  0.5229  0.3436
  814MPD2    C111979   1.572   2.814  12.045 -0.0480 -0.2508  0.3132
  814MPD2    C211980   1.680   2.902  12.049  0.1144  0.3551 -0.3282
  814MPD2    C311981   1.708   2.968  12.165 -0.4034  0.5261  0.2651
  814MPD2    C411982   1.623   2.972  12.276  0.6332  0.1235 -0.5386
  814MPD2    C511983   1.512   2.895  12.263 -0.1695  0.2351  0.2731
  814MPD2     H11984   1.738   2.910  11.959  0.2167  2.0737 -0.1161
  814MPD2    H111985   1.650   3.025  12.366  0.2715  0.6223 -0.7275
  814MPD2    H211986   1.407   2.739  12.161 -0.2128  0.6136  2.2213
  814MPD2    H311987   1.436   2.898  12.340  0.4530  2.2283  0.8199
  814MPD2     N11988   1.818   3.060  12.164 -0.2712 -0.0232 -0.5636
  814MPD2    H511989   1.808   3.130  12.237  0.1009  0.3086 -0.8376
  814MPD2    N111990   1.558   2.724  11.935  0.9032 -0.3893 -0.1989
  814MPD2    H711991   1.609   2.744  11.849  0.1162  0.6916 -0.4106
  815MPD2     C11992   2.295   0.978  11.394  0.1712  0.1438  1.1216
  815MPD2    C111993   2.230   0.882  11.474 -0.2027  0.6931 -0.6123
  815MPD2    C211994   2.151   0.926  11.579 -0.1777  0.1831  0.3048
  815MPD2    C311995   2.125   1.058  11.589 -0.9720 -0.0290 -0.3566
  815MPD2    C411996   2.189   1.150  11.518  0.7603 -0.0026  0.2106
  815MPD2    C511997   2.273   1.109  11.417  0.0216 -0.2149  0.4422
  815MPD2     H11998   2.113   0.864  11.660 -0.8052 -0.1131 -0.2060
  815MPD2    H111999   2.173   1.257  11.528 -4.4663 -0.5306 -2.0676
  815MPD2    H212000   2.356   0.942  11.311 -2.6609  0.5913 -1.1546
  815MPD2    H312001   2.322   1.178  11.350  0.2598 -1.6288 -0.8474
  815MPD2     N12002   2.021   1.091  11.677 -0.8077 -0.6731  0.2102
  815MPD2    H512003   1.976   1.017  11.729  1.1670 -1.4343  0.8264
  815MPD2    N112004   2.244   0.748  11.424  0.0734  0.3419  0.7910
  815MPD2    H712005   2.293   0.733  11.336 -0.6038  0.0547  0.4645
  816MPD2     C12006   2.046   0.168  17.163 -0.0346 -0.0535 -0.1227
  816MPD2    C112007   2.089   0.298  17.156 -0.7379 -0.0018 -0.5227
  816MPD2    C212008   2.203   0.330  17.083 -0.0572  0.0632  0.0872
  816MPD2    C312009   2.282   0.232  17.031  0.4296 -0.1951 -0.2606
  816MPD2    C412010   2.237   0.099  17.044  0.6895 -0.1305 -0.5681
  816MPD2    C512011   2.119   0.071  17.104 -0.1177 -0.1868  0.4917
  816MPD2     H12012   2.242   0.430  17.066 -1.0126  0.4274  0.0789
  816MPD2    H112013   2.293   0.020  16.996  1.7412  0.5852 -0.5386
  816MPD2    H212014   1.963   0.140  17.227 -0.6579  0.6429 -0.6229
  816MPD2    H312015   2.082   4.693  17.121 -3.0321  0.2080 -3.6155
  816MPD2     N12016   2.401   0.264  16.969 -0.2895  0.1162 -0.4367
  816MPD2    H512017   2.430   0.361  16.968  0.0892 -0.0103 -3.1676
  816MPD2    N112018   2.026   0.393  17.239  0.1982 -0.0241 -0.2628
  816MPD2    H712019   1.947   0.365  17.296 -0.3302  1.4420 -0.2819
  817MPD2     C12020   1.432   1.284   9.991  0.7556 -0.8925  0.4219
  817MPD2    C112021   1.567   1.295   9.984 -1.1495 -0.0747  0.2473
  817MPD2    C212022   1.623   1.415   9.956  0.6448 -0.3969 -0.0408
  817MPD2    C312023   1.543   1.528   9.932 -0.9415 -1.0231  0.2407
  817MPD2    C412024   1.406   1.512   9.928 -0.3539 -0.1381 -0.3545
  817MPD2    C512025   1.358   1.387   9.958 -0.1132 -0.4246 -0.3604
  817MPD2     H12026   1.729   1.425   9.972  0.9585 -0.4614 -2.0198
  817MPD2    H112027   1.342   1.593   9.896 -2.4705 -1.7157 -0.0959
  817MPD2    H212028   1.383   1.190  10.009  0.6127 -0.4830  2.1100
  817MPD2    H312029   1.251   1.377   9.952  0.0184 -1.5534 -0.7976
  817MPD2     N12030   1.614   1.656   9.931  0.0885 -0.1835  0.1247
  817MPD2    H512031   1.712   1.664   9.956  0.1480 -2.5623  0.6204
  817MPD2    N112032   1.661   1.187  10.000  0.1441 -0.0381 -0.1778
  817MPD2    H712033   1.760   1.210  10.003  0.4431 -1.5203  1.0607
  818MPD2     C12034   0.641   1.793  10.144  0.4345 -0.3467  0.8469
  818MPD2    C112035   0.514   1.741  10.178 -0.2427  0.1071  0.1957
  818MPD2    C212036   0.471   1.622  10.133  0.6309  0.2361  0.7662
  818MPD2    C312037   0.548   1.550  10.047  0.2995  0.5746  0.6715
  818MPD2    C412038   0.673   1.597  10.016  0.2060  0.6073 -0.3810
  818MPD2    C512039   0.718   1.712  10.074 -0.8772 -0.1957  0.4083
  818MPD2     H12040   0.376   1.580  10.166 -0.7882 -1.1498 -5.1524
  818MPD2    H112041   0.738   1.541   9.951  0.8379  0.3582  0.4727
  818MPD2    H212042   0.683   1.887  10.177  0.7282 -0.0656 -0.3317
  818MPD2    H312043   0.817   1.747  10.048 -1.2138  1.6001  1.5949
  818MPD2     N12044   0.521   1.431   9.993 -0.3403  0.0854 -0.0230
  818MPD2    H512045   0.595   1.391   9.935 -0.0681  0.5253  0.0224
  818MPD2    N112046   0.431   1.801  10.283  0.4019  0.4008 -0.2216
  818MPD2    H712047   0.353   1.742  10.308  1.2795 -0.1663  1.1720
  819MPD2     C12048   3.496   3.832  15.520 -0.0946 -0.6122  0.2962
  819MPD2    C112049   3.566   3.714  15.536  0.3446 -0.6105 -0.7278
  819MPD2    C212050   3.695   3.720  15.582 -0.9330 -0.3783 -0.2239
  819MPD2    C312051   3.754   3.837  15.610 -0.0571 -0.3473  0.1674
  819MPD2    C412052   3.692   3.955  15.587  0.4020  0.2618  0.0422
  819MPD2    C512053   3.559   3.949  15.538  0.2663 -0.4540 -0.4842
  819MPD2     H12054   3.759   3.632  15.585 -0.4181 -0.0821 -2.8356
  819MPD2    H112055   3.745   4.046  15.610 -0.8077  1.0883 -0.4414
  819MPD2    H212056   3.400   3.838  15.472 -0.4101 -0.8402  0.8920
  819MPD2    H312057   3.513   4.043  15.510  1.6229  0.8333  1.6108
  819MPD2     N12058   3.889   3.824  15.640 -0.6104  0.3195  0.6897
  819MPD2    H512059   3.936   3.736  15.624  0.3847  1.1918 -1.2363
  819MPD2    N112060   3.495   3.597  15.498  0.7150 -0.4247 -0.0486
  819MPD2    H712061   3.426   3.604  15.424  2.6602  1.7011 -1.6263
  820MPD2     C12062   2.681   3.386  15.018 -0.8227  0.2596  0.0867
  820MPD2    C112063   2.769   3.488  15.055  0.3376  0.4377 -0.0756
  820MPD2    C212064   2.883   3.459  15.125 -0.0144  0.2291  0.3360
  820MPD2    C312065   2.906   3.324  15.169 -0.6553  0.3388 -0.5010
  820MPD2    C412066   2.816   3.226  15.134  0.4383 -0.0943  0.3160
  820MPD2    C512067   2.703   3.256  15.064 -0.2564 -0.0332 -0.4717
  820MPD2     H12068   2.930   3.544  15.173  0.2120  0.3850 -0.1669
  820MPD2    H112069   2.823   3.124  15.171  0.5510  0.0568  0.7155
  820MPD2    H212070   2.585   3.394  14.969  0.6274  0.6960 -2.6760
  820MPD2    H312071   2.620   3.188  15.050  0.0318 -0.8163  1.6000
  820MPD2     N12072   3.023   3.282  15.244  0.3473 -0.3775 -0.1517
  820MPD2    H512073   3.026   3.184  15.272  0.9996  0.1534  1.5935
  820MPD2    N112074   2.730   3.625  15.025  0.4956 -0.0709 -0.6197
  820MPD2    H712075   2.637   3.636  14.985 -0.0352 -2.5893 -0.1118
  821MPD2     C12076   4.330   4.277  13.686  0.6605  0.3318 -0.5186
  821MPD2    C112077   4.267   4.394  13.677  0.4508 -1.0344  0.2930
  821MPD2    C212078   4.300   4.476  13.570 -0.0242 -0.0418 -0.3714
  821MPD2    C312079   4.402   4.453  13.485 -0.8286 -0.5263  0.6030
  821MPD2    C412080   4.470   4.334  13.503  0.2523  0.0062  0.1998
  821MPD2    C512081   4.424   4.243  13.592  0.6233 -0.2427  0.2521
  821MPD2     H12082   4.244   4.569  13.564 -0.6128 -0.3628  0.0618
  821MPD2    H112083   4.566   4.315  13.457  0.5791  1.5977  0.2284
  821MPD2    H212084   4.314   4.199  13.760  1.3146 -0.9941 -1.7772
  821MPD2    H312085   4.473   4.147  13.607  2.3361  0.8014  1.3770
  821MPD2     N12086   4.458   4.546  13.401  0.5496 -0.3304 -0.1935
  821MPD2    H512087   4.546   4.519  13.359  0.5358 -1.2511  0.3548
  821MPD2    N112088   4.166   4.441  13.765 -0.3317  0.1075  0.0194
  821MPD2    H712089   4.125   4.532  13.750 -0.8634  0.0651  1.1582
  822MPD2     C12090   4.045   0.464  15.843  0.5279  0.3248 -0.0905
  822MPD2    C112091   4.072   0.397  15.962 -0.0204  0.6877 -0.1217
  822MPD2    C212092   4.018   0.450  16.077  0.2192  0.3818  0.8085
  822MPD2    C312093   3.936   0.559  16.078  0.8255  0.0413 -0.2489
  822MPD2    C412094   3.882   0.603  15.965 -0.7604  0.6149 -0.2446
  822MPD2    C512095   3.945   0.551  15.852  0.4199  0.3283 -0.6961
  822MPD2     H12096   4.034   0.403  16.173  0.1059  2.4396  1.8178
  822MPD2    H112097   3.795   0.666  15.951 -0.0133  2.0194  1.4546
  822MPD2    H212098   4.094   0.433  15.751 -0.1037 -0.7534 -0.0628
  822MPD2    H312099   3.906   0.590  15.759  1.0311  1.5622 -0.4523
  822MPD2     N12100   3.890   0.611  16.204 -0.3177  0.4613 -0.6491
  822MPD2    H512101   3.918   0.571  16.293 -3.3419  2.5077  1.2019
  822MPD2    N112102   4.167   0.296  15.975  0.2914  0.5275  0.4084
  822MPD2    H712103   4.192   0.268  16.070 -1.6173 -0.1752  0.7180
  823MPD2     C12104   3.758   0.670  17.046  0.2262  0.0281 -0.9460
  823MPD2    C112105   3.816   0.611  16.934  1.1815  0.3437  0.1034
  823MPD2    C212106   3.866   0.476  16.947 -0.2066  0.5004 -0.4793
  823MPD2    C312107   3.862   0.399  17.067  0.1093 -0.0374 -0.6051
  823MPD2    C412108   3.801   0.466  17.170 -0.5295  0.0483  0.2124
  823MPD2    C512109   3.757   0.595  17.155 -0.4639 -0.0408  0.5138
  823MPD2     H12110   3.910   0.429  16.860  1.0445  1.8370 -0.5769
  823MPD2    H112111   3.799   0.418  17.267 -0.4160 -0.4991 -0.0559
  823MPD2    H212112   3.719   0.771  17.043  0.3488  0.1073  0.3818
  823MPD2    H312113   3.711   0.626  17.248  0.6312  0.1417  0.9966
  823MPD2     N12114   3.931   0.281  17.088  0.6107  0.0931 -0.1666
  823MPD2    H512115   3.909   0.241  17.179  0.1170 -0.8380 -0.7008
  823MPD2    N112116   3.815   0.681  16.808 -0.1490  0.4481 -0.4300
  823MPD2    H712117   3.780   0.777  16.811 -0.1989  0.4716 -2.1971
  824MPD2     C12118   4.485   4.313  15.576  0.1532 -0.4319  0.5071
  824MPD2    C112119   4.584   4.373  15.653 -0.2603 -0.3805  0.0753
  824MPD2    C212120   4.713   4.332  15.639 -0.4113 -0.5328 -0.0526
  824MPD2    C312121   0.020   4.241  15.535  0.8441  0.9246  0.1885
  824MPD2    C412122   4.644   4.185  15.457 -0.5648 -0.1962 -0.2755
  824MPD2    C512123   4.516   4.218  15.483 -0.7507 -0.2994 -0.3184
  824MPD2     H12124   0.069   4.383  15.692 -0.1990 -0.2957 -0.5979
  824MPD2    H112125   4.668   4.112  15.380  1.4662  2.5183 -2.2448
  824MPD2    H212126   4.382   4.347  15.579 -0.1192 -1.2726  0.8059
  824MPD2    H312127   4.443   4.167  15.422 -1.2540 -0.9057  0.7820
  824MPD2     N12128   0.157   4.224  15.509 -0.1220  0.2649 -0.2039
  824MPD2    H512129   0.216   4.277  15.572 -0.5618  1.5599 -0.8900
  824MPD2    N112130   4.556   4.476  15.746 -0.0659  0.6942 -0.0441
  824MPD2    H712131   4.630   4.514  15.806 -0.7216  0.0253  1.1956
  825MPD2     C12132   0.972   4.498  15.480 -0.0532 -0.3164 -0.4222
  825MPD2    C112133   0.837   4.532  15.481  0.8230  0.0340  0.4215
  825MPD2    C212134   0.799   4.667  15.485  0.3717  0.5457  0.2429
  825MPD2    C312135   0.891   0.045  15.493 -0.4038  0.3838 -0.1315
  825MPD2    C412136   1.024   0.004  15.506  0.0905 -0.4969  0.8828
  825MPD2    C512137   1.063   4.596  15.492 -0.1960 -0.3674 -0.3470
  825MPD2     H12138   0.692   4.683  15.478  0.1177 -1.4276 -0.5208
  825MPD2    H112139   1.106   0.070  15.531  1.0257 -1.9263  1.6230
  825MPD2    H212140   0.989   4.392  15.492 -1.3072 -0.3299  1.1399
  825MPD2    H312141   1.169   4.575  15.479 -0.1579 -1.1015  1.1076
  825MPD2     N12142   0.857   0.178  15.503  0.3319 -0.1563  0.4858
  825MPD2    H512143   0.934   0.243  15.517  1.0595 -1.0872  0.8773
  825MPD2    N112144   0.755   4.417  15.481 -0.0112  0.0698 -0.4722
  825MPD2    H712145   0.807   4.330  15.473 -1.1846 -0.5885 -1.1636
  826MPD2     C12146   0.105   3.750  13.759 -0.2707  0.1720 -0.3792
  826MPD2    C112147   0.165   3.862  13.705  0.7431  0.5651  0.2414
  826MPD2    C212148   0.118   3.988  13.741  0.0032  0.0898  0.6890
  826MPD2    C312149   4.722   4.003  13.814 -0.1294 -0.8992 -0.1214
  826MPD2    C412150   4.661   3.889  13.854 -0.2559  0.3165 -0.0614
  826MPD2    C512151   4.709   3.763  13.827  0.3679 -0.2248  0.7637
  826MPD2     H12152   0.176   4.072  13.703 -1.1635  0.6368  0.1203
  826MPD2    H112153   4.567   3.890  13.908 -0.4203  0.8607 -0.3541
  826MPD2    H212154   0.143   3.652  13.734 -0.5203  0.2517 -1.0614
  826MPD2    H312155   4.661   3.675  13.868  2.9014 -1.1620  1.7130
  826MPD2     N12156   4.668   4.129  13.850 -0.2630 -0.3044  0.1448
  826MPD2    H512157   4.585   4.136  13.908 -0.1375 -1.4287  0.4670
  826MPD2    N112158   0.271   3.844  13.611  0.3719  0.2441  0.4547
  826MPD2    H712159   0.299   3.747  13.600  1.7866  0.7108 -0.0893
  827MPD2     C12160   0.591   0.418  10.172  0.3248  0.5349  0.2438
  827MPD2    C112161   0.625   0.290  10.207  0.0869 -0.6275 -0.0091
  827MPD2    C212162   0.570   0.175  10.149  0.4316  0.5320  0.3925
  827MPD2    C312163   0.469   0.192  10.060 -0.3890 -0.8561 -0.0975
  827MPD2    C412164   0.422   0.320  10.031  0.3063  0.5090  0.2941
  827MPD2    C512165   0.483   0.429  10.088  0.5997  0.1548  0.6875
  827MPD2     H12166   0.607   0.077  10.177 -0.4104  0.4115  1.0948
  827MPD2    H112167   0.345   0.348   9.960  0.3110 -2.6131 -0.9355
  827MPD2    H212168   0.634   0.504  10.222  0.9054 -1.0674  2.4668
  827MPD2    H312169   0.442   0.523  10.052  1.0300  1.3144  3.2261
  827MPD2     N12170   0.421   0.077  10.000 -0.4928 -0.2480 -0.3591
  827MPD2    H512171   0.464   4.714  10.034  0.0646 -0.0990 -0.6912
  827MPD2    N112172   0.732   0.289  10.301 -0.8064 -0.0208 -0.1222
  827MPD2    H712173   0.799   0.365  10.302  0.1027 -0.8134  0.0023
  828MPD2     C12174   3.753   0.467  11.807 -0.0076 -0.4314 -0.2878
  828MPD2    C112175   3.779   0.337  11.795 -0.4740 -0.1082 -0.0695
  828MPD2    C212176   3.874   0.291  11.707  0.3557  0.0195 -0.2202
  828MPD2    C312177   3.962   0.373  11.639 -0.1644  0.0828  0.3961
  828MPD2    C412178   3.927   0.513  11.645 -0.3750 -0.2278 -0.4296
  828MPD2    C512179   3.830   0.556  11.736 -0.4593 -0.4941  0.6199
  828MPD2     H12180   3.890   0.185  11.694 -0.5219 -0.0226 -0.9998
  828MPD2    H112181   3.990   0.584  11.593 -1.2758  0.1644 -0.9937
  828MPD2    H212182   3.681   0.504  11.879 -0.4533 -1.1584 -0.3582
  828MPD2    H312183   3.802   0.660  11.746  0.9236  0.2869 -3.8062
  828MPD2     N12184   4.055   0.317  11.543  0.2346 -0.0285  0.1849
  828MPD2    H512185   4.091   0.375  11.468  0.9504  1.1779  1.4654
  828MPD2    N112186   3.704   0.251  11.874 -0.3527 -0.2713  0.3948
  828MPD2    H712187   3.620   0.293  11.913  0.5306  0.9756  0.9365
  829MPD2     C12188   3.027   4.299  11.600  0.1992  0.1700  0.5213
  829MPD2    C112189   3.013   4.428  11.629  0.6039  0.0153 -0.2963
  829MPD2    C212190   3.099   4.487  11.716  0.7904  0.0589  0.8341
  829MPD2    C312191   3.211   4.424  11.765  0.0688  0.1538  0.0475
  829MPD2    C412192   3.234   4.292  11.719  0.5176  0.3915 -0.3145
  829MPD2    C512193   3.138   4.233  11.642 -0.0462 -0.3186 -0.0722
  829MPD2     H12194   3.092   4.590  11.751 -1.6370  0.2640 -0.2020
  829MPD2    H112195   3.312   4.226  11.753 -0.1617 -0.2667 -0.0397
  829MPD2    H212196   2.966   4.246  11.527  0.4174 -0.4295  0.7771
  829MPD2    H312197   3.151   4.128  11.618  1.9927  0.0999 -0.8374
  829MPD2     N12198   3.291   4.494  11.857  0.1076 -0.2912 -0.0997
  829MPD2    H512199   3.253   4.580  11.897  3.8290  1.9094 -1.2448
  829MPD2    N112200   2.896   4.493  11.579 -0.2788  0.7008  0.3526
  829MPD2    H712201   2.826   4.441  11.527 -0.1645  0.8390  0.0648
  830MPD2     C12202   4.452   3.263  15.530 -0.4888 -0.3464  0.6664
  830MPD2    C112203   4.338   3.334  15.505  0.0519  0.1299  0.0505
  830MPD2    C212204   4.242   3.289  15.411  0.3169  1.2581  0.1966
  830MPD2    C312205   4.266   3.167  15.347 -0.5144  0.9278  0.1663
  830MPD2    C412206   4.382   3.091  15.381  0.4348  0.0616 -0.0494
  830MPD2    C512207   4.462   3.134  15.483 -0.4792  0.2580 -0.0459
  830MPD2     H12208   4.168   3.355  15.369 -0.0048  0.6778 -0.1510
  830MPD2    H112209   4.407   2.991  15.349  0.2648  0.4727 -1.4559
  830MPD2    H212210   4.533   3.301  15.591 -1.2676 -0.2244  1.6201
  830MPD2    H312211   4.532   3.067  15.530  1.9316  2.6621 -0.2119
  830MPD2     N12212   4.180   3.107  15.248 -0.0709  0.3538  0.1285
  830MPD2    H512213   4.217   3.030  15.193  0.9815 -1.1411  2.9451
  830MPD2    N112214   4.325   3.465  15.569  0.1185  0.1885 -0.1466
  830MPD2    H712215   4.394   3.488  15.640 -1.7379  0.3447  1.6117
  831MPD2     C12216   4.217   0.643  16.416 -0.1323 -0.5555  0.3438
  831MPD2    C112217   4.256   0.571  16.306  0.7177 -0.1466 -0.4126
  831MPD2    C212218   4.249   0.433  16.312 -0.5378  1.0148  0.2458
  831MPD2    C312219   4.182   0.369  16.417 -0.0701 -0.3271  0.0059
  831MPD2    C412220   4.127   0.448  16.518 -0.1793 -0.7892 -0.0078
  831MPD2    C512221   4.150   0.582  16.519 -0.1473 -0.7870 -0.0716
  831MPD2     H12222   4.305   0.372  16.242 -2.2648  0.4068 -0.6111
  831MPD2    H112223   4.071   0.403  16.599 -0.9401 -0.1578 -0.1865
  831MPD2    H212224   4.236   0.749  16.423  0.3945 -0.8351  3.2321
  831MPD2    H312225   4.127   0.643  16.605 -1.9526 -1.4653 -0.0778
  831MPD2     N12226   4.166   0.232  16.425 -0.2219 -0.2446  0.4487
  831MPD2    H512227   4.122   0.195  16.509 -1.4490 -0.6008 -0.3494
  831MPD2    N112228   4.321   0.644  16.200 -0.6874 -0.8981  0.0515
  831MPD2    H712229   4.302   0.744  16.193  0.9959 -0.6721 -1.3371
  832MPD2     C12230   2.649   1.465  17.427 -0.6274  0.9450 -0.4222
  832MPD2    C112231   2.575   1.578  17.448  0.5516 -0.3176  0.1203
  832MPD2    C212232   2.459   1.597  17.374  0.9070  0.2763  0.2612
  832MPD2    C312233   2.420   1.507  17.280  0.2439 -0.3217  0.1335
  832MPD2    C412234   2.485   1.391  17.270  0.2861  0.3305 -0.8716
  832MPD2    C512235   2.596   1.371  17.342  0.2544 -0.1181  0.4034
  832MPD2     H12236   2.427   1.700  17.362 -0.2338  0.0894  1.6515
  832MPD2    H112237   2.458   1.318  17.195 -0.9689 -1.6991  1.5486
  832MPD2    H212238   2.739   1.438  17.482 -1.9773 -2.0848  0.2852
  832MPD2    H312239   2.646   1.278  17.319  0.1463  0.1094 -0.7692
  832MPD2     N12240   2.319   1.521  17.184  0.2901  0.2580 -0.8789
  832MPD2    H512241   2.292   1.437  17.135  2.2352 -1.5658  1.1737
  832MPD2    N112242   2.616   1.683  17.536 -0.6125 -0.1460  0.0492
  832MPD2    H712243   2.711   1.676  17.571 -0.8584  1.1122  0.9840
  833MPD2     C12244   4.675   3.050  12.786  0.8231  0.2634 -0.2401
  833MPD2    C112245   4.694   3.135  12.675  0.3416 -0.3080  1.0280
  833MPD2    C212246   0.085   3.117  12.600  0.0145 -0.3432  0.7525
  833MPD2    C312247   0.180   3.019  12.627  0.4017  0.4117  0.1921
  833MPD2    C412248   0.150   2.932  12.728  0.0522 -0.6733  0.0358
  833MPD2    C512249   0.045   2.954  12.808  0.4332  0.0574 -0.6933
  833MPD2     H12250   0.102   3.178  12.512 -1.4895  0.3036  0.9048
  833MPD2    H112251   0.217   2.852  12.756 -0.2796 -0.7577  0.5950
  833MPD2    H212252   4.601   3.080  12.860  1.8950  0.7923  0.6109
  833MPD2    H312253   0.033   2.880  12.887  3.6198 -0.2656 -0.5313
  833MPD2     N12254   0.283   2.982  12.538 -0.3758  0.6945  0.0671
  833MPD2    H512255   0.345   2.908  12.568 -3.8083 -0.5173  4.2614
  833MPD2    N112256   4.594   3.232  12.644  0.0639 -0.3409  0.0659
  833MPD2    H712257   4.499   3.222  12.678 -0.9121  0.7796 -2.3100
  834MPD2     C12258   4.587   2.365  11.968  0.2268 -0.5840  0.0907
  834MPD2    C112259   4.622   2.451  11.870  0.0876  0.5296 -0.2256
  834MPD2    C212260   4.711   2.560  11.891  0.1257  0.1354  0.2066
  834MPD2    C312261   0.052   2.572  12.018  0.2418  0.5688  0.1137
  834MPD2    C412262   0.015   2.473  12.113 -0.3988  0.0542 -0.1795
  834MPD2    C512263   4.655   2.371  12.082 -0.4183  0.0840  0.2931
  834MPD2     H12264   0.011   2.631  11.812  0.8581 -0.0810  0.2181
  834MPD2    H112265   0.068   2.468  12.207 -0.4565 -2.3010 -0.2509
  834MPD2    H212266   4.509   2.290  11.956  0.4535 -0.8438  0.2315
  834MPD2    H312267   4.628   2.304  12.162 -0.0847  0.2324  0.5293
  834MPD2     N12268   0.151   2.676  12.039 -0.4105 -0.0004  0.1168
  834MPD2    H512269   0.157   2.749  11.968 -0.6383 -1.3467 -1.2901
  834MPD2    N112270   4.575   2.424  11.741 -0.4719 -0.0631  0.1989
  834MPD2    H712271   4.525   2.338  11.719  0.2267 -1.1615  2.9563
  835MPD2     C12272   4.636   0.452  10.769 -0.6968 -0.4284 -0.3089
  835MPD2    C112273   4.534   0.362  10.812  0.2705  0.0761  0.6799
  835MPD2    C212274   4.561   0.238  10.858 -0.3549  0.5188  0.2945
  835MPD2    C312275   4.688   0.199  10.885  0.1988  0.4693  0.1294
  835MPD2    C412276   0.070   0.283  10.840  0.5996 -0.3328 -0.1246
  835MPD2    C512277   0.045   0.404  10.780  0.2986  0.2733  0.8222
  835MPD2     H12278   4.475   0.181  10.890 -0.9428  1.1979 -0.0827
  835MPD2    H112279   0.175   0.261  10.855  0.1822 -2.9849 -1.0929
  835MPD2    H212280   4.622   0.553  10.730 -1.3739 -0.5237 -0.3052
  835MPD2    H312281   0.119   0.471  10.740 -0.6173  0.1124 -1.1720
  835MPD2     N12282   0.009   0.078  10.939 -0.0766  0.1244  0.3276
  835MPD2    H512283   0.109   0.068  10.953 -0.0026  1.8369  0.9636
  835MPD2    N112284   4.404   0.407  10.815 -0.1695  0.1643 -0.0218
  835MPD2    H712285   4.341   0.355  10.876 -1.5068 -0.9771 -2.3724
  836MPD2     C12286   4.531   0.113  11.622  0.4170  0.1995  0.0250
  836MPD2    C112287   4.528   4.696  11.592 -0.0176  0.0640  1.0437
  836MPD2    C212288   4.474   4.612  11.688  0.1549 -0.2852  0.2318
  836MPD2    C312289   4.419   4.667  11.809  0.4605 -0.0362  0.2292
  836MPD2    C412290   4.419   0.084  11.820  0.2006  0.8888 -0.6134
  836MPD2    C512291   4.477   0.167  11.728 -0.5517  0.2980  0.2171
  836MPD2     H12292   4.464   4.505  11.674 -1.6604 -0.4572  2.9975
  836MPD2    H112293   4.370   0.139  11.899 -0.1241 -0.6542  0.2515
  836MPD2    H212294   4.577   0.190  11.560  0.4876  1.1355  1.2311
  836MPD2    H312295   4.475   0.274  11.742  2.3367  0.5578 -1.6308
  836MPD2     N12296   4.352   4.592  11.912 -0.0882  0.9967 -0.0957
  836MPD2    H512297   4.307   4.638  11.991 -0.1926  0.3069  0.2477
  836MPD2    N112298   4.580   4.651  11.464 -0.1596  0.4962  0.1082
  836MPD2    H712299   4.598   4.715  11.387 -1.4049  1.4821  0.6171
  837MPD2     C12300   3.042   0.411  10.002  0.0976  0.5851  0.1042
  837MPD2    C112301   2.963   0.440   9.892 -0.0690  1.0454 -0.3677
  837MPD2    C212302   2.959   0.572   9.846 -0.1763 -0.3120 -0.1871
  837MPD2    C312303   3.007   0.675   9.922  0.2618  0.5286 -0.1784
  837MPD2    C412304   3.080   0.649  10.030 -0.1727 -0.0350  0.0584
  837MPD2    C512305   3.094   0.518  10.072 -0.3456 -0.1511 -0.1692
  837MPD2     H12306   2.892   0.598   9.765 -0.8320 -1.0773  0.1125
  837MPD2    H112307   3.120   0.719  10.102 -1.1523 -1.2544  1.8094
  837MPD2    H212308   3.048   0.316  10.054  0.5161  1.0140  0.8458
  837MPD2    H312309   3.142   0.488  10.164 -2.8237 -0.3207  1.0543
  837MPD2     N12310   2.966   0.810   9.893  0.0496 -0.1654  0.5471
  837MPD2    H512311   2.926   0.830   9.802 -0.4830 -1.5152  0.4808
  837MPD2    N112312   2.873   0.351   9.836 -0.4271 -0.3596  0.3193
  837MPD2    H712313   2.817   0.382   9.758  1.2062  1.5634 -0.0929
  838MPD2     C12314   1.574   3.735  11.932  0.0381  0.2591  0.0906
  838MPD2    C112315   1.514   3.615  11.909  0.0360  0.3427 -0.7161
  838MPD2    C212316   1.419   3.575  11.997  0.2157  0.1302 -0.4062
  838MPD2    C312317   1.375   3.643  12.109  0.7313  0.1572  0.9602
  838MPD2    C412318   1.432   3.768  12.120  0.0337 -0.1210  0.1940
  838MPD2    C512319   1.531   3.806  12.037  0.2802  0.2219  0.5883
  838MPD2     H12320   1.373   3.479  11.977  1.5680 -0.4148 -0.9188
  838MPD2    H112321   1.406   3.834  12.202  1.2846  0.5972  0.0037
  838MPD2    H212322   1.663   3.772  11.883 -0.2899  0.0683 -0.6503
  838MPD2    H312323   1.573   3.905  12.050 -0.2846  0.6282 -0.7662
  838MPD2     N12324   1.289   3.584  12.205  0.6821  0.3460 -0.7308
  838MPD2    H512325   1.258   3.492  12.179 -0.6296  0.2394  1.2019
  838MPD2    N112326   1.536   3.525  11.803  0.6793 -0.2312 -0.1738
  838MPD2    H712327   1.485   3.438  11.804  0.8729 -0.3728 -2.5453
  839MPD2     C12328   1.174   2.816  11.784 -0.3115 -0.6414 -0.3667
  839MPD2    C112329   1.218   2.823  11.659  0.5654  0.3231 -0.7834
  839MPD2    C212330   1.321   2.899  11.636  0.1482 -0.0510 -0.4111
  839MPD2    C312331   1.387   2.976  11.730 -0.6194  0.4413  0.6958
  839MPD2    C412332   1.346   2.958  11.863  0.3335 -0.1044 -0.1397
  839MPD2    C512333   1.244   2.873  11.890  0.4948 -0.7110  0.1754
  839MPD2     H12334   1.353   2.898  11.532  1.8556  0.7824  0.0938
  839MPD2    H112335   1.394   3.021  11.936  0.0347  0.4317 -0.4047
  839MPD2    H212336   1.079   2.767  11.802  0.1765 -1.1325  0.9222
  839MPD2    H312337   1.210   2.856  11.992 -0.8059 -4.4836 -0.8636
  839MPD2     N12338   1.498   3.062  11.705 -0.4045 -0.8628 -0.9258
  839MPD2    H512339   1.542   3.107  11.785  0.5987 -0.7562 -1.5342
  839MPD2    N112340   1.161   2.750  11.552 -0.4894  0.3646  0.5876
  839MPD2    H712341   1.207   2.742  11.462 -0.5229  0.1380  0.5909
  840MPD2     C12342   1.230   0.648  10.249 -0.0498  0.8472 -0.4132
  840MPD2    C112343   1.263   0.575  10.363 -0.7515 -0.4414  0.8589
  840MPD2    C212344   1.387   0.600  10.425  0.8775  0.2727  0.2111
  840MPD2    C312345   1.474   0.704  10.372 -0.4126  0.4784  0.0646
  840MPD2    C412346   1.426   0.778  10.269 -0.6164 -0.1767 -0.1622
  840MPD2    C512347   1.308   0.753  10.204 -1.0559  0.0359  0.0880
  840MPD2     H12348   1.419   0.549  10.515  2.1301 -0.9631 -0.9468
  840MPD2    H112349   1.483   0.868  10.249  0.5581 -0.8791  0.0278
  840MPD2    H212350   1.134   0.624  10.204  0.6658  1.0303 -2.0524
  840MPD2    H312351   1.275   0.825  10.130 -0.6545  1.2124  1.0660
  840MPD2     N12352   1.595   0.738  10.424  0.0922 -0.4948  0.4597
  840MPD2    H512353   1.632   0.826  10.389  0.7691 -0.5164  1.1157
  840MPD2    N112354   1.166   0.480  10.405  0.3678 -0.2913  0.0945
  840MPD2    H712355   1.080   0.470  10.351  0.2107 -1.3418  0.5364
  841MPD2     C12356   1.314   1.215  14.236  0.9107 -0.6909  0.3417
  841MPD2    C112357   1.444   1.197  14.193 -0.3403 -0.0236 -0.3153
  841MPD2    C212358   1.533   1.136  14.281  0.3135  0.1270 -0.3275
  841MPD2    C312359   1.496   1.105  14.409  0.0083 -0.2445  0.2335
  841MPD2    C412360   1.362   1.115  14.442  0.7912 -0.2435  0.2431
  841MPD2    C512361   1.270   1.173  14.355 -0.3454  0.0991 -0.5690
  841MPD2     H12362   1.632   1.126  14.237  0.9452  2.4975  0.5444
  841MPD2    H112363   1.329   1.083  14.540 -2.8625  2.7809 -0.0391
  841MPD2    H212364   1.244   1.270  14.174 -0.5595 -1.8914  0.9556
  841MPD2    H312365   1.164   1.182  14.376 -0.1567  0.0921  0.3618
  841MPD2     N12366   1.600   1.054  14.493 -0.3500  0.0641  0.3488
  841MPD2    H512367   1.695   1.048  14.457  0.6546  1.0728  2.8218
  841MPD2    N112368   1.492   1.229  14.062  0.2141 -0.4790  0.4487
  841MPD2    H712369   1.590   1.217  14.039  0.0916 -0.1815 -0.2314
  842MPD2     C12370   1.947   1.914  17.143  0.4040 -0.2329  0.0445
  842MPD2    C112371   1.835   1.837  17.122 -0.0170 -0.2593 -0.0181
  842MPD2    C212372   1.797   1.745  17.219 -0.6219  0.5860  0.3419
  842MPD2    C312373   1.865   1.737  17.335 -0.2582  1.1989 -0.1777
  842MPD2    C412374   1.968   1.820  17.356  0.2473  0.6792  0.4849
  842MPD2    C512375   2.009   1.904  17.258  0.1541  0.5520 -0.5476
  842MPD2     H12376   1.732   1.662  17.193 -3.1537  2.6075  0.2028
  842MPD2    H112377   2.021   1.810  17.449 -0.8928  1.1040  1.1773
  842MPD2    H212378   1.993   1.980  17.070 -1.6585  2.3628  1.0890
  842MPD2    H312379   2.086   1.978  17.276 -0.3576  0.6656  1.2463
  842MPD2     N12380   1.835   1.649  17.442  0.0084 -0.4494  0.1623
  842MPD2    H512381   1.915   1.623  17.499  0.0204  0.2212  0.4596
  842MPD2    N112382   1.777   1.858  16.994  0.0312 -0.0679  0.4205
  842MPD2    H712383   1.810   1.928  16.928 -0.8919 -0.2701 -0.2554
  843MPD2     C12384   3.621   2.747   0.269  0.3580  0.7928 -0.3397
  843MPD2    C112385   3.685   2.671   0.366  0.4145 -0.9767  1.0895
  843MPD2    C212386   3.808   2.718   0.413 -0.4958 -0.3794  0.5351
  843MPD2    C312387   3.872   2.827   0.360  0.7246 -0.8625  0.0070
  843MPD2    C412388   3.808   2.901   0.262 -0.4588 -0.3408 -0.5543
  843MPD2    C512389   3.681   2.860   0.220  0.2168  0.1887  0.2176
  843MPD2     H12390   3.857   2.657   0.489 -0.7758 -1.5366 -0.2116
  843MPD2    H112391   3.845   2.992   0.215 -0.3752 -0.7672 -1.3077
  843MPD2    H212392   3.529   2.702   0.234  0.6062  0.1730 -0.2057
  843MPD2    H312393   3.642   2.906   0.130 -0.2174 -0.3069  0.1504
  843MPD2     N12394   3.999   2.877   0.409  0.4210 -0.8836 -0.0194
  843MPD2    H512395   4.038   2.963   0.372  1.6163 -2.1108 -1.6175
  843MPD2    N112396   3.623   2.548   0.392 -0.4619 -0.5766 -0.4918
  843MPD2    H712397   3.544   2.528   0.332 -1.0478  3.2338 -0.9654
  844MPD2     C12398   2.445   1.614  16.280 -0.0020  0.1511  0.0762
  844MPD2    C112399   2.481   1.484  16.313  0.1575  0.4220 -0.4209
  844MPD2    C212400   2.487   1.439  16.443 -0.5502 -0.3977  0.6897
  844MPD2    C312401   2.472   1.533  16.542 -0.2470 -0.2468 -0.5586
  844MPD2    C412402   2.427   1.658  16.513  0.1603  0.6610 -0.4003
  844MPD2    C512403   2.428   1.700  16.381  0.2855  0.3470  0.3799
  844MPD2     H12404   2.516   1.339  16.473 -0.7993 -0.8962 -0.7398
  844MPD2    H112405   2.401   1.731  16.589 -0.6850 -0.4092  0.3159
  844MPD2    H212406   2.461   1.640  16.176  0.0433  0.1168  0.0743
  844MPD2    H312407   2.405   1.803  16.357 -0.4539 -0.0494 -0.6278
  844MPD2     N12408   2.486   1.488  16.674  0.3735  0.5537  0.4390
  844MPD2    H512409   2.501   1.388  16.684  2.6336  0.7334 -1.0938
  844MPD2    N112410   2.500   1.392  16.210 -0.8223  0.6983 -0.3758
  844MPD2    H712411   2.461   1.424  16.122  1.3462 -0.5386 -1.8059
  845MPD2     C12412   2.713   2.216  17.271 -0.3000 -0.5209 -0.9538
  845MPD2    C112413   2.591   2.161  17.313  0.2797  0.1933  0.1170
  845MPD2    C212414   2.579   2.025  17.303  0.2719  0.7369 -0.2007
  845MPD2    C312415   2.671   1.953  17.226 -0.8469  0.2775  0.2134
  845MPD2    C412416   2.780   2.016  17.172 -0.2257  0.3501 -1.4085
  845MPD2    C512417   2.801   2.145  17.194  0.2202  0.3760 -0.8820
  845MPD2     H12418   2.496   1.973  17.349  1.0430  0.9980  1.4569
  845MPD2    H112419   2.838   1.969  17.094  1.4867 -1.8304  1.2185
  845MPD2    H212420   2.734   2.320  17.295 -1.6227 -0.8205  1.5310
  845MPD2    H312421   2.884   2.193  17.143  1.7515  0.7022  1.9349
  845MPD2     N12422   2.650   1.813  17.196 -0.2390  0.5426  0.5180
  845MPD2    H512423   2.556   1.777  17.211  0.0689  0.1772  1.6266
  845MPD2    N112424   2.493   2.249  17.366  0.1238 -0.3653 -0.4624
  845MPD2    H712425   2.513   2.349  17.361 -0.4000 -0.2627 -0.4579
  846MPD2     C12426   3.838   2.323  13.453  0.0508 -0.7851 -0.3504
  846MPD2    C112427   3.875   2.454  13.491 -0.2245 -0.7052  0.5436
  846MPD2    C212428   3.820   2.499  13.613  0.6960  0.3206  0.6044
  846MPD2    C312429   3.737   2.433  13.690  0.1954 -0.8922 -0.3524
  846MPD2    C412430   3.695   2.304  13.647  0.3734 -0.2747 -0.2299
  846MPD2    C512431   3.747   2.253  13.530 -0.1335  0.1919 -0.1129
  846MPD2     H12432   3.854   2.593  13.654 -1.1391  2.4619 -2.8701
  846MPD2    H112433   3.635   2.243  13.713 -2.7479  1.0325 -1.8635
  846MPD2    H212434   3.885   2.268  13.372  1.5951  0.7583 -0.4880
  846MPD2    H312435   3.731   2.148  13.506 -1.2793  0.3295  0.0435
  846MPD2     N12436   3.715   2.478  13.815 -0.7623  0.0213  0.0878
  846MPD2    H512437   3.760   2.562  13.851 -1.3373  1.0382 -1.5787
  846MPD2    N112438   3.968   2.541  13.426  0.8334  0.2797 -0.3865
  846MPD2    H712439   3.967   2.637  13.457  2.5074 -0.9310  3.4733
  847MPD2     C12440   3.931   3.383  14.522 -0.0746 -0.0808 -0.3718
  847MPD2    C112441   4.063   3.400  14.492  0.4415  0.0713 -0.2853
  847MPD2    C212442   4.132   3.285  14.469 -0.0561  0.3611 -0.1954
  847MPD2    C312443   4.078   3.163  14.474  0.1803 -0.0003 -0.3365
  847MPD2    C412444   3.940   3.152  14.470  0.3697  0.7744  0.4049
  847MPD2    C512445   3.866   3.262  14.503 -0.5040  0.5740  0.1750
  847MPD2     H12446   4.239   3.296  14.451 -0.0574  1.6357  0.5383
  847MPD2    H112447   3.888   3.059  14.449  0.5026  0.5256  1.1671
  847MPD2    H212448   3.879   3.471  14.559  1.1267 -0.3930  2.0525
  847MPD2    H312449   3.758   3.254  14.512 -0.4826  0.7446  0.5785
  847MPD2     N12450   4.164   3.056  14.488  0.6675 -0.7912  0.4510
  847MPD2    H512451   4.264   3.074  14.488  1.0805 -2.9869 -3.8794
  847MPD2    N112452   4.130   3.520  14.504  0.5359 -0.9863  0.1519
  847MPD2    H712453   4.226   3.519  14.471  1.0366 -1.0145  1.5683
  848MPD2     C12454   2.018   1.756  16.438  0.0926 -0.1386  0.0671
  848MPD2    C112455   2.093   1.817  16.540 -0.2007  0.4945  0.0911
  848MPD2    C212456   2.184   1.917  16.505  0.8729  0.1806 -0.0459
  848MPD2    C312457   2.192   1.958  16.372  0.2296 -0.4626 -0.0264
  848MPD2    C412458   2.126   1.894  16.272 -0.3943 -0.3449  0.0145
  848MPD2    C512459   2.035   1.802  16.308 -1.0663  0.2808  0.5137
  848MPD2     H12460   2.252   1.963  16.577  1.1276 -1.9867  1.0903
  848MPD2    H112461   2.133   1.912  16.165 -1.5962  1.4946  0.2424
  848MPD2    H212462   1.955   1.670  16.452 -0.7369  0.8815  2.5342
  848MPD2    H312463   1.991   1.750  16.225  2.8492 -1.2419 -0.6071
  848MPD2     N12464   2.281   2.054  16.325 -0.2039 -0.2276  0.2227
  848MPD2    H512465   2.308   2.038  16.228 -1.4258 -1.1364  0.0277
  848MPD2    N112466   2.089   1.772  16.674  0.1480 -0.3686  0.2174
  848MPD2    H712467   2.160   1.810  16.736  0.8097  0.2099 -0.8957
  849MPD2     C12468   1.709   1.882  14.323  0.8846  0.0210  0.4242
  849MPD2    C112469   1.830   1.875  14.385 -0.3963 -0.2243  0.8006
  849MPD2    C212470   1.826   1.831  14.520  0.3108  0.1238 -0.2194
  849MPD2    C312471   1.703   1.796  14.578  0.4799 -0.3032 -0.7318
  849MPD2    C412472   1.588   1.801  14.506  0.3999 -0.2313  0.0531
  849MPD2    C512473   1.592   1.848  14.383  0.3013 -0.0529 -0.0635
  849MPD2     H12474   1.919   1.814  14.572 -2.8625 -2.3156  4.6450
  849MPD2    H112475   1.493   1.769  14.546  0.5698 -0.1460  0.5273
  849MPD2    H212476   1.713   1.933  14.228  0.8515  0.6267  0.7430
  849MPD2    H312477   1.493   1.859  14.341  1.1648  0.3374 -1.9518
  849MPD2     N12478   1.688   1.729  14.701  0.1511 -0.0701 -0.1221
  849MPD2    H512479   1.602   1.677  14.718 -1.2863  1.7535 -1.6765
  849MPD2    N112480   1.951   1.911  14.314  0.6503  1.1133 -0.6166
  849MPD2    H712481   1.927   1.947  14.222 -1.7934 -1.1916 -0.8838
  850MPD2     C12482   4.214   4.589  15.306  0.2014  0.1072 -1.1065
  850MPD2    C112483   4.289   4.488  15.241  0.3922 -0.0077 -0.7944
  850MPD2    C212484   4.429   4.496  15.244  0.0164  0.2344  0.2930
  850MPD2    C312485   4.484   4.590  15.336 -0.5358  0.6184 -0.8644
  850MPD2    C412486   4.404   4.684  15.409 -0.1391  0.0320  0.3446
  850MPD2    C512487   4.268   4.678  15.396  0.2025  0.1522 -0.2644
  850MPD2     H12488   4.495   4.435  15.184  1.9293  2.3644  0.2525
  850MPD2    H112489   4.444   0.032  15.480 -0.4456 -1.5843  2.1250
  850MPD2    H212490   4.106   4.579  15.295 -0.2513  2.9979  0.7128
  850MPD2    H312491   4.210   0.024  15.456  1.9080  1.4601 -0.1297
  850MPD2     N12492   4.622   4.601  15.360  0.0891  0.1216 -0.4045
  850MPD2    H512493   4.644   4.671  15.430 -0.0224 -0.9785  0.7219
  850MPD2    N112494   4.217   4.393  15.161  0.4699  0.3828  0.0740
  850MPD2    H712495   4.117   4.409  15.155  0.0550 -2.1247  0.5210
  851MPD2     C12496   4.456   3.653  14.954  0.2707  1.5539  0.1105
  851MPD2    C112497   4.321   3.687  14.933  0.7323  0.0725 -1.0954
  851MPD2    C212498   4.234   3.580  14.914  0.9130 -0.0966  0.5856
  851MPD2    C312499   4.278   3.453  14.901  0.4179 -0.0994  0.7169
  851MPD2    C412500   4.417   3.426  14.907 -0.1441 -0.5458 -0.2396
  851MPD2    C512501   4.500   3.531  14.939  0.1051  0.1696  0.1936
  851MPD2     H12502   4.127   3.587  14.903  0.8217 -3.2370 -0.5964
  851MPD2    H112503   4.455   3.327  14.886  1.2974  0.2952 -1.5460
  851MPD2    H212504   4.521   3.735  14.983  1.4206  0.5194  0.4875
  851MPD2    H312505   4.605   3.516  14.961 -0.0627 -1.6553 -0.2544
  851MPD2     N12506   4.174   3.358  14.875 -0.4898 -0.8819 -0.4595
  851MPD2    H512507   4.077   3.386  14.888 -0.1792  0.4719 -1.1100
  851MPD2    N112508   4.280   3.818  14.945 -0.5640 -0.8726  0.0164
  851MPD2    H712509   4.357   3.884  14.953 -1.2542  0.1289 -1.6192
  852MPD2     C12510   3.743   1.415   9.848 -0.1623 -0.3572  0.2021
  852MPD2    C112511   3.786   1.496   9.951 -0.8220 -0.4978  0.7836
  852MPD2    C212512   3.892   1.578   9.922 -0.7017  1.0291  1.0852
  852MPD2    C312513   3.952   1.595   9.804 -0.2514  0.1775 -1.0073
  852MPD2    C412514   3.908   1.516   9.702 -0.5321 -0.4472  0.7690
  852MPD2    C512515   3.803   1.424   9.723 -0.1972 -0.7821  0.1083
  852MPD2     H12516   3.912   1.651  10.001  5.1922 -0.9660  1.4812
  852MPD2    H112517   3.950   1.517   9.602  0.4744  1.3256  1.2170
  852MPD2    H212518   3.651   1.357   9.855 -0.5799  0.3748  0.8079
  852MPD2    H312519   3.765   1.374   9.635 -0.0947  0.1532 -0.4699
  852MPD2     N12520   4.050   1.688   9.795  0.9905  0.2711  0.5708
  852MPD2    H512521   4.062   1.745   9.879 -0.3699  2.4981 -0.7325
  852MPD2    N112522   3.720   1.511  10.080 -0.4353  0.2617 -0.2104
  852MPD2    H712523   3.750   1.581  10.147 -1.5719  0.2639  0.3027
  853MPD2     C12524   1.589   1.875  12.201  0.0628 -0.4662  0.6499
  853MPD2    C112525   1.462   1.936  12.189  0.5336  0.4743  0.0732
  853MPD2    C212526   1.402   1.937  12.062 -0.5604 -0.1001 -0.4394
  853MPD2    C312527   1.461   1.871  11.958 -0.3895  0.5736 -0.4479
  853MPD2    C412528   1.588   1.816  11.973 -0.0499  0.1697  0.0179
  853MPD2    C512529   1.655   1.813  12.097 -0.1022  0.1730 -0.1100
  853MPD2     H12530   1.309   1.992  12.056  0.9080  2.1920 -2.2495
  853MPD2    H112531   1.644   1.768  11.893  2.1483 -1.3096  2.4704
  853MPD2    H212532   1.634   1.860  12.298  1.4044 -0.0685  0.0793
  853MPD2    H312533   1.749   1.763  12.119  0.1899  0.5206 -0.5728
  853MPD2     N12534   1.407   1.865  11.828  0.5500 -0.3240  0.2492
  853MPD2    H512535   1.471   1.828  11.758  1.6047  0.8035  0.6321
  853MPD2    N112536   1.410   2.004  12.301 -0.3897  0.1383  0.1582
  853MPD2    H712537   1.466   2.002  12.386  0.6088  0.1577 -0.5135
  854MPD2     C12538   2.940   2.280  12.510 -0.1829 -0.8243  0.3602
  854MPD2    C112539   2.866   2.164  12.483  0.2614  0.2496 -0.0897
  854MPD2    C212540   2.921   2.041  12.502  0.4211  0.0484 -0.1068
  854MPD2    C312541   3.048   2.033  12.556 -0.2984  0.0393 -0.4237
  854MPD2    C412542   3.116   2.145  12.600  0.3170  0.1775  0.2491
  854MPD2    C512543   3.066   2.270  12.570  0.0453 -0.4944  0.1284
  854MPD2     H12544   2.875   1.955  12.454 -0.0577  0.1035  0.2563
  854MPD2    H112545   3.220   2.142  12.629  0.7516 -0.4758 -1.3883
  854MPD2    H212546   2.896   2.376  12.486  0.0734  0.4533  5.1039
  854MPD2    H312547   3.119   2.362  12.589 -0.6499  0.2501 -1.5900
  854MPD2     N12548   3.114   1.906  12.579  0.7052 -0.5872  0.2531
  854MPD2    H512549   3.189   1.907  12.647  1.7077  0.6148 -0.8707
  854MPD2    N112550   2.734   2.192  12.434  0.3574  0.4257 -0.2488
  854MPD2    H712551   2.710   2.280  12.389  2.2033 -0.8328 -3.6635
  855MPD2     C12552   3.544   1.801  13.314 -0.3247 -0.1023 -0.4367
  855MPD2    C112553   3.497   1.672  13.298 -0.5827 -0.0417  0.2262
  855MPD2    C212554   3.442   1.639  13.172  0.0837 -0.1444 -0.4496
  855MPD2    C312555   3.428   1.733  13.066 -0.6446  0.8116 -0.5711
  855MPD2    C412556   3.460   1.867  13.097 -0.3524 -0.0318  0.2142
  855MPD2    C512557   3.523   1.898  13.214  0.1252 -0.4593  0.1973
  855MPD2     H12558   3.410   1.536  13.160  0.4281 -0.2147 -0.7557
  855MPD2    H112559   3.451   1.952  13.031 -0.2638 -1.3148 -1.4606
  855MPD2    H212560   3.581   1.836  13.410 -0.3321 -0.4379 -0.3141
  855MPD2    H312561   3.557   1.998  13.240 -2.5114  0.9120 -1.5854
  855MPD2     N12562   3.367   1.705  12.944 -0.4886  0.6721 -0.3169
  855MPD2    H512563   3.356   1.790  12.889 -2.5658  0.7507  0.2258
  855MPD2    N112564   3.508   1.574  13.403  0.0632  0.2256 -0.0946
  855MPD2    H712565   3.558   1.612  13.483 -0.3320 -0.6504  0.5674
  856MPD2     C12566   0.299   2.892  13.689  0.2671 -0.2575  0.4685
  856MPD2    C112567   0.324   2.923  13.825 -0.3695 -0.2436 -0.8090
  856MPD2    C212568   0.230   2.993  13.897  0.6906 -0.6301  0.1215
  856MPD2    C312569   0.110   3.033  13.840  0.2251 -0.0218 -0.9106
  856MPD2    C412570   0.090   3.003  13.706 -0.3733  0.0140 -0.1600
  856MPD2    C512571   0.183   2.933  13.633  0.2404  0.9411 -0.0305
  856MPD2     H12572   0.245   3.010  14.003  0.4819 -0.9589  0.2038
  856MPD2    H112573   0.006   3.039  13.648 -1.2520 -0.8648  0.5624
  856MPD2    H212574   0.379   2.863  13.621 -0.8879  0.4814 -1.2145
  856MPD2    H312575   0.174   2.921  13.526 -0.1091 -0.3728  0.1494
  856MPD2     N12576   4.721   3.094  13.907 -0.1780 -0.5565  0.3759
  856MPD2    H512577   4.642   3.113  13.846  0.7319 -2.6686 -1.4332
  856MPD2    N112578   0.450   2.902  13.883 -0.4614 -0.1663  0.4714
  856MPD2    H712579   0.472   2.960  13.963  0.3324  2.0084 -1.3337
  857MPD2     C12580   1.899   4.617  13.189 -0.1473  0.1799 -0.2347
  857MPD2    C112581   1.994   4.644  13.095  0.4069 -0.2697 -1.0622
  857MPD2    C212582   2.088   0.021  13.122  0.0901  0.1573  0.6021
  857MPD2    C312583   2.086   0.098  13.239  0.7384 -0.3694  0.0603
  857MPD2    C412584   1.977   0.072  13.323  0.1603 -0.1614 -0.2423
  857MPD2    C512585   1.894   4.692  13.303  0.1626 -0.4878 -0.2072
  857MPD2     H12586   2.170   0.044  13.054 -1.4913 -0.0575 -1.3815
  857MPD2    H112587   1.957   0.136  13.408  0.2453 -0.1004 -0.2681
  857MPD2    H212588   1.826   4.541  13.168  0.2870 -0.4228  0.4398
  857MPD2    H312589   1.818   4.672  13.379  0.7541  1.2186  0.8252
  857MPD2     N12590   2.163   0.208  13.248  0.7421  0.6471 -0.3732
  857MPD2    H512591   2.227   0.229  13.172 -0.2553  0.5393 -1.2390
  857MPD2    N112592   1.984   4.558  12.976 -0.2458 -0.5404  0.6251
  857MPD2    H712593   1.906   4.493  12.969  0.5309 -1.4522  0.4652
  858MPD2     C12594   3.039   4.425  16.687  1.4542 -0.1602 -0.4702
  858MPD2    C112595   3.010   4.300  16.746  0.1137 -0.7693 -0.1043
  858MPD2    C212596   2.977   4.299  16.883 -0.3627 -0.1863 -0.0384
  858MPD2    C312597   2.976   4.418  16.954  0.6926  0.3956 -0.4100
  858MPD2    C412598   3.003   4.534  16.891 -0.2818  0.2161 -0.2565
  858MPD2    C512599   3.031   4.542  16.761 -0.3734  0.4837  0.1455
  858MPD2     H12600   2.956   4.204  16.931 -0.9614 -0.3433 -0.6126
  858MPD2    H112601   3.002   4.632  16.938 -0.2271  0.7902 -1.4592
  858MPD2    H212602   3.072   4.440  16.585  0.9531  0.6057 -0.5204
  858MPD2    H312603   3.049   4.632  16.703 -0.2085 -1.5495 -2.9900
  858MPD2     N12604   2.942   4.432  17.091  0.3081 -0.0634  0.1416
  858MPD2    H512605   2.938   4.528  17.125  1.4849 -0.3342  1.0635
  858MPD2    N112606   3.014   4.197  16.658 -0.3549  0.3138  0.2524
  858MPD2    H712607   3.038   4.216  16.561 -2.7622  1.4245 -0.1054
  859MPD2     C12608   1.485   1.860  15.695  0.7381 -0.0933  1.2538
  859MPD2    C112609   1.599   1.804  15.644  0.4930  0.5130  0.8476
  859MPD2    C212610   1.623   1.670  15.662 -0.1644  0.1268 -0.4255
  859MPD2    C312611   1.519   1.596  15.726  0.1046  0.2317  0.2544
  859MPD2    C412612   1.410   1.661  15.779  0.0418  0.1899 -0.2787
  859MPD2    C512613   1.391   1.791  15.765 -0.2823  0.1255 -0.1319
  859MPD2     H12614   1.717   1.629  15.627 -0.7855  0.0955 -2.0555
  859MPD2    H112615   1.343   1.606  15.845  0.3773 -0.1416 -0.2146
  859MPD2    H212616   1.478   1.966  15.673  1.9523 -0.5273 -1.1116
  859MPD2    H312617   1.297   1.828  15.805 -0.2487  0.5562 -0.4491
  859MPD2     N12618   1.533   1.459  15.751  0.7467  0.6307 -0.4354
  859MPD2    H512619   1.462   1.411  15.806 -0.5859  0.4495 -2.2978
  859MPD2    N112620   1.696   1.899  15.604  0.0488  0.6782 -1.1126
  859MPD2    H712621   1.670   1.987  15.560  0.8073  0.3261 -2.2712
  860MPD2     C12622   4.443   1.357  11.636  0.6802 -0.4993  0.1065
  860MPD2    C112623   4.396   1.455  11.721 -0.7888  0.7826  0.3850
  860MPD2    C212624   4.262   1.454  11.756 -0.6558 -1.0338 -0.9974
  860MPD2    C312625   4.178   1.366  11.703 -0.0934  0.1754 -0.0383
  860MPD2    C412626   4.224   1.279  11.611  0.5040 -0.3185 -0.7544
  860MPD2    C512627   4.360   1.265  11.576 -0.1621 -0.4851 -0.3896
  860MPD2     H12628   4.218   1.535  11.814 -0.5068 -1.5979 -0.1013
  860MPD2    H112629   4.153   1.217  11.557 -0.7655 -0.9531  1.6858
  860MPD2    H212630   4.544   1.342  11.601  0.0447 -2.3344 -0.9488
  860MPD2    H312631   4.404   1.184  11.519  2.3536  1.2725 -0.9648
  860MPD2     N12632   4.046   1.371  11.749  0.1165 -0.0303  0.4432
  860MPD2    H512633   4.023   1.430  11.829 -0.0259  0.2878  0.1685
  860MPD2    N112634   4.478   1.561  11.772  0.0968 -0.1131  0.2727
  860MPD2    H712635   4.431   1.634  11.824  0.8124  1.1523 -0.8672
  861MPD2     C12636   2.194   3.962  11.164 -0.0090 -0.2993 -0.1724
  861MPD2    C112637   2.098   4.019  11.246 -0.0837 -0.3276 -0.0644
  861MPD2    C212638   1.981   4.060  11.183  0.7748  0.0582 -1.1198
  861MPD2    C312639   1.965   4.042  11.045 -0.6908  0.3464 -0.3269
  861MPD2    C412640   2.064   3.984  10.963 -0.0817 -0.4969 -0.4469
  861MPD2    C512641   2.173   3.939  11.029 -0.5163 -0.0028 -0.3549
  861MPD2     H12642   1.897   4.095  11.241 -0.6443 -2.9125 -1.4054
  861MPD2    H112643   2.059   3.982  10.855  0.1684 -0.3988 -0.4595
  861MPD2    H212644   2.292   3.937  11.203  0.0464 -1.2817 -0.9385
  861MPD2    H312645   2.254   3.886  10.981 -1.7650 -1.3543 -0.9855
  861MPD2     N12646   1.860   4.100  10.965  0.2431 -0.2866 -0.1297
  861MPD2    H512647   1.866   4.105  10.864  0.1634 -4.3864 -0.3216
  861MPD2    N112648   2.115   4.042  11.385 -0.2365  0.0670 -0.1993
  861MPD2    H712649   2.033   4.067  11.439 -0.9597 -1.0980 -0.7902
  862MPD2     C12650   1.677   4.219  10.288  0.0613 -0.5993 -0.1951
  862MPD2    C112651   1.787   4.213  10.372 -0.0964  0.3777 -0.4103
  862MPD2    C212652   1.907   4.169  10.331 -0.5015  0.3989  0.5472
  862MPD2    C312653   1.921   4.115  10.205  0.0555 -0.1683 -0.7738
  862MPD2    C412654   1.818   4.129  10.118 -0.4354  0.1770 -0.1559
  862MPD2    C512655   1.697   4.169  10.164 -0.0797 -0.0878  0.3515
  862MPD2     H12656   1.992   4.172  10.398  0.8359 -1.7288 -1.0559
  862MPD2    H112657   1.818   4.099  10.014  1.5403 -0.5219  0.0281
  862MPD2    H212658   1.575   4.247  10.313  0.0464  0.3399 -1.2687
  862MPD2    H312659   1.622   4.169  10.086 -0.4228 -1.2084  0.6813
  862MPD2     N12660   2.042   4.075  10.145 -0.5094  0.0388 -0.7243
  862MPD2    H512661   2.045   4.047  10.047  1.1780 -3.3536  0.2835
  862MPD2    N112662   1.766   4.258  10.505 -0.1939  0.3571  0.1189
  862MPD2    H712663   1.833   4.237  10.578  0.1515  0.5409 -0.1449
  863MPD2     C12664   1.404   3.412  16.378  1.0772  0.0224 -0.3473
  863MPD2    C112665   1.297   3.351  16.436  0.0673  0.6385 -0.2061
  863MPD2    C212666   1.324   3.275  16.556  0.2315 -0.1802  0.6295
  863MPD2    C312667   1.452   3.256  16.596  0.1930 -0.5037 -0.1999
  863MPD2    C412668   1.558   3.329  16.541 -0.1153  0.1936  0.1658
  863MPD2    C512669   1.531   3.403  16.428 -0.4551 -0.0371  0.0084
  863MPD2     H12670   1.245   3.218  16.603  1.0123 -1.0988  0.8418
  863MPD2    H112671   1.660   3.296  16.556 -0.9580 -2.1135  0.8402
  863MPD2    H212672   1.391   3.462  16.283 -0.1673  1.9514  0.8532
  863MPD2    H312673   1.617   3.443  16.375  0.4265 -0.5844  1.0358
  863MPD2     N12674   1.486   3.164  16.700  0.0537 -0.3854 -0.4155
  863MPD2    H512675   1.583   3.146  16.725 -0.0741  0.1321  0.4688
  863MPD2    N112676   1.171   3.370  16.376  0.0563 -0.7200 -0.3253
  863MPD2    H712677   1.162   3.412  16.284 -1.8861 -0.8738 -0.1938
  864MPD2     C12678   1.835   3.948  17.192 -0.3018 -0.0393 -0.2838
  864MPD2    C112679   1.793   3.995  17.068 -1.2752 -0.4891  0.3245
  864MPD2    C212680   1.850   4.110  17.013 -0.1788 -0.2769 -0.0650
  864MPD2    C312681   1.932   4.191  17.088  0.0564 -0.8431  1.1335
  864MPD2    C412682   1.962   4.144  17.211  0.0796 -0.5365  0.9249
  864MPD2    C512683   1.918   4.025  17.271 -0.4850 -0.4063  0.5742
  864MPD2     H12684   1.818   4.136  16.913  1.2772 -1.2125 -0.7756
  864MPD2    H112685   2.018   4.214  17.271  2.2927 -1.0350 -0.5798
  864MPD2    H212686   1.792   3.855  17.230  0.6082 -1.0041 -1.6099
  864MPD2    H312687   1.932   4.014  17.378 -0.1903  2.3102  0.8233
  864MPD2     N12688   1.988   4.311  17.033 -0.2383 -0.4938  0.3997
  864MPD2    H512689   2.058   4.355  17.093 -0.5695  0.4417  0.1034
  864MPD2    N112690   1.703   3.914  16.994  0.3278 -0.0245  0.0393
  864MPD2    H712691   1.683   3.825  17.040  0.1993  0.2074  0.4343
  865MPD2     C12692   1.893   0.198  16.175  0.2189  0.6738 -0.4975
  865MPD2    C112693   1.863   0.073  16.215 -0.2679  1.1117 -0.3063
  865MPD2    C212694   1.892   0.039  16.347 -0.6411  0.0850  0.0709
  865MPD2    C312695   1.960   0.130  16.433  0.0448  0.2789 -0.1973
  865MPD2    C412696   1.983   0.257  16.389 -0.0285 -0.0628 -0.3263
  865MPD2    C512697   1.948   0.289  16.261 -0.4266  0.2395  0.1195
  865MPD2     H12698   1.869   4.660  16.374  2.5380 -0.9848 -1.2498
  865MPD2    H112699   2.023   0.328  16.460  0.6464 -0.8584  0.0829
  865MPD2    H212700   1.865   0.229  16.076  0.3218  1.2287 -0.3543
  865MPD2    H312701   1.957   0.392  16.229 -0.8314 -0.1359 -1.1839
  865MPD2     N12702   1.994   0.098  16.566  0.0023 -0.4659  0.2400
  865MPD2    H512703   2.036   0.171  16.623 -2.9752 -0.5878  2.5447
  865MPD2    N112704   1.804   4.717  16.112  0.2709  0.0965 -0.2186
  865MPD2    H712705   1.804   0.029  16.017 -2.8685 -0.0122 -0.2796
  866MPD2     C12706   3.041   3.853  11.246 -0.3091 -0.1373  0.1246
  866MPD2    C112707   3.036   3.991  11.246  0.0386  0.1368 -0.8250
  866MPD2    C212708   2.909   4.047  11.258 -0.2786 -1.2053 -0.3201
  866MPD2    C312709   2.794   3.973  11.245  0.1397 -0.2626 -0.0998
  866MPD2    C412710   2.799   3.837  11.230  0.1434  0.0448  0.0213
  866MPD2    C512711   2.922   3.775  11.235 -0.4345  0.1810  0.1467
  866MPD2     H12712   2.892   4.153  11.243  0.2433 -0.9679  0.7932
  866MPD2    H112713   2.705   3.787  11.206  0.1261  0.5983 -1.0863
  866MPD2    H212714   3.133   3.801  11.223  0.7202  0.6234  2.5718
  866MPD2    H312715   2.925   3.667  11.230 -1.1163  0.0930  1.7613
  866MPD2     N12716   2.671   4.037  11.231 -0.1772  0.1460  0.3807
  866MPD2    H512717   2.588   3.982  11.211 -0.8188  1.4252 -0.4724
  866MPD2    N112718   3.153   4.067  11.246  0.4124  0.1673  0.5045
  866MPD2    H712719   3.240   4.018  11.229 -0.1686 -0.9735  0.8008
  867MPD2     C12720   0.428   4.469  16.286  0.4428 -0.0533  0.2277
  867MPD2    C112721   0.500   4.430  16.396  0.2713 -0.7425  0.5213
  867MPD2    C212722   0.512   4.517  16.501  0.3577  0.0166  0.3720
  867MPD2    C312723   0.449   4.640  16.498 -0.4301  0.0229  1.1721
  867MPD2    C412724   0.394   4.679  16.381  0.0401 -0.0454  0.2349
  867MPD2    C512725   0.380   4.596  16.281 -0.3791  0.1611  0.5344
  867MPD2     H12726   0.565   4.491  16.593 -0.7769  1.9173  1.5750
  867MPD2    H112727   0.348   0.053  16.364 -0.6360 -0.5101 -0.5771
  867MPD2    H212728   0.428   4.409  16.196 -1.3990  0.3878 -0.0651
  867MPD2    H312729   0.324   4.623  16.192  0.9932 -1.0201 -0.6916
  867MPD2     N12730   0.458   0.007  16.604 -0.2183 -0.1376 -0.6239
  867MPD2    H512731   0.504   4.691  16.686 -1.9267  0.0392  0.4062
  867MPD2    N112732   0.549   4.298  16.400 -0.4402  0.5961 -0.7053
  867MPD2    H712733   0.516   4.240  16.324  0.9642  0.1402 -0.9823
  868MPD2     C12734   2.488   3.069  12.825  0.5448 -0.3854  0.5175
  868MPD2    C112735   2.527   2.976  12.920  0.4133  0.7190  0.4289
  868MPD2    C212736   2.481   2.982  13.049  1.1765 -0.1273  0.2188
  868MPD2    C312737   2.383   3.072  13.080  0.2781 -0.5438 -0.5549
  868MPD2    C412738   2.341   3.160  12.983 -0.5767  0.1306 -0.0718
  868MPD2    C512739   2.388   3.157  12.853 -0.2050 -0.0395 -0.2223
  868MPD2     H12740   2.528   2.922  13.126  2.0241 -1.2471 -1.1676
  868MPD2    H112741   2.277   3.244  13.008 -0.1804  0.5430 -0.4256
  868MPD2    H212742   2.530   3.070  12.725 -0.0041 -4.0625  0.2450
  868MPD2    H312743   2.349   3.225  12.778 -1.0359 -1.8966 -1.4750
  868MPD2     N12744   2.351   3.082  13.212 -0.1459  0.1872  0.1284
  868MPD2    H512745   2.405   3.019  13.271  0.6479 -0.6566 -1.4804
  868MPD2    N112746   2.618   2.876  12.877  0.0457  0.1423 -0.4547
  868MPD2    H712747   2.655   2.887  12.784 -1.7088  0.5080 -1.1053
  869MPD2     C12748   3.757   1.185   1.741 -0.1765 -0.0922 -0.1359
  869MPD2    C112749   3.625   1.208   1.778  0.2672 -0.4709 -0.1340
  869MPD2    C212750   3.561   1.313   1.715  0.6274  0.3318 -0.5553
  869MPD2    C312751   3.621   1.384   1.613 -0.6287  0.1090  0.3186
  869MPD2    C412752   3.753   1.363   1.587 -0.5151  0.3198  0.5436
  869MPD2    C512753   3.822   1.269   1.655 -0.2188 -0.2647  0.5454
  869MPD2     H12754   3.455   1.328   1.728  0.7988  1.4194 -0.3703
  869MPD2    H112755   3.807   1.421   1.513 -1.5477 -0.8898 -1.1820
  869MPD2    H212756   3.815   1.109   1.793 -2.4168 -0.4555  1.8275
  869MPD2    H312757   3.924   1.246   1.627  0.1598  0.3766  1.3918
  869MPD2     N12758   3.564   1.491   1.537  0.1442  0.2951 -0.8957
  869MPD2    H512759   3.619   1.540   1.466  0.7645  0.3870 -0.3481
  869MPD2    N112760   3.579   1.126   1.883  0.5063 -0.2532  0.0225
  869MPD2    H712761   3.641   1.054   1.917  0.1206 -0.1845  0.8794
  870MPD2     C12762   2.291   0.711   1.479  0.5211 -0.5035  0.3713
  870MPD2    C112763   2.427   0.709   1.462 -0.4168  0.2122  0.5544
  870MPD2    C212764   2.480   0.778   1.360  0.5987  0.9392  0.5539
  870MPD2    C312765   2.402   0.849   1.270  0.5370 -0.7780 -0.3444
  870MPD2    C412766   2.263   0.853   1.289  0.0245  0.4816 -0.2976
  870MPD2    C512767   2.206   0.786   1.397  0.0522  0.0619 -0.2189
  870MPD2     H12768   2.584   0.758   1.335  1.0502  1.0927  2.2819
  870MPD2    H112769   2.195   0.903   1.221 -1.9335 -0.6085  0.8681
  870MPD2    H212770   2.258   0.665   1.572 -0.3688 -0.4675  0.0728
  870MPD2    H312771   2.098   0.787   1.410  0.2667  1.0666  1.4848
  870MPD2     N12772   2.473   0.907   1.162  0.7378  0.3472 -0.2568
  870MPD2    H512773   2.573   0.897   1.171  0.9605  3.7928  1.0544
  870MPD2    N112774   2.494   0.622   1.551  0.6555  0.1680  0.1533
  870MPD2    H712775   2.439   0.567   1.616  1.1689  0.6166  0.9617
  871MPD2     C12776   4.405   4.452  16.677 -0.0533  0.0441 -0.6210
  871MPD2    C112777   4.364   4.418  16.806  0.7414  0.3193 -0.3854
  871MPD2    C212778   4.407   4.295  16.851  0.4306  0.1299 -0.1650
  871MPD2    C312779   4.477   4.206  16.770 -0.9837  0.2376  0.1489
  871MPD2    C412780   4.493   4.241  16.637  0.1382 -0.0897 -0.2434
  871MPD2    C512781   4.456   4.362  16.591  0.5434 -0.5923 -0.2180
  871MPD2     H12782   4.384   4.278  16.956  1.0392  4.2701  0.6427
  871MPD2    H112783   4.540   4.177  16.563  1.8961 -0.0755  0.8492
  871MPD2    H212784   4.388   4.551  16.635 -0.0695  1.0129  1.7077
  871MPD2    H312785   4.470   4.383  16.486 -1.5595 -0.1761 -0.4234
  871MPD2     N12786   4.512   4.082  16.830 -0.7260  0.9263  0.2663
  871MPD2    H512787   4.485   4.066  16.927 -0.2512 -1.2276  0.0574
  871MPD2    N112788   4.297   4.521  16.876  0.2885  0.2605 -0.0245
  871MPD2    H712789   4.291   4.609  16.826  0.3410  0.9955  1.2555
  872MPD2     C12790   0.760   2.335  14.549  0.0827  0.0500 -0.2124
  872MPD2    C112791   0.725   2.336  14.416  0.9057 -0.4720  0.9972
  872MPD2    C212792   0.601   2.297  14.376 -0.2934  0.2133  0.4655
  872MPD2    C312793   0.501   2.257  14.465  0.2828  0.2076 -0.3329
  872MPD2    C412794   0.535   2.260  14.598 -0.5515 -0.1302 -0.6746
  872MPD2    C512795   0.661   2.303  14.637 -0.1280  0.6130 -0.7680
  872MPD2     H12796   0.574   2.303  14.271  1.2943 -0.8937  0.0109
  872MPD2    H112797   0.468   2.230  14.677 -1.4194  1.4422 -0.8082
  872MPD2    H212798   0.849   2.380  14.589  0.6251 -2.4157  1.3315
  872MPD2    H312799   0.690   2.308  14.741  0.4303 -0.3287 -0.8840
  872MPD2     N12800   0.370   2.210  14.429  0.0729 -0.2255  0.4148
  872MPD2    H512801   0.318   2.177  14.510 -1.4571 -0.3005 -0.6024
  872MPD2    N112802   0.812   2.373  14.314 -0.0809 -0.1167  0.2380
  872MPD2    H712803   0.783   2.388  14.218 -0.1963  2.0816  0.6148
  873MPD2     C12804   1.820   1.790   1.167 -0.2093 -0.2064  0.4300
  873MPD2    C112805   1.685   1.790   1.141  0.5517 -0.5857 -0.1838
  873MPD2    C212806   1.620   1.673   1.106  0.2510 -0.5935  0.1714
  873MPD2    C312807   1.687   1.557   1.088  0.3212  0.1389  1.2336
  873MPD2    C412808   1.826   1.560   1.110 -0.2683  0.4199 -0.0237
  873MPD2    C512809   1.894   1.674   1.159 -0.1183  0.1467  0.9289
  873MPD2     H12810   1.513   1.684   1.097  0.1859 -1.5446 -0.2712
  873MPD2    H112811   1.879   1.466   1.107 -0.3189  0.3717  0.5178
  873MPD2    H212812   1.865   1.885   1.192  1.8799 -0.5931 -1.9152
  873MPD2    H312813   1.999   1.673   1.185 -0.1626  0.4779  1.1196
  873MPD2     N12814   1.629   1.443   1.033  0.0740 -0.3837  0.1176
  873MPD2    H512815   1.688   1.362   1.015 -0.8614 -0.7124 -1.4964
  873MPD2    N112816   1.622   1.916   1.166  0.2075  0.3268  0.1531
  873MPD2    H712817   1.679   1.996   1.192  2.8147 -0.4971 -2.9800
  874MPD2     C12818   1.641   2.236  16.261 -0.8082 -0.4941 -0.1995
  874MPD2    C112819   1.737   2.168  16.333  0.2398  1.0033  0.0484
  874MPD2    C212820   1.868   2.192  16.320  0.9045 -0.4600 -0.1665
  874MPD2    C312821   1.909   2.290  16.233 -0.5402  0.2290 -0.4390
  874MPD2    C412822   1.818   2.362  16.156  0.4385 -0.5528  0.0106
  874MPD2    C512823   1.683   2.331  16.174  0.6163  0.3596  0.0577
  874MPD2     H12824   1.942   2.135  16.376  0.6330 -0.7592 -0.1156
  874MPD2    H112825   1.851   2.440  16.088 -0.9787 -1.7284 -2.0091
  874MPD2    H212826   1.536   2.221  16.282 -1.5757  2.3976 -2.0451
  874MPD2    H312827   1.617   2.393  16.114 -1.4082 -0.7893  1.0806
  874MPD2     N12828   2.050   2.325  16.232  0.1320  0.2916  0.1707
  874MPD2    H512829   2.102   2.286  16.310 -2.5739 -0.4344  1.5846
  874MPD2    N112830   1.694   2.077  16.438 -0.9274  0.2596 -0.3127
  874MPD2    H712831   1.595   2.059  16.443 -0.7796  0.6760  4.0120
  875MPD2     C12832   3.063   0.612  14.428 -0.4133  0.7079 -0.1780
  875MPD2    C112833   2.964   0.594  14.526  0.3884 -0.2122 -0.5130
  875MPD2    C212834   2.982   0.652  14.647 -0.1388 -0.1400  0.2587
  875MPD2    C312835   3.097   0.715  14.684  0.3560  0.3933  0.2705
  875MPD2    C412836   3.181   0.748  14.575  0.0195  0.0244  0.1378
  875MPD2    C512837   3.165   0.703  14.448  0.6098  0.8421  0.5466
  875MPD2     H12838   2.915   0.644  14.732  0.3856 -0.7278  0.6234
  875MPD2    H112839   3.269   0.806  14.598 -0.8949  0.1432  3.4370
  875MPD2    H212840   3.044   0.570  14.329  0.9149 -0.2005 -0.0388
  875MPD2    H312841   3.228   0.726  14.363 -0.7180  0.3694 -0.5602
  875MPD2     N12842   3.132   0.755  14.816 -0.1241  0.0193 -0.6046
  875MPD2    H512843   3.204   0.827  14.818  0.7246 -0.8450 -0.2551
  875MPD2    N112844   2.840   0.536  14.492  0.0647  0.0550 -0.3746
  875MPD2    H712845   2.769   0.538  14.565  1.3837 -0.8556  0.9189
  876MPD2     C12846   1.612   2.170  15.855 -1.0470  0.5519  0.6167
  876MPD2    C112847   1.754   2.145  15.865 -0.4646 -0.1245  1.0991
  876MPD2    C212848   1.799   2.031  15.922 -0.6287 -0.0870 -0.4496
  876MPD2    C312849   1.709   1.948  15.989  0.8393 -0.9622 -0.8988
  876MPD2    C412850   1.575   1.976  15.988 -0.0152 -0.2697 -0.1393
  876MPD2    C512851   1.524   2.085  15.914  0.3096  0.4311 -0.6535
  876MPD2     H12852   1.899   1.992  15.921 -0.5457  0.1460 -1.7868
  876MPD2    H112853   1.508   1.909  16.041 -1.6371  1.1346 -0.3726
  876MPD2    H212854   1.575   2.256  15.800  0.9110  0.7501 -0.4091
  876MPD2    H312855   1.418   2.107  15.918  0.7738  2.2516  1.2481
  876MPD2     N12856   1.759   1.828  16.037  0.1477 -0.1368 -0.8324
  876MPD2    H512857   1.853   1.804  16.006  0.9699  3.0445 -0.7996
  876MPD2    N112858   1.841   2.237  15.797 -0.4419  0.6741  0.4335
  876MPD2    H712859   1.802   2.305  15.733  0.1574 -0.5303 -1.2275
  877MPD2     C12860   2.005   2.421  15.091 -0.4852 -1.0275 -0.9171
  877MPD2    C112861   2.127   2.393  15.146 -0.1369  0.2977  0.9014
  877MPD2    C212862   2.239   2.388  15.062 -0.0805  0.1285  0.4335
  877MPD2    C312863   2.225   2.396  14.923  0.4530 -0.2005 -0.2615
  877MPD2    C412864   2.107   2.413  14.873 -0.5088  1.2175 -0.3858
  877MPD2    C512865   1.996   2.431  14.957  0.2732  0.3500  0.0577
  877MPD2     H12866   2.337   2.378  15.107 -0.4743  0.1150  1.2865
  877MPD2    H112867   2.095   2.417  14.765 -1.5260 -0.3841 -0.3295
  877MPD2    H212868   1.919   2.445  15.153 -0.8625 -1.6764 -1.1950
  877MPD2    H312869   1.902   2.457  14.909  0.6310  2.3507  0.4498
  877MPD2     N12870   2.325   2.366  14.830 -0.5534  0.3535  0.6287
  877MPD2    H512871   2.289   2.358  14.735  0.1416  1.8681  0.2421
  877MPD2    N112872   2.142   2.391  15.285 -0.4941  0.4091  0.2175
  877MPD2    H712873   2.235   2.388  15.326  0.3310 -2.1925 -1.8175
  878MPD2     C12874   2.121   2.256  13.480  0.0288 -0.0121  0.2304
  878MPD2    C112875   2.192   2.318  13.584  0.2128  0.0016 -0.1899
  878MPD2    C212876   2.177   2.262  13.716 -0.8734 -0.3692 -0.1163
  878MPD2    C312877   2.120   2.139  13.730 -0.4205 -0.5180 -0.3511
  878MPD2    C412878   2.071   2.075  13.624 -0.1174  0.0394  0.0255
  878MPD2    C512879   2.064   2.137  13.502 -0.4811  0.3757  0.2601
  878MPD2     H12880   2.226   2.301  13.804  0.1575  1.2316 -1.3993
  878MPD2    H112881   2.008   1.986  13.621 -1.7580  1.2514 -1.8450
  878MPD2    H212882   2.144   2.282  13.377 -0.7531 -0.4749 -0.0627
  878MPD2    H312883   2.007   2.092  13.422  0.4196 -1.6492  0.7665
  878MPD2     N12884   2.130   2.072  13.855 -0.2238 -0.9210  0.3287
  878MPD2    H512885   2.166   2.120  13.937  0.0604 -0.2573 -0.1777
  878MPD2    N112886   2.285   2.414  13.541  0.1209 -0.1763 -0.7630
  878MPD2    H712887   2.270   2.437  13.443  0.4614  0.7522 -0.5994
  879MPD2     C12888   2.097   3.050  17.065 -0.3210  0.3561 -0.3735
  879MPD2    C112889   2.054   2.938  17.139  0.5158 -0.0114 -0.4302
  879MPD2    C212890   1.999   2.830  17.069 -0.0647 -0.4114  0.5788
  879MPD2    C312891   1.978   2.835  16.933 -0.1234 -0.4086  0.4155
  879MPD2    C412892   2.019   2.942  16.859 -0.1344 -0.1930 -0.3247
  879MPD2    C512893   2.073   3.053  16.926 -0.7191 -0.1719  0.2007
  879MPD2     H12894   1.973   2.742  17.127  1.0015  0.4991  2.4610
  879MPD2    H112895   2.026   2.936  16.751  0.9312 -1.1283 -0.1980
  879MPD2    H212896   2.136   3.140  17.112 -0.6081  1.6661 -2.6256
  879MPD2    H312897   2.116   3.133  16.868  0.8673 -0.7553  0.5832
  879MPD2     N12898   1.921   2.725  16.872 -0.0854 -0.4744  0.1171
  879MPD2    H512899   1.907   2.726  16.772 -1.7057  2.7746  0.3860
  879MPD2    N112900   2.092   2.927  17.280 -1.0239  0.3122  0.2182
  879MPD2    H712901   2.152   3.001  17.314 -1.1884 -0.0174  1.2301
  880MPD2     C12902   3.341   4.592   0.493 -0.4659 -0.2660 -0.2329
  880MPD2    C112903   3.276   4.686   0.560  0.0701  0.2719 -0.1255
  880MPD2    C212904   3.202   4.647   0.674 -0.0227  0.0458  0.5328
  880MPD2    C312905   3.190   4.513   0.702 -0.1812 -1.0940  0.3633
  880MPD2    C412906   3.249   4.417   0.620 -0.6780 -0.0187  0.0931
  880MPD2    C512907   3.324   4.455   0.512  0.0446  0.1710  0.1459
  880MPD2     H12908   3.148   4.711   0.742  0.9906  2.0222 -0.5412
  880MPD2    H112909   3.230   4.312   0.636 -1.9357  0.1927  0.0209
  880MPD2    H212910   3.409   4.616   0.412  0.9623  1.2118  1.4266
  880MPD2    H312911   3.378   4.386   0.448  1.1295 -0.4907  1.7531
  880MPD2     N12912   3.120   4.476   0.820  0.9859 -0.7475  0.6028
  880MPD2    H512913   3.084   4.549   0.880  2.6637 -0.5202  1.3210
  880MPD2    N112914   3.300   0.093   0.520  0.2680  0.2386 -0.1248
  880MPD2    H712915   3.343   0.105   0.429 -1.1200  0.5831 -0.7306
  881MPD2     C12916   2.967   0.322  17.484  0.2053  0.4117  0.4138
  881MPD2    C112917   3.097   0.342  17.505  0.0730  1.1972 -0.2230
  881MPD2    C212918   3.133   0.374  17.625  0.9417  0.2431 -1.0917
  881MPD2    C312919   3.056   0.357   0.045  0.1916 -0.3974 -0.0872
  881MPD2    C412920   2.928   0.312   0.025 -0.1331 -0.3722  0.7953
  881MPD2    C512921   2.888   0.295  17.590 -0.0437 -0.4532 -1.2646
  881MPD2     H12922   3.235   0.408  17.640  0.5686 -0.0064  2.0922
  881MPD2    H112923   2.863   0.298   0.110 -0.0499 -1.2366  0.7204
  881MPD2    H212924   2.938   0.298  17.383 -0.6631  0.3427  0.6832
  881MPD2    H312925   2.782   0.273  17.575 -0.6329  1.2276  0.3714
  881MPD2     N12926   3.110   0.400   0.174 -0.4347 -0.2380  0.0231
  881MPD2    H512927   3.060   0.364   0.255  1.5182  0.8968  1.7355
  881MPD2    N112928   3.184   0.362  17.400 -0.1718  0.2933 -0.3179
  881MPD2    H712929   3.141   0.347  17.309 -1.1396 -2.0026  0.4959
  882MPD2     C12930   2.158   2.604  14.376 -0.4317  0.0547  0.0561
  882MPD2    C112931   2.145   2.474  14.405  0.1065  0.0352 -0.3171
  882MPD2    C212932   2.025   2.413  14.407  0.3809 -0.6274 -0.1401
  882MPD2    C312933   1.908   2.497  14.385 -0.0543 -1.2358  0.1415
  882MPD2    C412934   1.925   2.632  14.377  0.6879  0.0031  0.4507
  882MPD2    C512935   2.050   2.684  14.379 -0.0892 -0.0143 -0.4151
  882MPD2     H12936   2.014   2.307  14.431 -1.0296 -0.5094 -0.2394
  882MPD2    H112937   1.844   2.702  14.365  1.4269  0.8926  0.6151
  882MPD2    H212938   2.253   2.655  14.375  0.1277 -0.9852  0.7959
  882MPD2    H312939   2.064   2.791  14.364  0.2484  0.1844  1.2566
  882MPD2     N12940   1.776   2.454  14.387 -0.0578  0.0993 -0.2829
  882MPD2    H512941   1.709   2.529  14.394  0.2550  0.3266  0.2837
  882MPD2    N112942   2.265   2.409  14.428 -0.1231 -0.3307  0.1840
  882MPD2    H712943   2.349   2.466  14.432 -1.1944  1.0804  2.5899
  883MPD2     C12944   3.700   2.437  16.561  0.6584  0.3193  0.1799
  883MPD2    C112945   3.734   2.351  16.454 -0.0350  0.0674 -0.4795
  883MPD2    C212946   3.854   2.290  16.463  0.4341  0.0869 -0.2533
  883MPD2    C312947   3.938   2.311  16.574 -0.7035 -0.1572 -0.0896
  883MPD2    C412948   3.906   2.394  16.678  0.4072  0.2194  0.2121
  883MPD2    C512949   3.779   2.445  16.673 -0.3377 -0.4682 -0.4303
  883MPD2     H12950   3.886   2.226  16.382 -0.2696 -0.3262 -0.2028
  883MPD2    H112951   3.967   2.426  16.761  2.7365  0.2058 -1.4810
  883MPD2    H212952   3.605   2.489  16.571  0.1086 -0.4189 -1.3209
  883MPD2    H312953   3.750   2.514  16.752 -2.1701 -1.2372 -0.4388
  883MPD2     N12954   4.074   2.267  16.565  0.2010  0.1505  0.2557
  883MPD2    H512955   4.109   2.211  16.488 -1.1376 -0.1353 -0.1338
  883MPD2    N112956   3.652   2.330  16.337  0.1040 -0.0657 -0.4355
  883MPD2    H712957   3.677   2.252  16.278 -0.1775 -0.1504 -0.4431
  884MPD2     C12958   1.296   2.893  15.070  0.0896  0.0051  0.3362
  884MPD2    C112959   1.310   3.028  15.057  0.5261 -0.4391  1.0664
  884MPD2    C212960   1.197   3.106  15.081  0.1478 -0.8402  0.1358
  884MPD2    C312961   1.080   3.055  15.137  0.2717  0.6007  0.0479
  884MPD2    C412962   1.075   2.921  15.168 -0.2734 -0.0246 -0.5799
  884MPD2    C512963   1.186   2.839  15.134 -0.1252  0.8248  0.0708
  884MPD2     H12964   1.208   3.213  15.071 -0.7800 -0.7672 -0.0908
  884MPD2    H112965   0.985   2.873  15.202 -0.1636  0.2122  0.0383
  884MPD2    H212966   1.381   2.827  15.056  1.8738  2.5774 -0.8417
  884MPD2    H312967   1.173   2.734  15.158 -2.2034  0.4879 -2.4778
  884MPD2     N12968   0.970   3.146  15.165  0.2866 -0.8592 -0.3385
  884MPD2    H512969   0.987   3.241  15.133 -1.8323 -1.1568 -2.3572
  884MPD2    N112970   1.413   3.083  14.977 -0.1349  0.0307 -0.1793
  884MPD2    H712971   1.400   3.180  14.950 -0.3916  0.0449 -0.0039
  885MPD2     C12972   3.758   3.305   0.218 -0.6150 -0.3162 -0.6085
  885MPD2    C112973   3.866   3.377   0.179 -0.0727  0.1012 -0.7073
  885MPD2    C212974   3.892   3.401   0.045  0.0905 -0.0237  0.1606
  885MPD2    C312975   3.811   3.349  17.647 -0.3951 -0.8131  0.9071
  885MPD2    C412976   3.704   3.275  17.688  0.0235 -0.2024 -0.5259
  885MPD2    C512977   3.678   3.258   0.132  0.1233 -0.6053 -0.2914
  885MPD2     H12978   3.970   3.465   0.005 -0.3048 -0.2211 -0.9097
  885MPD2    H112979   3.639   3.221  17.620  0.0784 -0.9466  0.0146
  885MPD2    H212980   3.730   3.285   0.321  0.3681 -0.9698 -0.4803
  885MPD2    H312981   3.593   3.194   0.155  0.1283 -1.1064 -1.6748
  885MPD2     N12982   3.849   3.343  17.507  0.2831  0.4450  0.3286
  885MPD2    H512983   3.945   3.369  17.490  0.0786  0.2679 -1.0580
  885MPD2    N112984   3.943   3.423   0.294 -0.5828  0.5921 -0.2214
  885MPD2    H712985   3.892   3.417   0.382  2.6914 -2.7337  1.4517
  886MPD2     C12986   0.423   2.173  15.461  0.6066 -0.2291 -0.3951
  886MPD2    C112987   0.505   2.101  15.369  0.1323 -0.6029  0.3106
  886MPD2    C212988   0.619   2.168  15.319  0.8801  0.4384  0.4225
  886MPD2    C312989   0.645   2.302  15.346  0.1751 -0.1606 -0.2688
  886MPD2    C412990   0.560   2.365  15.428 -0.6781  0.1430  0.9861
  886MPD2    C512991   0.449   2.303  15.481 -0.1938  0.0631 -0.8278
  886MPD2     H12992   0.689   2.101  15.270 -1.4866 -1.6221 -0.1682
  886MPD2    H112993   0.569   2.473  15.433 -0.2944  0.1137  0.9135
  886MPD2    H212994   0.326   2.138  15.495  1.8518 -1.1478  2.2307
  886MPD2    H312995   0.390   2.357  15.554 -3.2036  0.1509 -3.3497
  886MPD2     N12996   0.757   2.364  15.292 -0.6422 -0.0778 -0.1424
  886MPD2    H512997   0.764   2.466  15.296 -1.6879  0.0593 -1.6853
  886MPD2    N112998   0.498   1.960  15.339  0.5916  0.1035 -0.1556
  886MPD2    H712999   0.577   1.926  15.285 -0.3054 -1.6642 -0.3777
  887MPD2     C13000   1.054   1.692  15.415  0.8199 -0.0791  0.0445
  887MPD2    C113001   0.942   1.762  15.456  0.5930 -0.0147  0.7444
  887MPD2    C213002   0.952   1.893  15.495  0.3085  0.0119 -0.0513
  887MPD2    C313003   1.079   1.946  15.508  0.0096 -0.4711 -0.5694
  887MPD2    C413004   1.188   1.877  15.465  0.3572  0.2040 -0.0276
  887MPD2    C513005   1.170   1.757  15.407 -0.2019 -0.4163  0.0851
  887MPD2     H13006   0.863   1.953  15.511  0.8566  0.0113  2.9852
  887MPD2    H113007   1.290   1.914  15.468 -0.0470  1.4183 -0.9667
  887MPD2    H213008   1.052   1.597  15.364 -0.9954 -0.4525  0.7905
  887MPD2    H313009   1.256   1.709  15.364 -1.0716 -0.0299 -2.0504
  887MPD2     N13010   1.078   2.077  15.567 -0.3626 -0.2212 -0.6743
  887MPD2    H513011   0.989   2.116  15.594 -0.5677 -0.3773 -1.1170
  887MPD2    N113012   0.811   1.704  15.442 -0.0023  0.3914 -0.7193
  887MPD2    H713013   0.738   1.769  15.471  0.5791  0.7590 -0.0865
  888MPD2     C13014   3.230   1.894  15.019  0.7069  0.2296 -0.6826
  888MPD2    C113015   3.157   1.935  15.127  0.5611 -0.2417 -0.1700
  888MPD2    C213016   3.138   2.071  15.155  0.5256  0.1906 -0.5862
  888MPD2    C313017   3.185   2.167  15.070  0.1290 -0.6697 -0.6181
  888MPD2    C413018   3.265   2.125  14.962  0.2168 -0.3049  1.0088
  888MPD2    C513019   3.292   1.990  14.946  0.1782  0.8010 -0.0883
  888MPD2     H13020   3.073   2.108  15.234  0.3286 -1.1315 -0.1356
  888MPD2    H113021   3.312   2.193  14.892  0.1218 -1.4843 -0.2178
  888MPD2    H213022   3.261   1.791  15.006 -2.9150 -0.9693  0.2112
  888MPD2    H313023   3.345   1.954  14.858  1.7379 -0.2441  1.2913
  888MPD2     N13024   3.134   2.303  15.068  0.1612  0.6931 -0.0306
  888MPD2    H513025   3.051   2.314  15.127 -0.0306 -0.6017 -0.0517
  888MPD2    N113026   3.083   1.840  15.203 -0.4261  0.0952 -0.0735
  888MPD2    H713027   3.039   1.871  15.289  3.5251 -0.0565  1.9924
  889MPD2     C13028   2.185   0.976  13.056 -0.2183 -0.2935  0.2272
  889MPD2    C113029   2.300   0.973  13.129  0.3904  0.3752 -0.1297
  889MPD2    C213030   2.396   1.070  13.095 -0.2265  0.5256  0.2150
  889MPD2    C313031   2.377   1.175  13.009  0.7830 -0.3029  1.1973
  889MPD2    C413032   2.258   1.175  12.943 -0.0484 -0.8542 -0.2994
  889MPD2    C513033   2.169   1.073  12.961 -0.0517 -0.0454 -0.4938
  889MPD2     H13034   2.489   1.078  13.150 -0.6218  1.4396  0.7605
  889MPD2    H113035   2.230   1.248  12.868 -1.4350  0.8057  1.8418
  889MPD2    H213036   2.122   0.889  13.048 -0.7031 -0.0083  0.8802
  889MPD2    H313037   2.089   1.059  12.890 -0.2826 -1.4417  0.0344
  889MPD2     N13038   2.471   1.278  12.999 -0.0405  0.0561  0.3548
  889MPD2    H513039   2.547   1.267  13.066  0.6310 -0.5150 -0.5052
  889MPD2    N113040   2.335   0.857  13.205 -0.3059 -0.1787 -0.0601
  889MPD2    H713041   2.430   0.842  13.238 -0.1729 -0.6141 -0.6294
  890MPD2     C13042   1.762   2.942  14.487 -0.3588  0.1085  0.0136
  890MPD2    C113043   1.851   3.037  14.523 -0.5405 -0.3709  1.0249
  890MPD2    C213044   1.927   3.017  14.642  0.2999  0.2106 -0.3656
  890MPD2    C313045   1.907   2.907  14.727  0.4134  0.3040 -0.2254
  890MPD2    C413046   1.809   2.816  14.689  0.2877 -1.1678  0.5646
  890MPD2    C513047   1.741   2.831  14.571 -0.5225 -0.3413 -0.2866
  890MPD2     H13048   2.005   3.088  14.667  0.2845  0.3935 -0.8226
  890MPD2    H113049   1.789   2.726  14.746 -0.4677 -1.6409 -0.4519
  890MPD2    H213050   1.711   2.947  14.391 -0.7724  0.7002  0.2661
  890MPD2    H313051   1.681   2.747  14.539 -1.7999  1.1025 -1.6967
  890MPD2     N13052   1.977   2.897  14.852 -0.1748 -0.6122  0.1710
  890MPD2    H513053   2.041   2.972  14.876 -0.0859 -1.0879  1.3805
  890MPD2    N113054   1.844   3.158  14.457  0.2012 -0.2732 -0.0251
  890MPD2    H713055   1.778   3.167  14.381  0.0494  0.3682  0.1843
  891MPD2     C13056   4.183   1.196  16.775  0.0610 -0.2547 -0.7404
  891MPD2    C113057   4.140   1.325  16.783  0.1210 -0.3348 -0.3388
  891MPD2    C213058   4.230   1.428  16.788 -0.4981  0.3034 -1.4091
  891MPD2    C313059   4.369   1.402  16.792 -0.0845  0.4183  0.4148
  891MPD2    C413060   4.411   1.265  16.784 -0.9236 -0.0391  0.5296
  891MPD2    C513061   4.316   1.166  16.769 -0.0547 -0.3185  0.1925
  891MPD2     H13062   4.206   1.532  16.805 -0.0645  0.0449  0.8756
  891MPD2    H113063   4.516   1.238  16.794 -1.0541  0.1087  2.2615
  891MPD2    H213064   4.108   1.119  16.765 -0.5749  0.1585  0.8397
  891MPD2    H313065   4.338   1.062  16.747  0.1219  0.1501 -1.8784
  891MPD2     N13066   4.456   1.508  16.834 -0.0683  0.4571 -0.3224
  891MPD2    H513067   4.410   1.590  16.872 -0.7160  0.3291 -0.8234
  891MPD2    N113068   4.001   1.345  16.766 -0.3262 -0.2894 -0.1661
  891MPD2    H713069   3.946   1.263  16.741  2.2529 -1.7700 -0.9562
  892MPD2     C13070   1.265   3.058  14.617  0.6147 -0.5247 -0.2467
  892MPD2    C113071   1.198   2.947  14.672 -0.4773 -0.2397 -0.1106
  892MPD2    C213072   1.238   2.822  14.648 -0.6034 -1.0278 -0.4491
  892MPD2    C313073   1.350   2.796  14.576  0.6307 -0.3024  0.2939
  892MPD2    C413074   1.407   2.900  14.505  0.1771 -0.2397  0.0969
  892MPD2    C513075   1.364   3.032  14.524  0.0376  0.4942 -0.1841
  892MPD2     H13076   1.182   2.748  14.702  0.3527 -2.0563 -0.8616
  892MPD2    H113077   1.481   2.891  14.426  1.8322  0.0816  1.5935
  892MPD2    H213078   1.244   3.164  14.629  0.5046 -0.5419 -0.2912
  892MPD2    H313079   1.414   3.118  14.481  0.5955 -1.1896 -2.9261
  892MPD2     N13080   1.402   2.669  14.557  0.5427 -0.2572  0.4647
  892MPD2    H513081   1.485   2.668  14.499 -1.0513 -1.2362 -1.8087
  892MPD2    N113082   1.070   2.959  14.730 -0.4195 -0.2696 -0.0756
  892MPD2    H713083   1.012   2.879  14.749  1.7622 -2.1201 -1.1771
  893MPD2     C13084   1.938   1.219   1.311 -0.4761 -0.0113 -0.1766
  893MPD2    C113085   2.001   1.162   1.425 -0.3370 -0.1852  0.0165
  893MPD2    C213086   1.921   1.116   1.527 -0.1109  0.8088 -0.4030
  893MPD2    C313087   1.786   1.132   1.521 -0.1929  0.1547  0.0564
  893MPD2    C413088   1.727   1.201   1.412 -0.4042 -0.3368 -0.7222
  893MPD2    C513089   1.801   1.243   1.314 -0.3380 -0.0384  0.4238
  893MPD2     H13090   1.964   1.075   1.618 -0.8482  2.0686  0.5194
  893MPD2    H113091   1.620   1.219   1.408 -0.9173 -3.5887 -1.1119
  893MPD2    H213092   1.991   1.251   1.222 -0.1157 -0.7098 -0.2160
  893MPD2    H313093   1.739   1.278   1.233 -2.1725 -1.6035  1.1509
  893MPD2     N13094   1.698   1.097   1.629 -0.1816 -0.0328  0.4586
  893MPD2    H513095   1.603   1.133   1.624  0.1498  0.8208  0.3775
  893MPD2    N113096   2.139   1.182   1.437  0.6992 -0.6227  0.4069
  893MPD2    H713097   2.183   1.225   1.356  0.4390  0.1681  0.6852
  894MPD2     C13098   0.396   3.839   1.257  0.2526  0.3565 -0.8627
  894MPD2    C113099   0.362   3.971   1.225 -0.1472 -0.5157 -0.2430
  894MPD2    C213100   0.450   4.034   1.142 -0.5513  0.3704 -0.3192
  894MPD2    C313101   0.582   3.982   1.116 -0.6306  0.0787 -0.8430
  894MPD2    C413102   0.617   3.860   1.168 -0.0513 -0.2887 -0.7881
  894MPD2    C513103   0.522   3.795   1.239 -0.0289 -0.0884 -0.1733
  894MPD2     H13104   0.420   4.128   1.096  1.9153  1.9473  1.2883
  894MPD2    H113105   0.715   3.815   1.151 -1.7179 -3.4525 -2.1227
  894MPD2    H213106   0.327   3.775   1.311  1.5166 -0.1327  0.1765
  894MPD2    H313107   0.544   3.696   1.277 -1.1735 -1.2081 -2.3614
  894MPD2     N13108   0.668   4.055   1.030 -0.2572 -0.8156 -0.3535
  894MPD2    H513109   0.640   4.149   1.004  3.2681  1.1261  2.8131
  894MPD2    N113110   0.232   4.024   1.253  0.1678  0.5406  0.5984
  894MPD2    H713111   0.207   4.112   1.209  0.9130  0.9768  1.0462
  895MPD2     C13112   0.566   1.975  13.271 -0.4934 -0.0877 -0.0148
  895MPD2    C113113   0.453   1.916  13.216 -0.3226  0.2076 -0.1917
  895MPD2    C213114   0.448   1.778  13.208  0.9111  0.1089  0.3971
  895MPD2    C313115   0.553   1.701  13.236  0.5234 -0.4007  0.1008
  895MPD2    C413116   0.663   1.755  13.300  0.1064 -0.3235  0.1079
  895MPD2    C513117   0.671   1.895  13.312 -0.0335 -0.2581  0.4687
  895MPD2     H13118   0.361   1.728  13.167  2.4647 -1.0889 -1.4223
  895MPD2    H113119   0.748   1.695  13.331  1.5757  2.1979  0.9429
  895MPD2    H213120   0.575   2.083  13.286 -2.7928 -0.0730  1.3409
  895MPD2    H313121   0.758   1.945  13.352  0.8446 -0.7198 -0.8543
  895MPD2     N13122   0.552   1.563  13.196 -0.3607  0.1601 -0.3462
  895MPD2    H513123   0.473   1.543  13.136 -0.9983 -0.2257  0.6149
  895MPD2    N113124   0.341   1.991  13.172  0.1677 -0.0774 -0.5519
  895MPD2    H713125   0.256   1.942  13.144 -0.3175  0.3087  0.2480
  896MPD2     C13126   2.735   3.718   1.011  0.0545 -0.2895 -0.2207
  896MPD2    C113127   2.612   3.780   1.055 -0.6655  0.8747  0.1673
  896MPD2    C213128   2.503   3.699   1.088 -0.4306  0.5323 -0.0187
  896MPD2    C313129   2.522   3.560   1.070  0.0437  0.3105  0.3847
  896MPD2    C413130   2.646   3.503   1.035 -0.8109 -0.2662 -0.1905
  896MPD2    C513131   2.751   3.584   1.005  1.2701  0.6387  0.0492
  896MPD2     H13132   2.407   3.734   1.122 -1.1494 -1.5671  0.1380
  896MPD2    H113133   2.660   3.396   1.027  1.8998 -0.0441  1.3630
  896MPD2    H213134   2.820   3.781   0.989 -0.2992 -0.7237 -2.8240
  896MPD2    H313135   2.853   3.553   0.984  1.1491  1.0933 -1.2427
  896MPD2     N13136   2.402   3.477   1.079  0.3182  0.2575 -0.4644
  896MPD2    H513137   2.327   3.531   1.120  1.2082  1.8493 -0.9194
  896MPD2    N113138   2.607   3.918   1.059 -0.5362 -0.4540 -0.7516
  896MPD2    H713139   2.682   3.965   1.010  0.0551 -1.0489 -0.4189
  897MPD2     C13140   3.249   4.662  10.643  0.6026  0.4165  0.4641
  897MPD2    C113141   3.197   0.066  10.664  0.5342  0.0421 -0.0318
  897MPD2    C213142   3.057   0.086  10.647  0.3759 -0.5516 -1.0808
  897MPD2    C313143   2.973   4.704  10.621  0.7610 -0.6238 -0.3726
  897MPD2    C413144   3.024   4.580  10.598 -0.3870 -0.0828 -0.0567
  897MPD2    C513145   3.158   4.557  10.628  0.6451 -0.2248  0.1764
  897MPD2     H13146   3.010   0.180  10.674 -1.0985 -1.6376  0.0985
  897MPD2    H113147   2.978   4.484  10.576 -0.6477 -0.1349  0.6924
  897MPD2    H213148   3.354   4.633  10.647  0.4183 -0.3059 -0.1515
  897MPD2    H313149   3.197   4.457  10.616  0.7345 -0.2604  0.7668
  897MPD2     N13150   2.837   0.011  10.605  0.0324 -0.5929  0.0482
  897MPD2    H513151   2.808   0.104  10.634  2.3124 -0.3597  1.5578
  897MPD2    N113152   3.274   0.180  10.699 -0.3498  0.1133 -0.2179
  897MPD2    H713153   3.220   0.266  10.702  4.1775  2.9267  0.3698
  898MPD2     C13154   4.437   2.269   0.565 -0.4489  0.0098 -0.0661
  898MPD2    C113155   4.527   2.198   0.494 -0.0201  0.0800 -0.3087
  898MPD2    C213156   4.639   2.263   0.439  0.7503  0.5785  0.4657
  898MPD2    C313157   4.646   2.400   0.450  0.0836  0.2588 -0.2275
  898MPD2    C413158   4.553   2.468   0.525 -0.4259  0.5975  0.2592
  898MPD2    C513159   4.453   2.401   0.587 -0.8542  0.0997 -0.2480
  898MPD2     H13160   4.713   2.213   0.377 -0.7060  0.4594 -1.1581
  898MPD2    H113161   4.556   2.575   0.537  0.4369  0.8536 -2.2725
  898MPD2    H213162   4.344   2.232   0.606 -1.2947  0.8485 -1.2192
  898MPD2    H313163   4.371   2.461   0.625 -0.4314  1.1919 -1.0450
  898MPD2     N13164   0.041   2.463   0.392 -0.0567  0.1171 -0.0557
  898MPD2    H513165   0.109   2.399   0.354 -0.7398 -0.2287 -0.6925
  898MPD2    N113166   4.516   2.058   0.496 -0.1790  0.4822  0.6671
  898MPD2    H713167   4.436   2.017   0.543 -1.7489  0.9441 -1.5606
  899MPD2     C13168   1.230   2.465  16.956 -0.3670  0.4268 -0.6567
  899MPD2    C113169   1.241   2.564  17.049 -0.4906  0.1200  0.3336
  899MPD2    C213170   1.161   2.555  17.159  0.2507  0.6696  0.0560
  899MPD2    C313171   1.047   2.473  17.167  0.3408 -0.1741 -0.4948
  899MPD2    C413172   1.031   2.386  17.063  0.7131 -0.0787 -0.3012
  899MPD2    C513173   1.129   2.368  16.969 -0.2213 -0.5264  0.5399
  899MPD2     H13174   1.190   2.614  17.245 -0.2969  0.3316  0.4721
  899MPD2    H113175   0.946   2.318  17.066 -2.2260  3.5658  0.1504
  899MPD2    H213176   1.299   2.448  16.874  1.7089 -0.6189  1.3249
  899MPD2    H313177   1.112   2.307  16.881 -1.5019 -0.0007  0.4226
  899MPD2     N13178   0.960   2.462  17.287  0.7344 -0.2804  0.5838
  899MPD2    H513179   0.878   2.402  17.281  1.6654 -1.7330  2.1890
  899MPD2    N113180   1.344   2.658  17.029  0.6224 -0.2248 -0.4838
  899MPD2    H713181   1.377   2.655  16.933  3.2939 -0.8347  0.4782
  900MPD2     C13182   1.158   4.216  12.607 -0.2191  0.1929 -0.5391
  900MPD2    C113183   1.077   4.103  12.606  0.2577 -0.4677 -0.1234
  900MPD2    C213184   0.938   4.111  12.589  0.0283  0.1648  0.4869
  900MPD2    C313185   0.885   4.236  12.574  0.0651 -0.0137 -0.1014
  900MPD2    C413186   0.958   4.349  12.594 -0.0112 -0.0082 -0.3808
  900MPD2    C513187   1.093   4.341  12.620  0.3365 -0.7187 -0.3264
  900MPD2     H13188   0.877   4.022  12.578  0.1333  0.4792 -2.5443
  900MPD2    H113189   0.912   4.447  12.593 -4.7016 -2.1837 -1.8806
  900MPD2    H213190   1.266   4.216  12.617 -0.3288  1.8928  0.6715
  900MPD2    H313191   1.152   4.427  12.649  1.3201 -1.3495 -0.4595
  900MPD2     N13192   0.752   4.245  12.514  0.5057 -0.0900  0.9333
  900MPD2    H513193   0.709   4.154  12.501 -1.4426  0.8962  0.5595
  900MPD2    N113194   1.137   3.978  12.627  0.0005  0.4831  0.1809
  900MPD2    H713195   1.237   3.971  12.615  0.1098  1.7266  0.2845
  901MPD2     C13196   1.087   2.921  12.821 -0.2265 -0.1613 -0.3180
  901MPD2    C113197   1.212   2.945  12.874 -0.1491  0.5378  0.0631
  901MPD2    C213198   1.254   3.077  12.882 -0.4406 -0.0272  0.1650
  901MPD2    C313199   1.177   3.181  12.843  0.3721  0.2638  0.1622
  901MPD2    C413200   1.045   3.149  12.795 -0.2655  1.0468  0.5272
  901MPD2    C513201   1.009   3.023  12.789  0.4448  0.5457  0.8137
  901MPD2     H13202   1.348   3.108  12.926  0.1618  1.5287 -2.2526
  901MPD2    H113203   0.960   3.211  12.773 -2.2019 -1.4773  0.8261
  901MPD2    H213204   1.067   2.816  12.809 -2.8840  0.4828 -1.4988
  901MPD2    H313205   0.913   3.010  12.741  0.3922 -1.7162  1.4950
  901MPD2     N13206   1.218   3.317  12.846  0.1369  0.9848  0.2775
  901MPD2    H513207   1.311   3.332  12.883  0.6055 -1.3873  0.0391
  901MPD2    N113208   1.291   2.833  12.893  0.3276  0.5055  0.5196
  901MPD2    H713209   1.245   2.743  12.895 -0.6937  1.0261  0.2547
  902MPD2     C13210   0.629   1.765  12.924 -0.5379  0.1855 -0.1311
  902MPD2    C113211   0.553   1.819  12.822 -0.6976  0.5677  0.3081
  902MPD2    C213212   0.552   1.769  12.697  1.0754 -0.2589  0.2115
  902MPD2    C313213   0.633   1.660  12.672  0.2502  0.3274  0.6152
  902MPD2    C413214   0.700   1.600  12.772 -0.4352 -0.2473 -0.2362
  902MPD2    C513215   0.703   1.652  12.897 -0.2745  0.0969  0.0141
  902MPD2     H13216   0.494   1.818  12.620  1.6903  1.7592  1.0247
  902MPD2    H113217   0.758   1.512  12.746  0.1662 -0.9371  3.4737
  902MPD2    H213218   0.643   1.805  13.024  0.6578 -0.4228 -0.0507
  902MPD2    H313219   0.767   1.610  12.973 -1.2089  0.2861  0.9137
  902MPD2     N13220   0.652   1.612  12.540  0.3339 -0.3251 -0.1024
  902MPD2    H513221   0.698   1.523  12.524  0.5273 -0.1255 -0.6566
  902MPD2    N113222   0.477   1.936  12.856  0.0969 -0.0812  0.4548
  902MPD2    H713223   0.486   1.994  12.939  1.0464  0.6254 -0.1486
  903MPD2     C13224   0.654   1.924  11.665 -0.0124 -0.5791 -0.8758
  903MPD2    C113225   0.585   1.868  11.774  0.0733 -0.4081  0.3656
  903MPD2    C213226   0.451   1.866  11.761 -0.0187  0.8550  0.6740
  903MPD2    C313227   0.390   1.923  11.659  0.4871 -0.7622 -0.1127
  903MPD2    C413228   0.450   1.985  11.556  0.0905 -0.4983 -0.5707
  903MPD2    C513229   0.588   1.972  11.553 -0.6277 -0.7774  0.5137
  903MPD2     H13230   0.386   1.801  11.818  0.8410  1.4389  2.3057
  903MPD2    H113231   0.403   2.017  11.464 -1.1957 -2.8084 -0.7246
  903MPD2    H213232   0.761   1.925  11.649 -0.1152 -1.5955 -1.6941
  903MPD2    H313233   0.648   2.021  11.476 -1.8908 -1.0140 -0.6139
  903MPD2     N13234   0.258   1.888  11.644 -0.1597 -0.0323  0.0581
  903MPD2    H513235   0.219   1.835  11.721 -0.2089 -0.5558 -0.3348
  903MPD2    N113236   0.657   1.807  11.874 -0.1186  0.0706  0.7901
  903MPD2    H713237   0.755   1.785  11.857 -1.5796 -5.1212 -0.7894
  904MPD2     C13238   0.654   1.955  13.656  0.0935  0.7026  0.3188
  904MPD2    C113239   0.582   1.864  13.725 -0.2143 -0.2137 -0.6944
  904MPD2    C213240   0.640   1.792  13.820  0.1777 -0.1322  0.7768
  904MPD2    C313241   0.775   1.811  13.842 -0.2594  0.2811  0.1181
  904MPD2    C413242   0.844   1.915  13.781 -0.0490 -0.8980 -0.4351
  904MPD2    C513243   0.784   1.983  13.679  0.1138 -0.1536  0.8706
  904MPD2     H13244   0.592   1.715  13.879 -0.9335  0.0199  0.0777
  904MPD2    H113245   0.950   1.934  13.797 -1.3011  2.1731  4.0817
  904MPD2    H213246   0.606   2.008  13.574  0.9294  1.5947  0.4100
  904MPD2    H313247   0.844   2.054  13.623 -1.2569  0.0162 -0.3697
  904MPD2     N13248   0.839   1.726  13.930 -0.6352 -0.4545 -0.1331
  904MPD2    H513249   0.781   1.657  13.976 -0.9688 -0.0767  0.0139
  904MPD2    N113250   0.454   1.819  13.688 -0.6978 -0.0158 -0.1249
  904MPD2    H713251   0.420   1.728  13.720  0.2995 -1.3711 -2.9231
  905MPD2     C13252   4.530   1.445  13.245  0.7312 -0.2042  0.6446
  905MPD2    C113253   4.644   1.523  13.250  0.2865 -0.1751 -0.5579
  905MPD2    C213254   0.038   1.478  13.188  0.6529  0.0743 -0.0206
  905MPD2    C313255   0.042   1.353  13.140 -0.8081 -0.0055 -0.5073
  905MPD2    C413256   4.656   1.274  13.141 -0.5643 -0.3605  0.0074
  905MPD2    C513257   4.538   1.319  13.194  0.2510  0.3637  0.1175
  905MPD2     H13258   0.130   1.534  13.198  0.3121  0.4738  0.8523
  905MPD2    H113259   4.658   1.173  13.102  1.6931 -0.5242  0.5632
  905MPD2    H213260   4.437   1.491  13.277  1.9378  2.1450  0.7987
  905MPD2    H313261   4.447   1.260  13.190  1.1020 -0.9342 -0.1413
  905MPD2     N13262   0.159   1.291  13.091 -0.0400 -0.1786 -0.2879
  905MPD2    H513263   0.155   1.190  13.079 -1.0032 -0.5055  2.8649
  905MPD2    N113264   4.644   1.634  13.336 -0.3539  0.2072  0.1340
  905MPD2    H713265   4.577   1.630  13.411 -2.3387 -0.7852 -1.6981
  906MPD2     C13266   1.969   0.839  11.158 -0.3926  0.2389 -0.0851
  906MPD2    C113267   1.885   0.755  11.086  0.2556 -0.3224  0.1553
  906MPD2    C213268   1.802   0.669  11.157  0.0735  0.0012  0.8962
  906MPD2    C313269   1.799   0.664  11.293  0.2812 -0.4173  0.2038
  906MPD2    C413270   1.877   0.757  11.365  0.1065 -0.3457 -0.1082
  906MPD2    C513271   1.952   0.847  11.292 -0.6369 -1.2570  0.2686
  906MPD2     H13272   1.743   0.601  11.097  1.3790  0.3442 -0.8044
  906MPD2    H113273   1.858   0.775  11.470  0.4144  1.4975 -0.3557
  906MPD2    H213274   2.032   0.912  11.109  0.0161  0.9848  1.5436
  906MPD2    H313275   1.999   0.931  11.341  0.4027 -2.1810  0.8651
  906MPD2     N13276   1.703   0.584  11.349 -0.1996  0.5571 -0.3349
  906MPD2    H513277   1.636   0.538  11.288 -0.9528  1.5142 -0.2290
  906MPD2    N113278   1.882   0.754  10.941  0.4393  0.8335  0.0191
  906MPD2    H713279   1.820   0.683  10.903  0.5920 -1.0761  3.3080
  907MPD2     C13280   0.973   0.759  15.960  0.0962 -0.3560 -0.0013
  907MPD2    C113281   0.973   0.620  15.928 -0.2691 -0.2295 -0.2878
  907MPD2    C213282   1.044   0.530  16.006 -0.8445 -0.4446  0.0402
  907MPD2    C313283   1.096   0.568  16.120 -0.1129 -0.4541  0.8109
  907MPD2    C413284   1.107   0.701  16.154 -0.1332  0.5704  0.1301
  907MPD2    C513285   1.039   0.794  16.077  0.5236 -0.0658  0.1888
  907MPD2     H13286   1.037   0.422  15.996 -4.9096 -0.0728 -1.1718
  907MPD2    H113287   1.159   0.750  16.236  0.3881 -1.7349  1.1714
  907MPD2    H213288   0.934   0.835  15.893  0.3061  0.3755  0.7038
  907MPD2    H313289   1.043   0.897  16.111  2.5414  0.7419 -2.4974
  907MPD2     N13290   1.128   0.465  16.213 -0.0439 -0.3882  0.1856
  907MPD2    H513291   1.112   0.367  16.188  2.4769 -0.4149 -1.2374
  907MPD2    N113292   0.906   0.563  15.809  0.4896  0.2689 -0.5676
  907MPD2    H713293   0.919   0.464  15.794  0.0908 -0.2571  2.6432
  908MPD2     C13294   3.478   0.896  10.242  0.1725 -0.1682  0.5101
  908MPD2    C113295   3.461   0.757  10.213  0.4726  0.8490 -0.0138
  908MPD2    C213296   3.458   0.664  10.314 -0.3458 -0.0520  0.0407
  908MPD2    C313297   3.479   0.699  10.444 -0.2896 -0.4392 -0.0676
  908MPD2    C413298   3.495   0.834  10.473  0.6621 -0.3847  0.8271
  908MPD2    C513299   3.502   0.926  10.370 -0.6512 -0.1123  0.3088
  908MPD2     H13300   3.442   0.560  10.289 -0.1280  0.2161 -1.1772
  908MPD2    H113301   3.504   0.869  10.576  3.3487  1.6632 -0.1039
  908MPD2    H213302   3.494   0.977  10.171 -0.8880 -0.9648 -0.6427
  908MPD2    H313303   3.519   1.030  10.394 -0.0520  0.3038 -1.9286
  908MPD2     N13304   3.492   0.603  10.548 -0.4594  0.8642 -0.3179
  908MPD2    H513305   3.486   0.505  10.525  2.1613  0.7917 -0.7579
  908MPD2    N113306   3.441   0.728  10.073  0.7327  0.7838  0.5291
  908MPD2    H713307   3.455   0.807  10.011  0.3214  0.2465 -0.2333
  909MPD2     C13308   3.520   3.205  11.884 -0.6391 -0.1735 -0.0940
  909MPD2    C113309   3.521   3.331  11.836  0.1254  0.2160  0.5838
  909MPD2    C213310   3.483   3.441  11.909 -0.5970  0.7320  0.0408
  909MPD2    C313311   3.436   3.423  12.041  0.2445  0.2051 -0.2544
  909MPD2    C413312   3.438   3.289  12.096 -0.1102  0.0926  0.6961
  909MPD2    C513313   3.483   3.185  12.017 -0.4481 -0.4488 -0.0817
  909MPD2     H13314   3.493   3.542  11.871  0.0252  0.9800  0.8761
  909MPD2    H113315   3.400   3.257  12.192 -0.7929 -0.7844  0.1441
  909MPD2    H213316   3.548   3.117  11.828 -2.5094  0.2340 -1.6817
  909MPD2    H313317   3.479   3.084  12.055 -4.3790  0.2173  1.3136
  909MPD2     N13318   3.396   3.539  12.104  0.2610 -0.1326  0.3863
  909MPD2    H513319   3.440   3.621  12.064  0.0650  0.1331  0.7252
  909MPD2    N113320   3.552   3.363  11.700 -0.6311  0.1132  0.4582
  909MPD2    H713321   3.559   3.462  11.675 -0.9464  0.1464  0.5021
  910MPD2     C13322   4.526   1.083  16.098 -0.5844 -0.1291 -0.1273
  910MPD2    C113323   4.636   1.042  16.034 -0.0270  0.1821 -0.2709
  910MPD2    C213324   4.664   1.073  15.904  0.1730  0.6359 -0.0139
  910MPD2    C313325   4.570   1.148  15.829 -0.0919  0.1378  0.2535
  910MPD2    C413326   4.458   1.201  15.893  1.0488  0.4079  0.5839
  910MPD2    C513327   4.438   1.165  16.026  0.2877 -0.8363 -0.0417
  910MPD2     H13328   0.032   1.037  15.858  0.7516  0.5062  1.2083
  910MPD2    H113329   4.378   1.265  15.858  0.8041  1.0132  2.2703
  910MPD2    H213330   4.504   1.066  16.203 -0.7408 -2.0442 -0.4808
  910MPD2    H313331   4.354   1.218  16.070  0.5390 -1.2205  0.8834
  910MPD2     N13332   4.587   1.184  15.690 -0.5326  0.0554 -0.3385
  910MPD2    H513333   4.512   1.235  15.643 -0.7453 -1.3773 -1.5479
  910MPD2    N113334   0.011   0.973  16.108 -0.2244 -0.1503  0.2556
  910MPD2    H713335   0.092   0.944  16.055  1.2551  3.1265  0.7372
  911MPD2     C13336   2.717   2.188  16.348 -0.2173 -0.3766  0.0786
  911MPD2    C113337   2.724   2.058  16.302  0.1248 -0.0417 -0.1787
  911MPD2    C213338   2.740   2.049  16.163 -0.0489  0.3571 -0.2257
  911MPD2    C313339   2.713   2.163  16.088  0.7158  0.3921 -0.8063
  911MPD2    C413340   2.707   2.286  16.136  0.5599 -0.2227  0.6972
  911MPD2    C513341   2.708   2.298  16.270  0.2560 -0.9092  0.1482
  911MPD2     H13342   2.757   1.956  16.109  1.6894 -0.1064  1.1096
  911MPD2    H113343   2.685   2.371  16.073  1.3180 -0.7002 -0.1976
  911MPD2    H213344   2.713   2.204  16.455  2.1338  1.6325 -0.1301
  911MPD2    H313345   2.691   2.395  16.316 -0.5050 -0.6193 -0.7454
  911MPD2     N13346   2.707   2.138  15.948 -0.0058 -0.7165  0.0296
  911MPD2    H513347   2.701   2.039  15.926 -0.0504 -0.5126 -0.8834
  911MPD2    N113348   2.751   1.954  16.401 -0.3863 -0.6839  0.7498
  911MPD2    H713349   2.773   1.971  16.498  0.2191  0.0569  0.4852
  912MPD2     C13350   2.539   1.562  15.392  0.3081  0.1018 -0.9833
  912MPD2    C113351   2.531   1.619  15.514  0.2689  0.6876  0.7105
  912MPD2    C213352   2.517   1.535  15.626  0.2375 -0.1390 -0.5273
  912MPD2    C313353   2.515   1.399  15.617  0.7316 -0.5092 -1.0667
  912MPD2    C413354   2.532   1.338  15.494  0.2336  0.5725  0.1837
  912MPD2    C513355   2.542   1.426  15.385  0.7460  0.3865 -0.1814
  912MPD2     H13356   2.511   1.583  15.723 -2.9142 -1.1280 -0.2431
  912MPD2    H113357   2.531   1.232  15.475  0.4578  1.0183 -2.3927
  912MPD2    H213358   2.558   1.615  15.299  1.6454  2.5890  0.7125
  912MPD2    H313359   2.542   1.385  15.285 -1.9705  1.1163 -0.4814
  912MPD2     N13360   2.505   1.331  15.740 -0.0586  0.4131 -1.1050
  912MPD2    H513361   2.491   1.390  15.821 -1.6606 -2.0163  0.4035
  912MPD2    N113362   2.545   1.762  15.524  0.3428 -0.1728  0.7663
  912MPD2    H713363   2.577   1.800  15.436  1.4329 -2.0172  0.3749
  913MPD2     C13364   2.717   1.878   9.758  0.2613 -0.1292  1.0666
  913MPD2    C113365   2.770   1.968   9.853  0.2987  0.0217  0.3462
  913MPD2    C213366   2.779   2.098   9.810 -0.0007 -0.4773  0.4930
  913MPD2    C313367   2.723   2.152   9.695 -0.3755  0.7346  0.1208
  913MPD2    C413368   2.673   2.061   9.608  0.1437 -0.6941 -0.2955
  913MPD2    C513369   2.673   1.930   9.635 -0.0679  0.7359 -0.0870
  913MPD2     H13370   2.808   2.170   9.885 -1.4668  0.1339  0.4870
  913MPD2    H113371   2.637   2.100   9.513  0.4430  1.7773  0.6073
  913MPD2    H213372   2.720   1.772   9.779  0.1494 -0.0590  1.4512
  913MPD2    H313373   2.634   1.864   9.558  0.0634  0.4105  0.1274
  913MPD2     N13374   2.721   2.291   9.662 -0.0881  1.0535  0.1428
  913MPD2    H513375   2.674   2.319   9.577 -1.0775 -0.9536  0.0173
  913MPD2    N113376   2.795   1.917   9.985  0.2823  0.3134  0.5328
  913MPD2    H713377   2.786   1.817  10.001 -0.1082  0.4093  0.9062
  914MPD2     C13378   1.050   2.878  12.291  0.2173  0.3532 -0.6809
  914MPD2    C113379   1.105   2.953  12.396 -1.1270  0.2241 -0.0343
  914MPD2    C213380   1.200   2.896  12.483 -0.6540  0.0181 -0.4296
  914MPD2    C313381   1.230   2.764  12.468 -0.4085 -0.5739 -0.8979
  914MPD2    C413382   1.173   2.682  12.375 -0.5497 -0.6339 -0.0937
  914MPD2    C513383   1.082   2.741  12.290  0.1069 -0.4555  0.1413
  914MPD2     H13384   1.244   2.948  12.567 -1.2667  0.2644 -0.2624
  914MPD2    H113385   1.185   2.574  12.377  3.9437 -0.1669 -1.1891
  914MPD2    H213386   0.973   2.921  12.229  0.2907  0.1549 -0.9073
  914MPD2    H313387   1.027   2.673  12.226 -2.0664  0.7901  0.6968
  914MPD2     N13388   1.315   2.715  12.570 -0.6444  0.4224  0.6829
  914MPD2    H513389   1.334   2.784  12.642  3.3709  1.0339 -0.9764
  914MPD2    N113390   1.083   3.092  12.389  0.3253  0.5429  0.1114
  914MPD2    H713391   1.022   3.134  12.320 -0.0158  0.1158  0.1520
  915MPD2     C13392   4.122   2.694  15.260 -0.3368 -0.5552 -0.3114
  915MPD2    C113393   3.989   2.730  15.238 -0.7958  0.0220 -0.4329
  915MPD2    C213394   3.924   2.819  15.325 -0.0570  0.1108  0.6285
  915MPD2    C313395   3.994   2.882  15.423 -1.0636 -0.3019  0.3753
  915MPD2    C413396   4.124   2.833  15.445 -0.1512  0.2924 -0.3188
  915MPD2    C513397   4.189   2.742  15.368  1.0581  0.6079  0.3526
  915MPD2     H13398   3.823   2.856  15.317  0.3257  1.4194  1.7694
  915MPD2    H113399   4.182   2.874  15.527  0.7986  0.4250 -1.0591
  915MPD2    H213400   4.175   2.620  15.201  2.2937  0.5071  0.7191
  915MPD2    H313401   4.289   2.714  15.398  0.1002  0.4550  3.4636
  915MPD2     N13402   3.939   2.988  15.496 -0.7140 -0.5212  0.1834
  915MPD2    H513403   3.840   2.998  15.474 -0.4819 -1.2416 -1.1679
  915MPD2    N113404   3.926   2.677  15.117 -0.8854 -0.1471 -0.1158
  915MPD2    H713405   3.973   2.610  15.057 -0.5220 -0.1065  0.1241
  916MPD2     C13406   2.077   1.468  15.677  0.1272  0.0949  0.0370
  916MPD2    C113407   2.018   1.365  15.753 -0.2713 -0.7193  0.1597
  916MPD2    C213408   2.031   1.237  15.701 -0.0828 -0.1809 -0.5615
  916MPD2    C313409   2.127   1.212  15.602  0.8414  0.4253 -0.7263
  916MPD2    C413410   2.184   1.322  15.536  0.7581  0.4145  0.3532
  916MPD2    C513411   2.157   1.449  15.574 -0.3191  0.0060  1.0058
  916MPD2     H13412   1.987   1.163  15.767  1.0260  0.0505  0.4416
  916MPD2    H113413   2.253   1.301  15.455 -0.0192  1.7485 -0.6495
  916MPD2    H213414   2.051   1.569  15.705 -2.0199 -0.9590  1.8502
  916MPD2    H313415   2.208   1.534  15.531 -0.4378 -0.3067  0.2518
  916MPD2     N13416   2.156   1.081  15.580  0.1663  0.1961 -0.3338
  916MPD2    H513417   2.116   1.006  15.635  0.1886  0.3028 -0.1748
  916MPD2    N113418   1.939   1.402  15.869 -0.3599 -0.1052  0.1073
  916MPD2    H713419   1.930   1.503  15.878  0.9551  0.1039 -0.8565
  917MPD2     C13420   2.328   3.296  10.900 -0.6148 -0.2301 -0.1123
  917MPD2    C113421   2.405   3.321  11.016 -1.1880  0.1362  0.6493
  917MPD2    C213422   2.539   3.370  11.003  0.5757 -0.1971  0.5753
  917MPD2    C313423   2.569   3.428  10.884 -0.1196 -0.2270  0.5648
  917MPD2    C413424   2.494   3.422  10.772  0.7064 -0.0224 -0.7419
  917MPD2    C513425   2.381   3.345  10.780  0.6841 -0.5136  0.8967
  917MPD2     H13426   2.604   3.383  11.089 -1.1288 -0.2464  1.8697
  917MPD2    H113427   2.509   3.478  10.680  0.1418  1.3761  0.0207
  917MPD2    H213428   2.233   3.245  10.896 -1.4453  1.3971 -1.1858
  917MPD2    H313429   2.321   3.342  10.689 -2.2096 -0.9545  2.8327
  917MPD2     N13430   2.690   3.502  10.863 -1.1673 -0.5717  0.3843
  917MPD2    H513431   2.686   3.558  10.778  2.2036 -2.2226 -0.8776
  917MPD2    N113432   2.343   3.290  11.137  0.3607  0.1252 -0.2823
  917MPD2    H713433   2.251   3.249  11.144  0.2690  0.7702  2.2913
  918MPD2     C13434   2.572   3.587  12.104 -0.3297  0.1869 -0.2791
  918MPD2    C113435   2.650   3.507  12.019  0.4468 -0.2343  0.5766
  918MPD2    C213436   2.599   3.463  11.894  0.7458 -0.3811  0.3727
  918MPD2    C313437   2.466   3.477  11.871  0.1488  0.4352  0.1600
  918MPD2    C413438   2.380   3.549  11.952  0.7587  0.0454  0.4191
  918MPD2    C513439   2.435   3.604  12.066 -0.1872  0.1465  0.1466
  918MPD2     H13440   2.662   3.406  11.827  0.3680 -0.2694 -0.0777
  918MPD2    H113441   2.275   3.559  11.926  0.3482 -0.8827  1.7192
  918MPD2    H213442   2.612   3.640  12.189  0.2306 -0.0444 -0.3975
  918MPD2    H313443   2.368   3.663  12.127 -1.5489 -1.4966  0.2589
  918MPD2     N13444   2.426   3.399  11.761  0.1421 -0.1707  0.3813
  918MPD2    H513445   2.507   3.365  11.711  0.2553  0.7730 -0.0650
  918MPD2    N113446   2.793   3.486  12.032  0.2933 -0.3023  0.0043
  918MPD2    H713447   2.832   3.437  11.952  1.5502 -1.7896  1.5127
  919MPD2     C13448   2.929   2.312  11.931  0.1880  0.2369  0.7059
  919MPD2    C113449   2.817   2.247  11.892  0.3570 -0.6128  0.8009
  919MPD2    C213450   2.742   2.298  11.780 -0.3531 -0.6020 -0.5540
  919MPD2    C313451   2.789   2.413  11.710  0.4767 -0.0020 -0.6641
  919MPD2    C413452   2.904   2.472  11.754  0.5266  0.1002  0.4626
  919MPD2    C513453   2.981   2.413  11.852 -0.5604  0.1141 -0.3100
  919MPD2     H13454   2.647   2.255  11.751 -1.3617  1.7091 -0.7030
  919MPD2    H113455   2.947   2.563  11.713 -2.3515  0.5320 -1.5691
  919MPD2    H213456   2.980   2.295  12.025  0.3405  1.7038  0.8958
  919MPD2    H313457   3.064   2.469  11.893  0.2820 -0.1566 -1.6334
  919MPD2     N13458   2.720   2.463  11.598 -0.0599 -0.0543 -0.5571
  919MPD2    H513459   2.762   2.544  11.554  0.2770  0.8081  1.3221
  919MPD2    N113460   2.763   2.132  11.967  0.4581 -0.2809 -0.4852
  919MPD2    H713461   2.685   2.088  11.920  0.2576  0.1424 -0.5467
  920MPD2     C13462   2.850   2.832  10.680 -0.8827 -0.5051 -0.0073
  920MPD2    C113463   2.733   2.767  10.663  0.3238  0.1989  0.5124
  920MPD2    C213464   2.682   2.708  10.778 -0.2236  0.8111 -0.3081
  920MPD2    C313465   2.751   2.711  10.900  0.2584 -0.4271  0.7502
  920MPD2    C413466   2.872   2.771  10.909 -0.0013 -0.5438 -0.1698
  920MPD2    C513467   2.921   2.829  10.799  0.1444 -1.0409  0.0452
  920MPD2     H13468   2.583   2.664  10.775  0.0141  0.0708  2.5822
  920MPD2    H113469   2.930   2.792  10.998 -0.3460  2.0970 -0.5890
  920MPD2    H213470   2.908   2.878  10.601  1.3663 -2.5476  0.4479
  920MPD2    H313471   3.018   2.877  10.809  0.0781 -1.1337  1.1963
  920MPD2     N13472   2.684   2.656  11.010 -0.4421  0.0961  0.3827
  920MPD2    H513473   2.584   2.641  11.001 -0.5530  1.1916 -0.2034
  920MPD2    N113474   2.661   2.777  10.538  0.0455  0.3304  0.3857
  920MPD2    H713475   2.566   2.739  10.538  0.0958  0.1982  1.0101
  921MPD2     C13476   3.414   1.892  16.882  0.8755  0.0601  0.0362
  921MPD2    C113477   3.379   1.792  16.797 -0.4354  0.8374  0.3415
  921MPD2    C213478   3.247   1.762  16.769  0.5462  0.7168 -0.7546
  921MPD2    C313479   3.149   1.848  16.806 -0.5973 -0.7835  0.0172
  921MPD2    C413480   3.182   1.971  16.867 -0.6718 -0.5930 -0.3385
  921MPD2    C513481   3.311   1.986  16.912  1.2148  0.0121  0.0821
  921MPD2     H13482   3.226   1.665  16.724  0.3891  1.6637 -2.7229
  921MPD2    H113483   3.105   2.036  16.907  2.7567  0.3356  4.8596
  921MPD2    H213484   3.519   1.909  16.904  0.6416  0.0245  1.1952
  921MPD2    H313485   3.337   2.067  16.980  0.2526  0.9497 -0.6639
  921MPD2     N13486   3.013   1.824  16.772  0.0525 -0.1354 -0.7688
  921MPD2    H513487   2.952   1.904  16.781 -1.1465 -1.0829 -0.4763
  921MPD2    N113488   3.485   1.707  16.759 -0.0871  0.2477 -0.3305
  921MPD2    H713489   3.578   1.723  16.797 -1.3122  1.0811  2.2532
  922MPD2     C13490   4.502   4.403   0.362 -0.9540 -0.2448  0.1762
  922MPD2    C113491   4.460   4.409   0.231  0.5749  0.9169  0.2046
  922MPD2    C213492   4.375   4.310   0.179  0.4841  0.2105  0.5653
  922MPD2    C313493   4.347   4.203   0.257  0.1278  0.1380 -0.3873
  922MPD2    C413494   4.389   4.195   0.386 -0.1021  0.3963 -0.1545
  922MPD2    C513495   4.453   4.304   0.442 -0.0369  1.3709 -0.1433
  922MPD2     H13496   4.338   4.308   0.076  0.2912  0.7122  0.6249
  922MPD2    H113497   4.369   4.106   0.444 -0.9470  2.3918  2.5686
  922MPD2    H213498   4.563   4.483   0.402 -1.2163 -0.4345  0.9574
  922MPD2    H313499   4.496   4.307   0.542  0.8696  2.3097 -0.5589
  922MPD2     N13500   4.243   4.113   0.208 -0.6197  0.0434  0.0478
  922MPD2    H513501   4.219   4.137   0.112  0.6777 -1.4262 -0.6346
  922MPD2    N113502   4.500   4.527   0.164 -0.6704  0.1764  0.1922
  922MPD2    H713503   4.545   4.602   0.216  1.2666 -0.8573 -0.0153
  923MPD2     C13504   0.721   0.245   9.329  0.8971 -0.1238  0.4470
  923MPD2    C113505   0.742   0.375   9.377 -0.0506  0.2619 -0.1469
  923MPD2    C213506   0.865   0.396   9.437  0.2386 -0.0382 -0.1640
  923MPD2    C313507   0.951   0.293   9.456 -0.0655  0.3724 -0.1474
  923MPD2    C413508   0.920   0.164   9.418  0.2051  0.2179 -0.3311
  923MPD2    C513509   0.806   0.140   9.354 -0.1913  0.4835 -0.4618
  923MPD2     H13510   0.893   0.499   9.457 -0.3352  0.2502 -0.8456
  923MPD2    H113511   0.997   0.090   9.440 -1.1365 -0.7334  1.2079
  923MPD2    H213512   0.624   0.211   9.293  1.0971 -0.1065 -0.0950
  923MPD2    H313513   0.778   0.050   9.301  1.8092 -1.3216  1.5292
  923MPD2     N13514   1.070   0.304   9.527 -0.4503  0.2646  0.4376
  923MPD2    H513515   1.126   0.220   9.536  1.0494  1.1455 -0.8524
  923MPD2    N113516   0.639   0.472   9.362  0.8652  0.4940  0.0447
  923MPD2    H713517   0.549   0.443   9.325  1.0318  1.2155 -0.9244
  924MPD2     C13518   1.243   4.238  16.480  0.0201  0.4334  0.0794
  924MPD2    C113519   1.164   4.312  16.402 -1.0824 -0.1356  0.2280
  924MPD2    C213520   1.188   4.447  16.386 -0.2485  0.3767  0.6613
  924MPD2    C313521   1.290   4.502  16.459  0.2587  0.8285 -0.0539
  924MPD2    C413522   1.367   4.427  16.540 -0.4350  0.1912 -0.1678
  924MPD2    C513523   1.345   4.293  16.548  0.6074 -0.1052  0.6717
  924MPD2     H13524   1.138   4.506  16.309  0.2233 -0.4753 -0.3079
  924MPD2    H113525   1.440   4.475  16.604 -1.0634  1.6676 -0.5669
  924MPD2    H213526   1.223   4.134  16.500  0.2997  0.6026  1.2586
  924MPD2    H313527   1.398   4.230  16.619  0.2094  0.8962  1.8779
  924MPD2     N13528   1.330   4.639  16.451 -0.2681  0.4819  0.1233
  924MPD2    H513529   1.415   4.664  16.501 -0.3962  0.5342  0.3163
  924MPD2    N113530   1.058   4.248  16.332  0.2190 -0.6751 -0.0658
  924MPD2    H713531   1.058   4.147  16.324  0.0927 -0.6255 -0.6809
  925MPD2     C13532   4.634   2.362  14.892  0.2354  0.4258 -0.2878
  925MPD2    C113533   4.545   2.295  14.797 -0.2310  0.2644 -0.0006
  925MPD2    C213534   4.426   2.245  14.851 -0.2639 -0.1001 -0.5576
  925MPD2    C313535   4.383   2.270  14.986 -0.1968  0.1892 -0.4658
  925MPD2    C413536   4.479   2.326  15.072  0.4556 -0.0265  0.3746
  925MPD2    C513537   4.608   2.369  15.028 -0.1686 -0.2158  0.2608
  925MPD2     H13538   4.354   2.183  14.799 -0.5818 -0.8973  0.8214
  925MPD2    H113539   4.459   2.335  15.178  0.7485  0.7797  0.3614
  925MPD2    H213540   0.005   2.408  14.864  0.8688 -1.0264 -0.5422
  925MPD2    H313541   4.674   2.423  15.095 -1.5000  2.6199 -0.7393
  925MPD2     N13542   4.248   2.242  15.020  0.0952 -0.0152  0.2928
  925MPD2    H513543   4.181   2.222  14.946 -0.2264 -1.5451  1.0095
  925MPD2    N113544   4.573   2.262  14.669 -0.7107  0.3680  0.3360
  925MPD2    H713545   4.511   2.221  14.599  0.6537  0.9042 -1.1916
  926MPD2     C13546   3.257   4.662  13.137 -0.0439  0.3542 -0.3471
  926MPD2    C113547   3.288   0.072  13.160  0.2039 -0.1871 -0.0019
  926MPD2    C213548   3.303   0.154  13.052  0.2286  0.2814 -0.0704
  926MPD2    C313549   3.286   0.111  12.919 -0.9262  1.1846 -0.3653
  926MPD2    C413550   3.248   4.706  12.900 -0.6354 -0.5059 -0.1311
  926MPD2    C513551   3.243   4.617  13.007 -0.8083 -0.1457  0.6695
  926MPD2     H13552   3.335   0.254  13.081  0.1652 -0.6451  3.1836
  926MPD2    H113553   3.226   4.671  12.800 -0.4739 -0.4972 -0.1693
  926MPD2    H213554   3.244   4.583  13.211 -1.0530  1.3765  0.5732
  926MPD2    H313555   3.219   4.514  12.986 -0.2141 -0.2709  0.5917
  926MPD2     N13556   3.300   0.194  12.813 -0.0604 -0.3674 -0.5016
  926MPD2    H513557   3.281   0.156  12.721  1.3465  0.5176 -1.1482
  926MPD2    N113558   3.288   0.131  13.287  0.1720  0.5515  0.3021
  926MPD2    H713559   3.299   0.232  13.293  0.8575  0.6208 -1.8535
  927MPD2     C13560   2.841   3.175  17.665 -0.6387  0.4921  0.4604
  927MPD2    C113561   2.843   3.044  17.693  0.4782 -0.2762 -0.3811
  927MPD2    C213562   2.832   2.963  17.581  0.2565 -0.6124  0.7804
  927MPD2    C313563   2.819   3.014  17.456 -0.3405 -0.2927  0.2229
  927MPD2    C413564   2.831   3.153  17.433  0.4730 -0.3468  0.0661
  927MPD2    C513565   2.838   3.236  17.542 -0.2701 -0.2952 -0.6565
  927MPD2     H13566   2.831   2.855  17.592 -0.4081 -0.6997 -0.2618
  927MPD2    H113567   2.829   3.201  17.336  0.8000  0.2223  0.3450
  927MPD2    H213568   2.851   3.239   0.059 -1.4822 -2.9061  3.0434
  927MPD2    H313569   2.841   3.343  17.527 -1.2083 -0.4263 -1.8133
  927MPD2     N13570   2.820   2.921  17.356 -0.2400  0.2277  0.0539
  927MPD2    H513571   2.808   2.824  17.383 -0.6562  0.8040  1.9651
  927MPD2    N113572   2.846   3.002   0.135  0.3222  0.1546 -0.5696
  927MPD2    H713573   2.847   3.074   0.206 -2.1435 -0.6637  0.2976
  928MPD2     C13574   0.635   0.903   1.009 -0.6411  0.1381  0.3687
  928MPD2    C113575   0.633   1.037   1.039  0.0012  0.0826  0.1635
  928MPD2    C213576   0.689   1.124   0.940 -0.0874 -0.2933 -0.3848
  928MPD2    C313577   0.735   1.073   0.820  0.0828  0.1081 -0.6086
  928MPD2    C413578   0.722   0.937   0.793  0.1513  0.0811  0.2600
  928MPD2    C513579   0.687   0.859   0.893 -0.5398 -0.2509 -0.1406
  928MPD2     H13580   0.680   1.227   0.972  0.9265 -0.6443  1.0226
  928MPD2    H113581   0.752   0.887   0.701 -2.8758  0.0331 -0.7076
  928MPD2    H213582   0.601   0.838   1.088 -0.0909 -0.0325  0.4635
  928MPD2    H313583   0.678   0.755   0.865 -0.7707 -0.3347  0.2285
  928MPD2     N13584   0.765   1.148   0.705 -0.3181 -0.6395 -1.0716
  928MPD2    H513585   0.755   1.093   0.621  1.5194 -1.1984 -0.9280
  928MPD2    N113586   0.579   1.076   1.162 -0.5836 -0.3308  0.2225
  928MPD2    H713587   0.578   0.998   1.226 -1.4509 -0.8790 -0.4610
  929MPD2     C13588   1.123   1.088  10.247 -0.1318  0.4853 -0.2513
  929MPD2    C113589   1.039   0.986  10.271 -0.8269 -0.4068 -0.5154
  929MPD2    C213590   0.925   0.974  10.192 -0.2947  0.7481  0.4408
  929MPD2    C313591   0.906   1.048  10.078  0.3850  0.1457 -0.1652
  929MPD2    C413592   0.993   1.149  10.054  0.5209  1.0827  0.0160
  929MPD2    C513593   1.100   1.183  10.140  0.4570  0.4243  0.2418
  929MPD2     H13594   0.859   0.889  10.208  0.8765 -0.7907 -2.8743
  929MPD2    H113595   0.977   1.207   9.964 -1.3561  3.2517  1.7361
  929MPD2    H213596   1.214   1.107  10.303  0.9934 -3.0523 -0.9152
  929MPD2    H313597   1.160   1.271  10.122  0.1505  0.8060  1.1013
  929MPD2     N13598   0.787   1.040   9.999 -0.5662  0.0021 -0.4578
  929MPD2    H513599   0.776   1.096   9.916  0.7667  0.4600 -0.3143
  929MPD2    N113600   1.055   0.918  10.393 -0.6191  0.5781  0.0197
  929MPD2    H713601   1.126   0.952  10.456  0.3929 -2.2197  0.3692
  930MPD2     C13602   2.659   3.525  14.382 -0.5213  0.3093  0.6620
  930MPD2    C113603   2.787   3.485  14.345 -0.0824  0.1015 -0.1521
  930MPD2    C213604   2.809   3.369  14.279 -0.8519  0.5992  0.1710
  930MPD2    C313605   2.701   3.285  14.248  0.2006 -0.5079  0.5979
  930MPD2    C413606   2.580   3.322  14.289  0.3424  0.5240 -0.2369
  930MPD2    C513607   2.555   3.443  14.356 -0.5039  0.4446 -1.5055
  930MPD2     H13608   2.906   3.335  14.246 -0.4140  3.2494 -1.2226
  930MPD2    H113609   2.495   3.258  14.265 -1.1871  1.3709  3.0326
  930MPD2    H213610   2.637   3.618  14.434  4.2725  1.2770  1.0068
  930MPD2    H313611   2.457   3.478  14.385 -0.3719  0.6086 -1.2512
  930MPD2     N13612   2.715   3.171  14.165 -0.0759 -0.6566 -0.8128
  930MPD2    H513613   2.625   3.129  14.143 -1.0459 -0.6378  3.1271
  930MPD2    N113614   2.880   3.580  14.367  0.4796 -0.1020  0.1556
  930MPD2    H713615   2.866   3.667  14.416  0.4848  0.0745 -0.1589
  931MPD2     C13616   2.740   2.266   0.421  0.6992  0.2534 -0.5190
  931MPD2    C113617   2.692   2.362   0.505 -0.1265 -0.2381 -0.0676
  931MPD2    C213618   2.623   2.328   0.620  1.0468 -0.0816  0.6506
  931MPD2    C313619   2.612   2.199   0.662 -0.0380 -0.2511 -0.1235
  931MPD2    C413620   2.641   2.099   0.566 -0.1900 -0.0665 -0.0583
  931MPD2    C513621   2.694   2.134   0.444  0.2064  0.0546  0.1979
  931MPD2     H13622   2.597   2.409   0.688  3.0843  0.9247  0.2549
  931MPD2    H113623   2.643   1.996   0.598  3.1066 -0.1559 -0.5281
  931MPD2    H213624   2.786   2.297   0.328 -0.3980 -0.5530 -1.3224
  931MPD2    H313625   2.712   2.055   0.372  0.8121  0.0784  0.3229
  931MPD2     N13626   2.570   2.160   0.796  0.1498 -0.0254 -0.2945
  931MPD2    H513627   2.584   2.071   0.843  0.1866 -0.0687 -0.3880
  931MPD2    N113628   2.720   2.492   0.466 -0.1930 -0.1995  0.4087
  931MPD2    H713629   2.778   2.499   0.383 -0.9591  0.2824 -0.0844
  932MPD2     C13630   4.215   1.892  11.507 -0.0211  0.1708 -0.1382
  932MPD2    C113631   4.330   1.928  11.450 -0.1986 -0.3128  0.4576
  932MPD2    C213632   4.421   1.829  11.412 -0.1446 -0.4077  0.1770
  932MPD2    C313633   4.385   1.694  11.429  0.0612 -0.0832  0.2856
  932MPD2    C413634   4.254   1.661  11.479  0.5415 -0.3925  0.5281
  932MPD2    C513635   4.173   1.756  11.520 -0.7688  0.0483 -0.5020
  932MPD2     H13636   4.519   1.849  11.371 -0.7530  1.5624 -0.3198
  932MPD2    H113637   4.221   1.559  11.486  1.1934 -0.7004 -0.8808
  932MPD2    H213638   4.145   1.963  11.549 -1.3146 -0.8565 -0.5516
  932MPD2    H313639   4.080   1.723  11.563 -1.1077  0.0870 -1.2090
  932MPD2     N13640   4.474   1.591  11.407 -0.0448 -0.4493  0.0663
  932MPD2    H513641   4.440   1.496  11.415  1.2405 -1.1537 -2.7089
  932MPD2    N113642   4.370   2.063  11.412  0.2164 -0.6826  0.4618
  932MPD2    H713643   4.454   2.067  11.355 -0.3237  0.1058 -0.2853
  933MPD2     C13644   0.715   1.773   1.742 -0.3672 -0.0098  0.4447
  933MPD2    C113645   0.658   1.748   1.616  0.8578  0.0511 -0.3954
  933MPD2    C213646   0.647   1.846   1.523  0.1320 -0.0075  0.6389
  933MPD2    C313647   0.690   1.973   1.551  0.2661  0.3906 -0.2911
  933MPD2    C413648   0.752   1.991   1.673  0.3820  0.0304  0.2689
  933MPD2    C513649   0.763   1.894   1.761  0.5345  0.1324 -0.0339
  933MPD2     H13650   0.610   1.820   1.425  1.5757 -0.0427  0.1009
  933MPD2    H113651   0.783   2.091   1.700  0.5594  0.5838 -1.9172
  933MPD2    H213652   0.728   1.687   1.807  0.7105 -1.0436 -1.1050
  933MPD2    H313653   0.809   1.910   1.858  1.5514 -0.4113 -0.4267
  933MPD2     N13654   0.649   2.074   1.465  0.3235  0.0902 -0.1687
  933MPD2    H513655   0.583   2.038   1.396  1.9699 -1.3878 -0.9802
  933MPD2    N113656   0.627   1.612   1.589 -0.4585 -0.6957  0.5827
  933MPD2    H713657   0.644   1.540   1.658 -1.1978  1.6815  3.2535
  934MPD2     C13658   1.406   3.664   1.959 -0.1718 -0.0287  0.3470
  934MPD2    C113659   1.489   3.558   1.934 -0.2334 -1.1236  0.0894
  934MPD2    C213660   1.508   3.521   1.802  0.3958  0.1873 -0.2981
  934MPD2    C313661   1.451   3.592   1.699 -0.7791 -1.0280 -0.1361
  934MPD2    C413662   1.376   3.706   1.727 -0.2141  0.3665  0.6416
  934MPD2    C513663   1.344   3.739   1.858  0.4221  0.5342  0.3865
  934MPD2     H13664   1.588   3.449   1.786  1.3312  0.7797  1.7982
  934MPD2    H113665   1.342   3.776   1.652 -1.7337  0.5880  1.5454
  934MPD2    H213666   1.376   3.695   2.058  3.6116  1.1635  1.1224
  934MPD2    H313667   1.289   3.830   1.879  1.7287  1.4308 -0.0689
  934MPD2     N13668   1.479   3.555   1.565 -0.2353  0.1426 -0.0981
  934MPD2    H513669   1.439   3.612   1.492 -1.5371  0.3941  0.8058
  934MPD2    N113670   1.571   3.498   2.038 -1.1782  0.3138 -0.0971
  934MPD2    H713671   1.641   3.429   2.014  0.5970  2.1515 -0.2378
  935MPD2     C13672   1.703   2.639   1.203 -0.2251  0.6457 -0.1466
  935MPD2    C113673   1.620   2.697   1.102 -0.3707  0.2498  0.8036
  935MPD2    C213674   1.604   2.840   1.110 -0.1842  0.9036 -0.4371
  935MPD2    C313675   1.650   2.918   1.216  0.3294  0.4459 -0.8740
  935MPD2    C413676   1.735   2.849   1.307  0.8613 -0.5345  0.4899
  935MPD2    C513677   1.768   2.715   1.294 -0.4508 -0.9321 -0.4346
  935MPD2     H13678   1.536   2.891   1.043 -1.0748 -0.1863 -0.3533
  935MPD2    H113679   1.778   2.893   1.396 -2.1399 -0.4925  1.9133
  935MPD2    H213680   1.712   2.534   1.228 -2.2972  0.5455  0.2241
  935MPD2    H313681   1.828   2.664   1.368 -0.5812  0.2112  0.4481
  935MPD2     N13682   1.646   3.061   1.218 -0.0265 -0.3325  0.5798
  935MPD2    H513683   1.680   3.100   1.306 -0.1858 -3.4129  2.0017
  935MPD2    N113684   1.555   2.625   1.000 -0.1311  0.1035  0.4034
  935MPD2    H713685   1.482   2.663   0.940 -0.2221  1.2992  1.2608
  936MPD2     C13686   0.640   0.363  12.368 -0.0885 -0.2119  0.8303
  936MPD2    C113687   0.702   0.458  12.453  0.3618 -0.1230 -0.0782
  936MPD2    C213688   0.714   0.582  12.401  0.0943  0.8382  0.1539
  936MPD2    C313689   0.660   0.628  12.278  0.5672  0.1389  0.6181
  936MPD2    C413690   0.593   0.535  12.197  0.3919 -0.5264  0.0481
  936MPD2    C513691   0.584   0.406  12.243 -0.3519 -0.6211  0.9441
  936MPD2     H13692   0.765   0.653  12.465 -1.0094  2.0726 -0.3454
  936MPD2    H113693   0.576   0.559  12.093  0.9574 -2.3742 -0.4654
  936MPD2    H213694   0.626   0.263  12.408 -2.9248 -1.8777 -4.2457
  936MPD2    H313695   0.548   0.339  12.166 -1.5542 -1.6324  2.3883
  936MPD2     N13696   0.656   0.759  12.223  0.6479 -0.0929 -0.1778
  936MPD2    H513697   0.619   0.763  12.128 -0.4776 -0.3680  0.2573
  936MPD2    N113698   0.741   0.421  12.582  0.2222  0.4197  0.0218
  936MPD2    H713699   0.753   0.323  12.607 -1.6174  0.2752  0.3072
  937MPD2     C13700   2.965   1.403  12.255 -0.2969  0.9341  1.0446
  937MPD2    C113701   2.975   1.506  12.164  0.0027 -0.4391  0.4633
  937MPD2    C213702   3.008   1.462  12.036  0.5483 -0.1263  0.4347
  937MPD2    C313703   3.049   1.332  12.003  0.0904 -0.5173  0.2748
  937MPD2    C413704   3.033   1.235  12.094  0.3845  0.1918 -0.9009
  937MPD2    C513705   2.988   1.271  12.216  0.0072 -0.2826  0.3632
  937MPD2     H13706   3.008   1.532  11.954 -1.1114  1.2155  1.5751
  937MPD2    H113707   3.057   1.130  12.078 -0.5047  0.1060 -1.6782
  937MPD2    H213708   2.931   1.416  12.357 -2.0743 -1.5001  0.7677
  937MPD2    H313709   2.969   1.198  12.294 -0.1711  0.1418  0.7235
  937MPD2     N13710   3.098   1.309  11.867  0.6364  0.0965 -0.3786
  937MPD2    H513711   3.137   1.387  11.815  1.6428  0.2071  0.5366
  937MPD2    N113712   2.903   1.629  12.183 -0.6517  0.5577 -0.0278
  937MPD2    H713713   2.931   1.707  12.124 -0.1155  1.1593  1.0229
  938MPD2     C13714   0.940   3.180   0.453 -0.6529  0.4270 -0.0302
  938MPD2    C113715   1.018   3.198   0.560  0.6250 -0.1629  0.6044
  938MPD2    C213716   0.979   3.167   0.688 -0.4389 -0.1663 -0.2518
  938MPD2    C313717   0.855   3.121   0.716 -0.5268 -0.4282 -0.1281
  938MPD2    C413718   0.766   3.117   0.613 -0.1166 -0.3994  0.2649
  938MPD2    C513719   0.813   3.136   0.481 -0.4308  0.0273 -0.6257
  938MPD2     H13720   1.056   3.179   0.763 -0.3308 -0.5309 -0.3074
  938MPD2    H113721   0.662   3.088   0.623 -0.2992  0.4638  0.8540
  938MPD2    H213722   0.976   3.193   0.351 -1.1450 -1.4015 -0.4301
  938MPD2    H313723   0.741   3.130   0.400 -0.1098  0.9823 -0.9759
  938MPD2     N13724   0.797   3.103   0.843 -0.6302 -0.1050 -0.2051
  938MPD2    H513725   0.702   3.070   0.853 -0.3277 -0.3722  1.9244
  938MPD2    N113726   1.150   3.250   0.542 -0.0782  0.3518  0.4101
  938MPD2    H713727   1.206   3.256   0.626 -0.6819 -0.8317  0.8926
  939MPD2     C13728   1.797   4.208   1.289  0.4849 -0.3075  0.8660
  939MPD2    C113729   1.768   4.327   1.225 -0.3899 -0.5928 -1.0153
  939MPD2    C213730   1.854   4.355   1.114  0.4901  0.6680 -0.3186
  939MPD2    C313731   1.972   4.279   1.090  0.2492  0.4754 -0.0185
  939MPD2    C413732   1.999   4.166   1.166  0.0262 -0.4337  0.4594
  939MPD2    C513733   1.907   4.131   1.263 -0.2537  0.5810  0.0102
  939MPD2     H13734   1.818   4.432   1.046  3.0879  3.1685  1.1350
  939MPD2    H113735   2.084   4.099   1.154 -0.3283 -1.0496  1.3581
  939MPD2    H213736   1.729   4.171   1.365 -0.3348  0.7328  0.6365
  939MPD2    H313737   1.929   4.048   1.329 -1.8000 -0.9680 -1.4281
  939MPD2     N13738   2.053   4.318   0.986 -0.1019 -0.4380 -0.2336
  939MPD2    H513739   2.017   4.396   0.931  1.2795  0.1795 -0.2844
  939MPD2    N113740   1.651   4.398   1.261 -0.1961  0.2432 -0.1971
  939MPD2    H713741   1.605   4.372   1.348  0.5224 -0.6543 -0.0913
  940MPD2     C13742   1.198   0.706  12.839  0.1778 -0.0956  0.0413
  940MPD2    C113743   1.155   0.782  12.732  0.7245  0.1010 -0.0623
  940MPD2    C213744   1.120   0.723  12.611  0.3110  0.9309  0.3516
  940MPD2    C313745   1.143   0.589  12.589  0.6946  0.4386 -0.7580
  940MPD2    C413746   1.193   0.520  12.696  0.0066  0.5446 -0.5851
  940MPD2    C513747   1.223   0.573  12.816  0.7146  0.5517  0.4201
  940MPD2     H13748   1.074   0.778  12.530  0.3248 -2.6680 -2.1470
  940MPD2    H113749   1.217   0.416  12.680  0.7310  0.5188  0.5912
  940MPD2    H213750   1.224   0.746  12.936  0.1587  1.7103 -0.7046
  940MPD2    H313751   1.263   0.521  12.902  1.9105  0.3501 -0.2632
  940MPD2     N13752   1.109   0.524  12.464 -0.3868 -0.2985  0.2407
  940MPD2    H513753   1.121   0.423  12.469  0.7289 -0.0364  2.9517
  940MPD2    N113754   1.145   0.924  12.737  0.4782  0.2213 -0.4036
  940MPD2    H713755   1.114   0.968  12.651  0.6520  0.3499 -0.3999
  941MPD2     C13756   0.312   3.608   9.646 -0.6410  0.3179 -0.0314
  941MPD2    C113757   0.293   3.635   9.783 -0.8706  0.4651  0.0053
  941MPD2    C213758   0.211   3.551   9.857  0.0358  0.2877  0.2162
  941MPD2    C313759   0.143   3.453   9.786  0.0722 -0.1931 -0.0172
  941MPD2    C413760   0.166   3.429   9.651  0.2304  0.2325 -0.3032
  941MPD2    C513761   0.248   3.512   9.580 -0.8068 -0.1218  0.2003
  941MPD2     H13762   0.192   3.580   9.960 -0.6085 -1.0326  0.4584
  941MPD2    H113763   0.096   3.366   9.599  0.5171 -0.9708  0.7740
  941MPD2    H213764   0.371   3.673   9.582 -2.7033  2.7975  0.5994
  941MPD2    H313765   0.253   3.504   9.472  2.6517 -0.2230  0.3652
  941MPD2     N13766   0.050   3.366   9.850  0.0502 -0.7043 -0.0560
  941MPD2    H513767   0.027   3.282   9.797 -1.1482 -1.3052  1.4013
  941MPD2    N113768   0.361   3.735   9.853  0.2171  0.1098  0.1010
  941MPD2    H713769   0.346   3.745   9.953 -0.1716  1.4729 -0.0970
  942MPD2     C13770   3.838   4.619   8.909  0.8226 -0.7958 -0.3750
  942MPD2    C113771   3.824   0.004   8.993 -0.0266  0.0775 -0.2143
  942MPD2    C213772   3.924   0.099   9.002  0.5873 -1.0649 -0.0644
  942MPD2    C313773   4.042   0.087   8.927  0.1519 -0.7762  0.2438
  942MPD2    C413774   4.044   4.711   8.834 -0.7293  0.5890  0.5465
  942MPD2    C513775   3.941   4.614   8.828 -0.5514  0.1529  0.2637
  942MPD2     H13776   3.911   0.179   9.074  0.8244 -0.4669 -0.6817
  942MPD2    H113777   4.120   4.710   8.757 -1.2414 -1.7344  0.0747
  942MPD2    H213778   3.753   4.553   8.897 -0.5833  0.7838  0.8047
  942MPD2    H313779   3.934   4.532   8.757  2.0720 -0.4473  0.6789
  942MPD2     N13780   4.161   0.162   8.945  0.5433 -0.2158  0.1238
  942MPD2    H513781   4.243   0.137   8.893 -0.5443  1.6976 -2.5242
  942MPD2    N113782   3.712   0.022   9.074 -0.0589  0.3908 -0.2706
  942MPD2    H713783   3.694   0.121   9.090  0.1994  0.1743  1.3542
  943MPD2     C13784   3.780   3.719   9.333  0.7304  0.5432  0.7005
  943MPD2    C113785   3.661   3.725   9.391 -0.2438 -0.3100  0.1550
  943MPD2    C213786   3.556   3.799   9.341  0.0806 -0.3432 -0.3006
  943MPD2    C313787   3.577   3.881   9.231  0.0015  0.9918 -0.2320
  943MPD2    C413788   3.701   3.884   9.175 -0.0282 -0.1631 -0.0565
  943MPD2    C513789   3.798   3.801   9.225 -0.3213  0.8101  0.2854
  943MPD2     H13790   3.465   3.795   9.400  0.3989  0.3547  0.2358
  943MPD2    H113791   3.710   3.938   9.082  1.4783 -0.5207 -0.1170
  943MPD2    H213792   3.857   3.657   9.375  0.5408  1.1658  1.9655
  943MPD2    H313793   3.891   3.803   9.170 -0.2309 -2.3120  0.3640
  943MPD2     N13794   3.481   3.973   9.177  0.1105 -0.0719  0.0480
  943MPD2    H513795   3.513   4.036   9.104  0.5713 -1.4551 -0.9312
  943MPD2    N113796   3.648   3.640   9.502 -0.5167 -0.3112  0.6070
  943MPD2    H713797   3.731   3.590   9.532 -1.7256 -1.0666  2.6536
  944MPD2     C13798   3.313   2.519  10.571 -0.3688  0.7918 -0.1285
  944MPD2    C113799   3.380   2.634  10.526 -0.3635 -0.0458 -0.0408
  944MPD2    C213800   3.388   2.737  10.612  0.0947 -0.5126 -0.3084
  944MPD2    C313801   3.309   2.741  10.721  0.0565 -0.6821  0.4320
  944MPD2    C413802   3.243   2.625  10.771 -0.5952  0.3157 -0.0808
  944MPD2    C513803   3.257   2.512  10.696 -0.3380 -0.4232  0.2640
  944MPD2     H13804   3.445   2.824  10.584  0.5073  0.0729  2.4190
  944MPD2    H113805   3.195   2.618  10.869  4.6538  0.0259  2.4725
  944MPD2    H213806   3.322   2.429  10.512 -1.3260  0.7510 -0.2052
  944MPD2    H313807   3.214   2.422  10.736  1.1317 -0.6528  1.3359
  944MPD2     N13808   3.313   2.867  10.788 -0.4064 -0.1318  0.2141
  944MPD2    H513809   3.374   2.935  10.744 -0.7150 -0.9705 -1.5032
  944MPD2    N113810   3.430   2.628  10.393  0.2408 -0.4531  0.1895
  944MPD2    H713811   3.417   2.542  10.340 -2.4241 -0.7121  1.2689
    1TCq1    O113812   0.566   4.428  13.273  0.3806  0.3089 -0.0948
    1TCq1    C113813   0.642   4.527  13.227 -1.0645  0.2976 -0.5809
    1TCq1    O213814   0.640   4.555  13.109  0.2188 -0.7592  0.6408
    1TCq1    C213815   0.678   4.619  13.337  0.7159  0.0965 -0.5481
    1TCq1    C313816   0.687   4.574  13.471 -0.0121  0.2886  0.4013
    1TCq1    C413817   0.759   4.636  13.566 -0.4318 -0.3634 -0.1733
    1TCq1    C513818   0.825   0.032  13.535 -0.2036  1.0086 -0.1419
    1TCq1    C613819   0.819   0.078  13.405 -0.3127  0.6493 -0.2678
    1TCq1    C713820   0.748   0.008  13.309  0.1328 -0.9667  0.6099
    1TCq1    C813821   0.847   0.223  13.386 -0.9323 -0.0744 -0.4772
    1TCq1    O413822   0.818   0.263  13.273  0.4248 -0.4683 -0.0316
    1TCq1    C913823   0.761   4.605  13.708 -0.0681  0.1979 -0.8199
    1TCq1    O513824   0.776   4.701  13.785  0.1277 -0.0596 -0.5274
    1TCq1    O613825   0.687   4.513  13.742 -0.6101  1.1162  0.5522
    1TCq1    H113826   0.598   4.387  13.356 -2.8221  2.1975  2.0961
    1TCq1    H213827   0.634   4.481  13.489  0.1472 -0.2414 -1.9001
    1TCq1    H313828   0.877   0.085  13.613 -1.6788 -1.4507  2.5189
    1TCq1    H413829   0.743   0.039  13.205  1.3028  1.2707  1.2067
    2MPD2     C13830   0.959   0.698  13.521 -1.4993 -0.2383 -0.1978
    2MPD2    C113831   0.972   0.617  13.635 -0.0510  0.6941 -0.3759
    2MPD2    C213832   0.931   0.492  13.627  0.3382 -0.6945 -0.3355
    2MPD2    C313833   0.888   0.437  13.510  0.2937  0.1049 -0.5296
    2MPD2    C413834   0.870   0.522  13.398 -0.7020  0.6641 -0.0172
    2MPD2    C513835   0.908   0.650  13.410  0.0237  0.0194 -0.9830
    2MPD2     H13836   0.945   0.422  13.708 -0.7302  1.0163  1.3330
    2MPD2    H113837   0.852   0.490  13.296  0.3385 -0.0813  0.0252
    2MPD2    H213838   0.989   0.801  13.513 -1.7279 -0.2437 -1.1492
    2MPD2    H313839   0.899   0.716  13.324 -2.3671  1.0851  0.0998
    2MPD2     N13840   0.865   0.296  13.504 -0.1234  0.0372  0.1815
    2MPD2    H513841   0.880   0.244  13.590  0.1094 -1.6663 -0.8988
    2MPD2    N113842   1.022   0.681  13.750  0.3768 -0.3482 -0.2440
    2MPD2    H713843   1.046   0.777  13.730  0.8968 -0.5844 -0.7626
    3TMC2    C113844   1.130   0.708  13.957 -0.1381  0.4372  0.0517
    3TMC2    C213845   1.124   0.681  14.093 -0.2482 -0.0994  0.6894
    3TMC2    C313846   1.203   0.745  14.184  0.4925  0.0307  0.6845
    3TMC2    C413847   1.229   0.788  13.913  0.1150 -0.0408 -0.8572
    3TMC2    C513848   1.316   0.837  14.008 -0.1324 -0.3276 -0.1348
    3TMC2    C613849   1.305   0.816  14.141  0.5785 -0.0474  0.5240
    3TMC2     C13850   1.059   0.620  13.868 -0.2145  0.0676  0.4846
    3TMC2     O13851   1.013   0.515  13.914 -0.4503 -0.2191  0.1372
    3TMC2     H13852   1.046   0.613  14.126  1.7902 -1.6537  2.2946
    3TMC2    H113853   1.253   0.795  13.807  1.6609 -0.3035 -0.5152
    3TMC2    H213854   1.372   0.865  14.211  0.0816  1.7358 -0.2479
    3TMC2    C713855   1.430   0.911  13.950  0.0112  0.0980  0.2856
    3TMC2    C813856   1.180   0.725  14.327 -0.6349  0.1969  0.4688
    3TMC2    O113857   1.533   0.927  14.012 -0.3796 -0.0006 -0.4550
    3TMC2    O213858   1.063   0.738  14.363  0.1637  0.1003  0.4782
    3TMC2    O513859   1.273   0.639  14.371 -0.2089 -0.5142 -0.3285
    3TMC2    H513860   1.364   0.654  14.339 -0.4390  0.0872 -0.7138
    4MPD2     C13861   2.232   1.563  13.092  0.3351  0.0716  0.0950
    4MPD2    C113862   2.120   1.479  13.088  0.0304  0.0746 -0.0574
    4MPD2    C213863   2.113   1.373  13.174 -0.5899 -0.2385 -0.2400
    4MPD2    C313864   2.213   1.345  13.263  0.3786  0.3138  0.1379
    4MPD2    C413865   2.318   1.430  13.267  0.0782  0.0874 -0.0234
    4MPD2    C513866   2.326   1.540  13.184 -0.7476 -0.2043  0.6597
    4MPD2     H13867   2.022   1.315  13.179  0.4491 -1.8518 -0.0176
    4MPD2    H113868   2.397   1.425  13.342  1.9049  1.1212 -1.8615
    4MPD2    H213869   2.228   1.653  13.031  0.5993 -0.0756 -0.1402
    4MPD2    H313870   2.412   1.606  13.192 -1.6481  1.0631  0.0507
    4MPD2     N13871   2.202   1.235  13.352  0.6020  0.1866  1.0598
    4MPD2    H513872   2.115   1.182  13.352  0.6371  0.1250 -0.0508
    4MPD2    N113873   2.007   1.493  13.008 -0.2986 -0.1487 -0.1084
    4MPD2    H713874   1.942   1.416  12.999 -1.6468  1.2347 -2.4402
    5TCq2    C113875   2.302   1.184  13.427  0.8108  0.1207 -1.0829
    5TCq2    O213876   2.422   1.199  13.418  0.1298 -0.5945  0.3490
    5TCq2    C213877   2.244   1.086  13.515 -0.0429 -0.2753 -0.5425
    5TCq2    C313878   2.325   0.978  13.551 -0.1370  0.0942  0.0214
    5TCq2    C413879   2.274   0.880  13.630 -0.2495 -0.2318 -0.6550
    5TCq2    C513880   2.148   0.893  13.683  0.0221 -0.0534  0.5576
    5TCq2    C613881   2.077   1.003  13.648  0.1237 -0.5478 -0.0220
    5TCq2    C713882   2.123   1.100  13.563  0.4572 -0.1687  0.0782
    5TCq2    C813883   1.937   1.007  13.702 -0.9338 -0.4661  0.1418
    5TCq2    O413884   1.919   0.942  13.806 -0.0923 -0.1373 -0.1281
    5TCq2    C913885   2.344   0.763  13.666  0.0643 -0.2128 -0.5909
    5TCq2    O513886   2.288   0.687  13.751  0.5703 -0.2802  0.2352
    5TCq2    O613887   2.468   0.766  13.649  0.9331 -0.4173 -0.1385
    5TCq2    H213888   2.423   0.971  13.506 -0.9109 -0.6321 -1.5312
    5TCq2    H313889   2.109   0.821  13.754 -1.3484 -0.2573 -0.3845
    5TCq2    H413890   2.059   1.182  13.534 -0.3600  0.2135  2.9186
    6MPD1     C13891   0.338   2.279  12.326 -0.0986  0.0726 -0.1980
    6MPD1    C113892   0.427   2.357  12.402  0.2221  0.4628  0.4389
    6MPD1    C213893   0.522   2.294  12.475 -0.1292 -0.2129 -0.3893
    6MPD1    C313894   0.530   2.159  12.475  0.5586  0.0056  0.5982
    6MPD1    C413895   0.447   2.082  12.397 -0.5042 -0.3182  0.2195
    6MPD1    C513896   0.356   2.146  12.318  0.6468  0.2093 -1.3096
    6MPD1     H13897   0.593   2.356  12.528 -0.0098 -2.1685  1.7527
    6MPD1    H113898   0.455   1.974  12.386 -1.6747 -0.3136 -0.7311
    6MPD1    H213899   0.243   2.317  12.289 -1.4528 -2.0215  1.1080
    6MPD1    H313900   0.298   2.088  12.247  0.0204 -1.2136  0.3697
    6MPD1     N13901   0.623   2.084  12.549  0.3590 -0.0826  0.0259
    6MPD1    H513902   0.622   1.987  12.519 -0.2233  0.1529 -0.7065
    6MPD1    N113903   0.406   2.495  12.415  0.3526 -0.1660 -0.1563
    6MPD1    H613904   0.499   2.536  12.408 -0.2416  1.2657  0.4317
    6MPD1    H713905   0.356   2.527  12.332 -0.3204 -2.9356 -0.8279
    7MPD2     C13906   1.217   1.918  13.225 -0.1779 -0.3280  0.4480
    7MPD2    C113907   1.205   1.851  13.100 -0.4026  0.5126  0.1207
    7MPD2    C213908   1.310   1.768  13.066 -0.6042 -0.2841 -0.5996
    7MPD2    C313909   1.407   1.733  13.149  0.4154 -0.1598  0.6527
    7MPD2    C413910   1.408   1.788  13.277  0.4497 -0.4766 -0.2600
    7MPD2    C513911   1.312   1.882  13.311  0.0599 -0.2270  0.8961
    7MPD2     H13912   1.305   1.730  12.965 -0.6310  2.3646 -1.6102
    7MPD2    H113913   1.494   1.762  13.337  1.8478 -0.2471 -2.1763
    7MPD2    H213914   1.154   2.000  13.256 -1.2897 -1.1183  0.2709
    7MPD2    H313915   1.311   1.939  13.404  1.3186  0.4338  0.4985
    7MPD2     N13916   1.518   1.652  13.118 -0.5513 -0.7175 -0.3640
    7MPD2    H513917   1.584   1.635  13.193  0.3476  0.7275 -0.8326
    7MPD2    N113918   1.101   1.850  13.009  0.2140 -0.4879 -0.8060
    7MPD2    H713919   1.108   1.770  12.947  0.6353  0.0421 -1.4382
    8TMC3    C113920   1.651   1.513  12.974  0.1882  0.4518 -0.1395
    8TMC3    C213921   1.756   1.593  12.977 -0.1905  0.5110  0.1249
    8TMC3    C313922   1.846   1.582  12.876  0.7297  0.4374 -0.0616
    8TMC3    C413923   1.634   1.419  12.873 -0.1102  0.7814  0.0344
    8TMC3    C513924   1.723   1.413  12.765 -0.5119 -0.4085  0.6722
    8TMC3    C613925   1.831   1.494  12.766 -0.9147 -0.5760 -0.2781
    8TMC3     C13926   1.524   1.582  13.001 -0.6176  0.0561  0.0005
    8TMC3     O13927   1.435   1.545  12.924  0.2770 -0.0002  0.2873
    8TMC3     H13928   1.778   1.655  13.063  2.6213  0.0011 -0.2140
    8TMC3    H113929   1.541   1.364  12.872  1.0255 -1.1180 -0.7190
    8TMC3    H213930   1.896   1.494  12.679 -0.2712  1.1664  0.1989
    8TMC3    C713931   1.642   1.426  12.644  0.6338  0.4416  0.8236
    8TMC3    C813932   1.983   1.596  12.923 -0.2762 -0.7474  0.2035
    8TMC3    O113933   1.703   1.404  12.537  0.4801  0.3357 -0.7043
    8TMC3    O213934   2.032   1.710  12.915 -1.1094  0.0560  0.3968
    9TMC3    C113935   0.802   2.035  12.699 -0.7704 -0.1693  0.5010
    9TMC3    C213936   0.861   1.958  12.604 -0.2491  0.2685 -0.6296
    9TMC3    C313937   0.938   1.853  12.644 -0.1193 -0.4393  0.4514
    9TMC3    C413938   0.845   2.026  12.832  0.0126  0.7185  0.4004
    9TMC3    C513939   0.929   1.923  12.869  0.0486 -0.0272 -0.9319
    9TMC3    C613940   0.972   1.829  12.774  0.2353 -0.1995 -0.4338
    9TMC3     C13941   0.704   2.133  12.656  0.5806  0.0019  0.0953
    9TMC3     O13942   0.698   2.234  12.719  0.1651 -0.0303 -0.0854
    9TMC3     H13943   0.834   1.957  12.499 -0.7654 -0.5728 -0.4907
    9TMC3    H113944   0.820   2.108  12.898 -0.2436  1.2463 -0.3493
    9TMC3    H213945   1.026   1.741  12.810 -0.6326  0.1421  1.6771
    9TMC3    C713946   1.013   1.952  12.988  0.5049  0.0844 -0.3614
    9TMC3    C813947   1.030   1.799  12.540  0.0936  0.0357 -0.8645
    9TMC3    O113948   1.006   2.062  13.037 -0.3526  0.7905  0.0830
    9TMC3    O213949   1.012   1.826  12.422  0.2830  0.1391 -0.1447
   10MPD2     C13950   1.472   1.551  12.438 -0.1877 -0.0526  0.2279
   10MPD2    C113951   1.447   1.554  12.573  0.3143  0.0832 -0.1217
   10MPD2    C213952   1.332   1.608  12.621 -0.3528  0.0401  0.5376
   10MPD2    C313953   1.241   1.664  12.536 -0.4229 -0.6110  0.0442
   10MPD2    C413954   1.265   1.661  12.400  0.8334  0.1291 -0.6498
   10MPD2    C513955   1.385   1.604  12.354 -0.1267  0.6322  0.2807
   10MPD2     H13956   1.308   1.602  12.727 -1.3007 -1.1004  0.2558
   10MPD2    H113957   1.189   1.698  12.333  0.6753  1.7231  0.4157
   10MPD2    H213958   1.559   1.500  12.399 -0.4097 -0.5452  0.3628
   10MPD2    H313959   1.400   1.604  12.246 -0.2760  3.2722  0.2507
   10MPD2     N13960   1.130   1.726  12.596  0.0329 -0.8612  0.5914
   10MPD2    H513961   1.136   1.711  12.696  0.6563  0.1062  0.6991
   10MPD2    N113962   1.524   1.497  12.670 -0.1582  0.4392  0.2710
   10MPD2    H713963   1.504   1.514  12.768 -0.8665 -0.1405  0.2267
   11MPD2     C13964   1.442   1.040  13.601  0.4022  0.3556 -0.5820
   11MPD2    C113965   1.508   0.997  13.722 -0.3588 -0.4872 -0.1024
   11MPD2    C213966   1.645   0.998  13.723 -0.4288  0.3663  0.0785
   11MPD2    C313967   1.708   1.044  13.613  1.0956  0.2613 -0.0272
   11MPD2    C413968   1.642   1.064  13.494 -0.3156 -0.9301 -0.6209
   11MPD2    C513969   1.510   1.063  13.488  0.4806  0.7291  0.5074
   11MPD2     H13970   1.696   0.981  13.817  1.1316  0.6472 -0.7163
   11MPD2    H113971   1.704   1.095  13.410  1.4900  0.7633  1.3632
   11MPD2    H213972   1.334   1.045  13.595  0.4750  1.2098 -1.1146
   11MPD2    H313973   1.465   1.098  13.396 -1.9080  1.4356  1.9698
   11MPD2     N13974   1.852   1.050  13.598 -1.0292 -0.5087 -0.1108
   11MPD2    H513975   1.882   1.066  13.502 -0.7253 -1.4337 -0.1686
   11MPD2    N113976   1.408   0.958  13.821 -0.0192  0.1596 -0.1403
   11MPD2    H713977   1.310   0.955  13.797 -0.5219  2.7763  1.5945
    1MPD1     C13978   3.555   1.633  17.218 -0.1785 -0.3293  0.2880
    1MPD1    C113979   3.575   1.712  17.328  0.3137  0.4928 -0.1086
    1MPD1    C213980   3.684   1.794  17.332  0.2011 -0.3645 -0.2776
    1MPD1    C313981   3.752   1.826  17.206 -0.1159  0.5525 -0.5154
    1MPD1    C413982   3.717   1.759  17.090 -0.0753  0.3965  0.1114
    1MPD1    C513983   3.619   1.663  17.102 -0.1179  0.1861  0.0405
    1MPD1     H13984   3.711   1.854  17.418  0.4010  0.6555 -1.0476
    1MPD1    H113985   3.763   1.772  16.993 -0.1848  1.2794  0.1810
    1MPD1    H213986   3.484   1.551  17.223 -0.3585 -0.3631 -2.6422
    1MPD1    H313987   3.589   1.611  17.012  0.7335 -0.1953 -0.0224
    1MPD1     N13988   3.865   1.914  17.198 -0.1237 -0.2321  0.0050
    1MPD1    H513989   3.911   1.916  17.108 -1.7517 -0.3057 -0.8396
    1MPD1    N113990   3.512   1.668  17.450  0.4015  0.1752 -0.1184
    1MPD1    H613991   3.495   1.748  17.510  1.8185 -0.0856  0.6318
    1MPD1    H713992   3.419   1.637  17.421  1.6973 -1.9574 -1.9839
    2MPD1     C13993   4.399   2.795  17.424  0.5395  0.3429 -0.0761
    2MPD1    C113994   4.448   2.728  17.314  0.3796 -0.2847  0.1747
    2MPD1    C213995   4.416   2.593  17.290  0.4860 -0.1495 -0.4769
    2MPD1    C313996   4.347   2.523  17.393  0.9999  0.1844  0.1602
    2MPD1    C413997   4.314   2.586  17.513 -0.9145  0.3274 -0.6293
    2MPD1    C513998   4.344   2.720  17.527 -0.7185 -0.0434 -0.2805
    2MPD1     H13999   4.444   2.544  17.198  2.1702  1.0208 -0.5855
    2MPD1    H114000   4.250   2.543  17.589 -0.4453 -0.3752 -0.6351
    2MPD1    H214001   4.403   2.903  17.437  1.3406  0.4457 -1.1758
    2MPD1    H314002   4.302   2.770  17.614 -0.7356  0.4673 -0.5857
    2MPD1     N14003   4.309   2.395  17.357  0.4577  0.2138 -0.1955
    2MPD1    H514004   4.343   2.369  17.265 -1.2500  0.4436 -0.8992
    2MPD1    N114005   4.515   2.795  17.216 -0.2845  0.6909  0.1108
    2MPD1    H614006   4.595   2.741  17.185  0.2423  0.4294  1.8990
    2MPD1    H714007   4.564   2.877  17.250  1.4412 -0.6426  0.8339
    3TMC3    C114008   4.218   2.183  17.358  0.7897 -0.7931 -0.0025
    3TMC3    C214009   4.303   2.138  17.259  0.4032  0.6752 -0.1902
    3TMC3    C314010   4.254   2.044  17.174  0.9073 -0.0627 -0.2007
    3TMC3    C414011   4.085   2.142  17.359 -0.5997  0.9430 -0.3562
    3TMC3    C514012   4.047   2.037  17.278  0.2703 -0.0747  0.5179
    3TMC3    C614013   4.130   1.983  17.187  0.2972  0.7770 -0.4625
    3TMC3     C14014   4.250   2.299  17.437 -0.6079  0.1839  0.0042
    3TMC3     O14015   4.204   2.324  17.545  0.6805  0.0793 -0.3066
    3TMC3     H14016   4.407   2.169  17.254  0.6878  0.0352  1.7749
    3TMC3    H114017   4.014   2.184  17.430 -0.5499  0.7375 -0.1854
    3TMC3    H214018   4.099   1.898  17.127  3.0246  0.5114 -1.5153
    3TMC3    C714019   3.912   1.996  17.296  0.1661  0.2950  0.5449
    3TMC3    C814020   4.344   2.004  17.073 -0.0436 -0.1580  0.4605
    3TMC3    O114021   3.848   2.028  17.396 -0.0041 -0.1209 -0.2175
    3TMC3    O214022   4.459   2.036  17.079 -0.9371  0.6024 -0.0061
    4MPD1     C14023   4.422   1.814  16.605 -0.8465 -0.3916  0.2921
    4MPD1    C114024   4.304   1.765  16.653 -0.0222  0.1914  0.7593
    4MPD1    C214025   4.261   1.814  16.777 -0.2697  0.3201 -1.0797
    4MPD1    C314026   4.337   1.892  16.857 -0.3032 -0.1789 -0.1861
    4MPD1    C414027   4.454   1.935  16.811 -0.1351  0.0081 -0.7688
    4MPD1    C514028   4.497   1.896  16.685  0.0774 -0.8171 -0.5266
    4MPD1     H14029   4.157   1.795  16.800  0.2099 -1.0131 -0.0154
    4MPD1    H114030   4.520   1.993  16.875 -1.6607 -0.1586  0.9567
    4MPD1    H214031   4.450   1.797  16.501  2.2435 -0.6679  1.1721
    4MPD1    H314032   4.594   1.921  16.642  0.1988 -1.5463 -0.6642
    4MPD1     N14033   4.281   1.931  16.977  0.0667 -0.5552  0.0851
    4MPD1    H514034   4.188   1.894  16.995 -0.1237  0.8830  2.0717
    4MPD1    N114035   4.210   1.689  16.586  0.5853  0.3028  0.7179
    4MPD1    H614036   4.145   1.642  16.649  1.3057 -0.5909  0.8040
    4MPD1    H714037   4.257   1.622  16.525 -0.4328 -0.5063  0.8194
    1TCq1    O114038   0.676   0.835  11.007 -0.3136 -0.0012 -0.6359
    1TCq1    C114039   0.638   0.754  11.112 -0.3671  0.0038 -0.1648
    1TCq1    O214040   0.527   0.707  11.114  0.0231 -0.1877 -0.7839
    1TCq1    C214041   0.708   0.796  11.231 -0.1542  0.3761  0.4270
    1TCq1    C314042   0.698   0.724  11.345  0.1449  0.3389  0.7079
    1TCq1    C414043   0.737   0.786  11.459  0.9452 -0.5883  1.2357
    1TCq1    C514044   0.795   0.917  11.460  0.3864 -0.4028 -0.1734
    1TCq1    C614045   0.813   0.985  11.343 -0.1966  0.1035  0.7632
    1TCq1    C714046   0.768   0.920  11.234 -0.5052  0.1766  0.5834
    1TCq1    C814047   0.930   1.075  11.325 -0.3100  0.0819 -0.2254
    1TCq1    O414048   1.010   1.055  11.238 -0.4790 -0.6613  0.4421
    1TCq1    C914049   0.689   0.730  11.576  0.5146  0.2899  0.7348
    1TCq1    O514050   0.669   0.604  11.580  0.2854  0.0514 -0.1446
    1TCq1    O614051   0.677   0.810  11.670 -0.0963  0.3795 -0.1582
    1TCq1    H114052   0.763   0.877  11.020 -1.4519  1.2675  3.0395
    1TCq1    H214053   0.638   0.635  11.341 -1.6856  1.4977  2.1478
    1TCq1    H314054   0.833   0.946  11.558  0.6986 -0.2402 -0.3449
    1TCq1    H414055   0.787   0.984  11.148  0.2882 -3.0823 -1.6753
    2MPD1     C14056   1.280   1.362  11.576  0.0828  0.2313  0.1864
    2MPD1    C114057   1.157   1.377  11.640  0.6480  0.5961 -0.3144
    2MPD1    C214058   1.045   1.311  11.588  0.6598 -0.8231  0.8812
    2MPD1    C314059   1.056   1.224  11.480 -0.0575  0.0306 -0.6934
    2MPD1    C414060   1.182   1.202  11.427 -0.0719  0.1491  0.0921
    2MPD1    C514061   1.291   1.267  11.473  0.0281 -0.0843 -0.2178
    2MPD1     H14062   0.953   1.332  11.642  0.6112  4.6818 -1.3142
    2MPD1    H114063   1.202   1.121  11.358  0.9932 -1.5915  2.4249
    2MPD1    H214064   1.373   1.412  11.601  1.3150 -1.7236 -0.5030
    2MPD1    H314065   1.386   1.252  11.423 -0.3556 -0.8790 -0.6914
    2MPD1     N14066   0.947   1.148  11.442  0.5044 -0.0219  0.4775
    2MPD1    H514067   0.864   1.157  11.499 -0.9623 -0.2471 -1.6093
    2MPD1    N114068   1.157   1.483  11.733 -0.7196 -0.4171  0.1445
    2MPD1    H614069   1.085   1.466  11.802 -1.7345 -1.7089 -1.2243
    2MPD1    H714070   1.249   1.481  11.777 -0.1587 -0.2046 -1.0001
    1TCq1    O114071   2.042   1.619   1.480  0.0329  0.4844 -0.0613
    1TCq1    C114072   2.058   1.524   1.570 -0.5066 -0.0606  0.1950
    1TCq1    O214073   1.960   1.468   1.624 -0.3977 -0.8392  0.1494
    1TCq1    C214074   2.190   1.513   1.624  0.3360  0.2958 -0.1880
    1TCq1    C314075   2.203   1.464   1.750  0.1388 -0.1892 -1.0419
    1TCq1    C414076   2.322   1.466   1.808  0.7717 -0.0727  0.9044
    1TCq1    C514077   2.433   1.471   1.727 -0.1098 -0.5429 -0.3984
    1TCq1    C614078   2.423   1.526   1.605  0.6057 -0.1777 -0.3036
    1TCq1    C714079   2.302   1.545   1.546 -0.1916 -1.1261  0.4599
    1TCq1    C814080   2.542   1.571   1.525 -0.4938  0.9639 -0.1682
    1TCq1    O414081   2.524   1.648   1.429 -0.4598  0.6580 -0.2497
    1TCq1    C914082   2.333   1.386   1.934  0.7092 -0.1264  0.5313
    1TCq1    O514083   2.450   1.370   1.979  0.3873 -0.4937 -0.4768
    1TCq1    O614084   2.233   1.319   1.965 -0.0091  0.3680 -0.1179
    1TCq1    H114085   2.125   1.651   1.438  0.1887  0.1070 -0.0439
    1TCq1    H214086   2.109   1.442   1.798  0.6357 -1.3526 -0.6090
    1TCq1    H314087   2.529   1.453   1.775 -1.2359 -2.4744  1.1070
    1TCq1    H414088   2.300   1.587   1.446  1.2914  0.5709  1.1486
    2MPD1     C14089   3.035   1.534   1.357 -0.3130  0.0126 -0.5692
    2MPD1    C114090   3.012   1.442   1.455 -0.4821  0.0921  0.2769
    2MPD1    C214091   2.888   1.431   1.524 -0.0677  0.3120  0.3746
    2MPD1    C314092   2.784   1.511   1.488 -0.7047  0.1809 -0.9009
    2MPD1    C414093   2.801   1.587   1.379  0.4599 -0.5419  0.2064
    2MPD1    C514094   2.922   1.600   1.318 -0.2229  0.8482  0.5212
    2MPD1     H14095   2.876   1.361   1.606 -0.9301  1.4824  1.2502
    2MPD1    H114096   2.734   1.667   1.351 -0.1407 -0.1463  2.7613
    2MPD1    H214097   3.129   1.543   1.304 -0.3338  1.0545 -0.4433
    2MPD1    H314098   2.937   1.677   1.244  0.3025  0.9736  0.7575
    2MPD1     N14099   2.658   1.507   1.557 -0.1458  0.3609  0.1512
    2MPD1    H514100   2.658   1.448   1.641 -2.3091 -0.0927 -0.1490
    2MPD1    N114101   3.122   1.372   1.505 -0.2519  0.4773  0.0115
    2MPD1    H614102   3.099   1.280   1.541  2.2465 -0.1986 -0.1421
    2MPD1    H714103   3.199   1.366   1.439 -1.4871 -0.8136 -1.2924
    1MPD1     C14104   1.675   1.271  12.177  0.9937 -0.6223 -0.4258
    1MPD1    C114105   1.736   1.150  12.172 -0.5660  0.3274 -0.9589
    1MPD1    C214106   1.873   1.147  12.139  0.1029  0.1880 -0.0970
    1MPD1    C314107   1.941   1.261  12.115  0.1950 -0.2023 -0.3326
    1MPD1    C414108   1.872   1.383  12.121 -0.3753 -0.7235 -0.5117
    1MPD1    C514109   1.743   1.382  12.161 -0.3330 -0.1211 -0.0188
    1MPD1     H14110   1.932   1.056  12.138 -2.0584 -1.2706  2.9816
    1MPD1    H114111   1.924   1.479  12.124  1.3507 -1.7408  1.6893
    1MPD1    H214112   1.572   1.277  12.210  0.9459 -2.6319 -0.2383
    1MPD1    H314113   1.699   1.481  12.171 -0.5699 -0.0170 -2.1788
    1MPD1     N14114   2.079   1.240  12.089 -0.2592  0.5779 -0.0570
    1MPD1    H514115   2.109   1.143  12.097  0.6925  1.0123  1.4991
    1MPD1    N114116   1.654   1.038  12.184 -0.0314 -0.1947 -0.8401
    1MPD1    H614117   1.698   0.953  12.219  0.1756  0.5711  0.8001
    1MPD1    H714118   1.563   1.048  12.228  1.1529 -0.9618  1.8097
    2MPD1     C14119   1.530   2.077  11.539  0.8185  0.2209 -0.1730
    2MPD1    C114120   1.493   2.065  11.405  0.3916 -0.5111 -0.0970
    2MPD1    C214121   1.577   1.985  11.321 -0.2818 -0.2681 -0.2820
    2MPD1    C314122   1.681   1.917  11.377  0.2141  0.1971 -0.3695
    2MPD1    C414123   1.714   1.926  11.514  0.3743 -0.5352 -0.2676
    2MPD1    C514124   1.634   2.007  11.594 -0.4170  0.1297 -0.7556
    2MPD1     H14125   1.556   1.977  11.216  0.6247  0.7891 -0.5491
    2MPD1    H114126   1.793   1.869  11.561 -2.5050 -2.6029  2.0272
    2MPD1    H214127   1.485   2.147  11.608  1.3150 -0.1714  0.5416
    2MPD1    H314128   1.674   2.027  11.693 -0.9619  0.0401 -0.5171
    2MPD1     N14129   1.753   1.817  11.311 -0.3575  0.0154 -0.2410
    2MPD1    H514130   1.814   1.759  11.368 -1.6492  0.2216  1.3459
    2MPD1    N114131   1.402   2.149  11.339  0.0652 -0.1761 -0.0057
    2MPD1    H614132   1.359   2.105  11.259 -0.7877 -0.7753  0.7844
    2MPD1    H714133   1.330   2.184  11.402  1.4903  1.0668  0.9277
    3MPD1     C14134   1.839   1.249  10.369 -0.2946  0.4975  0.2706
    3MPD1    C114135   1.934   1.200  10.457 -0.0255 -1.3566  0.1759
    3MPD1    C214136   1.949   1.255  10.583 -0.3851  0.2854  0.0022
    3MPD1    C314137   1.877   1.363  10.619  0.0663  0.5838  1.2049
    3MPD1    C414138   1.789   1.417  10.525  0.5614  0.1624 -0.6152
    3MPD1    C514139   1.760   1.351  10.409 -0.7732  0.1963 -0.2353
    3MPD1     H14140   2.026   1.223  10.652 -1.2956  0.7259  1.2315
    3MPD1    H114141   1.726   1.501  10.552 -0.5646 -1.2626  1.2087
    3MPD1    H214142   1.824   1.191  10.279 -2.9636  0.1057  0.9766
    3MPD1    H314143   1.688   1.396  10.343  0.1834  1.7573 -0.2292
    3MPD1     N14144   1.878   1.392  10.760 -0.4820 -0.0896  0.2785
    3MPD1    H514145   1.945   1.336  10.812 -1.3723 -2.2421 -0.8889
    3MPD1    N114146   2.015   1.089  10.423  0.3402  0.4169 -0.3205
    3MPD1    H614147   2.080   1.072  10.499 -1.3042  0.4916  1.1110
    3MPD1    H714148   2.064   1.078  10.334  1.0439  0.3676  0.0822
    4MPD2     C14149   2.801   1.555  11.781  0.7743  0.1238 -0.3369
    4MPD2    C114150   2.743   1.426  11.783 -0.5432 -0.1961 -0.1351
    4MPD2    C214151   2.775   1.331  11.688 -0.5666 -0.2165  0.7305
    4MPD2    C314152   2.860   1.361  11.588 -0.1823 -0.2126 -0.7501
    4MPD2    C414153   2.922   1.484  11.584  0.1150 -0.2002 -0.2273
    4MPD2    C514154   2.899   1.574  11.685  0.0651 -0.2313 -0.5455
    4MPD2     H14155   2.725   1.236  11.675  0.3827 -0.6666  0.3690
    4MPD2    H114156   2.991   1.509  11.504 -0.0073  1.1203  0.0925
    4MPD2    H214157   2.780   1.633  11.853 -0.0639  1.3366 -1.9176
    4MPD2    H314158   2.941   1.673  11.696  0.0066 -0.1424 -1.1173
    4MPD2     N14159   2.881   1.254  11.499  0.2432 -1.0449  0.6166
    4MPD2    H514160   2.836   1.169  11.529  0.6274 -1.4664  0.0033
    4MPD2    N114161   2.658   1.389  11.891  0.1950  0.2350  0.3713
    4MPD2    H714162   2.634   1.290  11.891 -0.6809  0.4466  0.0808
    5TMC3    C114163   2.526   1.385  12.082  0.1991 -0.5610 -0.2576
    5TMC3    C214164   2.397   1.412  12.054  0.6419 -0.3394  0.3136
    5TMC3    C314165   2.304   1.307  12.048  0.1135  0.3734 -0.4656
    5TMC3    C414166   2.563   1.257  12.089  0.1577  1.0176 -0.3051
    5TMC3    C514167   2.475   1.151  12.065 -0.3871  0.7104 -0.9969
    5TMC3    C614168   2.342   1.176  12.043 -0.2599 -0.0075 -0.9682
    5TMC3     C14169   2.604   1.469  11.992  0.2973 -0.0369  0.8687
    5TMC3     O14170   2.598   1.590  12.002  0.2659 -0.0492 -0.5266
    5TMC3     H14171   2.372   1.517  12.042  2.9550  0.3448  1.3625
    5TMC3    H114172   2.670   1.240  12.089 -0.4134 -2.5835  2.0341
    5TMC3    H214173   2.277   1.092  12.020 -0.9539  0.6002 -1.2262
    5TMC3    C714174   2.529   1.063  11.962  0.0691  0.5722  0.2070
    5TMC3    C814175   2.161   1.343  12.059 -0.2929  0.1394 -0.0444
    5TMC3    O114176   2.648   1.083  11.931  0.1448  0.1868 -0.4799
    5TMC3    O214177   2.140   1.464  12.055 -0.2690  0.5770 -0.2601
    6TMC3    C114178   1.814   1.669  11.134 -0.0440  0.1426  0.6179
    6TMC3    C214179   1.765   1.617  11.020 -0.4860 -0.7024  0.4889
    6TMC3    C314180   1.834   1.514  10.959 -0.3506 -0.0311 -0.0480
    6TMC3    C414181   1.932   1.631  11.186  0.0299 -0.0512 -0.6087
    6TMC3    C514182   2.005   1.542  11.115 -0.3028  0.2236  0.2547
    6TMC3    C614183   1.964   1.487  11.003 -0.2874  0.0350 -0.2575
    6TMC3     C14184   1.735   1.778  11.179  0.4445  0.4088  0.3512
    6TMC3     O14185   1.651   1.826  11.104 -0.2470 -0.4030  0.3165
    6TMC3     H14186   1.675   1.648  10.969  1.1235  0.6136 -1.5339
    6TMC3    H114187   1.982   1.680  11.270  2.5006 -2.2118 -0.8201
    6TMC3    H214188   2.031   1.425  10.944  1.0400  2.2692 -1.0848
    6TMC3    C714189   2.120   1.474  11.175  0.0723  0.0335  0.3726
    6TMC3    C814190   1.815   1.498  10.820 -0.4360  0.1784 -0.1811
    6TMC3    O114191   2.168   1.385  11.111 -0.3585  0.5984 -0.7559
    6TMC3    O214192   1.734   1.573  10.769 -0.6685  0.3449  1.2653
    7MPD2     C14193   2.531   0.672  11.635  0.2857  0.0900  1.1936
    7MPD2    C114194   2.572   0.805  11.620 -0.2461  0.8158  0.4056
    7MPD2    C214195   2.553   0.892  11.729  0.0365  0.3520  0.1465
    7MPD2    C314196   2.492   0.854  11.844  0.5341  0.1409  0.1620
    7MPD2    C414197   2.430   0.730  11.844  0.8495  0.1228  0.0109
    7MPD2    C514198   2.455   0.644  11.747 -1.1836  0.0287 -0.6087
    7MPD2     H14199   2.575   0.997  11.714  2.2369 -0.2027 -0.5653
    7MPD2    H114200   2.378   0.690  11.930  1.1335  1.8502  0.9865
    7MPD2    H214201   2.555   0.596  11.562 -0.5345  0.6892  0.2923
    7MPD2    H314202   2.424   0.541  11.759 -0.7758 -0.1009 -0.6738
    7MPD2     N14203   2.457   0.954  11.943 -0.8886 -0.1062 -0.6004
    7MPD2    H514204   2.385   0.931  12.010  2.1659 -0.3289  2.6273
    7MPD2    N114205   2.638   0.846  11.502  0.3776 -0.3592  0.2249
    7MPD2    H714206   2.640   0.788  11.419  0.1267 -2.5630  1.7743
    8TMC3    C114207   2.766   0.977  11.358 -0.1785 -0.0547 -0.1218
    8TMC3    C214208   2.665   1.026  11.270  0.5477  0.7560  0.8606
    8TMC3    C314209   2.700   1.133  11.196  0.4583 -0.0622  0.0830
    8TMC3    C414210   2.891   1.039  11.372 -0.8628 -0.3181  0.0525
    8TMC3    C514211   2.917   1.151  11.296 -1.0426 -0.4251 -0.1392
    8TMC3    C614212   2.826   1.187  11.195 -0.1214  0.5309 -0.2306
    8TMC3     C14213   2.720   0.957  11.494  0.6404  0.5356 -0.0709
    8TMC3     O14214   2.763   1.032  11.578 -0.1215  1.0079 -0.1446
    8TMC3     H14215   2.562   0.994  11.270  1.2278 -1.4490  1.6951
    8TMC3    H114216   2.967   0.998  11.439 -0.8432  0.0407  0.2471
    8TMC3    H214217   2.824   1.288  11.155 -3.2900  0.5841  0.0258
    8TMC3    C714218   2.949   1.267  11.376 -0.3388  0.0925  0.1408
    8TMC3    C814219   2.594   1.232  11.206  0.1458  0.1335 -0.4637
    8TMC3    O114220   2.988   1.365  11.318 -0.0084  0.2283 -0.2799
    8TMC3    O214221   2.493   1.202  11.144  0.0756 -0.0161  0.1604
    9MPD2     C14222   2.546   1.495  11.450  0.0549 -0.5088  0.2389
    9MPD2    C114223   2.515   1.413  11.344  0.1710 -0.6635  0.1517
    9MPD2    C214224   2.390   1.430  11.289  0.6695  0.5602 -0.1465
    9MPD2    C314225   2.297   1.509  11.344 -0.1743  0.2323 -0.0677
    9MPD2    C414226   2.325   1.582  11.455 -0.4312 -0.0752  0.3985
    9MPD2    C514227   2.444   1.572  11.511 -0.1669 -0.1331 -0.6720
    9MPD2     H14228   2.361   1.375  11.200 -3.3646  0.7434  1.0693
    9MPD2    H114229   2.251   1.644  11.504 -0.2188  1.1146 -0.7709
    9MPD2    H214230   2.644   1.500  11.495 -1.2769  0.2300  3.0974
    9MPD2    H314231   2.464   1.639  11.595  0.0545 -1.1363  0.0763
    9MPD2     N14232   2.168   1.535  11.289 -0.2491 -0.0354 -0.1987
    9MPD2    H514233   2.108   1.598  11.342 -1.4169 -0.2658 -1.2648
    9MPD2    N114234   2.618   1.325  11.304  0.2145 -0.7293  0.6471
    9MPD2    H714235   2.710   1.328  11.349  1.3490 -2.3523 -1.5925
    1MPD1     C14236   2.160   1.361  16.164  0.3836  0.2774 -0.8783
    1MPD1    C114237   2.160   1.223  16.162 -0.0938  0.6294  0.4031
    1MPD1    C214238   2.155   1.148  16.277 -0.0484 -0.5487  0.0104
    1MPD1    C314239   2.140   1.213  16.396 -0.1485  0.9086  0.2869
    1MPD1    C414240   2.147   1.349  16.404  0.1482  0.8929  0.2229
    1MPD1    C514241   2.158   1.423  16.284 -0.1084 -0.2812 -1.0321
    1MPD1     H14242   2.169   1.042  16.264  0.3940 -0.4576 -0.2744
    1MPD1    H114243   2.150   1.393  16.503  1.0837  1.1696  0.0679
    1MPD1    H214244   2.185   1.416  16.074 -0.9904  2.5374  0.1230
    1MPD1    H314245   2.165   1.530  16.297 -1.1778 -0.0027 -2.8425
    1MPD1     N14246   2.119   1.134  16.512  0.5049  0.4423 -0.2163
    1MPD1    H514247   2.141   1.165  16.607 -0.9403  0.2103  0.1886
    1MPD1    N114248   2.158   1.152  16.040 -0.4498 -0.1538  0.2177
    1MPD1    H614249   2.148   1.054  16.063  0.5418 -0.6793 -1.5576
    1MPD1    H714250   2.071   1.181  15.996  0.4224 -0.0369 -1.4742
    2MPD1     C14251   1.649   0.247  16.743 -0.0478 -0.4335  0.1259
    2MPD1    C114252   1.691   0.307  16.623  0.1655 -0.1265 -0.1071
    2MPD1    C214253   1.754   0.421  16.628  0.0346  0.5191 -0.1206
    2MPD1    C314254   1.794   0.476  16.744  0.0811 -1.0628 -0.4079
    2MPD1    C414255   1.765   0.413  16.862 -0.2027  0.3388 -0.2744
    2MPD1    C514256   1.687   0.300  16.861 -0.1945  0.4525 -0.6509
    2MPD1     H14257   1.780   0.476  16.538 -0.4167 -1.0503 -1.2170
    2MPD1    H114258   1.798   0.447  16.960  0.8444  0.1202 -0.5527
    2MPD1    H214259   1.587   0.159  16.749  0.0691 -0.4661  0.8962
    2MPD1    H314260   1.653   0.250  16.951 -1.9306 -0.0207 -1.5798
    2MPD1     N14261   1.872   0.594  16.740  0.4835 -0.3281 -0.4080
    2MPD1    H514262   1.876   0.629  16.645  0.0591 -0.7078 -0.5653
    2MPD1    N114263   1.639   0.257  16.503 -0.2837  0.0950  0.3786
    2MPD1    H614264   1.625   0.156  16.506  0.6301 -0.0446 -0.1676
    2MPD1    H714265   1.705   0.281  16.429  1.8690 -2.6806  1.4103
    3TCq2    C114266   1.940   0.660  16.839  0.5546 -0.0973 -0.3231
    3TCq2    O214267   1.967   0.627  16.957  0.3932 -0.7769 -0.3240
    3TCq2    C214268   2.019   0.776  16.787  0.2800  0.5665  0.1543
    3TCq2    C314269   2.121   0.816  16.875 -0.3802 -0.2458  0.6306
    3TCq2    C414270   2.188   0.929  16.849  0.4774  0.3162  0.6384
    3TCq2    C514271   2.159   0.997  16.733  0.1450 -0.6679  0.1267
    3TCq2    C614272   2.059   0.956  16.645 -0.0341  0.2112  0.8501
    3TCq2    C714273   1.987   0.842  16.669  0.9195  0.2173  0.7132
    3TCq2    C814274   2.052   1.014  16.509 -0.3574 -1.2834  0.2333
    3TCq2    O414275   1.970   0.968  16.435  0.4431 -0.3769  0.4051
    3TCq2    C914276   2.305   0.965  16.929  0.1095 -0.3969 -0.6210
    3TCq2    O514277   2.339   1.082  16.912 -0.5118  0.1841 -0.0215
    3TCq2    O614278   2.377   0.871  16.972 -0.3957 -0.9417 -0.2145
    3TCq2    H214279   2.148   0.755  16.961  0.1251  0.1677  0.7666
    3TCq2    H314280   2.224   1.082  16.715 -1.6088  0.1844 -2.2526
    3TCq2    H414281   1.900   0.815  16.610  1.5745  2.6067 -1.3475
    1TCq1    O114282   4.039   3.668  13.126  0.3249  0.6988 -0.5847
    1TCq1    C114283   4.110   3.565  13.178  0.8900  0.3687  0.7541
    1TCq1    O214284   4.074   3.453  13.208  0.1219  0.3074 -0.3495
    1TCq1    C214285   4.250   3.612  13.188 -0.5566  0.0423  0.2111
    1TCq1    C314286   4.349   3.518  13.211 -0.4268  1.2336 -0.5898
    1TCq1    C414287   4.481   3.558  13.193  0.4071  1.0809  0.0774
    1TCq1    C514288   4.514   3.686  13.169 -0.7427 -0.2073 -0.3449
    1TCq1    C614289   4.416   3.773  13.149 -0.6167 -0.3638 -0.0593
    1TCq1    C714290   4.283   3.744  13.160  0.2710  0.2420  1.0927
    1TCq1    C814291   4.430   3.919  13.141 -0.1827 -0.7849  0.1811
    1TCq1    O414292   4.357   3.975  13.058  0.4024  0.5114  0.3071
    1TCq1    C914293   4.584   3.460  13.227  0.0845 -0.5115 -0.1783
    1TCq1    O514294   4.553   3.366  13.299  0.2808  0.5633  0.5550
    1TCq1    O614295   4.689   3.468  13.163 -0.2038 -0.3053 -0.4223
    1TCq1    H114296   3.947   3.651  13.098 -0.2285 -1.2164  2.4011
    1TCq1    H214297   4.329   3.415  13.240 -0.0645  0.8988 -1.5122
    1TCq1    H314298   4.621   3.704  13.173 -0.4440 -1.7750 -1.2975
    1TCq1    H414299   4.209   3.823  13.147 -0.5556 -0.5052  1.2842
    2MPD2     C14300   4.527   4.200  13.115 -0.6348 -0.4243  0.0484
    2MPD2    C114301   4.584   4.106  13.196 -0.2699  0.1650  0.0250
    2MPD2    C214302   4.693   4.148  13.269  0.1071 -1.0919 -0.3640
    2MPD2    C314303   0.006   4.280  13.267  0.9455  0.4145  0.2583
    2MPD2    C414304   4.678   4.372  13.177  0.0490  0.1781 -0.0076
    2MPD2    C514305   4.577   4.328  13.106 -0.2289  0.2744  0.7150
    2MPD2     H14306   0.021   4.082  13.338  0.6330 -0.8394 -0.5120
    2MPD2    H114307   4.707   4.477  13.174  1.6526 -0.2466  0.3146
    2MPD2    H214308   4.432   4.190  13.063 -0.7108 -0.6934  0.2438
    2MPD2    H314309   4.532   4.394  13.033 -0.2438  1.2779  1.6341
    2MPD2     N14310   0.104   4.316  13.365  0.3886  0.0472 -0.5042
    2MPD2    H514311   0.148   4.240  13.415 -0.8619 -1.6466 -1.9981
    2MPD2    N114312   4.533   3.973  13.217 -0.2399 -0.6151 -0.0189
    2MPD2    H714313   4.580   3.917  13.287 -0.8074  0.5024  1.2566
    3TCq1    O114314   0.476   4.653  13.804  0.0653 -0.2166 -0.0065
    3TCq1    C114315   0.341   4.647  13.779 -0.6457 -0.3967 -0.3098
    3TCq1    O214316   0.268   0.026  13.785  0.4926 -0.8773  0.5852
    3TCq1    C214317   0.319   4.534  13.697 -0.0426  0.7700 -0.3610
    3TCq1    C314318   0.407   4.432  13.694  0.4558  0.1590  0.6578
    3TCq1    C414319   0.413   4.348  13.590  0.1791  1.0609  0.7705
    3TCq1    C514320   0.338   4.369  13.484 -0.4251  0.0371  0.1499
    3TCq1    C614321   0.236   4.461  13.492  0.4157 -0.1163  0.3173
    3TCq1    C714322   0.224   4.556  13.595  0.6054  0.4548  0.0642
    3TCq1    C814323   0.130   4.447  13.401  0.7824  0.0706  0.2691
    3TCq1    O414324   0.072   4.551  13.370  0.5577 -0.0378  0.0536
    3TCq1    C914325   0.523   4.257  13.585  0.0748 -1.2172  0.4734
    3TCq1    O514326   0.586   4.261  13.473 -0.9314  0.6792 -0.4317
    3TCq1    O614327   0.575   4.220  13.699 -0.4916  0.0376  0.2727
    3TCq1    H114328   0.534   4.580  13.774  1.8895  0.8470  0.9277
    3TCq1    H214329   0.479   4.410  13.772 -1.3407 -1.1934  1.9614
    3TCq1    H314330   0.353   4.314  13.392  0.3256  0.4955  0.0014
    3TCq1    H414331   0.150   4.634  13.586 -1.0447 -1.1767 -0.3402
    1MPD2     C14332   4.493   0.871  15.328 -0.1170  0.6373  0.8318
    1MPD2    C114333   4.377   0.824  15.266  0.9470 -0.2713 -0.2774
    1MPD2    C214334   4.360   0.687  15.251  0.7024 -0.1860  0.0821
    1MPD2    C314335   4.454   0.598  15.302  0.0677  0.2303 -0.7271
    1MPD2    C414336   4.559   0.643  15.372  0.4007  0.1733  0.0629
    1MPD2    C514337   4.579   0.777  15.383  0.0571 -0.0875  0.1401
    1MPD2     H14338   4.273   0.652  15.197  0.0373 -0.6040  1.4231
    1MPD2    H114339   4.629   0.573  15.417  0.2600 -0.4327 -0.6544
    1MPD2    H214340   4.504   0.979  15.323  0.2951  0.5810  0.4419
    1MPD2    H314341   4.666   0.812  15.438  0.6762 -0.4570 -0.6091
    1MPD2     N14342   4.435   0.454  15.294 -0.0997 -0.5338  0.6932
    1MPD2    H514343   4.514   0.404  15.334 -0.2539 -1.0779  0.3158
    1MPD2    N114344   4.277   0.918  15.233  0.0070  0.2807 -0.1750
    1MPD2    H714345   4.297   1.017  15.242  0.2765  0.3188 -1.2726
    2TMC3    C114346   4.076   0.995  15.128 -0.4245 -0.5058  0.3615
    2TMC3    C214347   3.946   0.948  15.098  0.1858  0.1450 -0.7286
    2TMC3    C314348   3.897   0.987  14.975 -0.5283  0.0676 -0.1412
    2TMC3    C414349   4.135   1.094  15.059  0.2326 -0.1193  0.6260
    2TMC3    C514350   4.067   1.148  14.952 -0.3132 -0.2095  0.3070
    2TMC3    C614351   3.949   1.092  14.902  0.0488 -0.9516 -0.7816
    2TMC3     C14352   4.155   0.882  15.179 -0.7080  0.0075 -0.2654
    2TMC3     O14353   4.101   0.774  15.166  0.0103  0.1519 -0.8680
    2TMC3     H14354   3.891   0.872  15.152  1.6585 -0.4879 -0.1287
    2TMC3    H114355   4.233   1.127  15.090 -0.2922  1.9754  0.0697
    2TMC3    H214356   3.895   1.119  14.812 -1.4823  0.6103  0.6025
    2TMC3    C714357   4.142   1.243  14.861 -0.0488  0.0796 -0.1115
    2TMC3    C814358   3.859   0.874  14.890  0.8582  0.4066 -0.5262
    2TMC3    O114359   4.079   1.261  14.762 -0.4803  0.1603  0.2331
    2TMC3    O214360   3.817   0.903  14.781 -0.5970  1.1230  0.2383
    3TCq1    O114361   0.279   2.177  14.875  0.1514 -0.1298  0.6583
    3TCq1    C114362   0.217   2.104  14.780  0.2418  0.1113  0.4177
    3TCq1    O214363   0.236   2.108  14.658 -0.4981 -0.0124  0.3943
    3TCq1    C214364   0.111   2.030  14.843 -0.1222  0.4435  0.2622
    3TCq1    C314365   0.062   2.068  14.969  0.6328 -0.3991 -0.5078
    3TCq1    C414366   4.711   1.980  15.031 -0.5642 -0.0796  0.4194
    3TCq1    C514367   4.692   1.846  14.981 -0.4870  0.1545  0.3212
    3TCq1    C614368   0.014   1.824  14.854  1.0751 -0.3890  0.4247
    3TCq1    C714369   0.080   1.916  14.779  0.1985  0.2673  0.3897
    3TCq1    C814370   4.707   1.705  14.784 -0.2082 -0.2787  0.5517
    3TCq1    O414371   0.009   1.708  14.663  0.0884  0.0370 -0.4712
    3TCq1    C914372   4.660   2.001  15.168 -0.2069  0.4135 -1.0823
    3TCq1    O514373   4.640   1.895  15.227 -0.3693 -0.0483  0.3726
    3TCq1    O614374   4.710   2.109  15.212 -0.4010 -0.1787  0.5596
    3TCq1    H114375   0.274   2.148  14.968  0.0558 -0.9182  0.4022
    3TCq1    H214376   0.084   2.165  15.014 -0.1519  0.5400 -2.1392
    3TCq1    H314377   4.651   1.767  15.043  3.0396 -1.4500  0.6124
    3TCq1    H414378   0.110   1.894  14.677 -0.7783  0.1467  0.1290
    4MPD2     C14379   4.508   1.515  14.657 -0.1678  0.5647  0.2049
    4MPD2    C114380   4.528   1.531  14.794 -0.6131 -0.9084  0.4235
    4MPD2    C214381   4.443   1.460  14.876 -0.1932 -0.3867  0.4021
    4MPD2    C314382   4.339   1.382  14.819 -0.0330 -0.0219 -0.2476
    4MPD2    C414383   4.334   1.352  14.685  0.3569  0.1856  0.3954
    4MPD2    C514384   4.420   1.420  14.605  0.1305  0.0450  0.4613
    4MPD2     H14385   4.446   1.478  14.983 -0.7843  1.9274  0.0256
    4MPD2    H114386   4.265   1.282  14.638  1.7750 -0.6683 -0.4198
    4MPD2    H214387   4.556   1.580  14.585  0.6730  0.0409  0.2903
    4MPD2    H314388   4.409   1.410  14.497 -0.3306 -2.6651  0.7703
    4MPD2     N14389   4.260   1.303  14.904  0.2953  0.2211  0.2268
    4MPD2    H514390   4.289   1.301  15.001  0.4599  2.7628  0.2254
    4MPD2    N114391   4.620   1.630  14.852  0.4781  0.1216 -0.1179
    4MPD2    H714392   4.620   1.650  14.951  0.9822  2.8937 -0.6793
    5TMC2    C114393   4.277   0.154  14.985 -0.5818 -1.0632  0.0089
    5TMC2    C214394   4.407   0.123  14.956 -0.8715 -0.2311  0.1379
    5TMC2    C314395   4.507   0.156  15.038 -0.2374  0.3569  0.1665
    5TMC2    C414396   4.251   0.211  15.109 -0.1039 -0.1071  0.3085
    5TMC2    C514397   4.355   0.245  15.193 -0.1456  0.0667  0.3319
    5TMC2    C614398   4.481   0.216  15.158 -0.0933  0.4009 -0.3074
    5TMC2     C14399   4.193   0.219  14.883 -0.0055  0.4352 -0.5411
    5TMC2     O14400   4.197   0.192  14.765  0.3767 -0.0227 -0.4949
    5TMC2     H14401   4.440   0.070  14.867  1.2105  0.7180  0.3366
    5TMC2    H114402   4.149   0.223  15.142 -0.6710  0.2699 -1.5972
    5TMC2    H214403   4.555   0.229  15.236  0.9284 -1.3051 -0.9955
    5TMC2    C714404   4.335   0.390  15.221  0.4950 -0.3047  0.2663
    5TMC2    C814405   4.647   0.120  15.022 -0.8649 -0.6378 -0.2259
    5TMC2    O114406   4.231   0.433  15.175 -0.5111  0.2818 -0.1981
    5TMC2    O214407   0.006   0.104  15.112  0.1349 -0.2300  0.4227
    5TMC2    O514408   4.677   0.158  14.894 -0.0143  0.2569 -0.3661
    5TMC2    H514409   4.611   0.208  14.841 -0.7899  0.5790  0.9044
    6MPD2     C14410   3.867   0.596  14.753 -0.1912  0.1425 -0.2058
    6MPD2    C114411   3.930   0.631  14.872 -0.8545  0.3340  0.2039
    6MPD2    C214412   4.031   0.544  14.924 -0.2651  1.2601 -0.0373
    6MPD2    C314413   4.057   0.427  14.861  0.1855  0.2346  0.0544
    6MPD2    C414414   4.000   0.396  14.741  0.1276 -0.3298 -0.4771
    6MPD2    C514415   3.896   0.477  14.692 -0.0791 -0.2001 -0.3877
    6MPD2     H14416   4.089   0.578  15.008 -0.2065  1.7941 -0.2939
    6MPD2    H114417   4.009   0.297  14.698 -0.6084 -0.4117 -0.4571
    6MPD2    H214418   3.781   0.651  14.717 -0.7640  1.0087  2.4548
    6MPD2    H314419   3.842   0.466  14.598 -1.9647  2.0291  0.4444
    6MPD2     N14420   4.139   0.335  14.932 -0.1522  0.4250 -0.1250
    6MPD2    H514421   4.170   0.360  15.025 -1.2888 -0.5139  0.5078
    6MPD2    N114422   3.923   0.755  14.938 -0.5775 -0.3698 -0.1487
    6MPD2    H714423   3.986   0.768  15.016 -0.7354  3.5994 -0.6764
  945NH4     N114424   4.690   1.437  10.450 -0.1593  0.4060 -0.0073
  945NH4     H214425   4.722   1.535  10.462  0.8233 -0.1591  1.9920
  945NH4     H314426   0.041   1.370  10.478 -1.0404 -0.6161 -0.1435
  945NH4     H414427   4.652   1.420  10.355  1.3393 -0.5538 -0.4199
  945NH4     H514428   4.601   1.421  10.502 -0.7171 -0.2286 -1.1577
  946SOD     NA14429   4.029   0.260   9.341  0.0741  0.4197  0.0614
  947SOD     NA14430   1.005   3.717   1.141 -0.0887 -0.1909 -0.3561
  948SOD     NA14431   0.760   4.539  13.957 -0.3708 -1.0496  0.0262
  949SOD     NA14432   1.648   2.478  17.443  0.0176  0.4991  0.1913
  950SOD     NA14433   3.856   3.153  10.080  0.3667  0.0069 -0.2190
  951SOD     NA14434   1.087   3.447   1.783  0.1312 -0.0246  0.3651
  952SOD     NA14435   4.423   0.870  11.272  0.5714  0.4586 -0.2737
  953SOD     NA14436   2.338   0.758  13.955 -0.3796 -0.2414  0.4362
  954SOD     NA14437   0.780   0.424  11.593  0.3994  0.0616 -0.0917
  955SOD     NA14438   0.188   0.691  11.478  0.2474 -0.0833  0.3178
  956SOD     NA14439   3.902   3.360  13.102  0.0195 -0.1927 -0.4680
  957SOD     NA14440   4.004   1.708  13.097  0.2477 -0.5027  0.2260
  958SOD     NA14441   3.396   2.645  11.524  0.3882 -0.0420  0.0697
  959SOD     NA14442   0.278   3.790  10.320  0.1596 -0.1919  0.2897
  960SOD     NA14443   1.123   3.199   5.366 -0.0461 -0.2506  0.1527
  961SOD     NA14444   2.113   1.373  13.864 -0.1392 -0.3704  0.9457
  962SOD     NA14445   2.414   1.788   1.272  0.1409 -0.3653  0.1428
  963SOD     NA14446   1.640   1.834   0.680 -0.0899 -0.2475  0.2027
  964SOD     NA14447   0.740   3.149   7.933  0.1400 -0.6010 -0.2195
  965SOD     NA14448   1.309   4.050   2.218  0.4912  0.5507 -0.0034
  966SOD     NA14449   3.983   3.784  10.588  0.4670 -0.5281 -0.1536
  967SOD     NA14450   3.079   3.202   9.577  0.4273 -0.1599  0.5720
  968SOD     NA14451   4.718   4.139  11.884  0.4578 -0.3249 -0.2589
  969SOD     NA14452   3.143   3.440  13.169  0.2214 -0.0839  0.3982
  970SOD     NA14453   2.293   2.789   0.916  0.3689  0.1108  0.3268
  971SOD     NA14454   0.367   3.584  12.563 -0.3423 -0.8504 -0.2261
  972SOD     NA14455   1.735   3.945   7.634  0.3643  0.3710 -0.4489
  973SOD     NA14456   3.208   4.495   1.571  0.1873  0.3095  0.4747
  974SOD     NA14457   0.507   4.178  10.948  0.4395  0.0403  0.1369
  975SOD     NA14458   1.241   1.508   2.964  0.0610 -0.1197  0.3183
  976SOD     NA14459   0.105   4.456  11.964 -0.2433  0.5105  0.2902
  977SOD     NA14460   0.492   0.026  12.006 -0.1960  0.5769 -0.1632
  978SOD     NA14461   2.768   4.631  11.062  0.5561  0.0625 -0.1353
  979SOD     NA14462   4.398   1.150  11.046  0.7172 -0.2245 -0.3770
  980SOD     NA14463   1.225   2.902  16.547  0.3095 -0.4264  0.4911
  981SOD     NA14464   3.578   0.758   5.072  0.3195  0.2633  0.0512
  982SOD     NA14465   3.951   2.988   9.827  0.2357  0.1181 -0.0483
  983SOD     NA14466   4.113   3.659  10.921  0.1432  0.2137  0.0641
  984SOD     NA14467   0.680   4.519   1.914  0.1719 -0.5095 -0.1203
  985SOD     NA14468   3.104   2.086   0.973  0.0965  0.3195 -0.3222
  986SOD     NA14469   0.153   3.381  13.126  0.6399 -0.2786  0.1630
  987SOD     NA14470   2.047   1.912  14.906 -0.1345  0.2923  0.3239
  988SOD     NA14471   2.408   0.726   5.348 -0.4236 -0.3991 -0.1968
  989SOD     NA14472   2.737   1.452   3.092 -0.0503  0.0924 -0.0358
  990SOD     NA14473   2.410   2.984   8.214 -0.0145  0.7291  0.5379
  991SOD     NA14474   0.742   4.306  13.805  0.6045 -0.1718  1.1302
  992SOD     NA14475   3.217   2.132   9.015 -0.0777  0.1905 -0.0795
  993SOD     NA14476   1.876   3.144  12.913 -0.1605 -0.0777 -0.3638
  994SOD     NA14477   3.989   1.578  15.052  0.8457  0.6721 -0.3642
  995SOD     NA14478   3.508   0.283  10.168  0.2359  0.0466 -0.1549
  996SOD     NA14479   0.053   4.210  14.879  0.0220  0.0004  0.2932
  997SOD     NA14480   2.337   1.283  10.992  0.0229  0.0622 -0.0035
  998SOD     NA14481   1.666   1.297  17.621  0.0859  0.8808 -0.6634
  999SOD     NA14482   0.314   1.314  14.760 -0.0163 -0.5945 -0.0685
 1000SOD     NA14483   0.345   4.645  12.584  0.0320 -0.3553 -0.3036
 1001SOD     NA14484   1.475   0.991  16.314 -0.0399 -0.4824 -0.2417
 1002SOD     NA14485   2.134   0.243  13.662  0.4118 -0.0099 -0.1402
 1003SOD     NA14486   4.389   2.504   4.236 -0.1010  0.6368 -0.3775
 1004SOD     NA14487   3.446   3.888  14.620 -0.4071 -0.3440  0.1224
 1005SOD     NA14488   0.021   1.267   8.747 -0.1371 -0.2337  0.3570
 1006SOD     NA14489   2.568   0.997  16.996  0.6535 -0.1092  0.4019
 1007SOD     NA14490   0.629   4.438  17.669 -0.3732 -0.0646  0.8346
 1008SOD     NA14491   4.317   0.287  14.608 -0.3882 -0.7288  0.1751
 1009SOD     NA14492   1.178   4.354  17.471 -0.3398  0.2617  1.0885
 1010SOD     NA14493   4.215   3.008  16.400  0.0944 -0.2445 -0.4578
 1011SOL     OW14494   1.729   0.320   9.510 -0.8165  0.5910  0.5134
 1011SOL    HW114495   1.730   0.394   9.449  1.0409  0.0340 -0.1162
 1011SOL    HW214496   1.719   0.371   9.590  0.8826  1.4418  0.1711
 1012SOL     OW14497   0.093   1.192  13.420  0.0426  0.1747  0.0662
 1012SOL    HW114498   0.025   1.224  13.360  0.6724 -0.6623 -1.1031
 1012SOL    HW214499   0.052   1.110  13.448  0.5022  0.3270  1.1609
 1013SOL     OW14500   0.826   0.320  16.267 -0.2023 -0.2490  0.0245
 1013SOL    HW114501   0.843   0.390  16.204 -0.5654  0.0312  0.2340
 1013SOL    HW214502   0.896   0.256  16.252  0.4463  0.1450  1.2940
 1014SOL     OW14503   3.072   3.064  13.277  0.1462  0.0801  0.2224
 1014SOL    HW114504   3.028   3.084  13.360  1.4856  0.1527  0.9045
 1014SOL    HW214505   3.089   2.971  13.293  1.5629  0.5839  1.5360
 1015SOL     OW14506   3.888   2.371  15.957  0.6787  0.5226  0.2403
 1015SOL    HW114507   3.856   2.429  15.887 -0.9350  0.7658  1.1704
 1015SOL    HW214508   3.981   2.369  15.935  0.3866  2.1253 -1.0843
 1016SOL     OW14509   4.662   1.496   1.881 -0.8067 -0.6859  0.0144
 1016SOL    HW114510   4.624   1.415   1.850  0.3600 -0.8775 -0.8791
 1016SOL    HW214511   4.684   1.538   1.798 -3.9757  1.5666  0.2854
 1017SOL     OW14512   1.650   4.309   5.318  0.4688 -0.3719 -0.1700
 1017SOL    HW114513   1.622   4.342   5.233 -0.4510 -0.2561  0.1831
 1017SOL    HW214514   1.730   4.359   5.333  0.6869 -1.1089  1.1220
 1018SOL     OW14515   2.866   0.302  16.423  0.5671  0.0177  0.7522
 1018SOL    HW114516   2.931   0.284  16.356  0.0057  0.8116  0.0098
 1018SOL    HW214517   2.804   0.230  16.414  0.8103 -0.2571  1.2460
 1019SOL     OW14518   0.010   3.104   8.045 -0.0311  0.1708 -1.0653
 1019SOL    HW114519   4.669   3.153   8.097  0.1842 -0.4702 -0.2131
 1019SOL    HW214520   0.092   3.136   8.082 -0.6965  1.3870 -0.6377
 1020SOL     OW14521   3.730   0.621   9.239 -0.0184 -0.0586 -0.1781
 1020SOL    HW114522   3.792   0.671   9.292  0.2895 -0.8549  0.2129
 1020SOL    HW214523   3.787   0.602   9.164 -0.8381 -4.3097  0.2747
 1021SOL     OW14524   2.566   1.273   3.881 -0.0792 -0.1693 -0.0142
 1021SOL    HW114525   2.520   1.191   3.896 -3.1336  1.5824  0.2685
 1021SOL    HW214526   2.643   1.252   3.828  1.4241  2.8115  0.9222
 1022SOL     OW14527   2.621   0.072   2.674  0.1685  0.3203 -0.0722
 1022SOL    HW114528   2.609   0.165   2.692  0.6255  0.2900  0.3767
 1022SOL    HW214529   2.604   0.035   2.760  1.2694  1.0139  0.4337
 1023SOL     OW14530   0.994   0.331   2.122 -0.4824 -0.0142 -0.2433
 1023SOL    HW114531   1.087   0.310   2.114 -0.1767  0.7638  1.3468
 1023SOL    HW214532   0.966   0.256   2.068 -0.1590  0.3726 -0.9539
 1024SOL     OW14533   3.628   1.415   0.343  0.1122  0.2211 -0.5865
 1024SOL    HW114534   3.598   1.342   0.398 -0.6101  0.8496 -0.1377
 1024SOL    HW214535   3.548   1.437   0.295  0.0581 -0.6780 -0.9115
 1025SOL     OW14536   1.357   0.071   3.204 -0.5221 -0.3032 -0.0140
 1025SOL    HW114537   1.287   0.049   3.143  0.1955 -2.0762 -0.2018
 1025SOL    HW214538   1.326   0.020   3.280  2.8450 -1.6493  0.4594
 1026SOL     OW14539   3.371   2.797   6.573  0.7198  0.3315  0.1701
 1026SOL    HW114540   3.301   2.734   6.556 -0.4072  0.4275  4.5395
 1026SOL    HW214541   3.321   2.878   6.565  1.9921  1.1964  1.0306
 1027SOL     OW14542   0.679   2.359   9.190  0.0696  0.3212  0.0468
 1027SOL    HW114543   0.594   2.329   9.158  0.0758  1.5234 -1.1155
 1027SOL    HW214544   0.738   2.300   9.143 -1.2931 -0.6729 -0.3888
 1028SOL     OW14545   4.185   1.659   4.501 -0.5492  0.1015  0.3862
 1028SOL    HW114546   4.228   1.745   4.501 -1.1306  0.3947 -0.1948
 1028SOL    HW214547   4.116   1.679   4.564 -1.8673  0.2396 -1.1122
 1029SOL     OW14548   0.305   1.030  17.390 -0.0825 -0.5795  0.0120
 1029SOL    HW114549   0.364   0.969  17.345  1.0235 -0.0722  0.7759
 1029SOL    HW214550   0.307   1.102  17.327 -2.8640 -0.9851 -0.5426
 1030SOL     OW14551   3.378   0.532   5.045  0.0126  0.0140 -0.5276
 1030SOL    HW114552   3.355   0.440   5.035 -0.1954  0.0609 -0.4712
 1030SOL    HW214553   3.378   0.544   5.140 -0.4228  0.8230 -0.6294
 1031SOL     OW14554   1.547   4.234   5.546  0.0520  0.5638  0.2553
 1031SOL    HW114555   1.471   4.177   5.533 -1.0906  1.6778  2.1504
 1031SOL    HW214556   1.564   4.267   5.458 -2.2676  1.1374  0.0153
 1032SOL     OW14557   0.069   2.280   4.315  0.3120  0.0375 -0.1972
 1032SOL    HW114558   0.134   2.256   4.382  0.1528  1.1042  0.3427
 1032SOL    HW214559   0.119   2.265   4.235  0.7488 -0.3575  0.1517
 1033SOL     OW14560   3.249   1.560  17.390  0.0358  0.5815 -0.3356
 1033SOL    HW114561   3.223   1.469  17.376  1.3728  0.1602 -0.0151
 1033SOL    HW214562   3.222   1.607  17.311  0.1662  0.4088 -0.4808
 1034SOL     OW14563   1.512   1.519   4.290  0.1379  0.1259  0.2568
 1034SOL    HW114564   1.488   1.477   4.373  3.1087 -2.0600 -0.0035
 1034SOL    HW214565   1.430   1.562   4.265 -0.0742 -0.8937 -0.8358
 1035SOL     OW14566   1.531   0.778   3.866 -0.1038 -0.1255 -0.4822
 1035SOL    HW114567   1.467   0.845   3.889  0.6725 -0.6092  3.0653
 1035SOL    HW214568   1.496   0.736   3.788 -2.1997 -0.7179  0.7733
 1036SOL     OW14569   2.082   1.757   9.208 -0.4337  0.1250  0.4093
 1036SOL    HW114570   2.101   1.816   9.281 -0.5539  1.9449 -1.0419
 1036SOL    HW214571   2.146   1.777   9.140 -0.1786 -3.2088 -0.3279
 1037SOL     OW14572   3.894   3.873   7.216  0.3876  0.1745  0.3751
 1037SOL    HW114573   3.830   3.802   7.207 -1.4487  1.5552  2.4203
 1037SOL    HW214574   3.846   3.944   7.172  3.1860  2.1599  0.5462
 1038SOL     OW14575   3.467   2.062  11.093  0.3591  0.3683 -0.1369
 1038SOL    HW114576   3.429   2.129  11.036  0.8119  0.7197 -0.0221
 1038SOL    HW214577   3.418   1.983  11.068 -0.4988  0.7951  0.2033
 1039SOL     OW14578   2.497   0.441   4.196  0.3266  0.1078  0.8931
 1039SOL    HW114579   2.569   0.386   4.227  0.5735 -1.2401 -2.0521
 1039SOL    HW214580   2.550   0.499   4.141 -1.3869 -1.8410 -2.7565
 1040SOL     OW14581   2.564   2.187   2.337 -0.9057  0.3856  0.3156
 1040SOL    HW114582   2.521   2.222   2.259  0.7534 -1.0919 -1.2715
 1040SOL    HW214583   2.621   2.119   2.302 -2.0301 -0.7330  0.6487
 1041SOL     OW14584   2.018   0.309   7.991  0.5924 -0.7190  0.1527
 1041SOL    HW114585   2.056   0.222   7.998  3.7339  0.4249 -2.2797
 1041SOL    HW214586   2.092   0.358   8.028  1.3829 -1.9520  0.2073
 1042SOL     OW14587   4.531   0.180   3.843  0.4877  0.1793 -0.9454
 1042SOL    HW114588   4.506   0.173   3.751 -0.0725  0.3885 -0.8096
 1042SOL    HW214589   4.554   0.273   3.845 -1.1100  0.4968  1.4195
 1043SOL     OW14590   3.349   3.044   2.006  0.1382  0.0825 -0.1605
 1043SOL    HW114591   3.439   3.059   2.037  0.2270  1.1129 -0.9331
 1043SOL    HW214592   3.372   3.008   1.921  1.7739 -0.0507  0.3239
 1044SOL     OW14593   2.943   1.783   2.677 -0.4130 -0.2474  0.5419
 1044SOL    HW114594   2.992   1.710   2.640 -0.9420  0.9110 -2.3778
 1044SOL    HW214595   3.016   1.842   2.699 -0.6739  0.4135 -0.3427
 1045SOL     OW14596   1.102   2.904  17.425 -0.7344 -0.0316  0.2174
 1045SOL    HW114597   1.118   2.811  17.411 -1.1747 -0.0662 -0.0756
 1045SOL    HW214598   1.041   2.924  17.354 -1.2105 -1.2106  0.2952
 1046SOL     OW14599   2.104   1.511   5.485  0.5169  0.0334 -0.5672
 1046SOL    HW114600   2.030   1.535   5.429  0.1301 -1.8761 -0.8563
 1046SOL    HW214601   2.061   1.505   5.570  1.4533  0.2219 -0.0743
 1047SOL     OW14602   3.072   1.618   4.445 -0.5208 -0.3068  0.0780
 1047SOL    HW114603   3.042   1.673   4.372  0.5883 -0.3075 -0.3711
 1047SOL    HW214604   3.094   1.688   4.506 -1.7715 -0.8361  1.1218
 1048SOL     OW14605   0.335   2.355   7.442 -0.2317 -0.2177  0.0682
 1048SOL    HW114606   0.288   2.292   7.388 -1.6984  0.9853 -0.0622
 1048SOL    HW214607   0.364   2.414   7.372 -2.6663 -1.4238 -1.9673
 1049SOL     OW14608   0.789   1.337  13.579 -0.1639 -0.4907 -0.2720
 1049SOL    HW114609   0.733   1.360  13.505  1.8693  0.7369 -1.4223
 1049SOL    HW214610   0.821   1.426  13.595 -0.8192 -0.3877  0.4599
 1050SOL     OW14611   0.282   4.543   7.610 -0.0391 -0.1820  0.0222
 1050SOL    HW114612   0.245   4.598   7.679  0.3553 -1.1478  0.9919
 1050SOL    HW214613   0.376   4.557   7.604  0.0425  0.8662  3.6318
 1051SOL     OW14614   0.633   2.886   9.822  0.0828 -0.3352 -0.7687
 1051SOL    HW114615   0.699   2.818   9.837  1.4914  1.0288 -0.6726
 1051SOL    HW214616   0.548   2.858   9.856 -0.8810  1.5719 -1.6489
 1052SOL     OW14617   2.850   4.425  10.309  0.5130 -0.0174  0.0893
 1052SOL    HW114618   2.812   4.457  10.391 -2.0683  0.9510 -1.4590
 1052SOL    HW214619   2.775   4.400  10.254 -1.7133  2.2831  2.0390
 1053SOL     OW14620   1.534   2.804   7.894 -0.4674 -0.5155  0.2397
 1053SOL    HW114621   1.564   2.858   7.820 -4.5080  0.8001 -0.4407
 1053SOL    HW214622   1.469   2.861   7.936  1.3733  1.3630  0.5470
 1054SOL     OW14623   4.256   3.365   8.889  0.2148  0.1223  0.1675
 1054SOL    HW114624   4.203   3.443   8.875 -2.1002 -1.3035  1.0448
 1054SOL    HW214625   4.347   3.387   8.867 -1.0040  4.0457 -0.8534
 1055SOL     OW14626   2.164   4.668   2.289 -0.1217  0.0645 -0.3172
 1055SOL    HW114627   2.210   4.669   2.373  1.2349  0.6204 -1.0671
 1055SOL    HW214628   2.127   0.033   2.286  1.0539  0.4454 -3.0402
 1056SOL     OW14629   1.913   2.762   8.086  0.3623  0.1167  0.1158
 1056SOL    HW114630   1.853   2.691   8.106  3.1412 -2.3174 -0.2230
 1056SOL    HW214631   1.859   2.834   8.120  1.0402  1.5904 -1.9479
 1057SOL     OW14632   3.840   0.294   7.586 -0.1926  0.6696 -0.3594
 1057SOL    HW114633   3.904   0.247   7.640  1.2238  0.1944 -2.4827
 1057SOL    HW214634   3.859   0.268   7.496  3.6548 -3.7320  1.7433
 1058SOL     OW14635   1.376   1.499   7.330 -0.1700  0.1485  0.9877
 1058SOL    HW114636   1.406   1.534   7.246  0.8255  0.3575  1.4308
 1058SOL    HW214637   1.454   1.502   7.386  1.9860  0.1597 -1.9794
 1059SOL     OW14638   2.362   0.817   1.759  0.7088  0.4336  0.2600
 1059SOL    HW114639   2.344   0.729   1.793 -2.7578  1.2244  0.4334
 1059SOL    HW214640   2.353   0.813   1.664  0.5911  1.6045  0.2256
 1060SOL     OW14641   2.391   0.481   0.627  0.4994  0.0791  0.0583
 1060SOL    HW114642   2.480   0.473   0.660  1.0621  1.7698 -1.0601
 1060SOL    HW214643   2.358   0.395   0.651 -0.6316  0.2035 -1.0272
 1061SOL     OW14644   0.639   3.417   1.733 -0.0179 -0.4371 -0.3032
 1061SOL    HW114645   0.600   3.336   1.698  2.9691 -1.5131 -1.1868
 1061SOL    HW214646   0.587   3.413   1.813 -0.9019 -1.9877 -0.9465
 1062SOL     OW14647   4.197   1.146   5.280  0.2019 -0.2021 -0.5318
 1062SOL    HW114648   4.114   1.124   5.323  0.1700 -0.3784 -0.6838
 1062SOL    HW214649   4.266   1.146   5.347 -0.5994  3.2814  0.2484
 1063SOL     OW14650   1.756   4.585  14.774 -0.7446  0.4643 -0.5184
 1063SOL    HW114651   1.734   4.503  14.729 -0.7849 -0.2223  0.7781
 1063SOL    HW214652   1.822   4.617  14.712 -0.9994 -0.4455 -1.2724
 1064SOL     OW14653   0.278   4.698   2.820 -0.8375 -0.1635 -0.5378
 1064SOL    HW114654   0.271   4.625   2.759  0.4962 -1.4154  0.8157
 1064SOL    HW214655   0.211   4.677   2.884 -0.7984 -0.1689 -0.4989
 1065SOL     OW14656   3.789   0.982  12.700 -0.3170  0.2643  0.0865
 1065SOL    HW114657   3.880   0.969  12.725 -1.2428 -1.8188  2.4331
 1065SOL    HW214658   3.773   0.917  12.631 -0.1621 -0.5483  0.8156
 1066SOL     OW14659   4.496   3.300  16.270  0.6326 -0.0571 -0.8897
 1066SOL    HW114660   4.534   3.290  16.358 -4.0689  0.7412  1.2209
 1066SOL    HW214661   4.531   3.386  16.248 -1.2408  0.8185 -0.3748
 1067SOL     OW14662   0.141   0.582   0.650 -0.2885  0.7455  0.4112
 1067SOL    HW114663   0.076   0.632   0.699 -0.5351  1.8861 -1.0780
 1067SOL    HW214664   0.102   0.560   0.565  2.1910  0.8137 -0.7429
 1068SOL     OW14665   1.222   1.000  16.870  0.2348 -0.0529  0.1212
 1068SOL    HW114666   1.303   0.950  16.876 -0.0182 -0.6049 -1.0998
 1068SOL    HW214667   1.216   1.011  16.775 -1.8363  1.1538  0.3709
 1069SOL     OW14668   3.076   1.719  10.678  0.0995 -0.6349  0.0309
 1069SOL    HW114669   3.000   1.722  10.737 -0.9226 -0.3628 -1.2872
 1069SOL    HW214670   3.087   1.814  10.674  0.8056 -0.6575  1.6557
 1070SOL     OW14671   4.070   1.863  10.244  0.2111  0.1378  0.2580
 1070SOL    HW114672   4.100   1.952  10.227 -2.1793  0.7396 -0.7994
 1070SOL    HW214673   4.156   1.822  10.239 -0.1738 -0.6352 -0.0113
 1071SOL     OW14674   3.503   1.761   5.956  0.2816  0.0979  0.0087
 1071SOL    HW114675   3.534   1.851   5.945 -1.4103  0.6078 -0.5483
 1071SOL    HW214676   3.573   1.717   6.004  2.2169  1.5341 -1.4659
 1072SOL     OW14677   1.195   3.570   9.020 -0.3899 -0.1037 -0.4657
 1072SOL    HW114678   1.124   3.511   8.993 -0.9378  0.1050  0.5337
 1072SOL    HW214679   1.173   3.578   9.112  0.2247 -1.0758 -0.2379
 1073SOL     OW14680   0.229   3.694   6.539 -0.1065  0.1598  0.2185
 1073SOL    HW114681   0.183   3.726   6.461 -0.1487  0.3872  0.3374
 1073SOL    HW214682   0.176   3.617   6.560  2.1128 -1.0608  1.2829
 1074SOL     OW14683   1.445   4.381  15.126 -0.0928  0.5454 -0.1796
 1074SOL    HW114684   1.470   4.438  15.198 -2.5029  2.6915 -1.0262
 1074SOL    HW214685   1.437   4.297  15.171  1.6715  0.1819 -0.5749
 1075SOL     OW14686   4.619   4.492   7.760 -0.2899  0.0479 -0.3224
 1075SOL    HW114687   4.603   4.452   7.675 -2.6622  1.2576 -0.4506
 1075SOL    HW214688   4.575   4.576   7.748  3.6786  1.7793 -2.8083
 1076SOL     OW14689   3.409   4.602   8.188  0.6272 -0.4927  0.1196
 1076SOL    HW114690   3.333   4.590   8.246  1.3168 -0.5059  1.0191
 1076SOL    HW214691   3.481   4.581   8.247  1.3632  0.3144 -0.4942
 1077SOL     OW14692   4.174   0.805  17.469 -0.1258  0.4423 -0.2276
 1077SOL    HW114693   4.264   0.789  17.441  0.8265  2.0376  1.9667
 1077SOL    HW214694   4.133   0.727  17.430 -0.5525  0.0881  0.9104
 1078SOL     OW14695   0.233   0.957   1.592  0.3980  0.6505  0.3120
 1078SOL    HW114696   0.155   0.904   1.609 -0.6203  1.7422 -0.9409
 1078SOL    HW214697   0.185   1.035   1.563 -0.7350  0.4142  1.5217
 1079SOL     OW14698   4.089   0.560  15.390 -0.9143 -0.0922  0.4646
 1079SOL    HW114699   4.150   0.529  15.323 -0.2144 -0.9744  1.4920
 1079SOL    HW214700   4.076   0.644  15.348  1.0288  0.6698  1.3803
 1080SOL     OW14701   0.828   2.651   3.785 -0.3171 -0.1851 -0.0042
 1080SOL    HW114702   0.918   2.630   3.758 -0.6406 -0.4136 -0.9007
 1080SOL    HW214703   0.836   2.648   3.880  1.7448  1.1954 -0.1278
 1081SOL     OW14704   4.563   1.732   3.697  0.1772 -0.0357 -0.3391
 1081SOL    HW114705   4.634   1.753   3.637  1.1086  0.7021  1.0142
 1081SOL    HW214706   4.594   1.752   3.786  1.3971  0.1063 -0.7914
 1082SOL     OW14707   2.788   3.831   3.579 -0.0304 -0.1070 -0.1573
 1082SOL    HW114708   2.835   3.894   3.633  1.0172 -0.1757 -0.9720
 1082SOL    HW214709   2.728   3.806   3.649  2.7858 -1.3453  1.8115
 1083SOL     OW14710   0.454   0.720   0.426 -0.1776 -0.5491 -0.0158
 1083SOL    HW114711   0.490   0.767   0.350  2.0687 -0.4995  1.0757
 1083SOL    HW214712   0.415   0.788   0.482  0.1299  0.8005 -1.4363
 1084SOL     OW14713   0.622   2.668   8.045  0.0545 -0.2436 -0.4981
 1084SOL    HW114714   0.543   2.703   8.003  1.2893  1.6054 -1.3024
 1084SOL    HW214715   0.584   2.582   8.062  0.7094 -0.8625 -2.1805
 1085SOL     OW14716   2.697   4.360   2.826 -0.9274  0.0727 -0.5805
 1085SOL    HW114717   2.734   4.411   2.754 -0.6384 -0.3312 -0.7187
 1085SOL    HW214718   2.763   4.292   2.841  0.6117  1.7018 -0.0440
 1086SOL     OW14719   1.441   3.009   4.118  0.5807 -0.4455 -0.1462
 1086SOL    HW114720   1.508   2.944   4.098  0.9768 -0.2564  0.5404
 1086SOL    HW214721   1.404   3.031   4.033  1.0462  0.5806 -0.0890
 1087SOL     OW14722   4.589   3.920   8.435 -0.1853 -0.2526 -0.3579
 1087SOL    HW114723   4.495   3.905   8.444  0.0528  0.4076  3.1391
 1087SOL    HW214724   4.593   4.012   8.410  0.5292 -0.5765 -1.4443
 1088SOL     OW14725   3.892   1.032  17.446 -0.1054 -0.0907  0.9129
 1088SOL    HW114726   3.971   1.028  17.393 -0.2775  0.6107  0.6102
 1088SOL    HW214727   3.833   1.084  17.392 -0.2181  0.6070  1.6989
 1089SOL     OW14728   2.796   4.524   5.007 -0.0326 -0.3652 -0.0802
 1089SOL    HW114729   2.767   4.459   4.943 -1.2416  0.8020 -0.7113
 1089SOL    HW214730   2.890   4.534   4.989 -0.2391  0.7599 -0.5573
 1090SOL     OW14731   2.198   0.231  15.011 -0.3403  0.5914  0.0338
 1090SOL    HW114732   2.270   0.284  14.977 -0.4096  1.2330  0.9118
 1090SOL    HW214733   2.238   0.145  15.002 -1.3362  0.3187 -1.8574
 1091SOL     OW14734   3.634   1.759   6.751  0.0227 -1.3460  0.1373
 1091SOL    HW114735   3.570   1.794   6.689  2.0675  0.6006 -0.8644
 1091SOL    HW214736   3.580   1.764   6.830 -1.5170  2.7159 -1.1800
 1092SOL     OW14737   0.901   0.003   2.297 -0.3346  0.0508 -0.4407
 1092SOL    HW114738   0.918   4.691   2.384  2.9816 -0.2906 -1.2102
 1092SOL    HW214739   0.977   0.061   2.284  0.3209 -1.0289 -1.4334
 1093SOL     OW14740   3.399   1.013  12.609 -0.8118 -0.4032 -0.3944
 1093SOL    HW114741   3.377   1.092  12.560 -1.8042 -1.0539 -1.0105
 1093SOL    HW214742   3.345   1.021  12.688 -1.0205 -0.4860 -0.5269
 1094SOL     OW14743   0.316   0.404  12.408 -0.3871  0.8373 -0.4501
 1094SOL    HW114744   0.348   0.396  12.497 -0.7807  0.3918 -0.3479
 1094SOL    HW214745   0.369   0.477  12.376  1.5347 -0.0291  0.7951
 1095SOL     OW14746   3.800   2.775  16.227 -0.4584 -0.7080 -0.4755
 1095SOL    HW114747   3.813   2.688  16.188  0.2492 -1.1913  0.8160
 1095SOL    HW214748   3.738   2.763  16.299 -1.2393  1.8665 -0.7273
 1096SOL     OW14749   4.398   4.088  13.993 -0.1901  0.7253  0.2716
 1096SOL    HW114750   4.354   4.172  13.978  1.1121  1.1220 -1.2991
 1096SOL    HW214751   4.380   4.069  14.085  1.0279  1.1886  0.6006
 1097SOL     OW14752   0.383   3.603   8.354  0.2058  0.6023 -0.2000
 1097SOL    HW114753   0.401   3.694   8.329  0.4196  1.1177  1.8540
 1097SOL    HW214754   0.390   3.610   8.449 -0.5020  1.2385 -0.1869
 1098SOL     OW14755   0.197   4.062   3.044 -0.1018  0.0310 -0.4568
 1098SOL    HW114756   0.147   3.984   3.021 -1.4932  0.9757 -0.6652
 1098SOL    HW214757   0.169   4.080   3.133 -0.8147  0.8067 -0.8381
 1099SOL     OW14758   1.167   1.636   4.476 -0.3846 -0.6629  0.3202
 1099SOL    HW114759   1.114   1.566   4.515 -2.7986  1.3258  0.6387
 1099SOL    HW214760   1.208   1.581   4.410  1.4055  1.1510 -0.0862
 1100SOL     OW14761   4.150   1.218   7.790 -0.2241  0.1541  0.4108
 1100SOL    HW114762   4.134   1.306   7.825  2.4368  1.4473 -1.6689
 1100SOL    HW214763   4.058   1.192   7.792  0.0723 -0.7415  2.5464
 1101SOL     OW14764   0.884   0.862   4.222  0.2932 -0.2195 -0.4198
 1101SOL    HW114765   0.927   0.856   4.307  0.4669 -3.5196 -0.7255
 1101SOL    HW214766   0.803   0.813   4.235  0.9050 -1.8280 -2.6779
 1102SOL     OW14767   2.218   1.574   9.405  0.1549  0.1566 -0.1224
 1102SOL    HW114768   2.170   1.577   9.488 -0.5405 -0.7992 -0.4924
 1102SOL    HW214769   2.172   1.623   9.336 -0.7082  1.7987  1.6094
 1103SOL     OW14770   2.837   2.903  16.124 -0.1662  0.2833  0.2867
 1103SOL    HW114771   2.835   2.974  16.060  1.1045 -1.2583 -1.5030
 1103SOL    HW214772   2.843   2.957  16.202  0.2301  1.0376 -0.2659
 1104SOL     OW14773   1.647   3.021   9.671  0.0664  0.0173  0.2378
 1104SOL    HW114774   1.640   3.062   9.757 -0.9833  1.1238 -0.3892
 1104SOL    HW214775   1.569   3.042   9.619 -0.0638  0.9959  0.8348
 1105SOL     OW14776   4.470   0.086   4.125  0.1322  0.1709  0.0978
 1105SOL    HW114777   4.376   0.070   4.122 -0.2711  2.7262 -0.9136
 1105SOL    HW214778   4.467   0.165   4.071  1.0191 -1.0662 -1.7676
 1106SOL     OW14779   2.445   1.802   0.364 -0.2360  0.4675 -0.3432
 1106SOL    HW114780   2.526   1.784   0.316  0.5137  1.5405  0.5393
 1106SOL    HW214781   2.433   1.896   0.356  0.7813  0.6430  0.2045
 1107SOL     OW14782   0.145   2.602  16.082  0.2792 -0.3970 -0.6583
 1107SOL    HW114783   0.195   2.676  16.048  2.0679 -0.3860  2.0316
 1107SOL    HW214784   0.072   2.610  16.021  0.3345 -1.7935 -0.8994
 1108SOL     OW14785   2.767   2.440   8.030  0.3632 -0.1007  0.0525
 1108SOL    HW114786   2.715   2.507   8.074  0.5957  1.1620 -1.6370
 1108SOL    HW214787   2.754   2.475   7.942  1.9632  0.6338  0.1025
 1109SOL     OW14788   0.676   2.968   4.914 -0.4000  0.4885 -0.3940
 1109SOL    HW114789   0.741   2.925   4.970 -0.2958  0.6898 -0.3567
 1109SOL    HW214790   0.665   2.900   4.848  0.3392 -2.9505  3.0280
 1110SOL     OW14791   1.026   0.289  13.083  0.1544 -0.6687  0.7673
 1110SOL    HW114792   1.034   0.379  13.114  1.3803  0.5352 -3.0214
 1110SOL    HW214793   0.961   0.258  13.146 -1.3224 -0.2523 -0.5230
 1111SOL     OW14794   0.380   3.783  15.166  0.0179  0.0171 -0.7603
 1111SOL    HW114795   0.472   3.761  15.180  0.4404  2.2575  0.0323
 1111SOL    HW214796   0.354   3.691  15.168 -1.3536  0.4170  0.1699
 1112SOL     OW14797   3.965   3.571  15.250  0.3058 -0.0049 -0.1708
 1112SOL    HW114798   3.996   3.574  15.341 -0.8033  1.3793  0.1617
 1112SOL    HW214799   4.011   3.489  15.230 -0.2961 -0.2286 -0.6164
 1113SOL     OW14800   0.718   1.162   8.499 -0.5057 -0.0985  0.0898
 1113SOL    HW114801   0.729   1.257   8.505 -1.9884  0.0904 -0.2343
 1113SOL    HW214802   0.633   1.149   8.457  0.5334 -2.0165 -1.3809
 1114SOL     OW14803   1.913   2.928   2.463 -0.7080  0.0251  0.2459
 1114SOL    HW114804   1.975   2.960   2.528  0.5552 -1.0045 -0.4462
 1114SOL    HW214805   1.921   2.994   2.394  2.1087  0.3484  0.8638
 1115SOL     OW14806   3.849   3.006   4.035  0.5832  0.8631  0.2786
 1115SOL    HW114807   3.878   2.926   3.991 -1.0877 -0.5503  1.7387
 1115SOL    HW214808   3.857   3.072   3.966 -0.8517  1.9048  1.1263
 1116SOL     OW14809   3.067   0.131   2.584  0.7057 -0.0822 -0.4501
 1116SOL    HW114810   3.041   0.055   2.634 -0.3670 -0.2045 -1.1837
 1116SOL    HW214811   3.042   0.110   2.494  3.8784 -1.1832 -1.0636
 1117SOL     OW14812   0.987   2.511   5.892 -0.1376  0.2699  0.1742
 1117SOL    HW114813   0.912   2.464   5.927  0.4735 -0.8906 -0.0635
 1117SOL    HW214814   1.032   2.446   5.838  1.3225  1.7939 -0.4443
 1118SOL     OW14815   3.517   2.893   9.165 -0.0142 -0.1473  0.0039
 1118SOL    HW114816   3.543   2.806   9.196  1.8966  0.3418 -0.2228
 1118SOL    HW214817   3.428   2.887   9.130 -0.8243  1.4876  1.7424
 1119SOL     OW14818   3.902   1.453  13.509  0.1833  0.9270  0.2003
 1119SOL    HW114819   3.939   1.429  13.424 -0.5795 -1.7187  0.6167
 1119SOL    HW214820   3.963   1.519  13.540  1.6097 -1.8668  3.3653
 1120SOL     OW14821   2.450   1.322   2.245 -0.5148 -0.1922  0.0385
 1120SOL    HW114822   2.455   1.325   2.149  2.9385 -0.4469  0.2252
 1120SOL    HW214823   2.398   1.401   2.261  0.2303  0.2903  0.0633
 1121SOL     OW14824   1.370   4.408   3.266 -0.1645  0.3461 -0.0949
 1121SOL    HW114825   1.302   4.341   3.258 -0.5557  0.7081  0.2670
 1121SOL    HW214826   1.436   4.358   3.315 -0.0928  1.8270  1.3033
 1122SOL     OW14827   4.037   4.517   9.607  0.5408  0.3876  0.5249
 1122SOL    HW114828   4.012   4.599   9.650 -0.6611 -0.2679  1.0816
 1122SOL    HW214829   3.967   4.457   9.632  0.6056 -0.1472 -0.5904
 1123SOL     OW14830   0.139   2.290  15.334  0.2071  0.3145 -0.4642
 1123SOL    HW114831   0.222   2.254  15.304 -0.6370 -1.1093 -1.1098
 1123SOL    HW214832   0.083   2.230  15.285  0.0508 -0.1629  0.2925
 1124SOL     OW14833   2.829   2.381   7.635  0.1702  0.6363 -0.9908
 1124SOL    HW114834   2.796   2.387   7.545 -0.1121 -1.6876 -1.0480
 1124SOL    HW214835   2.828   2.286   7.650  1.0478  0.5579 -1.4503
 1125SOL     OW14836   0.018   2.005  10.919  0.1540 -0.4478 -0.4652
 1125SOL    HW114837   4.652   2.025  10.948 -0.2500 -1.4305 -1.0061
 1125SOL    HW214838   0.059   1.963  10.995 -1.2819 -2.7215 -0.9304
 1126SOL     OW14839   1.480   3.344   5.229  0.4106 -0.1909  0.5421
 1126SOL    HW114840   1.550   3.385   5.178 -0.2896  0.4852  0.1206
 1126SOL    HW214841   1.519   3.280   5.288 -0.8285  0.7818  2.4062
 1127SOL     OW14842   1.554   4.038  11.424 -0.0486  0.0268  0.1480
 1127SOL    HW114843   1.637   4.066  11.387  0.2737 -0.8135  0.2493
 1127SOL    HW214844   1.534   4.097  11.497  1.9967  0.2471  0.5069
 1128SOL     OW14845   4.441   3.509   3.309  0.1909  0.0943  0.5619
 1128SOL    HW114846   4.492   3.587   3.332  1.6307  0.2195 -3.0137
 1128SOL    HW214847   4.476   3.454   3.378  0.1424  1.2257  1.4898
 1129SOL     OW14848   3.578   4.482   3.005 -0.3801  0.0305  0.0920
 1129SOL    HW114849   3.490   4.502   3.036 -0.7183 -1.8952  0.3929
 1129SOL    HW214850   3.614   4.570   3.010 -0.2366  0.0395 -1.2510
 1130SOL     OW14851   1.313   3.893  15.187  0.1860 -0.3500 -0.0320
 1130SOL    HW114852   1.230   3.856  15.218 -1.6805  1.1260 -3.2033
 1130SOL    HW214853   1.367   3.856  15.256 -1.2311 -1.0932  0.6839
 1131SOL     OW14854   1.861   1.150   3.908 -0.3490 -0.4932  0.5976
 1131SOL    HW114855   1.820   1.106   3.833  1.2255 -0.8696 -0.0373
 1131SOL    HW214856   1.823   1.237   3.898 -0.3408 -0.7148 -1.4192
 1132SOL     OW14857   1.329   0.548   8.222 -0.0608 -0.6320 -0.3326
 1132SOL    HW114858   1.353   0.635   8.256  1.5913 -0.5503 -1.7192
 1132SOL    HW214859   1.237   0.574   8.213  0.0978 -0.2102 -0.7115
 1133SOL     OW14860   4.384   2.501  16.300  0.3765 -0.7229  0.1193
 1133SOL    HW114861   4.452   2.440  16.275  0.7872 -0.4743  0.6164
 1133SOL    HW214862   4.402   2.588  16.265  4.0513 -1.7676 -0.5170
 1134SOL     OW14863   1.938   2.928  13.303  0.6102  0.4537 -0.1552
 1134SOL    HW114864   1.938   2.835  13.328  1.2338  1.1769  2.4660
 1134SOL    HW214865   1.847   2.953  13.316  0.1110 -1.4353 -0.0512
 1135SOL     OW14866   3.134   0.439   3.123 -0.2972 -0.3190  0.0629
 1135SOL    HW114867   3.197   0.368   3.119 -0.4616 -0.3798 -1.4031
 1135SOL    HW214868   3.070   0.392   3.177 -0.5101  1.4284  1.3480
 1136SOL     OW14869   3.104   2.043   6.397 -0.2098  0.3275 -0.6518
 1136SOL    HW114870   3.085   1.953   6.372 -0.5937  0.9303 -2.5641
 1136SOL    HW214871   3.050   2.100   6.341 -0.4507  0.4249 -0.3195
 1137SOL     OW14872   3.787   1.078   9.780 -0.2657  0.0385  0.4323
 1137SOL    HW114873   3.773   1.054   9.688 -2.7971  0.4214  0.7095
 1137SOL    HW214874   3.706   1.127   9.795 -1.0807 -0.6116 -1.7649
 1138SOL     OW14875   3.444   2.910   2.462  0.3798  0.0223 -0.1389
 1138SOL    HW114876   3.372   2.973   2.462  1.6880  1.5376  0.5727
 1138SOL    HW214877   3.447   2.882   2.370  0.4039 -1.1933  0.2304
 1139SOL     OW14878   3.742   1.136  12.920  0.2042  0.3076  0.5066
 1139SOL    HW114879   3.757   1.100  12.832 -1.2910 -2.1443  1.2463
 1139SOL    HW214880   3.647   1.149  12.911  0.2893 -0.0065 -0.8060
 1140SOL     OW14881   3.968   3.183   8.102 -0.4170 -0.0259 -0.5802
 1140SOL    HW114882   4.041   3.240   8.078 -0.7268  0.6163 -0.0064
 1140SOL    HW214883   3.895   3.232   8.064  0.1747 -0.3892 -2.1755
 1141SOL     OW14884   4.009   2.199  16.980 -0.1586 -0.0159  0.4179
 1141SOL    HW114885   3.958   2.279  16.990 -0.5970  0.1500 -3.5106
 1141SOL    HW214886   4.070   2.225  16.911 -0.5230  0.4037  0.2557
 1142SOL     OW14887   0.054   0.686   4.135 -0.4157 -0.6112  0.0161
 1142SOL    HW114888   0.141   0.681   4.176 -1.5353 -1.5210  2.2889
 1142SOL    HW214889   0.087   0.655   4.051 -0.7794 -2.6673  0.6374
 1143SOL     OW14890   2.766   3.266   8.338 -0.2623 -0.4640 -0.5487
 1143SOL    HW114891   2.684   3.309   8.362 -0.7466 -2.0459  0.6475
 1143SOL    HW214892   2.834   3.330   8.355  0.0759 -0.7400 -0.8653
 1144SOL     OW14893   0.373   2.505   7.734 -0.0640  0.1361 -0.2992
 1144SOL    HW114894   0.462   2.533   7.712  0.2975  0.9041  2.1116
 1144SOL    HW214895   0.334   2.591   7.744 -0.8646 -0.4121  1.2972
 1145SOL     OW14896   3.193   3.640  16.464 -0.2110  0.1626 -0.7164
 1145SOL    HW114897   3.145   3.621  16.545  1.8663  0.7661  0.6335
 1145SOL    HW214898   3.234   3.553  16.461 -0.1394  0.1151  1.9682
 1146SOL     OW14899   3.334   1.899  10.849 -0.1546  0.1197 -0.1339
 1146SOL    HW114900   3.287   1.836  10.902  0.4711  1.7325  2.3549
 1146SOL    HW214901   3.282   1.977  10.871  0.4489  0.5276 -0.1509
 1147SOL     OW14902   3.310   0.400   7.189  0.0929 -0.2440  0.1902
 1147SOL    HW114903   3.272   0.319   7.222  0.5990 -1.1880 -1.5340
 1147SOL    HW214904   3.234   0.453   7.214 -0.4842 -1.8536  1.7812
 1148SOL     OW14905   1.148   0.140   4.678  0.1800  0.4905  0.2924
 1148SOL    HW114906   1.076   0.077   4.667  0.1911  0.9164 -2.0545
 1148SOL    HW214907   1.227   0.101   4.641 -1.6156 -1.0352 -1.9293
 1149SOL     OW14908   0.185   3.267   2.070  0.1351 -0.2659  0.4853
 1149SOL    HW114909   0.139   3.330   2.125  1.7523  0.8385  0.5875
 1149SOL    HW214910   0.242   3.335   2.032  0.1206  0.0038  0.9506
 1150SOL     OW14911   3.311   2.520   3.883 -0.0229  0.0608 -0.0885
 1150SOL    HW114912   3.350   2.592   3.833 -1.3372  0.9020  0.0973
 1150SOL    HW214913   3.387   2.462   3.878 -0.4502 -0.4270 -1.0963
 1151SOL     OW14914   2.766   2.636  16.234 -0.5727  0.1230  0.2909
 1151SOL    HW114915   2.767   2.719  16.186  0.0099  0.0585  0.2010
 1151SOL    HW214916   2.694   2.591  16.189 -0.9742 -0.5702  1.5999
 1152SOL     OW14917   2.184   2.136   5.393 -0.0117 -0.0122 -0.1519
 1152SOL    HW114918   2.208   2.160   5.482 -0.2434 -1.3682  0.2782
 1152SOL    HW214919   2.246   2.072   5.358 -0.0300 -0.5765  0.8681
 1153SOL     OW14920   4.395   1.378  14.229  0.2042  0.5166  0.0713
 1153SOL    HW114921   4.445   1.296  14.234 -1.3693 -0.6568 -3.0630
 1153SOL    HW214922   4.395   1.397  14.135 -0.0571 -1.1821 -0.2889
 1154SOL     OW14923   1.550   4.357   4.792  0.1254 -0.2169  0.1739
 1154SOL    HW114924   1.626   4.363   4.734  0.0922 -3.0723 -0.1463
 1154SOL    HW214925   1.490   4.305   4.739 -0.5736  0.7207  0.0449
 1155SOL     OW14926   0.436   2.684   7.164  0.8302 -0.6549  0.2962
 1155SOL    HW114927   0.457   2.591   7.175  1.5499 -0.5521 -0.1978
 1155SOL    HW214928   0.474   2.717   7.246 -0.1625 -1.8519  1.2357
 1156SOL     OW14929   4.280   2.291   3.555 -0.7337 -0.4509  0.4266
 1156SOL    HW114930   4.286   2.387   3.558 -0.7876 -0.4281 -0.3595
 1156SOL    HW214931   4.191   2.283   3.521 -0.7651  0.9667  0.1587
 1157SOL     OW14932   3.576   2.748   3.921  0.7920 -0.0911  0.0475
 1157SOL    HW114933   3.603   2.834   3.890 -1.1312  1.2879  2.2298
 1157SOL    HW214934   3.570   2.706   3.835  0.2085  0.3447 -0.1237
 1158SOL     OW14935   3.266   3.651   7.680 -0.1797  0.0215  0.1296
 1158SOL    HW114936   3.205   3.625   7.611 -0.0143  0.3398 -0.1345
 1158SOL    HW214937   3.264   3.747   7.678 -0.7571  0.0056 -0.1648
 1159SOL     OW14938   4.511   2.989   6.765 -0.1933  0.1829 -0.0252
 1159SOL    HW114939   4.524   3.010   6.673 -2.6687 -0.7321 -0.5665
 1159SOL    HW214940   4.599   2.954   6.779 -0.9155 -1.4441  0.4439
 1160SOL     OW14941   0.548   1.371   7.844 -0.7097  0.2133  0.5305
 1160SOL    HW114942   0.608   1.415   7.783 -1.2119 -2.8506 -2.1841
 1160SOL    HW214943   0.469   1.414   7.814 -0.1813  1.9101  1.5747
 1161SOL     OW14944   2.503   0.481   1.964 -0.0271  0.3528 -0.4026
 1161SOL    HW114945   2.543   0.546   2.022 -0.0913 -0.9334  1.0813
 1161SOL    HW214946   2.531   0.399   2.004  0.9858  1.2274  0.6443
 1162SOL     OW14947   3.002   2.484   0.347 -0.2865  0.4202 -0.1215
 1162SOL    HW114948   3.078   2.431   0.322  0.6188  1.2052  0.9820
 1162SOL    HW214949   3.033   2.528   0.426 -2.0726  0.3416  0.6338
 1163SOL     OW14950   3.303   4.165   6.041  0.6894  0.2268  0.5035
 1163SOL    HW114951   3.395   4.140   6.032  0.6285 -0.1906  1.0474
 1163SOL    HW214952   3.271   4.152   5.952  2.3664  1.1053 -0.2314
 1164SOL     OW14953   3.993   3.537   3.598  0.3429  0.2446 -0.0690
 1164SOL    HW114954   3.929   3.471   3.572  0.7979 -0.3986  0.4410
 1164SOL    HW214955   4.070   3.531   3.541  0.0828  1.8775 -0.6093
 1165SOL     OW14956   1.276   4.075   4.386  0.1732  0.5064 -0.0371
 1165SOL    HW114957   1.183   4.074   4.409  0.2881  1.7742  0.4853
 1165SOL    HW214958   1.305   3.985   4.403  1.7696  0.9744 -0.2283
 1166SOL     OW14959   3.064   1.733   8.535 -0.3725  0.4175  0.2232
 1166SOL    HW114960   3.019   1.755   8.453  0.8214  0.7930 -0.3375
 1166SOL    HW214961   3.140   1.680   8.511 -0.7519 -0.2440  0.4663
 1167SOL     OW14962   1.415   0.436   9.304  0.2859  0.2113 -1.1622
 1167SOL    HW114963   1.331   0.413   9.262 -0.1345  0.6743 -0.5702
 1167SOL    HW214964   1.392   0.526   9.326 -2.4120 -0.7381 -0.0814
 1168SOL     OW14965   1.291   0.117  10.830 -0.1140 -0.5913 -0.2145
 1168SOL    HW114966   1.290   0.022  10.839 -0.6529 -0.3566  2.2571
 1168SOL    HW214967   1.306   0.136  10.923  0.0647  0.2581 -0.4181
 1169SOL     OW14968   1.322   4.695   8.103  0.0148  0.8040  0.7279
 1169SOL    HW114969   1.405   0.011   8.077  0.8920 -0.4079  1.7076
 1169SOL    HW214970   1.254   0.030   8.067 -0.1298 -0.5181 -1.0587
 1170SOL     OW14971   0.089   0.471   7.373  0.0935 -0.0542  0.5789
 1170SOL    HW114972   0.101   0.524   7.452 -1.0050  1.1185 -0.0271
 1170SOL    HW214973   0.173   0.432   7.351  0.1549 -0.5540  1.6881
 1171SOL     OW14974   0.207   0.944   4.124 -0.2414 -0.3242  0.0081
 1171SOL    HW114975   0.157   1.019   4.156 -0.7629 -0.7518  0.1971
 1171SOL    HW214976   0.158   0.916   4.047 -1.5178 -2.0925  1.4414
 1172SOL     OW14977   2.307   3.524   5.946 -0.1739  0.0640  0.2054
 1172SOL    HW114978   2.221   3.520   5.987 -0.1920 -0.9574  0.0905
 1172SOL    HW214979   2.365   3.537   6.021  1.7112  0.4701 -1.2964
 1173SOL     OW14980   1.519   3.015  12.656 -0.4036 -0.4076  0.1329
 1173SOL    HW114981   1.428   3.044  12.662 -0.3212 -0.1476  0.0942
 1173SOL    HW214982   1.542   2.977  12.741  0.6964 -0.5927 -0.2398
 1174SOL     OW14983   1.964   2.341   9.805  0.5357  0.0666 -0.4416
 1174SOL    HW114984   2.007   2.403   9.864  1.8767  0.2151 -1.5676
 1174SOL    HW214985   2.005   2.359   9.720  1.0718 -0.6825 -0.3416
 1175SOL     OW14986   1.987   3.909   2.952 -0.1565  0.1469 -0.1624
 1175SOL    HW114987   1.995   3.999   2.922 -3.1644  0.5874  0.3885
 1175SOL    HW214988   1.948   3.868   2.875 -2.1724  0.5568  0.6408
 1176SOL     OW14989   2.525   2.309   2.091 -0.0894  0.0130  0.0992
 1176SOL    HW114990   2.593   2.316   2.023 -1.3181  0.2560 -1.1138
 1176SOL    HW214991   2.491   2.398   2.081 -0.4516 -0.6194 -4.3860
 1177SOL     OW14992   1.313   4.341   8.956 -0.2452 -0.0400 -0.1134
 1177SOL    HW114993   1.333   4.433   8.970  0.6675 -0.1616 -0.6544
 1177SOL    HW214994   1.352   4.326   8.870  1.2400 -0.3101  0.6165
 1178SOL     OW14995   3.633   1.001   9.551 -0.6235 -0.3070  0.1181
 1178SOL    HW114996   3.546   1.016   9.587 -0.4448 -0.0892  0.4607
 1178SOL    HW214997   3.640   1.072   9.488 -1.5916  0.7519  1.2263
 1179SOL     OW14998   0.261   4.468   0.774 -0.0438 -0.0313 -0.0631
 1179SOL    HW114999   0.227   4.500   0.691  0.8112 -0.2537 -0.5020
 1179SOL    HW215000   0.326   4.402   0.748  1.4354  1.5447 -0.3585
 1180SOL     OW15001   2.203   1.080   4.368  0.2098 -0.5351 -0.0219
 1180SOL    HW115002   2.183   0.988   4.347  1.7569 -1.1828  1.2965
 1180SOL    HW215003   2.189   1.079   4.462 -0.7111 -3.1647 -0.1755
 1181SOL     OW15004   3.878   1.653  10.256 -0.2401  0.0039  0.1496
 1181SOL    HW115005   3.918   1.654  10.343 -1.9667 -1.3718  0.9486
 1181SOL    HW215006   3.931   1.727  10.224 -0.8865  0.2947 -0.2557
 1182SOL     OW15007   3.435   0.196   8.225  0.3567 -0.2069 -0.0233
 1182SOL    HW115008   3.473   0.108   8.231 -1.2449 -0.8148  1.2107
 1182SOL    HW215009   3.513   0.242   8.194 -0.8619  1.7438 -0.1498
 1183SOL     OW15010   2.741   3.530   0.114  0.7513  0.7500  0.0334
 1183SOL    HW115011   2.672   3.465   0.095 -0.9567  1.9917  1.9822
 1183SOL    HW215012   2.713   3.559   0.201  0.3744  0.4248  0.0239
 1184SOL     OW15013   4.581   2.336  15.414 -0.4049 -0.1054 -0.1282
 1184SOL    HW115014   4.600   2.243  15.400  1.8950  0.1969  1.0335
 1184SOL    HW215015   4.649   2.380  15.364 -2.6320  1.3127 -1.9065
 1185SOL     OW15016   4.150   1.128   4.805  0.6618  0.4265 -0.1174
 1185SOL    HW115017   4.067   1.085   4.788  0.3697 -0.1474  2.7555
 1185SOL    HW215018   4.130   1.184   4.880 -2.1482 -2.6942  1.4858
 1186SOL     OW15019   0.252   4.159   0.539  0.1452 -0.2578  0.1350
 1186SOL    HW115020   0.166   4.128   0.512 -1.0197  1.6509  1.6408
 1186SOL    HW215021   0.246   4.173   0.633  1.3356  1.5698 -0.0625
 1187SOL     OW15022   1.241   1.009   0.897 -0.0291  0.0577  0.0679
 1187SOL    HW115023   1.281   0.934   0.852 -1.2318  0.5620 -1.8529
 1187SOL    HW215024   1.223   0.983   0.987 -0.5922 -0.6037 -0.2327
 1188SOL     OW15025   0.558   4.445   2.789 -1.0739 -0.6307  0.4934
 1188SOL    HW115026   0.485   4.408   2.839 -1.6975  2.0609  1.6068
 1188SOL    HW215027   0.594   4.507   2.853  0.9883  1.2547 -2.4799
 1189SOL     OW15028   2.891   1.205   5.073 -0.1065 -0.3108 -0.4853
 1189SOL    HW115029   2.842   1.128   5.103 -1.1785  0.5286 -0.1042
 1189SOL    HW215030   2.970   1.161   5.042  0.8914  0.7536  0.5455
 1190SOL     OW15031   3.211   3.496   2.984 -0.5768  0.0394 -0.5019
 1190SOL    HW115032   3.287   3.441   2.999 -1.1833 -1.2400 -2.1038
 1190SOL    HW215033   3.255   3.570   3.027 -2.5822  1.5559 -1.0474
 1191SOL     OW15034   0.050   0.107   3.994 -0.0955 -0.0098  0.4403
 1191SOL    HW115035   4.691   0.109   3.945  1.2464 -0.6496 -1.8266
 1191SOL    HW215036   0.055   0.026   4.045 -2.8472  0.2437  1.0993
 1192SOL     OW15037   2.309   1.318   2.993  0.5371  0.6411  0.7205
 1192SOL    HW115038   2.349   1.332   2.907 -0.0425 -1.3706  0.1333
 1192SOL    HW215039   2.218   1.301   2.969  0.6477 -0.3475  1.0124
 1193SOL     OW15040   3.785   0.913  10.741 -0.8992 -0.3645  0.0325
 1193SOL    HW115041   3.730   0.836  10.726  1.1761 -1.6569 -1.1728
 1193SOL    HW215042   3.819   0.935  10.654  0.1761  1.0517  0.8197
 1194SOL     OW15043   0.785   3.385  17.005 -0.1029  0.3687  0.0042
 1194SOL    HW115044   0.800   3.299  17.043 -0.5241 -1.3008 -3.5707
 1194SOL    HW215045   0.793   3.358  16.913  1.2490  1.0710 -0.0801
 1195SOL     OW15046   0.309   4.008   9.023  0.1494 -0.2998  0.0469
 1195SOL    HW115047   0.331   3.953   9.099  2.1318 -1.6908 -1.5287
 1195SOL    HW215048   0.252   4.073   9.065  0.5225 -0.3514  0.6351
 1196SOL     OW15049   1.974   3.513   6.963  0.3011 -0.3044  0.2696
 1196SOL    HW115050   1.903   3.525   7.026  0.6175  1.9759  0.2006
 1196SOL    HW215051   1.998   3.604   6.948  1.6823 -0.4905  1.3196
 1197SOL     OW15052   0.290   2.570   6.226 -0.2059  0.8788 -0.4171
 1197SOL    HW115053   0.245   2.489   6.203 -0.0118  0.8543 -0.7081
 1197SOL    HW215054   0.274   2.629   6.152  2.1838  1.0840 -0.7936
 1198SOL     OW15055   2.281   2.241   5.992 -0.1930 -0.7112  0.5603
 1198SOL    HW115056   2.205   2.210   5.941 -1.4166  1.3136  1.1397
 1198SOL    HW215057   2.280   2.337   5.991 -1.4323 -0.7172  1.2049
 1199SOL     OW15058   3.776   2.164   1.634 -0.2089  0.2527  0.1041
 1199SOL    HW115059   3.735   2.247   1.608 -0.3842 -0.0762 -0.6594
 1199SOL    HW215060   3.701   2.122   1.675  1.4628 -1.2901  1.5555
 1200SOL     OW15061   3.573   0.248   3.562  0.2026 -0.0416 -0.7602
 1200SOL    HW115062   3.529   0.267   3.479  0.4429 -0.8447 -1.0703
 1200SOL    HW215063   3.665   0.230   3.544  0.1115  0.2292 -1.4856
 1201SOL     OW15064   3.974   3.603  10.732  0.3562  0.7096 -0.2023
 1201SOL    HW115065   4.001   3.533  10.673  2.0337  0.0842  1.3055
 1201SOL    HW215066   3.912   3.558  10.789  1.0630 -1.8618 -1.4441
 1202SOL     OW15067   4.686   0.488   6.240 -0.4928 -0.4501 -0.7358
 1202SOL    HW115068   4.711   0.565   6.189 -0.6503  0.3876  0.4308
 1202SOL    HW215069   4.670   0.419   6.176 -1.5739 -1.7846  0.9558
 1203SOL     OW15070   2.518   4.215   3.371 -0.2632  0.0062  0.4748
 1203SOL    HW115071   2.549   4.132   3.407  1.3549  0.2287 -0.3739
 1203SOL    HW215072   2.460   4.248   3.440 -1.8417  1.3350 -1.4804
 1204SOL     OW15073   0.159   0.311  11.234 -0.1626 -0.2650 -0.1142
 1204SOL    HW115074   0.254   0.314  11.246 -0.2317 -0.5477  0.5006
 1204SOL    HW215075   0.162   0.295  11.140  2.7705  0.6262 -0.1698
 1205SOL     OW15076   0.109   1.242  16.706 -0.3446 -0.9710  0.4139
 1205SOL    HW115077   0.032   1.286  16.741  0.1025  0.2549 -0.1666
 1205SOL    HW215078   0.055   1.172  16.668  1.9013 -2.4690 -0.0512
 1206SOL     OW15079   4.016   0.139  15.591  0.0046 -0.1159 -0.2337
 1206SOL    HW115080   4.093   0.147  15.647  0.5687 -0.0490 -1.0127
 1206SOL    HW215081   3.946   0.174  15.646 -0.0220 -0.5229 -0.0078
 1207SOL     OW15082   3.811   4.019   2.348  0.3881 -0.3143  0.2311
 1207SOL    HW115083   3.904   3.997   2.360  0.7016  0.7310 -0.2518
 1207SOL    HW215084   3.774   3.932   2.336  0.3935 -0.1462 -0.9182
 1208SOL     OW15085   3.978   2.744   2.887 -0.5260  0.0275  0.2438
 1208SOL    HW115086   4.033   2.813   2.851  0.9258 -0.7103  1.0764
 1208SOL    HW215087   3.967   2.691   2.808  1.0778 -0.7060  0.5155
 1209SOL     OW15088   0.957   4.000   8.051 -0.4459  0.3618  0.0460
 1209SOL    HW115089   0.911   3.958   8.123 -0.7179  2.1702  0.9143
 1209SOL    HW215090   1.038   4.029   8.093 -0.1222 -0.0605 -0.2786
 1210SOL     OW15091   3.812   0.076  14.739  0.4057  0.2431  0.1722
 1210SOL    HW115092   3.850   0.067  14.826  0.0430  0.6951  0.3778
 1210SOL    HW215093   3.785   0.168  14.738 -1.6073 -0.3620 -0.4584
 1211SOL     OW15094   4.250   4.097   5.071 -0.3139  0.0883 -0.0034
 1211SOL    HW115095   4.226   4.187   5.050  0.4374  0.6238  1.4177
 1211SOL    HW215096   4.321   4.082   5.009 -1.2650 -0.6927 -0.8899
 1212SOL     OW15097   2.602   0.345   2.644  0.3498 -0.1835 -0.3683
 1212SOL    HW115098   2.581   0.424   2.596 -1.5885 -0.4425  0.0346
 1212SOL    HW215099   2.691   0.358   2.676  0.1630  0.0074  0.0847
 1213SOL     OW15100   4.471   3.513   2.018  0.4753 -0.1550 -0.0627
 1213SOL    HW115101   4.527   3.453   1.969  1.0858 -0.0842  0.5545
 1213SOL    HW215102   4.463   3.468   2.102  0.0503  1.5529  0.8055
 1214SOL     OW15103   1.705   3.123   3.638  0.0532  0.4994  0.5306
 1214SOL    HW115104   1.616   3.135   3.606 -0.4825  1.5432  2.4343
 1214SOL    HW215105   1.704   3.031   3.665 -1.5041  0.3163 -0.1388
 1215SOL     OW15106   3.091   0.208  16.216  0.1256  0.4807  0.5136
 1215SOL    HW115107   3.089   0.259  16.135  0.2190  0.1075  0.2802
 1215SOL    HW215108   3.137   0.272  16.270  0.2637  0.1925  0.7407
 1216SOL     OW15109   2.277   2.990  11.814 -0.1945  0.1890  0.8077
 1216SOL    HW115110   2.317   3.032  11.738  0.0711 -1.3151  0.1155
 1216SOL    HW215111   2.314   3.024  11.895  0.7974  2.2188 -0.5035
 1217SOL     OW15112   0.075   3.966  14.536  0.0857 -0.1368  0.3655
 1217SOL    HW115113   0.022   3.989  14.460  0.8401  0.0098 -0.1090
 1217SOL    HW215114   0.026   3.896  14.580 -0.1354 -0.8114 -0.9437
 1218SOL     OW15115   2.640   4.286   6.071  0.0323  0.7582  0.1157
 1218SOL    HW115116   2.626   4.372   6.030 -1.7595  1.6225  2.5748
 1218SOL    HW215117   2.603   4.295   6.159 -2.3134  0.6579 -0.8628
 1219SOL     OW15118   0.753   4.486   3.619 -0.7282 -0.6735  0.5465
 1219SOL    HW115119   0.841   4.518   3.640 -0.4908 -1.1145  0.2310
 1219SOL    HW215120   0.713   4.553   3.563  1.5824  2.0495  2.1647
 1220SOL     OW15121   1.000   2.072   4.441  0.3930  0.1596 -0.1789
 1220SOL    HW115122   1.000   2.163   4.411 -1.1306  0.0121 -0.6289
 1220SOL    HW215123   1.084   2.069   4.488  0.4409 -1.6076 -0.3849
 1221SOL     OW15124   2.738   1.398   5.738  0.1431 -0.0407  0.0957
 1221SOL    HW115125   2.735   1.463   5.808 -0.4125 -1.1124  1.0665
 1221SOL    HW215126   2.654   1.411   5.695  0.1988  0.4846  0.1426
 1222SOL     OW15127   2.544   2.928  13.376  0.0866 -0.1627  0.1308
 1222SOL    HW115128   2.624   2.932  13.324  0.4503  1.5422  0.8198
 1222SOL    HW215129   2.580   2.965  13.456 -0.8083  0.0620  0.4298
 1223SOL     OW15130   3.349   1.109   4.867  0.1339 -0.1957  0.1135
 1223SOL    HW115131   3.337   1.189   4.817  0.6591  1.2031  2.2060
 1223SOL    HW215132   3.442   1.108   4.887  0.1215  1.1983  0.2837
 1224SOL     OW15133   2.682   1.468   7.978  0.3546  0.2533 -0.5470
 1224SOL    HW115134   2.599   1.503   8.009  1.1326  0.4332  1.3211
 1224SOL    HW215135   2.670   1.379   8.009  1.5368  0.1881 -0.2683
 1225SOL     OW15136   2.168   1.491   7.487  0.4663  0.0309  0.3278
 1225SOL    HW115137   2.086   1.474   7.442  0.4017  0.6349  0.2145
 1225SOL    HW215138   2.230   1.458   7.422  1.5801  1.0975  0.8334
 1226SOL     OW15139   2.240   0.734   4.859  0.0498  0.2364 -0.6392
 1226SOL    HW115140   2.177   0.806   4.869  1.1137  1.1648 -0.6172
 1226SOL    HW215141   2.186   0.668   4.816  0.4485 -0.3961 -0.1697
 1227SOL     OW15142   2.282   0.294   1.626  0.4571  0.2150  0.0765
 1227SOL    HW115143   2.231   0.214   1.635  0.9692  0.1904  2.8072
 1227SOL    HW215144   2.344   0.274   1.556 -0.4191 -1.3283 -0.2512
 1228SOL     OW15145   1.947   1.413   5.704 -0.4950 -0.0244 -0.2789
 1228SOL    HW115146   1.962   1.341   5.766 -0.9630 -1.9536 -2.4174
 1228SOL    HW215147   1.908   1.480   5.760  0.4348  0.1525  0.1543
 1229SOL     OW15148   4.320   1.546   3.904 -0.5375 -0.2941  0.0916
 1229SOL    HW115149   4.356   1.584   3.825 -2.0085 -2.2180 -1.5049
 1229SOL    HW215150   4.243   1.602   3.912  0.1878  0.4602  1.9899
 1230SOL     OW15151   0.002   3.237   3.268 -0.4862 -0.2482  0.1808
 1230SOL    HW115152   4.630   3.244   3.283 -0.4586 -0.2007  0.3302
 1230SOL    HW215153   0.024   3.172   3.334 -1.2248 -1.8220 -1.1236
 1231SOL     OW15154   1.237   3.489   4.124 -0.3178  0.7702  0.4355
 1231SOL    HW115155   1.332   3.476   4.129 -0.7078 -2.9600 -1.7779
 1231SOL    HW215156   1.206   3.413   4.173  1.3607  0.1223  0.4937
 1232SOL     OW15157   2.611   3.959   6.046 -0.6384 -0.0524 -0.5296
 1232SOL    HW115158   2.654   3.929   5.966  0.1032 -1.3598  0.3769
 1232SOL    HW215159   2.687   4.002   6.084 -0.6700 -0.5831  0.1388
 1233SOL     OW15160   3.122   1.379   3.200 -0.0193  0.0432 -0.1456
 1233SOL    HW115161   3.066   1.321   3.149 -2.1744 -0.1509  2.4352
 1233SOL    HW215162   3.075   1.459   3.176 -0.7267 -0.3548 -0.0762
 1234SOL     OW15163   2.332   4.608   4.167  0.3221 -0.4124 -0.1117
 1234SOL    HW115164   2.403   4.565   4.120 -0.1104 -1.0566 -0.1792
 1234SOL    HW215165   2.363   4.611   4.258 -0.5748  0.1430  0.1773
 1235SOL     OW15166   1.244   3.370   0.807  0.1263  0.1539 -0.0923
 1235SOL    HW115167   1.204   3.395   0.891 -1.9751 -0.5142 -0.8986
 1235SOL    HW215168   1.215   3.448   0.760  1.7050  0.9787  0.2982
 1236SOL     OW15169   0.343   0.337   9.343 -0.0842 -0.6325 -0.0844
 1236SOL    HW115170   0.363   0.251   9.381  0.3993  0.7225  2.7155
 1236SOL    HW215171   0.309   0.311   9.257  1.2609 -2.3794 -0.1005
 1237SOL     OW15172   2.424   3.512  14.055  0.5042 -0.2472  0.4341
 1237SOL    HW115173   2.378   3.577  14.002  1.3987  0.3272  0.3550
 1237SOL    HW215174   2.514   3.543  14.042  0.5701 -0.4860  0.3356
 1238SOL     OW15175   0.535   3.749   4.414  0.0750 -0.3870 -0.1679
 1238SOL    HW115176   0.549   3.659   4.442 -0.2262 -0.7292 -1.0979
 1238SOL    HW215177   0.609   3.764   4.355  0.1179 -1.1322 -0.2958
 1239SOL     OW15178   2.740   0.029   3.545 -0.2416 -0.0828 -0.4243
 1239SOL    HW115179   2.700   0.053   3.461 -0.3244  0.0785 -0.3375
 1239SOL    HW215180   2.750   4.657   3.530  0.5667  0.0014 -0.4195
 1240SOL     OW15181   1.388   3.183   2.947 -0.1052  0.3824 -0.3526
 1240SOL    HW115182   1.301   3.166   2.912 -0.3106 -1.1378  0.8909
 1240SOL    HW215183   1.435   3.134   2.880 -1.4653  0.4021 -1.3113
 1241SOL     OW15184   3.361   4.657   5.356  0.2726 -0.2363 -0.3267
 1241SOL    HW115185   3.376   4.578   5.304 -3.9554 -0.3519 -1.3897
 1241SOL    HW215186   3.409   4.717   5.298 -1.4731  0.8119 -0.6737
 1242SOL     OW15187   4.089   4.060   5.598  0.5002  0.3243 -0.5364
 1242SOL    HW115188   4.069   4.124   5.666 -0.6211  0.7253 -1.2338
 1242SOL    HW215189   4.029   4.088   5.528 -1.4629  0.8006  1.3142
 1243SOL     OW15190   0.196   3.519   1.302 -0.0981 -0.4420 -0.3438
 1243SOL    HW115191   0.270   3.516   1.242  1.6451  0.7611  1.7319
 1243SOL    HW215192   0.219   3.448   1.361  0.2921  1.6196  1.9541
 1244SOL     OW15193   1.435   1.149   1.539 -0.1650 -0.3568 -0.0529
 1244SOL    HW115194   1.345   1.176   1.560 -0.3940 -0.8026 -0.4508
 1244SOL    HW215195   1.426   1.055   1.520 -1.4563  0.0003 -1.1941
 1245SOL     OW15196   4.408   1.528   4.474  0.0280  0.5533  0.3776
 1245SOL    HW115197   4.324   1.524   4.520 -0.4392  0.6504 -0.4708
 1245SOL    HW215198   4.374   1.592   4.412 -0.2034 -0.8183 -0.9126
 1246SOL     OW15199   2.997   1.251   9.024  0.0774 -0.3524  0.3091
 1246SOL    HW115200   3.023   1.335   9.062  2.2951 -0.7603 -0.3163
 1246SOL    HW215201   2.930   1.229   9.090 -0.3657  0.2130  0.0489
 1247SOL     OW15202   0.783   3.032   9.448  0.0126 -0.1136  0.4069
 1247SOL    HW115203   0.765   3.042   9.354  0.8441 -0.2796  0.2323
 1247SOL    HW215204   0.700   3.009   9.490 -1.4862  0.7551 -2.0639
 1248SOL     OW15205   0.655   1.108   6.727  0.2511  0.5253 -0.1043
 1248SOL    HW115206   0.749   1.096   6.739  0.2088  0.6891  0.4053
 1248SOL    HW215207   0.641   1.042   6.795  0.4914  0.0299 -0.5391
 1249SOL     OW15208   0.679   1.229   3.825 -0.1400 -0.0366  0.5088
 1249SOL    HW115209   0.673   1.139   3.793 -0.8282  0.4519 -0.6971
 1249SOL    HW215210   0.636   1.277   3.755  0.1134 -0.3486  0.1386
 1250SOL     OW15211   3.400   1.285   2.974 -0.1922  0.5116  0.3472
 1250SOL    HW115212   3.308   1.283   3.001  0.0787 -0.0976  1.2376
 1250SOL    HW215213   3.441   1.204   3.003 -2.4811 -0.2986  1.3310
 1251SOL     OW15214   0.104   3.814   6.310 -0.4544 -0.3198 -0.1415
 1251SOL    HW115215   0.100   3.878   6.239 -0.5672  0.9922  1.0471
 1251SOL    HW215216   0.123   3.733   6.264  0.4013  1.5574 -3.0836
 1252SOL     OW15217   0.942   4.262  15.286 -0.5695 -0.0951  0.2548
 1252SOL    HW115218   1.015   4.254  15.224  0.9343 -2.4092  2.3405
 1252SOL    HW215219   0.877   4.301  15.228  1.4989  0.5570 -1.6100
 1253SOL     OW15220   2.477   1.504   3.780  0.4948 -0.4529 -0.0264
 1253SOL    HW115221   2.557   1.543   3.814  1.0215 -0.0033 -1.7585
 1253SOL    HW215222   2.482   1.421   3.827  0.9060  0.6603  1.8633
 1254SOL     OW15223   1.701   2.479  17.665  0.3696  0.0140  0.0116
 1254SOL    HW115224   1.718   2.442   0.058 -0.6123 -0.5746 -0.0477
 1254SOL    HW215225   1.693   2.572  17.686  1.1241  0.6367 -2.4516
 1255SOL     OW15226   1.966   1.344   7.707  0.3181  0.1008  0.0287
 1255SOL    HW115227   1.917   1.338   7.625  0.7725 -0.1960 -0.2206
 1255SOL    HW215228   1.955   1.434   7.739  0.2907  0.4948 -1.0777
 1256SOL     OW15229   1.843   3.500  16.527 -0.0045  0.2648 -0.3079
 1256SOL    HW115230   1.870   3.426  16.473  0.9981  1.2585 -1.1637
 1256SOL    HW215231   1.907   3.508  16.597 -0.2021  0.7392 -0.1809
 1257SOL     OW15232   3.692   0.663   4.897  0.0476 -0.1250 -0.6715
 1257SOL    HW115233   3.782   0.634   4.882  0.5551  1.2736 -0.2761
 1257SOL    HW215234   3.638   0.594   4.857 -0.0112 -0.1569 -0.5398
 1258SOL     OW15235   3.185   3.983  15.499  0.4226  0.0833  0.2200
 1258SOL    HW115236   3.159   3.954  15.412  1.3164 -0.5578  0.1688
 1258SOL    HW215237   3.233   4.064  15.481 -1.0902  1.3295  1.8239
 1259SOL     OW15238   4.555   1.517   2.379  0.2897 -0.0736  0.0070
 1259SOL    HW115239   4.603   1.482   2.453 -0.1695  0.4143  0.5380
 1259SOL    HW215240   4.556   1.449   2.311 -0.7875  0.1859 -0.2720
 1260SOL     OW15241   4.285   3.928   3.594  0.5203 -0.5172  0.4148
 1260SOL    HW115242   4.327   3.958   3.514 -2.1613 -0.8007 -1.1085
 1260SOL    HW215243   4.291   4.004   3.652  1.2260 -1.1723  1.1955
 1261SOL     OW15244   1.424   2.463   4.170  0.0348  0.5182  0.2768
 1261SOL    HW115245   1.340   2.499   4.141 -0.2066 -0.5223 -0.3191
 1261SOL    HW215246   1.435   2.509   4.253 -0.0393  0.4709  0.3120
 1262SOL     OW15247   0.346   3.152   6.136 -0.1251  0.1298 -0.1790
 1262SOL    HW115248   0.420   3.205   6.108  0.0221 -0.0243 -0.0842
 1262SOL    HW215249   0.364   3.071   6.088 -2.3174 -1.1407  1.0971
 1263SOL     OW15250   2.890   2.576  16.795 -0.1001  0.5977  1.0269
 1263SOL    HW115251   2.953   2.618  16.737 -0.6798  0.5906  0.4050
 1263SOL    HW215252   2.808   2.625  16.791  0.1610  1.1604  2.7098
 1264SOL     OW15253   4.014   1.891  16.607 -0.0089 -0.5090  0.2370
 1264SOL    HW115254   4.073   1.822  16.576  0.3440 -0.6138  1.1194
 1264SOL    HW215255   3.959   1.900  16.530  0.4543 -0.2483 -0.0645
 1265SOL     OW15256   1.491   3.323   2.538  0.0779 -0.3436 -0.0408
 1265SOL    HW115257   1.575   3.363   2.559 -0.9713  0.6631  2.3406
 1265SOL    HW215258   1.428   3.363   2.598  0.0219  0.8136 -0.8636
 1266SOL     OW15259   0.638   0.026   1.893  0.4202 -0.0250 -0.2665
 1266SOL    HW115260   0.673   0.076   1.819 -0.3361 -0.9459 -1.2452
 1266SOL    HW215261   0.550   0.063   1.889  0.3512 -0.2981 -1.3525
 1267SOL     OW15262   0.909   1.299  13.925  0.3804 -0.2243  0.1621
 1267SOL    HW115263   0.929   1.213  13.964  0.5680 -0.1111  0.3173
 1267SOL    HW215264   0.890   1.353  14.001  1.4860  1.9688 -1.1367
 1268SOL     OW15265   0.008   2.273   9.251  0.2204  0.0684 -0.2921
 1268SOL    HW115266   4.669   2.322   9.198 -0.7508 -0.6366  0.1956
 1268SOL    HW215267   4.676   2.248   9.325  0.7697  1.6201  0.6452
 1269SOL     OW15268   4.149   3.336   9.306 -0.1925  0.0892 -0.0695
 1269SOL    HW115269   4.081   3.346   9.373  0.6729 -1.4920  1.0554
 1269SOL    HW215270   4.136   3.416   9.256  2.2817  1.0914  0.9068
 1270SOL     OW15271   3.618   3.265   8.381 -0.3789 -0.2836  0.1352
 1270SOL    HW115272   3.622   3.354   8.415 -0.6742  0.7700 -2.6536
 1270SOL    HW215273   3.574   3.259   8.297 -1.5365 -1.7475  0.8411
 1271SOL     OW15274   0.235   3.061   3.038  0.3717  0.1533 -0.0979
 1271SOL    HW115275   0.160   3.113   3.009 -0.5666  1.2961  4.3121
 1271SOL    HW215276   0.308   3.103   2.992 -0.1754 -0.5140 -1.5685
 1272SOL     OW15277   4.352   2.690   1.617  0.2813  0.0096 -0.0679
 1272SOL    HW115278   4.259   2.709   1.624  0.1766 -0.5454  0.0844
 1272SOL    HW215279   4.371   2.725   1.529 -1.0014 -0.9042 -0.7006
 1273SOL     OW15280   4.462   2.325   8.039  0.4398  0.0302  0.0155
 1273SOL    HW115281   4.457   2.352   8.131 -3.3197  0.5214 -0.3310
 1273SOL    HW215282   4.374   2.290   8.022  0.5785  0.1438 -0.9698
 1274SOL     OW15283   0.009   0.989   8.116  0.1644 -0.3791  0.2496
 1274SOL    HW115284   4.648   0.980   8.163  0.2254 -1.2191  0.1941
 1274SOL    HW215285   0.014   0.910   8.063  0.4723 -2.1491  2.8961
 1275SOL     OW15286   4.618   4.631   5.559  0.1040  0.1780  0.1906
 1275SOL    HW115287   4.695   4.642   5.615  1.2632  0.6704 -1.5269
 1275SOL    HW215288   4.560   4.593   5.625  1.6951 -0.2657  1.3333
 1276SOL     OW15289   4.005   2.295   5.152  0.0479  0.2365  0.2619
 1276SOL    HW115290   4.023   2.330   5.065  0.4972  1.7343  0.9530
 1276SOL    HW215291   4.042   2.355   5.217  1.0178  0.3728 -0.4170
 1277SOL     OW15292   1.700   0.124  14.908  0.2377 -0.1654  0.4527
 1277SOL    HW115293   1.702   0.052  14.844  1.3673  1.1573 -0.9944
 1277SOL    HW215294   1.789   0.158  14.907 -0.5156  1.6574 -2.6560
 1278SOL     OW15295   3.853   2.251   5.508  0.8021 -0.0369  0.1983
 1278SOL    HW115296   3.841   2.259   5.603 -0.1990  1.8753 -0.0845
 1278SOL    HW215297   3.934   2.201   5.501  1.4084  1.2649 -1.8043
 1279SOL     OW15298   2.684   4.056   2.060 -0.0200 -0.3674 -0.1667
 1279SOL    HW115299   2.602   4.024   2.100  0.0112  0.3108  0.4401
 1279SOL    HW215300   2.726   3.971   2.052  0.3187 -0.0216 -2.0161
 1280SOL     OW15301   1.467   2.148   4.614 -0.7064  0.6722 -0.0191
 1280SOL    HW115302   1.515   2.074   4.653 -0.6801  0.7888  0.1723
 1280SOL    HW215303   1.513   2.149   4.530  0.2711  0.6997  0.5102
 1281SOL     OW15304   3.388   3.670  14.639  0.8061 -0.2773 -0.1813
 1281SOL    HW115305   3.327   3.597  14.643  0.1813  0.1510 -2.0336
 1281SOL    HW215306   3.473   3.630  14.621  0.3310 -1.8273  1.0672
 1282SOL     OW15307   2.677   3.890   0.757  0.3345 -0.3134 -0.0581
 1282SOL    HW115308   2.637   3.960   0.706  0.7579 -0.1581 -0.1724
 1282SOL    HW215309   2.599   3.837   0.774 -0.9259  1.1605 -1.2998
 1283SOL     OW15310   3.949   0.753   9.372 -0.6148 -0.7942 -0.3819
 1283SOL    HW115311   3.929   0.819   9.306  2.3983  0.6293  0.1263
 1283SOL    HW215312   4.036   0.782   9.400 -0.3013 -1.7928 -0.3128
 1284SOL     OW15313   0.042   1.145   1.513  0.4309  0.5277  0.6368
 1284SOL    HW115314   0.033   1.110   1.424  1.2374 -0.0402  0.7754
 1284SOL    HW215315   4.701   1.217   1.508 -1.6267 -1.2370  1.3520
 1285SOL     OW15316   1.114   3.019   2.260  0.0514  0.6340 -0.5877
 1285SOL    HW115317   1.089   2.935   2.221  0.0276 -0.3933  1.6289
 1285SOL    HW215318   1.175   2.989   2.327 -2.5616 -1.3488  0.9055
 1286SOL     OW15319   3.984   1.370   6.297 -0.5935 -0.2200 -0.8480
 1286SOL    HW115320   3.942   1.372   6.211  1.0365  3.0773 -1.5429
 1286SOL    HW215321   3.933   1.301   6.341 -1.3088  1.5328  1.1010
 1287SOL     OW15322   3.741   2.083  15.737  0.1215  0.2076  0.3958
 1287SOL    HW115323   3.666   2.139  15.758 -1.3139 -0.9294 -1.6703
 1287SOL    HW215324   3.771   2.137  15.664 -0.0935 -0.5852 -0.2766
 1288SOL     OW15325   3.962   3.607   4.564 -0.6668  0.3028  0.1108
 1288SOL    HW115326   4.044   3.595   4.516  0.4753 -1.0657  2.3472
 1288SOL    HW215327   3.955   3.516   4.593  0.4752  0.2270  0.1567
 1289SOL     OW15328   3.163   0.397   5.900  0.0940  0.0165 -0.1367
 1289SOL    HW115329   3.178   0.321   5.955 -0.1622 -0.6548 -1.0041
 1289SOL    HW215330   3.243   0.399   5.849  0.1306  0.4636 -0.0645
 1290SOL     OW15331   3.716   3.844   8.754 -0.3539  0.1727 -0.0140
 1290SOL    HW115332   3.677   3.922   8.793 -0.8219  0.1632 -0.4675
 1290SOL    HW215333   3.702   3.889   8.671  1.2945  1.6247  0.4895
 1291SOL     OW15334   2.137   0.351   7.020 -0.1212 -0.0092  0.5480
 1291SOL    HW115335   2.078   0.400   6.963 -0.9236  1.2084  2.4184
 1291SOL    HW215336   2.074   0.299   7.070 -0.7798  0.9206  0.6829
 1292SOL     OW15337   0.041   1.187   7.171  0.3182 -0.1320  0.4200
 1292SOL    HW115338   0.050   1.279   7.149  1.3633 -0.5928 -1.1019
 1292SOL    HW215339   4.669   1.175   7.170  0.4978 -1.5232 -0.7043
 1293SOL     OW15340   0.157   1.357   4.545 -0.2381  0.1894 -0.1375
 1293SOL    HW115341   0.063   1.371   4.549 -0.4970 -1.4895 -0.7602
 1293SOL    HW215342   0.173   1.383   4.454  3.0346 -2.7247 -0.4022
 1294SOL     OW15343   4.521   0.615   5.245 -0.4499  0.6432 -0.1868
 1294SOL    HW115344   4.585   0.647   5.182 -0.9084 -0.8247 -1.4132
 1294SOL    HW215345   4.573   0.591   5.321  0.1412  1.5261 -0.3194
 1295SOL     OW15346   2.422   2.161   7.749 -0.2449 -0.6809  0.2982
 1295SOL    HW115347   2.444   2.074   7.717  1.2017 -0.6188  1.1272
 1295SOL    HW215348   2.417   2.213   7.669 -1.2003  0.5053  1.1200
 1296SOL     OW15349   1.959   1.957   7.118  0.3114  0.0387 -0.2385
 1296SOL    HW115350   1.890   1.934   7.056 -0.4130 -0.1145  0.6143
 1296SOL    HW215351   1.905   1.944   7.196  0.4756  0.9458  0.0291
 1297SOL     OW15352   0.981   4.258   7.152 -0.1542  0.0097 -0.1212
 1297SOL    HW115353   0.920   4.303   7.094 -1.8581  0.6334  2.1500
 1297SOL    HW215354   0.979   4.311   7.232 -0.3406  0.1826 -0.2408
 1298SOL     OW15355   1.984   2.040   4.374  0.1189  0.0952  0.1151
 1298SOL    HW115356   1.946   2.020   4.460  2.5270  1.1545  1.4186
 1298SOL    HW215357   1.996   1.956   4.330 -0.6360 -0.8728  1.7537
 1299SOL     OW15358   0.366   3.563   2.653 -0.2820  0.5191 -0.3598
 1299SOL    HW115359   0.277   3.532   2.669  0.0593 -0.1805  0.1987
 1299SOL    HW215360   0.384   3.631   2.717 -0.3331  0.4609 -0.2836
 1300SOL     OW15361   4.700   4.711  12.240 -0.9145  0.2875  0.0677
 1300SOL    HW115362   0.000   4.624  12.207 -2.3066 -0.0707  0.0250
 1300SOL    HW215363   4.650   4.683  12.317 -1.4722 -0.6755 -0.6400
 1301SOL     OW15364   2.287   0.541   0.257 -0.0588 -0.1934 -0.6382
 1301SOL    HW115365   2.224   0.577   0.319  0.1967 -1.1771  0.1758
 1301SOL    HW215366   2.362   0.582   0.300 -0.2124  0.2113 -0.7558
 1302SOL     OW15367   0.014   3.472   2.988  0.4132  0.4209  0.0779
 1302SOL    HW115368   0.068   3.531   3.042  0.1791  0.5753  0.1419
 1302SOL    HW215369   4.654   3.513   3.012 -1.0118 -1.5319 -1.5752
 1303SOL     OW15370   3.880   1.649  16.333  0.3035 -0.5007 -0.3457
 1303SOL    HW115371   3.785   1.652  16.327  0.1681 -1.0061  1.7214
 1303SOL    HW215372   3.906   1.738  16.356 -0.3589 -0.7199  1.2139
 1304SOL     OW15373   0.645   0.210   6.808  0.0284 -0.5648  0.4828
 1304SOL    HW115374   0.637   0.262   6.729 -1.0427  1.6191  2.0316
 1304SOL    HW215375   0.653   0.278   6.876 -0.9734  0.0066  0.0310
 1305SOL     OW15376   1.678   0.794  12.302 -0.4048  0.2612 -0.2297
 1305SOL    HW115377   1.661   0.786  12.396  2.0765 -0.3186  0.1711
 1305SOL    HW215378   1.627   0.724  12.260 -2.2330 -0.2930  2.8731
 1306SOL     OW15379   1.547   0.598  14.650  0.5085 -0.3037  0.2416
 1306SOL    HW115380   1.563   0.535  14.720 -1.9964 -0.6402  0.5231
 1306SOL    HW215381   1.634   0.622  14.617  1.3589 -1.8324  1.4153
 1307SOL     OW15382   1.522   1.198   8.616 -0.0903  0.2995 -0.6054
 1307SOL    HW115383   1.554   1.151   8.539 -1.7821  0.0178 -1.1402
 1307SOL    HW215384   1.459   1.253   8.571  1.3017  2.0468 -0.4082
 1308SOL     OW15385   1.121   3.534  16.733  0.4005  0.4307  0.2305
 1308SOL    HW115386   1.125   3.614  16.680  2.0168 -0.0998 -0.4508
 1308SOL    HW215387   1.103   3.457  16.679  1.6456  0.1126  0.2633
 1309SOL     OW15388   3.848   2.796   4.708 -0.1471 -0.2846  0.4366
 1309SOL    HW115389   3.820   2.713   4.748 -0.0014  0.0249  1.1588
 1309SOL    HW215390   3.762   2.830   4.682  0.1352 -0.5643 -0.8920
 1310SOL     OW15391   1.454   0.556   3.688 -0.0322 -0.3543 -0.0218
 1310SOL    HW115392   1.544   0.535   3.664 -0.5313 -1.0709 -1.2725
 1310SOL    HW215393   1.406   0.534   3.607  1.0437 -0.4605 -0.6263
 1311SOL     OW15394   2.139   2.967  12.360 -0.0767 -0.3316 -0.4774
 1311SOL    HW115395   2.075   2.931  12.421 -1.9345  0.8555 -1.7493
 1311SOL    HW215396   2.128   2.909  12.285  0.9131 -1.0752 -0.0460
 1312SOL     OW15397   2.308   4.061  13.042  0.3147 -0.2517  0.1911
 1312SOL    HW115398   2.293   3.981  13.092  1.2257 -0.1965  0.5515
 1312SOL    HW215399   2.398   4.050  13.012  0.3698 -2.1365  1.0592
 1313SOL     OW15400   0.281   3.719  12.184  0.4386 -0.2776  0.1983
 1313SOL    HW115401   0.300   3.807  12.150 -0.5056  0.8126  2.5085
 1313SOL    HW215402   0.370   3.703  12.213  0.5817 -0.0520 -0.1190
 1314SOL     OW15403   2.444   3.005   3.251 -0.2543  0.8410  0.2315
 1314SOL    HW115404   2.474   3.054   3.327 -0.0179  2.5403 -0.9434
 1314SOL    HW215405   2.426   3.081   3.195  0.0305  0.8903  0.2038
 1315SOL     OW15406   3.705   3.555  14.412 -0.5155 -0.2682  0.2368
 1315SOL    HW115407   3.644   3.505  14.358 -0.1216  0.6331 -1.0450
 1315SOL    HW215408   3.679   3.525  14.499 -0.2758  0.6544  0.6298
 1316SOL     OW15409   0.394   0.051   4.370  0.0774 -0.0765 -0.5590
 1316SOL    HW115410   0.441   0.011   4.443  0.5040 -0.8011 -1.2274
 1316SOL    HW215411   0.305   0.049   4.404  0.2019 -0.6796 -0.2691
 1317SOL     OW15412   1.488   0.505  16.446 -0.2097  0.6745 -0.2089
 1317SOL    HW115413   1.526   0.426  16.485  0.0923  1.9949  2.1271
 1317SOL    HW215414   1.499   0.565  16.519 -0.8358 -1.1994  1.4080
 1318SOL     OW15415   1.530   4.355   2.069  0.8477 -0.1932 -0.5703
 1318SOL    HW115416   1.454   4.412   2.080  1.0446 -0.1332  0.5483
 1318SOL    HW215417   1.499   4.268   2.042 -2.5698  0.7686  0.1964
 1319SOL     OW15418   4.245   3.214  16.320  0.0044 -0.0050  0.3399
 1319SOL    HW115419   4.333   3.245  16.299 -0.6329  1.6803  0.1801
 1319SOL    HW215420   4.196   3.296  16.316  1.5965  0.9062 -0.3443
 1320SOL     OW15421   3.758   4.266   7.708  0.1585 -0.5451  0.2742
 1320SOL    HW115422   3.775   4.265   7.614  0.0761 -0.5931  0.2589
 1320SOL    HW215423   3.755   4.358   7.734 -0.2968 -0.3586 -0.4140
 1321SOL     OW15424   0.657   3.944   2.939 -0.1439  0.1606  0.1522
 1321SOL    HW115425   0.710   3.875   2.979  1.5626  0.7367 -1.0938
 1321SOL    HW215426   0.603   3.992   3.002  0.9837  0.5664  0.8140
 1322SOL     OW15427   0.677   1.299   5.856  0.2759  0.1453  0.0635
 1322SOL    HW115428   0.752   1.350   5.888 -1.8319  2.9593  0.4804
 1322SOL    HW215429   0.620   1.370   5.826  0.5031 -0.4215 -1.6787
 1323SOL     OW15430   2.791   4.083   5.765 -0.3337 -0.6583  0.2213
 1323SOL    HW115431   2.717   4.143   5.771  0.0116 -0.2498  0.4303
 1323SOL    HW215432   2.834   4.127   5.838  0.0348 -0.7916  0.0833
 1324SOL     OW15433   2.948   1.263  13.348 -0.1912  0.2484 -0.1028
 1324SOL    HW115434   2.990   1.231  13.268  0.9871  0.0296  0.6049
 1324SOL    HW215435   2.891   1.330  13.312 -1.1161 -1.5276 -1.9815
 1325SOL     OW15436   1.603   0.709  16.157  0.2459 -0.2978 -0.6292
 1325SOL    HW115437   1.647   0.679  16.077 -0.1281  0.8286 -1.2647
 1325SOL    HW215438   1.582   0.798  16.129 -0.3470 -0.3136 -0.2324
 1326SOL     OW15439   4.683   1.930   1.520 -0.0569  0.0290  0.1029
 1326SOL    HW115440   0.050   1.924   1.550  0.2046 -0.0396 -0.6926
 1326SOL    HW215441   4.681   1.933   1.424 -1.0971  4.3726  0.2345
 1327SOL     OW15442   2.541   0.679   7.465 -0.2244  0.6303  0.0656
 1327SOL    HW115443   2.448   0.680   7.443  0.0985 -0.2522 -1.3026
 1327SOL    HW215444   2.547   0.598   7.516 -1.9047 -0.1815 -1.0039
 1328SOL     OW15445   0.625   2.224  16.988  0.4943 -0.2371 -0.1764
 1328SOL    HW115446   0.544   2.203  17.034  0.4784 -0.4889 -0.3154
 1328SOL    HW215447   0.623   2.315  16.958 -1.5940 -0.2799 -0.1861
 1329SOL     OW15448   4.111   3.850   0.601 -0.3024  0.2913 -1.3416
 1329SOL    HW115449   4.017   3.869   0.593 -0.8679 -1.4113  1.0923
 1329SOL    HW215450   4.140   3.891   0.520 -1.8031  0.9187 -1.5672
 1330SOL     OW15451   1.179   4.554  14.900  0.1199  0.1729 -0.1325
 1330SOL    HW115452   1.170   4.649  14.906  1.5681  0.3924 -1.3726
 1330SOL    HW215453   1.266   4.547  14.861  0.4999  0.9147  0.5952
 1331SOL     OW15454   2.010   2.968   7.189 -0.1385  0.1677 -0.5057
 1331SOL    HW115455   2.089   2.930   7.151 -0.4059  0.4313 -1.3357
 1331SOL    HW215456   1.975   3.025   7.120 -0.2135  0.6893 -0.0400
 1332SOL     OW15457   3.412   4.028   9.554  0.2837 -0.4861  0.4386
 1332SOL    HW115458   3.415   3.982   9.470  0.4183  0.6889 -0.2041
 1332SOL    HW215459   3.337   3.989   9.600 -0.1844  0.1973  0.2500
 1333SOL     OW15460   0.045   2.192   7.074 -0.1564 -0.5307 -0.7530
 1333SOL    HW115461   0.128   2.198   7.026  1.6981 -0.8003  2.4247
 1333SOL    HW215462   0.008   2.262   7.020  3.1889 -0.5596 -3.1039
 1334SOL     OW15463   3.158   3.949   2.945 -0.8147  1.0411 -0.1018
 1334SOL    HW115464   3.236   3.994   2.912 -0.3205 -0.6875 -1.2644
 1334SOL    HW215465   3.094   3.957   2.874 -0.9407 -1.6740 -0.2970
 1335SOL     OW15466   2.953   0.972   1.457 -0.1411 -0.3448  0.3589
 1335SOL    HW115467   2.987   1.043   1.511 -0.0585  0.3406 -0.5914
 1335SOL    HW215468   3.033   0.944   1.413 -0.0463 -2.3947  1.8698
 1336SOL     OW15469   3.495   1.880   4.952  0.2097  0.1140 -0.0292
 1336SOL    HW115470   3.514   1.793   4.989  1.0351 -0.2869 -1.3775
 1336SOL    HW215471   3.536   1.929   5.023  1.3694 -0.2183 -0.4729
 1337SOL     OW15472   0.956   0.590   2.034  0.3555  0.2112 -0.2330
 1337SOL    HW115473   0.980   0.508   2.076  0.6861  0.1389 -0.5694
 1337SOL    HW215474   1.039   0.637   2.036  0.8372 -0.5806 -1.5115
 1338SOL     OW15475   1.569   2.658  14.312 -0.5541  0.9582 -0.4488
 1338SOL    HW115476   1.519   2.591  14.266  0.7351 -1.8304  2.1776
 1338SOL    HW215477   1.608   2.713  14.243  1.6498 -2.9948 -2.3579
 1339SOL     OW15478   4.005   3.988  12.628  0.5107  0.0034  0.0126
 1339SOL    HW115479   4.100   3.980  12.622  0.2648 -1.4868 -1.8830
 1339SOL    HW215480   3.982   3.998  12.720  1.7016  0.9022  0.2116
 1340SOL     OW15481   3.498   3.918   4.391  0.0073 -0.1326 -0.0786
 1340SOL    HW115482   3.405   3.939   4.390 -0.0840 -0.5792 -1.4621
 1340SOL    HW215483   3.487   3.828   4.361 -1.2276  0.6328 -1.9417
 1341SOL     OW15484   3.853   3.846   7.779 -0.1785 -0.1777  0.5343
 1341SOL    HW115485   3.762   3.858   7.753  1.2103  5.3763 -1.6645
 1341SOL    HW215486   3.891   3.931   7.800 -2.8833  0.6982  1.8030
 1342SOL     OW15487   4.104   0.204   7.478  0.0642  0.1261 -0.0655
 1342SOL    HW115488   4.113   0.136   7.411  1.0361 -0.0631  0.2435
 1342SOL    HW215489   4.195   0.211   7.508 -0.3069 -0.0458  1.0996
 1343SOL     OW15490   2.283   2.528  17.633 -0.3852  0.8403  0.1329
 1343SOL    HW115491   2.338   2.457  17.667 -3.2208 -1.8667 -0.9225
 1343SOL    HW215492   2.353   2.586  17.604  0.0081 -0.6840 -1.9656
 1344SOL     OW15493   2.733   4.474   3.383  0.0060  0.1988  0.5705
 1344SOL    HW115494   2.807   4.452   3.440  0.1747 -0.5506  0.0533
 1344SOL    HW215495   2.714   4.384   3.357 -1.2968  0.2679  1.3025
 1345SOL     OW15496   1.540   4.646  15.187 -0.1276  0.1618  0.0439
 1345SOL    HW115497   1.594   4.702  15.243  0.7723  0.0756 -0.7207
 1345SOL    HW215498   1.612   4.604  15.139 -0.7774 -2.7705  1.6292
 1346SOL     OW15499   4.381   2.599   2.091  0.0904 -0.7570  0.4783
 1346SOL    HW115500   4.449   2.621   2.028  2.1725 -1.1705  2.6034
 1346SOL    HW215501   4.330   2.679   2.106 -1.5343 -1.9230  1.1823
 1347SOL     OW15502   3.008   3.652   9.679 -0.1038  0.5170 -0.4270
 1347SOL    HW115503   3.031   3.742   9.700 -1.5618  1.0830 -1.2643
 1347SOL    HW215504   2.933   3.674   9.624 -1.5493 -0.3655  1.1817
 1348SOL     OW15505   2.297   0.878  12.212  0.8073  0.1452  0.0589
 1348SOL    HW115506   2.366   0.834  12.260  0.0741 -1.5975 -0.4942
 1348SOL    HW215507   2.296   0.960  12.261  0.0405 -0.2538  0.7062
 1349SOL     OW15508   3.006   3.476   5.734  0.5086  0.5979 -0.8288
 1349SOL    HW115509   3.079   3.498   5.792  0.1533 -0.0073 -0.1523
 1349SOL    HW215510   2.970   3.565   5.734  2.5582  1.4185 -0.7345
 1350SOL     OW15511   1.103   3.497   2.231  0.0896  0.7965  0.1677
 1350SOL    HW115512   1.069   3.537   2.151  1.5334 -1.7510 -1.7238
 1350SOL    HW215513   1.093   3.406   2.201  0.1985  0.6536  0.5621
 1351SOL     OW15514   1.643   4.391  11.914 -0.9391  0.1295 -0.5803
 1351SOL    HW115515   1.733   4.422  11.909 -0.7827 -0.3645 -0.8109
 1351SOL    HW215516   1.651   4.324  11.982 -0.0548 -1.0883 -1.8983
 1352SOL     OW15517   4.515   2.107   5.591  0.0164 -0.1202 -0.8736
 1352SOL    HW115518   4.530   2.150   5.507  0.0373 -0.1077 -0.8634
 1352SOL    HW215519   4.488   2.020   5.560  0.3950 -0.6145  0.1851
 1353SOL     OW15520   2.599   2.176   8.613  0.0347  0.0682 -0.4188
 1353SOL    HW115521   2.612   2.223   8.531 -1.5514  1.8944  0.4045
 1353SOL    HW215522   2.637   2.094   8.579 -0.4008 -0.1536 -0.3678
 1354SOL     OW15523   1.246   1.532   5.560 -0.2069 -0.3894 -0.0874
 1354SOL    HW115524   1.276   1.547   5.470 -1.5314  3.2572  0.0753
 1354SOL    HW215525   1.213   1.616   5.590 -0.2549  0.1305 -1.6152
 1355SOL     OW15526   2.190   1.944   6.940  0.3648  0.5835  0.2026
 1355SOL    HW115527   2.126   1.952   6.869  0.9194  0.2295 -0.3275
 1355SOL    HW215528   2.131   1.928   7.014 -1.2844 -1.7537 -1.6170
 1356SOL     OW15529   0.727   3.020  16.862  0.7060  0.3627 -0.2282
 1356SOL    HW115530   0.642   3.052  16.893 -0.3975 -1.1798 -1.6493
 1356SOL    HW215531   0.771   3.021  16.947 -2.3795  0.9672  1.3561
 1357SOL     OW15532   3.289   2.967   5.711  0.5088  0.2806  0.1320
 1357SOL    HW115533   3.348   2.894   5.729  0.3666  0.1025 -0.1226
 1357SOL    HW215534   3.290   3.022   5.789  0.1065 -0.2459  0.5051
 1358SOL     OW15535   3.628   2.684   8.775 -0.0533 -0.2604  0.2963
 1358SOL    HW115536   3.565   2.747   8.741  0.8528  2.2039  3.1430
 1358SOL    HW215537   3.693   2.717   8.713  0.6636  0.2734  1.3282
 1359SOL     OW15538   4.387   2.886   2.163 -0.1486 -0.5942 -0.1263
 1359SOL    HW115539   4.474   2.926   2.168  0.2048 -1.2732 -0.9064
 1359SOL    HW215540   4.370   2.868   2.255 -2.3911  0.8287 -0.2621
 1360SOL     OW15541   0.743   1.996   7.837 -0.4844  0.1381  0.4543
 1360SOL    HW115542   0.753   1.968   7.928  1.5988  0.4979  0.3276
 1360SOL    HW215543   0.815   2.058   7.826 -0.8868  0.5652  0.2282
 1361SOL     OW15544   4.218   0.681   2.417  0.4697  0.3474 -0.2457
 1361SOL    HW115545   4.253   0.769   2.430 -1.0792  0.8593  0.4748
 1361SOL    HW215546   4.269   0.634   2.483 -2.4731 -0.4369  1.4635
 1362SOL     OW15547   4.492   0.767   0.029 -0.8453  0.1087  0.2902
 1362SOL    HW115548   4.413   0.821   0.029  0.2093  1.6721  0.1300
 1362SOL    HW215549   4.561   0.817   0.073 -1.6609  0.3636  1.2798
 1363SOL     OW15550   2.954   3.443   7.395  0.1482  0.1195  0.2593
 1363SOL    HW115551   2.969   3.440   7.490 -0.5407  1.6544  0.4032
 1363SOL    HW215552   2.892   3.513   7.376  1.7415  1.4495 -0.0736
 1364SOL     OW15553   3.936   3.006  17.209 -0.3123  0.1356  0.4195
 1364SOL    HW115554   3.989   3.029  17.132 -2.2229 -0.1239 -0.9703
 1364SOL    HW215555   3.869   2.955  17.163 -1.3350  2.4349 -0.5953
 1365SOL     OW15556   1.312   3.137  15.430  0.2524  0.2109 -0.6883
 1365SOL    HW115557   1.407   3.148  15.432 -0.1110  3.0680  1.1132
 1365SOL    HW215558   1.305   3.046  15.403  0.9389  0.3334 -1.2713
 1366SOL     OW15559   3.788   3.338   0.552  0.0469 -0.2733  0.1417
 1366SOL    HW115560   3.720   3.405   0.561  0.3714 -0.1121  1.5301
 1366SOL    HW215561   3.732   3.261   0.562 -0.6069 -0.0417 -1.7980
 1367SOL     OW15562   1.119   4.193   2.254  0.6883  0.1026 -0.1571
 1367SOL    HW115563   1.066   4.131   2.303 -1.7298 -0.2234 -3.1387
 1367SOL    HW215564   1.060   4.268   2.248  1.9738  1.0905 -0.6514
 1368SOL     OW15565   3.435   2.801   6.909 -0.1626  0.6921  0.1936
 1368SOL    HW115566   3.446   2.770   6.819  2.6388  0.7595  0.5150
 1368SOL    HW215567   3.522   2.820   6.944  0.0675  0.5368 -0.2858
 1369SOL     OW15568   4.100   2.102   4.353 -0.2229 -0.3611  0.4823
 1369SOL    HW115569   4.168   2.155   4.395 -0.5028  1.1864 -1.0011
 1369SOL    HW215570   4.072   2.159   4.281  0.2646 -2.3347 -1.2449
 1370SOL     OW15571   2.375   1.096   6.413  0.2036  0.0250  0.2109
 1370SOL    HW115572   2.319   1.169   6.439  1.5519  0.8580  0.8076
 1370SOL    HW215573   2.315   1.054   6.351 -1.9280  1.9853  0.9528
 1371SOL     OW15574   0.435   2.024  14.039 -0.1087 -0.1865 -0.3009
 1371SOL    HW115575   0.501   2.062  13.981 -2.3648  1.5403 -1.7435
 1371SOL    HW215576   0.421   2.096  14.100  0.9875 -0.4291  0.2201
 1372SOL     OW15577   4.388   3.321   5.907 -0.2957  0.0451 -0.7246
 1372SOL    HW115578   4.349   3.365   5.832  0.2755  0.2721 -0.8854
 1372SOL    HW215579   4.309   3.295   5.955  0.0403 -0.1090 -0.2544
 1373SOL     OW15580   3.797   0.080   5.693 -0.1290  0.4434 -0.2384
 1373SOL    HW115581   3.870   0.094   5.752  0.1305 -1.0222 -0.2082
 1373SOL    HW215582   3.845   0.078   5.609 -0.0921  2.2382 -0.2647
 1374SOL     OW15583   2.337   1.625   0.908  0.5412 -0.7022  0.2741
 1374SOL    HW115584   2.349   1.619   1.003  1.4103  1.1684  0.2635
 1374SOL    HW215585   2.355   1.538   0.872  1.8128  0.1553 -1.1133
 1375SOL     OW15586   1.894   3.306   8.204 -0.4303  0.4490  0.0911
 1375SOL    HW115587   1.846   3.331   8.283  0.6484 -2.1995  1.6033
 1375SOL    HW215588   1.837   3.351   8.142  0.6302  0.6937 -0.7170
 1376SOL     OW15589   2.754   2.723   2.752  0.4482 -0.5875 -0.0455
 1376SOL    HW115590   2.669   2.706   2.793  1.0398 -3.3064  0.0537
 1376SOL    HW215591   2.748   2.663   2.677  0.4482  0.3324 -0.7810
 1377SOL     OW15592   3.903   0.999   8.407 -0.1946 -0.2319 -0.1337
 1377SOL    HW115593   3.838   1.002   8.477  1.4710 -1.3800  1.4465
 1377SOL    HW215594   3.910   1.094   8.400  1.3472 -0.2677  1.0449
 1378SOL     OW15595   3.361   2.904   1.756 -0.2737  0.0846 -0.5955
 1378SOL    HW115596   3.438   2.908   1.700  0.2224 -0.7881  0.0301
 1378SOL    HW215597   3.291   2.928   1.694 -0.2924  1.3665 -0.0714
 1379SOL     OW15598   3.737   2.462   6.928  0.6732  0.1008  0.1268
 1379SOL    HW115599   3.706   2.371   6.927  0.6737  0.1181 -2.7586
 1379SOL    HW215600   3.764   2.463   6.836  1.5595  0.0872  0.3909
 1380SOL     OW15601   3.099   2.297   8.260  0.0594  0.2208  0.1967
 1380SOL    HW115602   3.174   2.238   8.261  0.1571  0.3580  1.1012
 1380SOL    HW215603   3.112   2.359   8.332  1.8129  0.3924 -0.2683
 1381SOL     OW15604   4.183   3.297   9.837 -0.0208 -0.4299 -0.3789
 1381SOL    HW115605   4.110   3.346   9.799  0.8564  2.3790  1.5628
 1381SOL    HW215606   4.245   3.305   9.765  0.3461 -1.6997 -0.1997
 1382SOL     OW15607   2.391   0.128  15.982 -0.3085 -0.2545  0.1366
 1382SOL    HW115608   2.323   0.171  15.930 -0.4525 -0.0000  0.5355
 1382SOL    HW215609   2.475   0.151  15.943  0.5676 -2.0200  0.9596
 1383SOL     OW15610   3.700   2.667   4.175 -0.1597 -0.5894  0.1302
 1383SOL    HW115611   3.675   2.681   4.084  0.8887 -0.0031 -0.0655
 1383SOL    HW215612   3.613   2.667   4.215 -0.2779 -0.5191 -0.1261
 1384SOL     OW15613   4.617   0.278   8.503 -0.1030  0.0574  0.1119
 1384SOL    HW115614   4.574   0.251   8.584 -1.9133 -0.1856 -0.9292
 1384SOL    HW215615   4.623   0.372   8.524 -0.0655  0.3712 -1.3440
 1385SOL     OW15616   1.675   2.556  15.120 -0.8209  0.2378 -0.7055
 1385SOL    HW115617   1.753   2.595  15.080  0.2269 -1.6110 -0.4967
 1385SOL    HW215618   1.640   2.630  15.170 -1.2597 -1.7739  1.9549
 1386SOL     OW15619   0.020   2.999  17.183 -0.1784  0.4921 -0.0433
 1386SOL    HW115620   0.092   3.001  17.245  0.2459  0.8451 -0.5485
 1386SOL    HW215621   0.025   3.091  17.157  3.7330  0.4328  0.5588
 1387SOL     OW15622   2.955   1.106   6.281 -0.1571  0.6521 -0.4007
 1387SOL    HW115623   2.875   1.126   6.233 -1.6233  0.2677  1.8957
 1387SOL    HW215624   2.933   1.124   6.373 -2.8940  2.4543 -1.4022
 1388SOL     OW15625   3.412   3.553   5.635  0.0536  0.0361  0.6583
 1388SOL    HW115626   3.383   3.530   5.546  2.3636  0.2253 -0.1308
 1388SOL    HW215627   3.346   3.616   5.665 -1.2347 -1.0108  0.0238
 1389SOL     OW15628   0.049   0.996  15.081  0.0522 -0.4489  0.4906
 1389SOL    HW115629   0.103   1.023  15.155  2.0417 -0.2030 -1.0336
 1389SOL    HW215630   0.045   0.902  15.096  0.9927 -0.7283 -0.9852
 1390SOL     OW15631   0.496   3.694   7.615 -0.0519  0.3329  0.1641
 1390SOL    HW115632   0.548   3.654   7.685  3.6877  2.1753 -1.5445
 1390SOL    HW215633   0.508   3.630   7.545 -0.2634  0.9791 -0.4550
 1391SOL     OW15634   0.341   2.555   3.318 -0.1431 -0.2400  0.6021
 1391SOL    HW115635   0.279   2.556   3.245  2.5921  0.7461 -1.6995
 1391SOL    HW215636   0.421   2.562   3.266 -0.0213 -2.7024  0.4702
 1392SOL     OW15637   0.478   1.111  13.921  0.2623  0.0289  0.2523
 1392SOL    HW115638   0.533   1.097  13.844  0.2296 -0.1108  0.2554
 1392SOL    HW215639   0.530   1.078  13.994  2.8460  0.2011 -1.5197
 1393SOL     OW15640   3.683   1.105   7.074 -0.1033  0.1305 -0.1297
 1393SOL    HW115641   3.732   1.123   7.154  0.2817  3.2881 -1.0836
 1393SOL    HW215642   3.596   1.074   7.100  0.0860  0.3172  0.7301
 1394SOL     OW15643   1.520   3.754   9.445  0.1334  0.1940  0.9572
 1394SOL    HW115644   1.527   3.716   9.533 -1.8086  1.8312  1.8113
 1394SOL    HW215645   1.489   3.840   9.471 -1.9152 -0.5173  0.8215
 1395SOL     OW15646   3.983   1.384   4.142 -0.3518  0.3747 -1.3866
 1395SOL    HW115647   3.989   1.355   4.051  0.2147 -1.9428 -0.6036
 1395SOL    HW215648   4.057   1.444   4.150 -0.2462  0.2891 -1.7062
 1396SOL     OW15649   2.789   1.315   6.054 -0.5998 -0.3942 -0.3804
 1396SOL    HW115650   2.754   1.240   6.102  1.3936 -2.7128 -2.6114
 1396SOL    HW215651   2.736   1.389   6.083 -0.1332  0.8181 -2.6057
 1397SOL     OW15652   1.867   0.708  13.886  0.2888  0.4190 -0.4761
 1397SOL    HW115653   1.893   0.789  13.843  3.1687 -0.4492 -0.3472
 1397SOL    HW215654   1.932   0.649  13.849  1.4687  1.0408  0.5932
 1398SOL     OW15655   0.553   0.864  17.336  0.2572 -0.4965 -0.2320
 1398SOL    HW115656   0.552   0.785  17.390 -1.2974 -0.3160  0.0117
 1398SOL    HW215657   0.633   0.904  17.369 -0.7517  0.2016  1.3204
 1399SOL     OW15658   2.251   2.422   4.605 -0.1507  0.0992 -0.0436
 1399SOL    HW115659   2.210   2.489   4.550 -0.6870  0.2758  0.5835
 1399SOL    HW215660   2.283   2.359   4.540  1.9963  0.3610  0.7337
 1400SOL     OW15661   2.690   3.603  10.601  0.0326  0.3758  0.2214
 1400SOL    HW115662   2.722   3.605  10.511  0.5991 -2.2775  0.3588
 1400SOL    HW215663   2.655   3.692  10.607 -0.5748  0.1259  0.3951
 1401SOL     OW15664   3.486   4.611  16.297 -0.0918  0.3899  0.1271
 1401SOL    HW115665   3.427   4.665  16.245  0.2530  1.3411  0.7243
 1401SOL    HW215666   3.484   4.533  16.241 -0.1916 -0.6082  1.5106
 1402SOL     OW15667   3.165   1.886   6.857 -0.3282  0.3424  0.3088
 1402SOL    HW115668   3.149   1.960   6.799  0.7521 -1.4480 -2.2529
 1402SOL    HW215669   3.227   1.921   6.922  0.6951 -0.6226 -0.1353
 1403SOL     OW15670   1.884   4.076   8.522  0.4079  0.0649  0.0399
 1403SOL    HW115671   1.882   4.140   8.594  1.1117  0.8851 -0.6687
 1403SOL    HW215672   1.860   3.995   8.567  1.1143  0.9188  1.9410
 1404SOL     OW15673   0.164   3.436   0.475  0.4211 -0.3516 -0.2780
 1404SOL    HW115674   0.232   3.440   0.408 -0.8321  1.2129 -1.4353
 1404SOL    HW215675   0.080   3.417   0.432  0.6069  0.2605 -0.9166
 1405SOL     OW15676   0.975   1.333   1.007 -0.6274  0.3889 -0.0618
 1405SOL    HW115677   0.922   1.354   0.931  0.9205 -1.5445 -1.6957
 1405SOL    HW215678   0.925   1.377   1.076 -0.6754 -1.3152  1.0035
 1406SOL     OW15679   3.262   0.301   2.677 -0.0411  0.0265  0.1984
 1406SOL    HW115680   3.177   0.332   2.708  0.2935  0.4306  0.7289
 1406SOL    HW215681   3.226   0.215   2.655  1.6423 -0.8431  0.8281
 1407SOL     OW15682   2.268   1.268   8.831  0.3158 -0.4707 -0.2665
 1407SOL    HW115683   2.278   1.264   8.736  1.8792 -0.7456 -0.0817
 1407SOL    HW215684   2.204   1.200   8.847  0.4965 -0.7204 -0.6120
 1408SOL     OW15685   0.400   3.333   4.045 -0.0784 -0.6342 -0.3074
 1408SOL    HW115686   0.398   3.319   4.139 -0.4839 -1.1011 -0.3861
 1408SOL    HW215687   0.494   3.328   4.029 -0.2746  1.4456 -2.1961
 1409SOL     OW15688   2.428   4.047  16.105  0.0501 -0.3833  0.2886
 1409SOL    HW115689   2.472   4.129  16.084 -0.7015  0.4463  1.8877
 1409SOL    HW215690   2.365   4.090  16.163  0.9170 -0.2955  1.1726
 1410SOL     OW15691   4.242   1.521   3.149  0.0366  0.1146 -0.5084
 1410SOL    HW115692   4.192   1.445   3.118 -1.8410  1.3590 -0.5048
 1410SOL    HW215693   4.213   1.596   3.098 -1.6370  0.3582  0.8146
 1411SOL     OW15694   4.017   4.527   5.201 -0.3810 -0.3400 -0.1708
 1411SOL    HW115695   4.097   4.503   5.246 -0.4422 -1.5903 -0.7318
 1411SOL    HW215696   3.998   4.452   5.144 -1.3173 -0.6237  0.5126
 1412SOL     OW15697   4.267   4.570  14.522  0.0745  0.0875  0.8417
 1412SOL    HW115698   4.256   4.602  14.433 -1.3947 -1.3167  0.5052
 1412SOL    HW215699   4.185   4.605  14.558 -0.4046 -0.0334 -0.1401
 1413SOL     OW15700   0.570   0.266  11.881  0.4153  0.2656 -0.2331
 1413SOL    HW115701   0.631   0.197  11.853  0.0690  0.1482 -0.7059
 1413SOL    HW215702   0.615   0.343  11.847  0.5703  1.3131  2.4100
 1414SOL     OW15703   0.927   0.361   4.241  0.3707  0.1734  0.7583
 1414SOL    HW115704   0.975   0.280   4.256  1.4991  0.2213 -2.4286
 1414SOL    HW215705   1.000   0.422   4.253 -0.1962  1.2296 -1.1160
 1415SOL     OW15706   1.408   1.602   4.924  0.4534 -0.4437  0.8584
 1415SOL    HW115707   1.457   1.535   4.877 -1.2748 -1.9592  1.2006
 1415SOL    HW215708   1.390   1.672   4.861  1.5516 -0.8989  0.0393
 1416SOL     OW15709   1.877   3.837   2.227 -0.2268 -0.0521  0.3841
 1416SOL    HW115710   1.824   3.873   2.299  0.0027 -1.0622  1.0579
 1416SOL    HW215711   1.962   3.873   2.252 -0.3273  0.1089  0.4978
 1417SOL     OW15712   1.904   3.571   2.885  0.2804  0.6325  0.4193
 1417SOL    HW115713   1.878   3.510   2.816  0.5184 -0.1499  1.0232
 1417SOL    HW215714   1.907   3.652   2.833 -0.2921 -0.4838 -1.3790
 1418SOL     OW15715   0.638   4.368   7.995  0.1865 -0.6189 -0.0726
 1418SOL    HW115716   0.562   4.322   7.960 -1.2450 -0.1519  2.4147
 1418SOL    HW215717   0.615   4.461   7.996 -1.4055 -1.0040 -0.0101
 1419SOL     OW15718   2.587   0.906   6.590  0.1523 -0.2004  0.0623
 1419SOL    HW115719   2.589   0.868   6.678  0.0314 -2.4090 -0.9064
 1419SOL    HW215720   2.504   0.875   6.554  0.3740 -1.5525  0.7235
 1420SOL     OW15721   2.082   2.345   5.786  0.1167 -0.1365 -0.5428
 1420SOL    HW115722   2.126   2.273   5.740  1.1105 -0.7733  1.4132
 1420SOL    HW215723   2.027   2.289   5.841  0.0629 -0.5618 -1.0294
 1421SOL     OW15724   3.104   0.648   2.573  0.0506  0.2755 -0.0817
 1421SOL    HW115725   3.102   0.565   2.526  0.1437  0.1847  0.0768
 1421SOL    HW215726   3.017   0.643   2.611  0.5277  2.2208  1.2678
 1422SOL     OW15727   1.732   1.818   1.974  0.0855  0.2483  0.4487
 1422SOL    HW115728   1.708   1.842   1.885 -1.2373 -0.2721  0.6572
 1422SOL    HW215729   1.757   1.899   2.018 -3.2359  1.2236  0.5154
 1423SOL     OW15730   0.794   0.297   6.595 -0.0783  0.1310  0.3850
 1423SOL    HW115731   0.806   0.227   6.531  2.7831 -0.3282  1.4497
 1423SOL    HW215732   0.858   0.361   6.565 -1.3438  0.1240 -2.3428
 1424SOL     OW15733   3.935   4.551   7.615  0.0964  0.5857 -0.2462
 1424SOL    HW115734   3.917   4.457   7.604  1.4401  0.4563 -1.5219
 1424SOL    HW215735   3.990   4.562   7.693 -0.0768  1.1007 -0.2031
 1425SOL     OW15736   1.437   4.598   0.269 -0.4487  0.0251  0.7352
 1425SOL    HW115737   1.428   4.653   0.191  3.8733 -0.9950 -0.4810
 1425SOL    HW215738   1.527   4.570   0.253 -0.7720  0.3204 -1.5573
 1426SOL     OW15739   0.634   0.830  15.919 -0.0500 -0.0300 -0.3514
 1426SOL    HW115740   0.651   0.922  15.898  3.1786 -0.6456 -0.5137
 1426SOL    HW215741   0.683   0.783  15.852  1.0885  1.3828 -0.5344
 1427SOL     OW15742   1.416   1.219   5.010 -0.2689  0.3603 -0.1638
 1427SOL    HW115743   1.366   1.198   5.088  0.0298 -1.0547 -0.3558
 1427SOL    HW215744   1.460   1.134   5.005  0.0175  0.4700  0.5335
 1428SOL     OW15745   3.091   4.440  15.395  0.0498  0.0594  0.3359
 1428SOL    HW115746   3.095   4.464  15.302 -1.0057  0.4705  0.3915
 1428SOL    HW215747   2.996   4.453  15.395  0.4226  2.8454 -0.3449
 1429SOL     OW15748   4.291   2.170   7.721 -0.5706  0.1518 -0.9716
 1429SOL    HW115749   4.290   2.218   7.638 -0.5539  2.2033  0.2134
 1429SOL    HW215750   4.381   2.140   7.732 -1.1610 -0.3890  2.2609
 1430SOL     OW15751   2.892   0.538  11.327 -0.0757 -0.7675  0.3253
 1430SOL    HW115752   2.895   0.622  11.281 -2.6955 -0.5108  0.6041
 1430SOL    HW215753   2.900   0.560  11.419 -0.0811  1.3031 -0.1714
 1431SOL     OW15754   3.182   3.740   2.404  0.4327  0.3685 -0.2507
 1431SOL    HW115755   3.103   3.794   2.404 -0.5443 -1.0724  1.5168
 1431SOL    HW215756   3.166   3.687   2.482  0.8598  0.6875  0.0584
 1432SOL     OW15757   1.628   2.856   5.362  0.4794  0.0382  0.0268
 1432SOL    HW115758   1.657   2.774   5.324 -0.5273 -0.2711 -0.0625
 1432SOL    HW215759   1.623   2.919   5.290  0.8942 -1.3896 -1.2289
 1433SOL     OW15760   3.890   2.375   7.953  0.1665 -0.2209 -0.0665
 1433SOL    HW115761   3.878   2.282   7.934 -1.8746 -0.1327  0.7490
 1433SOL    HW215762   3.804   2.408   7.981  0.6576  0.1634  1.0094
 1434SOL     OW15763   3.180   0.255   8.345  0.2697  0.0561  0.0695
 1434SOL    HW115764   3.163   0.185   8.408  0.5782 -0.2616 -0.2004
 1434SOL    HW215765   3.266   0.244   8.306  0.2858  1.9094 -0.4064
 1435SOL     OW15766   1.188   1.945  14.942 -0.4136  0.8524 -0.2178
 1435SOL    HW115767   1.126   1.940  15.014 -1.8580  1.3794 -1.4361
 1435SOL    HW215768   1.263   1.899  14.980 -0.6606  0.8143  0.2115
 1436SOL     OW15769   1.515   0.917   9.270 -0.0767 -0.2878  0.0925
 1436SOL    HW115770   1.575   0.989   9.291 -1.5445  0.3616  2.0644
 1436SOL    HW215771   1.469   0.953   9.194  0.7934  0.4308 -0.0960
 1437SOL     OW15772   2.504   2.011   4.726 -0.1214  0.1319  0.1699
 1437SOL    HW115773   2.494   1.963   4.644  0.1713 -0.8284  0.6808
 1437SOL    HW215774   2.537   1.943   4.785 -0.2364 -1.5557 -1.7137
 1438SOL     OW15775   3.138   2.936   3.656 -0.0812  0.3687  0.1307
 1438SOL    HW115776   3.174   2.869   3.599 -0.3349 -1.3714  2.0475
 1438SOL    HW215777   3.097   2.997   3.595  0.9559  2.2070  1.2354
 1439SOL     OW15778   0.285   0.749  15.335 -0.1844  0.4121 -0.1967
 1439SOL    HW115779   0.250   0.788  15.415  1.3631  2.4545 -0.5296
 1439SOL    HW215780   0.371   0.788  15.350 -0.6848  0.2258  3.3698
 1440SOL     OW15781   2.034   4.263   2.070  0.3357 -0.0783  0.4436
 1440SOL    HW115782   2.024   4.177   2.030 -1.6231 -0.3228  1.4700
 1440SOL    HW215783   1.948   4.305   2.062 -0.7708 -2.2865  0.8670
 1441SOL     OW15784   0.914   2.147  13.280 -0.6245  0.4104  0.4277
 1441SOL    HW115785   0.872   2.202  13.213 -0.0217 -0.9586 -1.0792
 1441SOL    HW215786   0.973   2.083  13.240 -0.5553 -0.1011  1.3392
 1442SOL     OW15787   3.652   2.033   5.742 -0.2489 -0.1281 -0.0712
 1442SOL    HW115788   3.694   1.978   5.807 -0.9593 -0.7051 -0.0940
 1442SOL    HW215789   3.692   2.115   5.769  2.0249 -1.0665 -0.5210
 1443SOL     OW15790   0.069   4.079   4.991 -0.2695  0.4516 -0.5517
 1443SOL    HW115791   0.114   4.152   5.033  0.9834  0.1550 -1.3672
 1443SOL    HW215792   0.131   4.013   4.962 -0.3781 -0.1739  0.6370
 1444SOL     OW15793   4.229   3.629   1.200 -0.0610  0.1794  0.0414
 1444SOL    HW115794   4.148   3.655   1.243 -0.3523 -1.5210  0.5378
 1444SOL    HW215795   4.197   3.549   1.159  1.6674 -0.2519 -0.4596
 1445SOL     OW15796   4.021   4.585   8.125 -0.6654  0.3244 -0.0111
 1445SOL    HW115797   4.003   4.610   8.216  0.2354 -1.1456  0.5626
 1445SOL    HW215798   4.114   4.604   8.136 -0.6269  0.8894 -1.3433
 1446SOL     OW15799   4.299   3.660  10.298  0.1562 -0.8965  0.4204
 1446SOL    HW115800   4.368   3.677  10.234  1.4787 -0.8113  1.8892
 1446SOL    HW215801   4.357   3.619  10.362  0.5007  2.4172  2.2105
 1447SOL     OW15802   2.471   0.282  13.940 -0.2255 -0.1845 -0.1944
 1447SOL    HW115803   2.531   0.232  13.996 -0.8653 -1.6120 -0.7671
 1447SOL    HW215804   2.513   0.292  13.855  0.5980  2.0429  0.4890
 1448SOL     OW15805   3.534   0.372   6.336  0.1974 -0.0518  0.5512
 1448SOL    HW115806   3.564   0.457   6.304 -0.4107 -0.2104 -0.4408
 1448SOL    HW215807   3.497   0.335   6.256  1.6054  0.5237 -0.3764
 1449SOL     OW15808   0.251   1.999  16.410 -0.2883  0.5945  0.4561
 1449SOL    HW115809   0.292   2.053  16.479  0.0797 -1.1064  1.5589
 1449SOL    HW215810   0.303   2.029  16.335  0.0343 -0.9285  0.0806
 1450SOL     OW15811   4.002   1.552  16.105 -0.3693 -0.2267  0.8863
 1450SOL    HW115812   3.938   1.568  16.174  0.0767 -1.6993  1.6240
 1450SOL    HW215813   4.009   1.643  16.073 -1.5412 -1.1314 -1.9753
 1451SOL     OW15814   3.410   4.626   9.996  0.4449  0.1167  0.3106
 1451SOL    HW115815   3.472   4.581  10.053  1.1338  0.1541 -0.4068
 1451SOL    HW215816   3.351   4.556   9.970  2.2766 -2.3016  2.7582
 1452SOL     OW15817   0.707   0.378   7.185 -0.2653 -0.1953  0.5625
 1452SOL    HW115818   0.752   0.454   7.222 -0.2205  0.9563 -1.8234
 1452SOL    HW215819   0.622   0.401   7.221 -0.5838 -0.2287 -0.1535
 1453SOL     OW15820   2.924   1.575  17.540  0.3688  0.0063  0.2533
 1453SOL    HW115821   2.906   1.485  17.513 -1.6883  1.4519 -3.1530
 1453SOL    HW215822   2.873   1.582  17.621  1.1485 -0.1973  0.7622
 1454SOL     OW15823   0.385   2.500   8.702 -0.4533  0.0031 -0.4791
 1454SOL    HW115824   0.327   2.565   8.662  0.9483  1.6387  0.1313
 1454SOL    HW215825   0.362   2.432   8.639 -1.7862  0.5737 -0.6050
 1455SOL     OW15826   4.091   0.670   4.057 -0.3873 -0.3331  0.1525
 1455SOL    HW115827   4.017   0.712   4.013 -1.0993 -0.8493  0.8568
 1455SOL    HW215828   4.103   0.595   3.999  1.1688  0.7510 -0.9467
 1456SOL     OW15829   4.145   2.806   4.116  0.3905 -0.2399 -0.1059
 1456SOL    HW115830   4.102   2.780   4.198 -1.1074  1.6112 -0.3032
 1456SOL    HW215831   4.068   2.794   4.060 -0.6822  0.1215  1.2892
 1457SOL     OW15832   2.049   1.150   3.457 -0.6649 -0.2085  0.2358
 1457SOL    HW115833   2.042   1.057   3.436 -0.5571 -0.3576  0.8710
 1457SOL    HW215834   2.036   1.189   3.371 -0.7094  1.6433  1.0725
 1458SOL     OW15835   2.678   3.557   5.343 -0.3711 -0.0063 -0.0447
 1458SOL    HW115836   2.769   3.586   5.348 -0.9393  2.1057 -1.5833
 1458SOL    HW215837   2.654   3.567   5.435 -0.1057  0.6359 -0.0434
 1459SOL     OW15838   1.020   2.211  16.664 -0.8171  0.2585  0.1930
 1459SOL    HW115839   1.033   2.127  16.620  0.8809  1.1645 -1.0647
 1459SOL    HW215840   0.957   2.185  16.731 -0.4581 -1.6374 -0.1910
 1460SOL     OW15841   1.068   0.115  14.259  0.1460 -0.1087  0.1709
 1460SOL    HW115842   1.032   0.105  14.347  1.5752 -2.1804  0.5096
 1460SOL    HW215843   1.006   0.180  14.224  2.1991  0.9742 -1.4757
 1461SOL     OW15844   4.476   4.353   4.876 -0.6658 -0.1450  0.0387
 1461SOL    HW115845   4.521   4.436   4.887 -0.0111 -0.5955  0.7484
 1461SOL    HW215846   4.386   4.373   4.900 -0.3826  1.7156 -0.5080
 1462SOL     OW15847   1.038   2.675   5.289 -0.1529  0.4000  0.5373
 1462SOL    HW115848   0.971   2.623   5.334 -2.1224  1.0763 -1.6407
 1462SOL    HW215849   0.990   2.708   5.213 -2.8136 -0.0351  2.0206
 1463SOL     OW15850   1.602   1.538   3.897  0.0743 -0.0259  0.4282
 1463SOL    HW115851   1.608   1.610   3.834  0.6885 -0.1451  0.3462
 1463SOL    HW215852   1.510   1.535   3.922  0.8912  0.6948  3.4749
 1464SOL     OW15853   1.451   2.588  17.466  0.5646 -0.2355  0.2277
 1464SOL    HW115854   1.429   2.662  17.410 -0.2685  1.6709  3.0254
 1464SOL    HW215855   1.367   2.570  17.509  1.3598 -2.2609  0.9495
 1465SOL     OW15856   4.619   0.402   4.278 -0.3703  0.5061  0.0724
 1465SOL    HW115857   4.709   0.383   4.251 -0.2854 -1.1358  1.5479
 1465SOL    HW215858   4.596   0.465   4.209 -0.5944 -0.3236 -0.6039
 1466SOL     OW15859   4.602   1.069   5.194  0.0549  0.7710  0.2186
 1466SOL    HW115860   4.571   1.030   5.111  1.0535 -1.7196  1.0032
 1466SOL    HW215861   4.675   1.124   5.167  0.4503  0.3513  0.4358
 1467SOL     OW15862   0.128   1.591   7.941  0.7425 -0.5992 -0.1775
 1467SOL    HW115863   0.129   1.546   8.026  3.7605  1.7786  1.0585
 1467SOL    HW215864   0.199   1.654   7.953  0.2592  0.1058 -0.9707
 1468SOL     OW15865   4.497   1.013   6.123 -0.2146  0.2617 -0.1909
 1468SOL    HW115866   4.509   0.955   6.049  0.8962  1.1616 -0.7091
 1468SOL    HW215867   4.459   1.084   6.072  1.7497  1.5596  0.1425
 1469SOL     OW15868   4.174   3.626   8.893  0.2635  0.2004 -0.3997
 1469SOL    HW115869   4.254   3.670   8.864 -0.6331  0.5729 -2.2848
 1469SOL    HW215870   4.111   3.670   8.835  0.3998 -1.0935 -1.5104
 1470SOL     OW15871   0.805   4.002   8.789 -0.3562 -0.1866  0.3477
 1470SOL    HW115872   0.756   3.985   8.870  0.1073  0.7478  0.8282
 1470SOL    HW215873   0.794   4.097   8.789  2.7885  0.1637 -2.9947
 1471SOL     OW15874   3.717   0.315  14.216 -0.7409  0.6032  0.3689
 1471SOL    HW115875   3.632   0.304  14.174 -0.3248 -0.3225 -0.2252
 1471SOL    HW215876   3.756   0.228  14.204 -0.6298  0.7950 -0.6202
 1472SOL     OW15877   2.659   0.657  14.681 -0.1940 -0.4687 -0.2231
 1472SOL    HW115878   2.654   0.747  14.714 -0.0887 -0.4761 -0.1863
 1472SOL    HW215879   2.629   0.603  14.755 -2.4865  0.5354 -0.4328
 1473SOL     OW15880   2.843   4.500  13.396  0.0962  0.3811 -0.5757
 1473SOL    HW115881   2.907   4.553  13.348 -1.7645  3.4709  0.3551
 1473SOL    HW215882   2.886   4.467  13.474 -1.3618 -1.0157 -0.3523
 1474SOL     OW15883   3.393   0.978   6.697 -0.3178 -0.6092 -0.4337
 1474SOL    HW115884   3.389   1.033   6.619  1.3115 -1.4195 -1.1020
 1474SOL    HW215885   3.450   0.911   6.659  1.7070  0.3026  0.9959
 1475SOL     OW15886   4.471   1.494   6.723  0.5260  0.0275 -0.0918
 1475SOL    HW115887   4.460   1.400   6.740  2.5391 -0.0306  0.9451
 1475SOL    HW215888   4.472   1.500   6.628  0.6007 -1.3840 -0.1782
 1476SOL     OW15889   2.545   2.637  12.614  0.2317 -0.0919  0.2860
 1476SOL    HW115890   2.544   2.610  12.522 -1.8512  0.1094  0.2497
 1476SOL    HW215891   2.558   2.732  12.607  3.0362 -0.4308  0.8957
 1477SOL     OW15892   1.104   3.831   9.529 -1.3437 -0.4629 -0.4085
 1477SOL    HW115893   1.079   3.866   9.615 -0.5283  1.7336 -1.0689
 1477SOL    HW215894   1.080   3.739   9.535  2.1527 -1.4122 -1.1525
 1478SOL     OW15895   0.631   1.072   4.288  0.2450 -0.3278  0.1785
 1478SOL    HW115896   0.681   1.153   4.277  0.9700 -0.9452 -1.0219
 1478SOL    HW215897   0.576   1.112   4.355 -1.2193 -0.2022 -1.1166
 1479SOL     OW15898   2.238   2.406   2.358 -0.3778  0.1830 -0.0032
 1479SOL    HW115899   2.298   2.462   2.309 -0.4697 -0.3030 -0.6801
 1479SOL    HW215900   2.286   2.403   2.441  0.2850 -1.8883 -0.4546
 1480SOL     OW15901   0.826   2.984   8.578  0.4914  0.3283 -0.3389
 1480SOL    HW115902   0.868   3.058   8.534 -0.5363 -0.1687 -2.1572
 1480SOL    HW215903   0.885   2.911   8.560  2.0176  1.5942 -0.5514
 1481SOL     OW15904   0.429   3.523   3.366 -0.3395 -0.1059 -0.3705
 1481SOL    HW115905   0.504   3.522   3.306 -0.3363  1.1952 -0.3871
 1481SOL    HW215906   0.377   3.446   3.344  1.0672 -0.6166 -1.9630
 1482SOL     OW15907   3.591   3.426   5.080 -0.4600 -0.1496 -0.3468
 1482SOL    HW115908   3.607   3.438   5.174 -2.1534 -1.3405  0.0979
 1482SOL    HW215909   3.667   3.477   5.053  0.0263 -1.4616 -1.4384
 1483SOL     OW15910   2.510   0.170   3.144 -0.0155 -0.2070  0.5957
 1483SOL    HW115911   2.431   0.151   3.194 -1.2282 -0.6042 -1.4420
 1483SOL    HW215912   2.579   0.110   3.172  0.5611  0.1920  0.0137
 1484SOL     OW15913   0.264   2.379   5.124 -0.0181 -0.0897 -0.2964
 1484SOL    HW115914   0.177   2.356   5.092  0.8138 -2.4075 -0.8496
 1484SOL    HW215915   0.254   2.358   5.217  2.0274 -1.2026 -0.3171
 1485SOL     OW15916   2.823   1.312   8.595  0.1472 -0.2034 -0.1139
 1485SOL    HW115917   2.769   1.286   8.670 -1.9247 -0.3238 -1.6374
 1485SOL    HW215918   2.779   1.252   8.534  0.4837  0.9731 -1.5046
 1486SOL     OW15919   3.946   3.299  16.512  0.0313 -0.4123 -0.0126
 1486SOL    HW115920   3.973   3.356  16.440 -2.0164  1.4788  0.7279
 1486SOL    HW215921   3.962   3.215  16.470  0.6919  0.4832 -1.5730
 1487SOL     OW15922   1.620   0.091   3.273  0.5208 -0.4696 -0.6429
 1487SOL    HW115923   1.530   0.093   3.240 -0.2643  1.3949  1.6158
 1487SOL    HW215924   1.647   0.170   3.226 -0.7212  0.2444 -0.1310
 1488SOL     OW15925   1.401   2.740   7.557 -0.0715 -0.1263 -0.1977
 1488SOL    HW115926   1.409   2.646   7.574 -0.8903 -0.6984 -2.9731
 1488SOL    HW215927   1.335   2.763   7.622  0.0119  0.8606 -0.4538
 1489SOL     OW15928   2.444   4.349   6.780  0.0120 -0.1750  0.0822
 1489SOL    HW115929   2.356   4.387   6.778  0.9791  2.0991  0.5267
 1489SOL    HW215930   2.493   4.423   6.816  0.5264  0.1179 -1.2474
 1490SOL     OW15931   3.076   1.502  17.060 -0.2676 -0.0733 -0.6421
 1490SOL    HW115932   3.085   1.582  17.113  2.2594 -1.4760  1.0533
 1490SOL    HW215933   3.072   1.541  16.973 -0.1446  0.0986 -0.5712
 1491SOL     OW15934   0.579   2.227   7.465  0.0084 -0.1739  0.0010
 1491SOL    HW115935   0.494   2.266   7.485  0.2217  0.9293 -1.2072
 1491SOL    HW215936   0.634   2.305   7.459  0.6597 -0.5492  1.1015
 1492SOL     OW15937   1.502   0.222   5.316 -0.5192 -0.4106  0.1095
 1492SOL    HW115938   1.551   0.144   5.339  2.2115  1.6991  1.3548
 1492SOL    HW215939   1.413   0.188   5.330 -0.5872  0.2257  1.2300
 1493SOL     OW15940   0.875   1.233   9.148  0.1546  0.6935  0.2055
 1493SOL    HW115941   0.855   1.214   9.240 -2.5984  2.0602 -0.0834
 1493SOL    HW215942   0.969   1.218   9.140 -0.2470 -2.2150  1.0400
 1494SOL     OW15943   4.348   3.855  13.865  0.0380  0.0353 -0.2960
 1494SOL    HW115944   4.350   3.945  13.900 -0.6305  0.0613 -0.3274
 1494SOL    HW215945   4.260   3.854  13.827 -0.9229  0.8630  1.8618
 1495SOL     OW15946   4.174   1.369   2.411  0.0720  0.5641 -0.2909
 1495SOL    HW115947   4.084   1.343   2.390  0.5395  0.7654 -2.6012
 1495SOL    HW215948   4.224   1.289   2.395 -2.7931 -1.2116 -0.4532
 1496SOL     OW15949   3.293   3.237   7.269 -0.2459  0.0687  0.6157
 1496SOL    HW115950   3.209   3.202   7.298  1.0701 -2.4574  1.4194
 1496SOL    HW215951   3.346   3.174   7.319 -0.6137 -1.5965 -1.0971
 1497SOL     OW15952   0.302   0.712   6.238 -0.0596  0.8096  0.0282
 1497SOL    HW115953   0.346   0.645   6.291 -0.7636  0.0586 -0.3422
 1497SOL    HW215954   0.367   0.782   6.226 -1.9056  2.6012  0.4196
 1498SOL     OW15955   1.630   3.205   4.580  0.0504  0.3715 -0.1600
 1498SOL    HW115956   1.595   3.118   4.562  0.8879 -0.1128  0.5281
 1498SOL    HW215957   1.709   3.182   4.629 -1.4512  0.7444  2.4399
 1499SOL     OW15958   2.196   0.823   3.993  0.3867 -0.3483  0.3328
 1499SOL    HW115959   2.272   0.793   3.943  0.6550  0.2657  0.3809
 1499SOL    HW215960   2.147   0.865   3.922 -0.4601  0.0601  1.1563
 1500SOL     OW15961   4.000   0.926  12.289 -0.1369  0.3133 -0.1461
 1500SOL    HW115962   3.980   0.961  12.202  3.2871  2.0741 -0.2408
 1500SOL    HW215963   4.048   0.847  12.263 -0.0111 -0.1709  1.5962
 1501SOL     OW15964   1.244   1.642   3.750  0.1146 -0.1632  0.3640
 1501SOL    HW115965   1.253   1.733   3.722 -1.8598 -0.0294  0.1435
 1501SOL    HW215966   1.273   1.638   3.842  0.9028  1.4164  0.1795
 1502SOL     OW15967   1.647   0.513  12.218 -0.2896  0.3130  0.3725
 1502SOL    HW115968   1.669   0.530  12.126 -2.1039  0.7056  0.0024
 1502SOL    HW215969   1.710   0.444  12.240 -0.1416  0.3200 -0.0150
 1503SOL     OW15970   4.500   3.113   8.710  0.3468  0.0441  0.9923
 1503SOL    HW115971   4.457   3.194   8.684  0.6051 -0.5131 -1.1949
 1503SOL    HW215972   4.569   3.102   8.645 -0.4054  2.0305 -0.1475
 1504SOL     OW15973   3.927   1.766  11.784 -0.0543  0.0175 -0.1711
 1504SOL    HW115974   3.952   1.819  11.860 -0.0342 -0.9741  0.5161
 1504SOL    HW215975   3.840   1.799  11.765 -1.0595 -1.5117  1.7438
 1505SOL     OW15976   2.485   0.820   6.098 -0.1089  0.1248  0.1129
 1505SOL    HW115977   2.402   0.773   6.101  0.1466 -0.2929  0.5921
 1505SOL    HW215978   2.511   0.815   6.006  0.6105 -0.6452  0.3545
 1506SOL     OW15979   3.741   4.691  14.480  0.2023  0.1859  0.1140
 1506SOL    HW115980   3.748   4.712  14.573 -1.7922 -1.9855  0.7552
 1506SOL    HW215981   3.720   4.598  14.489  0.2909  0.4512  3.1126
 1507SOL     OW15982   2.036   2.218   2.701 -0.3849 -0.0074  0.8056
 1507SOL    HW115983   2.075   2.131   2.698 -1.1200 -0.1899 -2.6848
 1507SOL    HW215984   1.943   2.204   2.721 -0.0643 -2.1791  0.7346
 1508SOL     OW15985   0.742   3.150  11.277  0.8404  0.0415  0.0800
 1508SOL    HW115986   0.835   3.139  11.258  0.8007  1.5076 -0.9687
 1508SOL    HW215987   0.741   3.236  11.320 -0.0642  0.7124 -1.2891
 1509SOL     OW15988   0.720   0.951   3.791  1.0169 -0.3188  0.1215
 1509SOL    HW115989   0.811   0.922   3.787  0.6283 -1.4757 -0.1038
 1509SOL    HW215990   0.699   0.933   3.883 -1.4923  0.4794 -0.2776
 1510SOL     OW15991   3.217   4.186   7.649 -0.5354 -0.4075 -0.4729
 1510SOL    HW115992   3.194   4.269   7.607  1.5020 -0.4312 -1.6177
 1510SOL    HW215993   3.304   4.211   7.679 -0.6938 -0.8320  0.3328
 1511SOL     OW15994   1.759   0.611  11.956  0.2158 -0.2430  0.2952
 1511SOL    HW115995   1.780   0.639  11.867  1.8921 -2.6410 -0.0828
 1511SOL    HW215996   1.665   0.627  11.958  0.6492  2.3251 -0.3654
 1512SOL     OW15997   0.423   0.217   2.516  0.3624 -0.3496  0.1009
 1512SOL    HW115998   0.365   0.178   2.451 -0.9074  0.6644  0.6370
 1512SOL    HW215999   0.416   0.307   2.484  0.9844 -1.8601 -4.2692
 1513SOL     OW16000   1.409   3.426   6.529  0.5530 -0.2443 -0.4093
 1513SOL    HW116001   1.433   3.438   6.620  0.8637  2.1157 -0.7944
 1513SOL    HW216002   1.389   3.333   6.533 -0.0359 -0.0650  0.6615
 1514SOL     OW16003   3.711   2.406   2.556  0.0669  0.3625 -0.2750
 1514SOL    HW116004   3.647   2.477   2.555 -3.1441 -2.5019  0.2535
 1514SOL    HW216005   3.660   2.329   2.531  2.2502 -1.0757 -0.2559
 1515SOL     OW16006   1.410   0.771  16.333  0.2239 -0.8928 -0.0259
 1515SOL    HW116007   1.473   0.701  16.316  0.1231 -1.2316  0.9798
 1515SOL    HW216008   1.347   0.722  16.386 -0.2856 -1.3365 -1.0328
 1516SOL     OW16009   4.566   4.165   8.249 -0.1923  0.0817  0.5275
 1516SOL    HW116010   4.634   4.206   8.303 -0.1744 -0.6103  1.0341
 1516SOL    HW216011   4.597   4.185   8.160 -0.6757 -0.5224  0.2212
 1517SOL     OW16012   3.124   3.144   4.698  0.6395 -0.4947 -0.3775
 1517SOL    HW116013   3.036   3.111   4.714  1.0918 -1.0624  0.9632
 1517SOL    HW216014   3.109   3.228   4.656 -0.3524  1.5571  4.1496
 1518SOL     OW16015   1.260   2.104   6.530  0.0124  0.1217  0.0281
 1518SOL    HW116016   1.243   2.165   6.603 -1.0202  0.8810 -0.8514
 1518SOL    HW216017   1.175   2.072   6.500  0.6235 -2.0090  0.5533
 1519SOL     OW16018   4.132   0.606  10.064  0.2031 -0.4840 -0.2449
 1519SOL    HW116019   4.162   0.564  10.144  3.0729 -1.7171 -1.9986
 1519SOL    HW216020   4.116   0.529  10.010 -0.9038 -2.0668  2.3521
 1520SOL     OW16021   0.904   4.521   4.912 -0.2300 -0.3419  0.1212
 1520SOL    HW116022   0.940   4.454   4.969 -0.4904  0.4128  1.1903
 1520SOL    HW216023   0.973   4.588   4.910  2.0865 -2.7592 -0.7963
 1521SOL     OW16024   2.382   0.272   8.530  0.3250 -0.2257 -0.3084
 1521SOL    HW116025   2.460   0.321   8.556  0.8973 -1.3697  0.1743
 1521SOL    HW216026   2.344   0.253   8.616  1.3346  1.3995  0.4903
 1522SOL     OW16027   1.042   0.836  15.489  0.1666  0.3728  0.3776
 1522SOL    HW116028   1.081   0.749  15.491 -1.0271 -0.2264 -1.8258
 1522SOL    HW216029   0.993   0.831  15.571  0.4235 -1.3278  0.4178
 1523SOL     OW16030   0.243   3.920   7.972 -0.6602  0.4848  0.0610
 1523SOL    HW116031   0.224   3.974   8.048 -1.8101 -1.0303  0.8512
 1523SOL    HW216032   0.290   3.980   7.914 -0.5973 -0.7814 -1.1845
 1524SOL     OW16033   4.324   0.597   0.560 -0.1068  0.1017  0.1857
 1524SOL    HW116034   4.379   0.524   0.585 -1.2950 -0.2210  1.8713
 1524SOL    HW216035   4.391   0.664   0.548 -0.2645  0.1265 -0.5284
 1525SOL     OW16036   3.403   3.931   8.686  0.7898  0.6255 -0.0776
 1525SOL    HW116037   3.392   3.875   8.763 -1.4585 -2.1129 -2.4268
 1525SOL    HW216038   3.419   4.017   8.724 -0.6563  1.0420 -0.4260
 1526SOL     OW16039   0.463   2.645   2.867 -0.0194 -0.2841  0.3817
 1526SOL    HW116040   0.468   2.731   2.826  0.1555 -0.0178  0.9588
 1526SOL    HW216041   0.387   2.660   2.924  1.1727  0.1388  1.8526
 1527SOL     OW16042   1.626   0.815   5.673  0.2428 -0.3714  0.4654
 1527SOL    HW116043   1.687   0.784   5.606 -0.2093 -2.4459  1.0410
 1527SOL    HW216044   1.591   0.730   5.698  0.9888 -0.6769  0.4719
 1528SOL     OW16045   0.618   4.321   0.197  0.4670  0.0316  0.4771
 1528SOL    HW116046   0.564   4.287   0.268 -0.4723  1.0952  0.2594
 1528SOL    HW216047   0.708   4.321   0.232  1.4568 -1.7561 -2.0521
 1529SOL     OW16048   0.958   4.347   5.157 -0.6439 -0.2281 -0.0657
 1529SOL    HW116049   1.048   4.345   5.125 -0.1511  0.1810  1.2980
 1529SOL    HW216050   0.957   4.275   5.221  1.9875  1.7126  2.1429
 1530SOL     OW16051   3.073   2.381   0.059 -0.6328 -0.4329  0.2426
 1530SOL    HW116052   3.100   2.366   0.150 -0.9684  0.5075  0.4976
 1530SOL    HW216053   3.096   2.299   0.015  0.5918  0.9733 -1.6954
 1531SOL     OW16054   2.023   3.017  13.034  0.4317  0.3819  0.0714
 1531SOL    HW116055   2.104   2.968  13.048 -0.2531 -0.4189  1.2204
 1531SOL    HW216056   1.974   3.002  13.115 -1.2230 -1.5297 -1.2920
 1532SOL     OW16057   1.874   0.093   9.454 -0.3443 -0.6728  0.6537
 1532SOL    HW116058   1.885   0.087   9.549  0.9545  0.1005  0.5438
 1532SOL    HW216059   1.826   0.175   9.444  0.3176 -0.3703 -0.0153
 1533SOL     OW16060   3.231   4.135   5.792 -0.7542 -0.0919 -0.2658
 1533SOL    HW116061   3.183   4.210   5.757  0.2360 -0.7671 -3.0642
 1533SOL    HW216062   3.285   4.112   5.716 -1.0374  0.6584 -0.6843
 1534SOL     OW16063   4.082   3.222   1.393  0.6162  0.0026 -0.1012
 1534SOL    HW116064   4.106   3.130   1.404 -0.1530 -0.3769 -1.6756
 1534SOL    HW216065   4.043   3.241   1.478  0.5690 -3.3799  0.6236
 1535SOL     OW16066   2.007   2.539   8.532  0.2507 -0.2242  0.3971
 1535SOL    HW116067   2.075   2.474   8.517 -0.0362 -1.0819  2.9004
 1535SOL    HW216068   1.934   2.477   8.526 -0.2474  0.4086 -0.1144
 1536SOL     OW16069   2.726   2.649  17.496 -0.0165  0.3243 -0.0526
 1536SOL    HW116070   2.670   2.687  17.564 -1.8053 -0.5730 -0.9966
 1536SOL    HW216071   2.662   2.594  17.450 -0.7992  0.7618  0.4980
 1537SOL     OW16072   2.881   0.398   4.696 -0.3244 -0.1689  0.9628
 1537SOL    HW116073   2.795   0.438   4.707 -0.2041 -0.1152  1.6865
 1537SOL    HW216074   2.881   0.365   4.606 -0.9308  1.0878  0.5116
 1538SOL     OW16075   0.179   4.386   2.297 -0.1413  0.3375  0.5928
 1538SOL    HW116076   0.215   4.475   2.293  1.8025 -0.5166 -0.7235
 1538SOL    HW216077   0.214   4.342   2.374 -0.0542  0.2525  0.5036
 1539SOL     OW16078   1.024   0.802   3.177  0.3166 -0.3656  0.0677
 1539SOL    HW116079   0.996   0.886   3.142 -0.5603  0.1426  2.0466
 1539SOL    HW216080   1.092   0.772   3.116 -1.0739 -0.5053 -1.4104
 1540SOL     OW16081   0.065   1.458   6.118 -0.0251 -0.1631 -0.7738
 1540SOL    HW116082   0.101   1.506   6.193 -0.1961 -1.5715  0.2350
 1540SOL    HW216083   0.147   1.410   6.101  0.1803  0.2248 -0.8701
 1541SOL     OW16084   0.154   2.639   4.342  0.7468  0.0386 -0.0756
 1541SOL    HW116085   0.087   2.595   4.290  0.4828  1.0906 -0.6308
 1541SOL    HW216086   0.109   2.723   4.355  1.4137  0.4238 -0.2568
 1542SOL     OW16087   0.787   1.290  14.761 -0.3897  0.2124 -0.1662
 1542SOL    HW116088   0.829   1.259  14.681 -2.1033 -1.7412 -0.2860
 1542SOL    HW216089   0.858   1.273  14.824 -1.4026 -1.0418  0.6308
 1543SOL     OW16090   0.416   3.236   4.308  0.1719  0.1139  0.2554
 1543SOL    HW116091   0.460   3.194   4.382 -0.9707  1.2691  1.5855
 1543SOL    HW216092   0.427   3.165   4.244 -1.6044  0.7818 -0.7784
 1544SOL     OW16093   1.322   0.696   6.247 -0.5754 -0.1196  0.4192
 1544SOL    HW116094   1.248   0.653   6.205 -2.6943  2.7006  1.2445
 1544SOL    HW216095   1.293   0.787   6.244 -0.0791  0.1166  2.6301
 1545SOL     OW16096   3.105   1.469   6.004 -0.0269  0.0007 -0.0679
 1545SOL    HW116097   3.065   1.401   5.950  0.9329 -1.9102  1.6550
 1545SOL    HW216098   3.181   1.502   5.956  0.7950  1.3175  2.1149
 1546SOL     OW16099   0.001   4.481  12.844  0.4488 -0.0599  0.5188
 1546SOL    HW116100   0.059   4.406  12.845 -0.8092 -1.0335  0.4201
 1546SOL    HW216101   4.653   4.436  12.797 -0.3212 -0.3563  1.9627
 1547SOL     OW16102   2.059   3.701  16.082  0.5123  0.0479  0.0080
 1547SOL    HW116103   1.968   3.732  16.088  1.3847  2.6395 -0.1848
 1547SOL    HW216104   2.103   3.786  16.075  0.8669 -0.0972  0.5330
 1548SOL     OW16105   0.871   1.645   4.659  0.0058  0.7362  0.4656
 1548SOL    HW116106   0.885   1.693   4.577 -1.2383  0.0390 -0.1634
 1548SOL    HW216107   0.886   1.554   4.634  0.9222  0.2358  2.8379
 1549SOL     OW16108   1.774   0.742  13.329 -0.0064  0.0786  0.1181
 1549SOL    HW116109   1.696   0.714  13.377  1.3390 -0.8570  1.7735
 1549SOL    HW216110   1.840   0.678  13.354  0.2130  0.2618  0.0024
 1550SOL     OW16111   2.318   0.947   6.784 -0.0678 -0.8261  0.5920
 1550SOL    HW116112   2.281   0.949   6.696  1.3507  0.4632  0.0283
 1550SOL    HW216113   2.247   0.979   6.839  0.2150  1.7687 -0.5629
 1551SOL     OW16114   0.638   3.633  12.785 -0.4050 -0.0989  0.5813
 1551SOL    HW116115   0.547   3.605  12.787 -0.9762  1.8646  1.2114
 1551SOL    HW216116   0.631   3.725  12.807 -3.6298 -0.2903  0.3236
 1552SOL     OW16117   2.005   1.218   9.118  0.0808  0.6483 -0.1294
 1552SOL    HW116118   1.918   1.258   9.120 -0.0919  0.2421  0.5842
 1552SOL    HW216119   2.050   1.270   9.184  0.9758  1.0013 -1.0177
 1553SOL     OW16120   2.774   0.606   6.053  0.7016 -0.2480 -0.2900
 1553SOL    HW116121   2.784   0.573   5.964 -0.9797  1.3334 -1.0788
 1553SOL    HW216122   2.857   0.592   6.100  0.7554  1.2721  0.0929
 1554SOL     OW16123   1.061   3.882   9.103  0.3777  0.2623 -0.3430
 1554SOL    HW116124   0.993   3.944   9.130  1.1681  0.1316  1.9245
 1554SOL    HW216125   1.025   3.797   9.127  1.4796 -0.2676 -0.5640
 1555SOL     OW16126   2.407   3.255   3.172 -0.4282  0.2298 -0.1992
 1555SOL    HW116127   2.442   3.301   3.095  2.6317 -1.0653  0.3900
 1555SOL    HW216128   2.454   3.302   3.242 -0.0117 -1.3846  0.6041
 1556SOL     OW16129   2.877   3.065  10.223  0.0040 -0.1456  0.2712
 1556SOL    HW116130   2.955   3.085  10.275 -0.1753  0.1382  0.4309
 1556SOL    HW216131   2.834   3.009  10.288 -0.9003  0.1134 -0.1194
 1557SOL     OW16132   0.711   3.168   5.462  0.0348 -0.1227  0.3926
 1557SOL    HW116133   0.626   3.137   5.429  1.5796 -3.9726  0.0175
 1557SOL    HW216134   0.732   3.102   5.528 -2.9369 -1.2083  0.2626
 1558SOL     OW16135   0.521   3.254   0.826  0.1343 -0.4049  0.0271
 1558SOL    HW116136   0.442   3.255   0.880 -0.6165  1.5365 -1.1254
 1558SOL    HW216137   0.488   3.228   0.740 -0.1708 -2.1457  0.6597
 1559SOL     OW16138   2.108   2.899   1.467 -0.0250 -0.5404  0.1916
 1559SOL    HW116139   2.132   2.828   1.407 -1.2056 -0.0650 -0.8137
 1559SOL    HW216140   2.198   2.931   1.480  0.2750 -1.5988  0.7984
 1560SOL     OW16141   0.509   2.926  16.596  0.2047 -0.1314 -0.3946
 1560SOL    HW116142   0.432   2.935  16.652 -0.4297  0.9362 -1.4553
 1560SOL    HW216143   0.576   2.920  16.665 -1.6494  1.3650  1.5460
 1561SOL     OW16144   1.538   0.438   8.096 -0.1882  0.1829  0.4718
 1561SOL    HW116145   1.466   0.487   8.135  0.5384  0.7188  1.1490
 1561SOL    HW216146   1.492   0.388   8.028  0.7068 -0.5652  0.4206
 1562SOL     OW16147   3.852   0.727  12.943 -0.3116  0.2717 -0.1632
 1562SOL    HW116148   3.821   0.719  12.853  1.1347  0.3435 -0.6776
 1562SOL    HW216149   3.881   0.636  12.952 -1.9985 -0.2214  0.2870
 1563SOL     OW16150   0.879   2.752   5.060 -0.0236  1.1401 -0.0649
 1563SOL    HW116151   0.957   2.731   5.009  0.8680  1.9449  0.9554
 1563SOL    HW216152   0.821   2.681   5.034  0.0860  0.5569  1.2949
 1564SOL     OW16153   0.319   3.927   4.088  0.0881 -0.4532 -0.3773
 1564SOL    HW116154   0.364   3.844   4.073 -0.0315 -0.3225 -1.4436
 1564SOL    HW216155   0.295   3.948   3.998 -0.4499  0.0565 -0.1226
 1565SOL     OW16156   2.831   1.845  15.865  0.3301  0.5365 -0.3930
 1565SOL    HW116157   2.847   1.795  15.785  0.7346  0.0520 -0.0124
 1565SOL    HW216158   2.916   1.890  15.865  0.3405  0.5110  1.3829
 1566SOL     OW16159   4.146   3.001   8.024  0.1502  0.1478 -0.0972
 1566SOL    HW116160   4.115   2.912   8.042  1.0175 -0.0880  0.2340
 1566SOL    HW216161   4.070   3.055   8.043 -0.4233 -1.3343  1.7503
 1567SOL     OW16162   3.375   3.803  17.691 -0.1149 -0.5012  0.0811
 1567SOL    HW116163   3.310   3.760  17.635 -0.2701 -1.8717  1.2923
 1567SOL    HW216164   3.328   3.875   0.039  1.8881  0.0127  1.4784
 1568SOL     OW16165   0.981   0.735  17.678 -0.1337 -0.1376 -0.7495
 1568SOL    HW116166   0.907   0.791  17.657 -2.3590 -2.1864  1.6887
 1568SOL    HW216167   0.937   0.670   0.039  1.3958 -0.2823  0.3080
 1569SOL     OW16168   2.595   2.688   0.028  0.4976 -0.0801 -0.8755
 1569SOL    HW116169   2.554   2.736   0.100 -1.7951  0.5997 -2.6083
 1569SOL    HW216170   2.685   2.685   0.060  0.9852  0.3526 -2.1867
 1570SOL     OW16171   0.251   2.448   0.760 -0.1077 -0.0687  0.3860
 1570SOL    HW116172   0.306   2.389   0.811 -0.1709 -1.1974 -0.8758
 1570SOL    HW216173   0.167   2.451   0.807 -0.3226  0.4556 -0.0318
 1571SOL     OW16174   0.756   1.672  10.610  0.4151 -0.0582  0.2293
 1571SOL    HW116175   0.718   1.587  10.590 -0.7775  0.5866 -0.2438
 1571SOL    HW216176   0.702   1.716  10.676  2.4695 -0.0534  1.9041
 1572SOL     OW16177   4.689   2.826   7.530 -0.5744  0.9192 -0.2774
 1572SOL    HW116178   0.049   2.819   7.484 -0.3683  1.3661  0.0263
 1572SOL    HW216179   4.685   2.734   7.555 -1.1577  0.9031 -0.4162
 1573SOL     OW16180   1.996   3.205   0.365  0.7911 -0.2111  0.1159
 1573SOL    HW116181   2.042   3.220   0.282  0.0016  0.4639 -0.2003
 1573SOL    HW216182   1.939   3.282   0.366 -0.6837 -1.2367 -3.4281
 1574SOL     OW16183   0.566   3.303   9.006  0.3018 -0.5006 -0.4162
 1574SOL    HW116184   0.567   3.270   8.916  0.3808 -0.3901 -0.4554
 1574SOL    HW216185   0.494   3.365   9.008 -0.0893 -1.0769  2.9512
 1575SOL     OW16186   1.518   1.170   3.953  0.2147  0.7218  0.0314
 1575SOL    HW116187   1.430   1.206   3.968 -0.3893 -0.8704  0.2722
 1575SOL    HW216188   1.546   1.150   4.042  2.0571 -2.7214 -1.3192
 1576SOL     OW16189   1.226   1.909   6.213  0.0873  0.1649  0.1969
 1576SOL    HW116190   1.308   1.916   6.163 -0.1532  2.3235  0.1084
 1576SOL    HW216191   1.165   1.975   6.179 -1.3600 -0.7313  1.0912
 1577SOL     OW16192   3.436   2.910   8.784 -0.0959 -0.1536 -0.1344
 1577SOL    HW116193   3.385   2.949   8.714  1.2940 -1.0634 -1.6584
 1577SOL    HW216194   3.373   2.897   8.855  1.0272 -2.1332  0.5215
 1578SOL     OW16195   0.563   2.996  11.137 -0.7514  0.4698  0.1118
 1578SOL    HW116196   0.492   3.018  11.197 -1.5846 -1.2009 -0.2355
 1578SOL    HW216197   0.629   3.057  11.169 -0.3712  1.5830 -2.8876
 1579SOL     OW16198   3.748   3.667   4.396 -0.1028 -0.0676  0.1144
 1579SOL    HW116199   3.830   3.654   4.443 -1.9299  0.1157  3.4020
 1579SOL    HW216200   3.768   3.634   4.309 -2.2647  3.7746 -1.8803
 1580SOL     OW16201   4.219   2.396   1.546  0.2844 -0.2577  0.0460
 1580SOL    HW116202   4.135   2.350   1.553  0.3822 -0.7042 -1.9513
 1580SOL    HW216203   4.280   2.325   1.525  0.4113  0.2246 -1.1877
 1581SOL     OW16204   1.998   0.553   5.021  0.0009 -0.2598  0.2444
 1581SOL    HW116205   2.074   0.519   5.067 -1.1008 -0.6391  1.7684
 1581SOL    HW216206   1.939   0.529   5.092 -1.9803 -1.2804 -1.7374
 1582SOL     OW16207   1.141   1.673  16.866 -0.2899  0.2270  0.2286
 1582SOL    HW116208   1.182   1.660  16.780  2.1256  1.4640  1.2144
 1582SOL    HW216209   1.067   1.725  16.835 -1.4670 -1.9668 -0.6458
 1583SOL     OW16210   1.726   3.343   4.893 -0.4118  0.3140 -0.3903
 1583SOL    HW116211   1.633   3.324   4.888 -0.0259 -1.4328 -0.8616
 1583SOL    HW216212   1.723   3.392   4.975  0.2117 -0.5419  0.1403
 1584SOL     OW16213   3.936   4.617  15.537 -0.3191 -0.2477 -0.3495
 1584SOL    HW116214   3.978   4.699  15.564 -2.1963  0.7893 -0.6407
 1584SOL    HW216215   3.899   4.640  15.452 -0.8142 -3.9905 -1.1787
 1585SOL     OW16216   1.389   1.823   7.497 -0.2319 -0.1782 -0.0569
 1585SOL    HW116217   1.423   1.894   7.550 -0.6119  0.6139 -0.8846
 1585SOL    HW216218   1.347   1.762   7.558  0.4172 -3.8973 -3.3112
 1586SOL     OW16219   1.226   3.916   7.012  0.3126  0.6271 -0.3202
 1586SOL    HW116220   1.284   3.919   7.088 -0.8155 -0.8458  0.6106
 1586SOL    HW216221   1.165   3.849   7.042  0.5362  0.6455  0.1706
 1587SOL     OW16222   3.641   3.041   1.088  0.2595  0.1010  0.0239
 1587SOL    HW116223   3.586   3.119   1.097 -1.1980 -0.7652 -1.4762
 1587SOL    HW216224   3.635   3.023   0.995 -2.0172 -1.1311  0.4248
 1588SOL     OW16225   4.358   1.154   1.167  0.0755 -0.2169  0.2288
 1588SOL    HW116226   4.448   1.135   1.141  0.2958  0.2681  0.6243
 1588SOL    HW216227   4.364   1.125   1.258 -0.8211 -0.1481  0.3121
 1589SOL     OW16228   0.911   2.137   9.172 -0.4551  0.4212  0.3169
 1589SOL    HW116229   0.983   2.200   9.179  0.5941 -0.7281 -0.1919
 1589SOL    HW216230   0.899   2.112   9.264  1.2435 -2.2675 -0.1786
 1590SOL     OW16231   3.921   4.539  14.850 -0.4131  0.2783 -0.3482
 1590SOL    HW116232   3.939   4.611  14.911 -3.0058  0.7092 -0.0920
 1590SOL    HW216233   3.970   4.571  14.774  2.5839 -2.0408  0.5785
 1591SOL     OW16234   1.968   0.027   0.671  0.5749 -0.1014  0.2070
 1591SOL    HW116235   2.063   0.020   0.673  0.5090 -1.3762 -1.9496
 1591SOL    HW216236   1.942   4.702   0.750 -1.1475  0.0752 -0.2419
 1592SOL     OW16237   2.598   0.844  10.909 -0.1977 -0.2616 -0.1109
 1592SOL    HW116238   2.615   0.917  10.850  0.1862  1.0295  1.5972
 1592SOL    HW216239   2.505   0.828  10.889 -0.6733  2.2695  0.0633
 1593SOL     OW16240   4.259   3.940   2.309 -0.1111 -0.4789  0.0739
 1593SOL    HW116241   4.184   3.916   2.255  0.0292 -0.1563 -0.2559
 1593SOL    HW216242   4.311   3.859   2.301 -0.0370 -0.2630 -1.5071
 1594SOL     OW16243   4.501   1.358  13.685 -0.0417  0.0454  0.0760
 1594SOL    HW116244   4.489   1.402  13.600 -1.0649 -2.2134 -0.9521
 1594SOL    HW216245   4.579   1.407  13.714  1.4469 -0.9160 -2.2908
 1595SOL     OW16246   1.301   0.136   4.270 -0.0946  0.8097  0.0824
 1595SOL    HW116247   1.326   0.090   4.190 -2.2755  1.2837 -0.8705
 1595SOL    HW216248   1.371   0.202   4.268  1.8195 -1.1851  1.2062
 1596SOL     OW16249   2.478   2.213   3.897  0.2315  0.3265  0.7145
 1596SOL    HW116250   2.483   2.147   3.967  1.4926  1.5670  1.8067
 1596SOL    HW216251   2.529   2.284   3.935  0.3870  0.9492 -0.6585
 1597SOL     OW16252   0.937   0.099   6.427 -0.0214 -0.2466  0.1449
 1597SOL    HW116253   0.883   0.060   6.358 -0.9730 -0.8471  1.2210
 1597SOL    HW216254   1.022   0.105   6.383  0.3828  0.4352  1.0152
 1598SOL     OW16255   0.704   0.076   1.646 -0.4718  0.4773  0.2551
 1598SOL    HW116256   0.742   0.144   1.590 -0.8721  0.9550  0.5776
 1598SOL    HW216257   0.672   0.012   1.582 -0.4057 -0.6591  1.3763
 1599SOL     OW16258   3.678   0.238   6.587  0.4469  0.3735 -0.6619
 1599SOL    HW116259   3.695   0.259   6.679 -0.9921 -1.5406  0.0568
 1599SOL    HW216260   3.703   0.320   6.545 -0.0829  0.1209 -1.4735
 1600SOL     OW16261   3.639   2.936   1.998 -0.3606  0.0571 -0.2273
 1600SOL    HW116262   3.701   2.920   1.926 -0.2479 -0.7468  0.0419
 1600SOL    HW216263   3.645   3.030   2.014 -0.6752 -0.2531  1.6249
 1601SOL     OW16264   4.140   4.529   8.503  0.4929 -0.2481 -0.1051
 1601SOL    HW116265   4.047   4.527   8.478  0.2630  0.1191  0.7282
 1601SOL    HW216266   4.166   4.619   8.483 -0.4971 -0.0660 -0.5888
 1602SOL     OW16267   1.508   3.788   8.317 -0.0569  0.5573  0.3890
 1602SOL    HW116268   1.546   3.864   8.274 -0.7540  0.1344 -0.9579
 1602SOL    HW216269   1.456   3.828   8.386 -0.3097 -0.3658  0.7388
 1603SOL     OW16270   3.049   4.570   6.432  0.1341  0.7112  0.0886
 1603SOL    HW116271   3.134   4.534   6.407  0.2762  1.7054 -0.8672
 1603SOL    HW216272   3.017   4.609   6.350 -1.6934 -2.3862 -0.6845
 1604SOL     OW16273   3.892   3.110   8.989 -0.6547 -0.1459  0.6443
 1604SOL    HW116274   3.890   3.115   8.893  0.7224  0.8734  0.6861
 1604SOL    HW216275   3.984   3.108   9.012 -0.0239 -0.8442 -1.9360
 1605SOL     OW16276   0.397   0.190  11.268  0.0658  1.2356 -0.0090
 1605SOL    HW116277   0.410   0.103  11.230 -1.0616 -0.0459  2.5534
 1605SOL    HW216278   0.418   0.168  11.358  0.1985  0.9656 -0.1066
 1606SOL     OW16279   3.127   3.417   3.887  0.3434 -0.1877  0.3265
 1606SOL    HW116280   3.114   3.325   3.911  2.3725 -1.0232 -1.7748
 1606SOL    HW216281   3.043   3.439   3.847  0.5641  1.9222  1.0081
 1607SOL     OW16282   1.927   2.834   8.794 -0.3542 -0.3248 -0.5055
 1607SOL    HW116283   1.940   2.895   8.721 -3.1029  0.1702 -0.5678
 1607SOL    HW216284   2.019   2.832   8.823 -0.3295 -0.0844 -0.5632
 1608SOL     OW16285   2.206   4.208   7.704 -0.1590 -0.1559  0.3425
 1608SOL    HW116286   2.168   4.270   7.767  0.3468 -1.1400  1.6038
 1608SOL    HW216287   2.277   4.265   7.674  1.2802 -2.2585 -0.2417
 1609SOL     OW16288   0.957   1.412  15.920 -0.2313 -0.5018 -0.0806
 1609SOL    HW116289   0.885   1.414  15.983  0.2215 -0.3152  0.4268
 1609SOL    HW216290   0.941   1.325  15.884  0.6920 -0.7287  0.0688
 1610SOL     OW16291   4.245   0.060  12.115 -0.1288 -0.2484 -0.5124
 1610SOL    HW116292   4.174   0.074  12.051  0.6899  0.3846 -1.2890
 1610SOL    HW216293   4.295   0.141  12.123 -0.4552 -0.2084  1.1188
 1611SOL     OW16294   4.283   0.943  13.213  0.3846  0.3171  0.5262
 1611SOL    HW116295   4.374   0.935  13.184 -0.6002  0.6093 -2.6695
 1611SOL    HW216296   4.246   0.867  13.168  1.7421  0.2916 -0.5280
 1612SOL     OW16297   3.075   1.002   0.509  0.4692  0.0950  0.1090
 1612SOL    HW116298   3.110   0.913   0.509  2.5500  0.9069  0.4867
 1612SOL    HW216299   3.022   1.002   0.588  1.1032  0.5115  0.5310
 1613SOL     OW16300   4.345   1.041   7.759  0.0897  0.4440 -0.0818
 1613SOL    HW116301   4.313   0.961   7.800  0.7368  0.9511  1.4448
 1613SOL    HW216302   4.275   1.105   7.771  0.9745  1.8890 -2.5393
 1614SOL     OW16303   0.752   4.523   8.733 -0.0965  0.3766  0.2374
 1614SOL    HW116304   0.736   4.544   8.641 -1.8488 -0.5760  0.3373
 1614SOL    HW216305   0.697   4.579   8.788 -0.3662 -0.7680  1.1406
 1615SOL     OW16306   0.467   1.348  12.739 -0.0181  0.0286  0.2403
 1615SOL    HW116307   0.408   1.423  12.732 -0.2419 -0.1703  0.0179
 1615SOL    HW216308   0.546   1.375  12.693  0.6291 -0.6364  0.9489
 1616SOL     OW16309   3.663   3.192   7.178  0.0518 -0.2997 -0.0235
 1616SOL    HW116310   3.709   3.174   7.260 -1.1715  1.4919  1.0374
 1616SOL    HW216311   3.663   3.104   7.140  0.4027  0.4095 -1.7021
 1617SOL     OW16312   2.671   1.613   9.269 -0.4182 -0.3526  0.6364
 1617SOL    HW116313   2.704   1.525   9.288 -1.8687 -1.0210  0.0413
 1617SOL    HW216314   2.760   1.648   9.265 -0.5758 -0.2296 -2.1657
 1618SOL     OW16315   4.065   4.050  10.092 -0.2194 -0.6135 -0.1434
 1618SOL    HW116316   4.070   4.124  10.153 -0.1461 -0.2981 -0.5287
 1618SOL    HW216317   3.997   4.004  10.141 -0.5637  0.5149  0.4650
 1619SOL     OW16318   1.005   4.629   4.622  0.9441  0.2299  0.4829
 1619SOL    HW116319   0.954   4.636   4.542 -0.1018  0.3626  1.1496
 1619SOL    HW216320   0.938   4.606   4.687 -0.7697 -1.2206 -1.8028
 1620SOL     OW16321   3.315   1.597   5.846  0.3845  0.1399  0.1639
 1620SOL    HW116322   3.386   1.634   5.898  0.3664  0.7598 -0.2611
 1620SOL    HW216323   3.306   1.677   5.794  0.8687  0.0043 -0.1356
 1621SOL     OW16324   0.537   3.044   7.927  0.2795 -0.1862 -0.2041
 1621SOL    HW116325   0.472   3.075   7.863  0.3478 -1.3179 -0.8202
 1621SOL    HW216326   0.508   2.954   7.942  0.7801 -0.7504 -2.6463
 1622SOL     OW16327   4.188   3.890   2.756  0.3050 -0.6499  0.1384
 1622SOL    HW116328   4.143   3.869   2.838  2.8038  0.6439  1.8392
 1622SOL    HW216329   4.281   3.898   2.780  0.3471 -2.0979  0.4509
 1623SOL     OW16330   2.770   3.730   6.229  0.2166  0.2140 -0.3134
 1623SOL    HW116331   2.778   3.825   6.239 -0.1387  0.1063  0.9514
 1623SOL    HW216332   2.713   3.713   6.304 -3.0800  0.1371 -2.8354
 1624SOL     OW16333   2.244   2.916   6.600  0.2685 -0.8074 -0.3272
 1624SOL    HW116334   2.216   2.950   6.685  0.5126  0.0740 -0.6036
 1624SOL    HW216335   2.211   2.826   6.607 -0.4146 -0.3561  2.4830
 1625SOL     OW16336   4.170   3.332   8.021 -0.1552  0.0479  0.2218
 1625SOL    HW116337   4.128   3.299   7.942  0.7587 -1.5812  0.4130
 1625SOL    HW216338   4.220   3.409   7.997 -1.2085  1.4885  2.5709
 1626SOL     OW16339   1.575   4.548   0.876  0.9937 -0.4025 -0.0374
 1626SOL    HW116340   1.619   4.474   0.834 -1.0864 -2.2089  0.9943
 1626SOL    HW216341   1.544   4.610   0.810  1.0033 -1.5437 -1.1106
 1627SOL     OW16342   1.390   0.743  15.374  0.1419 -0.3100 -0.6985
 1627SOL    HW116343   1.375   0.771  15.464  0.3393 -0.1133 -0.7268
 1627SOL    HW216344   1.396   0.649  15.389  1.4120  0.0190  0.8448
 1628SOL     OW16345   2.084   3.579   2.294 -0.1062 -0.2261 -0.0482
 1628SOL    HW116346   2.084   3.595   2.200  0.8524  0.0693  0.0003
 1628SOL    HW216347   2.062   3.667   2.325 -1.3259  0.5008 -3.0306
 1629SOL     OW16348   3.361   3.107   4.584  0.8920  0.5974 -0.0225
 1629SOL    HW116349   3.351   3.145   4.497  1.8739 -0.8565 -0.7726
 1629SOL    HW216350   3.293   3.157   4.628 -0.8324 -1.4697 -0.3495
 1630SOL     OW16351   1.514   4.203   3.900  0.0405 -0.1526 -0.0414
 1630SOL    HW116352   1.539   4.116   3.930 -0.5070 -0.2605  0.1016
 1630SOL    HW216353   1.548   4.253   3.974 -1.9377  0.7818  0.2281
 1631SOL     OW16354   0.749   3.867   3.569  0.5147 -0.7543  0.4343
 1631SOL    HW116355   0.832   3.873   3.616  1.8428 -1.8792 -1.7893
 1631SOL    HW216356   0.702   3.930   3.624  1.4337 -1.0077  1.5001
 1632SOL     OW16357   0.199   1.013   8.420 -0.4810  0.0179  0.2936
 1632SOL    HW116358   0.159   1.027   8.506  0.0376  1.3141  0.3303
 1632SOL    HW216359   0.118   1.026   8.370  0.3885 -0.7298 -1.3116
 1633SOL     OW16360   3.723   4.187  12.468 -0.0402 -0.4396  0.3065
 1633SOL    HW116361   3.710   4.140  12.551  1.9393 -1.3753  0.0958
 1633SOL    HW216362   3.797   4.242  12.497 -1.0487  1.0642  0.0133
 1634SOL     OW16363   0.135   1.169   2.362 -0.0926 -0.0127 -0.7220
 1634SOL    HW116364   0.087   1.113   2.302 -0.6889  1.2870 -1.4708
 1634SOL    HW216365   0.205   1.206   2.308  0.1500 -0.8879 -0.9889
 1635SOL     OW16366   0.803   4.353  17.271  0.4659  0.3759 -0.0353
 1635SOL    HW116367   0.808   4.295  17.195 -3.0974  1.7970 -1.3599
 1635SOL    HW216368   0.883   4.405  17.276  1.4147 -1.1811  1.1379
 1636SOL     OW16369   0.286   3.889  11.819  0.2672 -0.3409  0.3561
 1636SOL    HW116370   0.320   3.909  11.906  1.0202 -0.3670  0.0664
 1636SOL    HW216371   0.238   3.808  11.839  0.3953 -1.0344 -2.1772
 1637SOL     OW16372   1.676   0.317   3.163  0.3048  0.4036 -0.4264
 1637SOL    HW116373   1.598   0.373   3.170 -0.7402 -1.1147  0.1376
 1637SOL    HW216374   1.690   0.295   3.071 -2.7651 -0.0819 -0.7916
 1638SOL     OW16375   1.182   3.952   8.658  0.5808 -0.0630 -0.1855
 1638SOL    HW116376   1.205   4.000   8.737  0.4672 -1.0875  0.4704
 1638SOL    HW216377   1.160   3.867   8.698  1.0757 -0.9739 -1.8667
 1639SOL     OW16378   0.621   2.209  12.165  0.1183  0.0143 -0.1169
 1639SOL    HW116379   0.584   2.219  12.253  1.6391 -0.0367  0.5216
 1639SOL    HW216380   0.547   2.172  12.117 -0.8525  1.3476  0.3452
 1640SOL     OW16381   1.490   3.756   3.867 -0.0046 -0.3877  0.2346
 1640SOL    HW116382   1.471   3.663   3.867  1.3258 -0.6568 -2.0751
 1640SOL    HW216383   1.539   3.770   3.948  1.0282  3.7132 -1.0612
 1641SOL     OW16384   0.911   0.170   5.624 -0.4470  0.3479 -0.5639
 1641SOL    HW116385   0.843   0.117   5.584  0.0656  0.0599 -1.0651
 1641SOL    HW216386   0.852   0.216   5.683  0.6793  2.3324 -0.9879
 1642SOL     OW16387   0.235   2.782   1.528 -0.4206  0.5262  0.3037
 1642SOL    HW116388   0.263   2.733   1.451 -0.6808 -2.0221  1.8119
 1642SOL    HW216389   0.153   2.815   1.491 -1.2710 -2.8052 -0.8524
 1643SOL     OW16390   0.902   1.729  10.373  0.4062  0.4841  0.7767
 1643SOL    HW116391   0.838   1.721  10.444  0.8221  0.8630  1.1909
 1643SOL    HW216392   0.859   1.667  10.313  0.7223 -0.2065  1.2660
 1644SOL     OW16393   2.611   3.582   1.903  0.2163 -0.2241 -0.6257
 1644SOL    HW116394   2.630   3.499   1.945 -2.5137 -0.7980 -0.5134
 1644SOL    HW216395   2.516   3.589   1.911  0.1718  0.0008 -1.3165
 1645SOL     OW16396   0.209   0.185   1.655  1.0774 -0.4993 -0.0871
 1645SOL    HW116397   0.166   0.227   1.730 -1.7452 -1.5205 -1.1508
 1645SOL    HW216398   0.143   0.134   1.608  0.8099  0.4242 -0.6979
 1646SOL     OW16399   3.481   0.599   7.207 -0.3067  0.2552 -0.0602
 1646SOL    HW116400   3.544   0.546   7.158 -0.3748 -1.4850  1.7442
 1646SOL    HW216401   3.417   0.529   7.220  0.3540 -0.3512 -0.0488
 1647SOL     OW16402   3.888   1.460   8.047 -0.2557 -0.0147 -0.5538
 1647SOL    HW116403   3.807   1.410   8.043 -1.1071  1.1683  2.4825
 1647SOL    HW216404   3.858   1.550   8.054 -1.8094 -0.7172  1.7811
 1648SOL     OW16405   4.128   4.179   9.329  0.0575  0.4941 -0.0912
 1648SOL    HW116406   4.128   4.272   9.310 -1.3931  0.5804  0.2927
 1648SOL    HW216407   4.183   4.145   9.259 -1.1945 -1.2612 -0.2369
 1649SOL     OW16408   3.698   4.256   4.138  0.2349 -0.1474 -0.1855
 1649SOL    HW116409   3.653   4.252   4.054 -0.8411 -0.0948  0.3979
 1649SOL    HW216410   3.659   4.333   4.179  1.4147 -0.0518  0.7671
 1650SOL     OW16411   3.954   1.392   0.936  0.1221  0.0509 -0.5058
 1650SOL    HW116412   3.974   1.486   0.927 -0.9862  0.5022  1.7609
 1650SOL    HW216413   4.041   1.360   0.961  0.3657 -0.2965 -1.7628
 1651SOL     OW16414   4.013   4.330   4.453 -0.1800  0.1083 -0.0012
 1651SOL    HW116415   4.092   4.303   4.500 -0.9477  1.5807  2.1356
 1651SOL    HW216416   4.005   4.245   4.410  0.1323  0.7706 -1.3654
 1652SOL     OW16417   1.700   2.149  13.585 -0.2095  0.1698 -0.5038
 1652SOL    HW116418   1.641   2.206  13.634  0.6397 -1.8096  2.7671
 1652SOL    HW216419   1.780   2.169  13.632  0.7005 -0.6986 -1.6661
 1653SOL     OW16420   0.888   3.867   8.561  0.1241  0.3960 -0.2020
 1653SOL    HW116421   0.803   3.826   8.572  0.1403  0.5082  0.3194
 1653SOL    HW216422   0.889   3.928   8.634  1.0366 -0.5197  0.5481
 1654SOL     OW16423   3.943   1.220   9.422 -0.3215  0.6026 -0.2384
 1654SOL    HW116424   3.994   1.186   9.496 -2.2519 -2.4226 -0.2608
 1654SOL    HW216425   4.022   1.259   9.384  0.8658  0.9767  2.5676
 1655SOL     OW16426   4.289   0.464   5.303  0.1313 -0.5253  0.2615
 1655SOL    HW116427   4.358   0.519   5.265 -0.4253 -1.5876 -2.3198
 1655SOL    HW216428   4.215   0.520   5.279  0.1717 -0.9541 -0.8743
 1656SOL     OW16429   4.333   1.666   8.872 -0.2292  0.1505 -0.3441
 1656SOL    HW116430   4.345   1.674   8.777  0.0170 -1.2455 -0.4303
 1656SOL    HW216431   4.309   1.753   8.905 -3.7494 -1.3431  0.9770
 1657SOL     OW16432   2.877   3.485   3.817  0.1914  0.6602 -0.9196
 1657SOL    HW116433   2.825   3.433   3.877  0.6338  0.6914 -0.5032
 1657SOL    HW216434   2.830   3.469   3.736  0.7224 -0.6724 -0.9553
 1658SOL     OW16435   1.620   2.891  16.422  0.6579 -0.2770 -0.0094
 1658SOL    HW116436   1.675   2.889  16.344  1.5031  1.9362  0.5139
 1658SOL    HW216437   1.537   2.878  16.377 -0.8492  1.2915  2.3162
 1659SOL     OW16438   1.109   3.029   8.321 -0.3050  0.5216  0.0583
 1659SOL    HW116439   1.087   2.951   8.270 -1.1603  0.9982 -0.3007
 1659SOL    HW216440   1.186   2.999   8.369 -0.0524 -0.2774 -0.8306
 1660SOL     OW16441   1.712   2.480   6.046  0.1728 -0.0834 -0.0712
 1660SOL    HW116442   1.638   2.514   6.097  0.2428  1.4481 -0.9889
 1660SOL    HW216443   1.726   2.395   6.087  0.8050  0.4615  0.8498
 1661SOL     OW16444   1.078   0.950  14.657  0.0001  0.0410  0.2663
 1661SOL    HW116445   1.060   0.964  14.750 -1.8448 -2.1496  0.2371
 1661SOL    HW216446   1.151   0.888  14.657 -0.2117 -0.2135 -2.1306
 1662SOL     OW16447   2.526   2.030  11.476 -0.5349  0.0111 -0.1319
 1662SOL    HW116448   2.560   2.110  11.516  1.4559  0.2401 -2.2655
 1662SOL    HW216449   2.518   2.046  11.382  2.5802  0.0023 -0.4023
 1663SOL     OW16450   4.154   2.448   7.279 -0.3860  0.5888  1.1055
 1663SOL    HW116451   4.091   2.398   7.228 -0.5891  0.6682  1.2761
 1663SOL    HW216452   4.152   2.534   7.238  1.3155  0.1343  0.1115
 1664SOL     OW16453   2.715   2.428   6.056 -0.5371 -0.5586  0.5387
 1664SOL    HW116454   2.691   2.415   6.147  1.8969  0.3080  1.3220
 1664SOL    HW216455   2.707   2.339   6.020 -0.1699 -0.1259 -0.6310
 1665SOL     OW16456   1.145   4.273   5.466 -0.2861  0.3409 -0.3314
 1665SOL    HW116457   1.072   4.211   5.453 -0.9821  1.3629 -1.3081
 1665SOL    HW216458   1.212   4.206   5.456  0.8308  1.5924 -1.2453
 1666SOL     OW16459   2.654   1.503   7.463  0.4043 -0.0012  0.2121
 1666SOL    HW116460   2.700   1.531   7.542 -0.2091  1.6684 -0.0141
 1666SOL    HW216461   2.603   1.429   7.497 -1.2130  0.3295 -1.4690
 1667SOL     OW16462   4.240   3.765  11.125  0.2746 -0.5182  1.0939
 1667SOL    HW116463   4.260   3.852  11.158  0.7870 -0.1759 -0.1326
 1667SOL    HW216464   4.248   3.713  11.205  0.3113 -0.7406  0.9477
 1668SOL     OW16465   2.369   0.764   6.541 -0.2949  0.1208 -0.2153
 1668SOL    HW116466   2.411   0.682   6.516 -0.3503  0.1039 -0.2529
 1668SOL    HW216467   2.302   0.780   6.474  0.9742  1.6650 -1.1013
 1669SOL     OW16468   0.913   3.306   5.378  0.4750  0.4314 -0.6392
 1669SOL    HW116469   0.858   3.246   5.430  1.1645 -0.3112 -0.7752
 1669SOL    HW216470   0.861   3.321   5.299 -2.5185 -1.4406  0.9514
 1670SOL     OW16471   0.824   1.101   8.898  0.0058 -0.5592  0.5315
 1670SOL    HW116472   0.835   1.135   8.987 -0.2527  0.8360  0.0195
 1670SOL    HW216473   0.915   1.071   8.897  0.7178  1.7125 -1.5026
 1671SOL     OW16474   2.531   0.612   9.077  0.1101 -0.2677 -0.3196
 1671SOL    HW116475   2.531   0.619   9.173 -2.9723  1.0511 -0.4164
 1671SOL    HW216476   2.456   0.666   9.054 -1.1942 -0.9879  2.1433
 1672SOL     OW16477   0.371   1.590  11.339 -0.2433 -0.3267 -0.3602
 1672SOL    HW116478   0.428   1.643  11.394  2.0407 -2.4849 -0.6645
 1672SOL    HW216479   0.346   1.521  11.400 -0.2035  0.3838  0.4584
 1673SOL     OW16480   1.793   3.261   9.565  0.8432  0.1153  0.9007
 1673SOL    HW116481   1.862   3.287   9.504  0.0466  0.5190  0.1714
 1673SOL    HW216482   1.787   3.165   9.567  0.2980  0.1196 -0.6379
 1674SOL     OW16483   4.086   4.038   8.090  0.0843 -0.3258  0.1903
 1674SOL    HW116484   4.051   3.950   8.085 -0.3767 -0.1548  0.4023
 1674SOL    HW216485   4.041   4.075   8.166 -1.0975 -4.0256  1.2413
 1675SOL     OW16486   0.063   3.178  13.262  0.0941 -0.5271  0.6818
 1675SOL    HW116487   0.064   3.086  13.238 -0.7366 -0.5512  0.7634
 1675SOL    HW216488   4.691   3.189  13.261  0.1289 -0.4930 -3.3504
 1676SOL     OW16489   4.234   1.124   6.724  0.7928 -0.2361 -0.3536
 1676SOL    HW116490   4.180   1.178   6.782 -1.0248 -2.4975  0.0291
 1676SOL    HW216491   4.175   1.055   6.694  0.0830 -0.8677  2.5022
 1677SOL     OW16492   0.936   0.072   2.984  0.2804  0.3360  0.1155
 1677SOL    HW116493   0.984   0.138   3.034 -0.7470  1.0838  0.1185
 1677SOL    HW216494   1.000   0.007   2.956 -1.0721 -0.3554 -1.3939
 1678SOL     OW16495   2.565   3.699  16.648  0.3090  0.2573  0.5489
 1678SOL    HW116496   2.657   3.722  16.663  1.2779 -3.0255 -0.1736
 1678SOL    HW216497   2.521   3.764  16.703 -0.4894  0.3551 -0.2120
 1679SOL     OW16498   0.430   3.783   2.867 -0.0092  0.6435  0.5490
 1679SOL    HW116499   0.382   3.757   2.946 -0.4501  0.0588  0.0895
 1679SOL    HW216500   0.515   3.804   2.905 -0.2391 -0.6774  1.8200
 1680SOL     OW16501   2.030   2.595   9.638  0.0988 -0.8173 -0.2373
 1680SOL    HW116502   2.084   2.515   9.633 -0.1240 -0.9857  0.1125
 1680SOL    HW216503   2.100   2.659   9.653 -1.9704  1.3215  0.0829
 1681SOL     OW16504   1.013   0.411   3.764  0.6059 -0.1036 -0.0572
 1681SOL    HW116505   0.953   0.390   3.836 -0.8508 -0.2520 -1.3072
 1681SOL    HW216506   1.074   0.472   3.806  0.9322  0.1783 -0.9606
 1682SOL     OW16507   3.915   4.392   6.641  0.2951 -0.0185  0.2562
 1682SOL    HW116508   3.867   4.368   6.721 -0.4882  3.4399  0.8391
 1682SOL    HW216509   4.000   4.408   6.681  0.3825 -0.7835  0.3735
 1683SOL     OW16510   1.407   0.989  11.997  0.0898 -0.0041 -0.0274
 1683SOL    HW116511   1.332   0.966  12.053  0.8216  0.2152  1.0552
 1683SOL    HW216512   1.475   0.991  12.065  0.8924 -0.7648 -0.8097
 1684SOL     OW16513   4.210   1.561   2.774  0.1311  0.0197  0.3326
 1684SOL    HW116514   4.224   1.562   2.679  1.1163 -0.5897  0.4762
 1684SOL    HW216515   4.216   1.467   2.794 -0.5310  0.0199  0.5296
 1685SOL     OW16516   4.150   1.945   6.110  0.1838  0.3993  0.4566
 1685SOL    HW116517   4.170   2.038   6.119  1.3578  0.2191 -0.2184
 1685SOL    HW216518   4.057   1.939   6.131  0.3199 -1.9760  0.4497
 1686SOL     OW16519   4.071   0.058   4.409 -0.1946 -0.0576  0.3163
 1686SOL    HW116520   4.032   0.120   4.471  2.0089  0.9789  0.6494
 1686SOL    HW216521   4.155   0.037   4.449  0.7226 -0.5260 -1.8695
 1687SOL     OW16522   0.660   0.145   5.270 -0.3168  0.0133 -0.5034
 1687SOL    HW116523   0.633   0.071   5.216  1.4553 -0.1051 -1.2407
 1687SOL    HW216524   0.611   0.212   5.223 -0.6253 -0.9573 -1.5797
 1688SOL     OW16525   3.240   2.182   2.227 -0.7036  0.3882  0.0408
 1688SOL    HW116526   3.215   2.199   2.318  2.8006 -0.4212  1.1399
 1688SOL    HW216527   3.322   2.138   2.248  0.7614  1.6666 -2.9609
 1689SOL     OW16528   2.875   3.286   4.793  0.0672  0.5786  0.2794
 1689SOL    HW116529   2.881   3.243   4.708  0.6550 -1.0621  1.1366
 1689SOL    HW216530   2.951   3.344   4.797  0.5631 -0.0616  0.1719
 1690SOL     OW16531   0.297   1.865  16.072  0.0880  0.1635 -0.2106
 1690SOL    HW116532   0.288   1.770  16.064 -2.2810  0.3559  0.1151
 1690SOL    HW216533   0.221   1.901  16.026 -1.4279 -1.4498  1.0305
 1691SOL     OW16534   4.469   1.277   3.168 -0.0740  0.3991  0.3101
 1691SOL    HW116535   4.522   1.304   3.242 -1.2281  2.1843  0.4797
 1691SOL    HW216536   4.388   1.251   3.213  0.3272  1.2824  1.5334
 1692SOL     OW16537   4.373   0.234   7.541 -0.2604  0.0917  0.5784
 1692SOL    HW116538   4.401   0.186   7.619  0.2624 -0.9422 -0.2600
 1692SOL    HW216539   4.418   0.318   7.557 -0.2233 -0.1501  1.7812
 1693SOL     OW16540   0.943   3.971   7.253 -0.4112 -0.3552 -0.3199
 1693SOL    HW116541   0.938   4.035   7.181  1.1417  0.1578  0.0440
 1693SOL    HW216542   0.993   4.021   7.317 -1.6785 -0.0352  0.4160
 1694SOL     OW16543   0.782   3.777  11.204  0.1993  0.3254  0.1835
 1694SOL    HW116544   0.699   3.766  11.250 -0.2224 -1.4660 -1.0265
 1694SOL    HW216545   0.792   3.873  11.200 -0.3913  0.4506  1.9942
 1695SOL     OW16546   1.461   1.951   9.580 -0.7705 -0.3033  0.0103
 1695SOL    HW116547   1.470   2.045   9.593  0.5600 -0.4721  0.3137
 1695SOL    HW216548   1.372   1.950   9.545 -0.6188  1.0073 -0.3900
 1696SOL     OW16549   2.194   3.935   8.592  0.7506  0.4545  0.2519
 1696SOL    HW116550   2.208   3.904   8.502  0.2222 -1.7070  0.9265
 1696SOL    HW216551   2.229   4.024   8.590 -0.0908  0.7638 -1.5705
 1697SOL     OW16552   3.108   0.180   6.897  0.3051 -0.2731 -0.1793
 1697SOL    HW116553   3.113   0.101   6.842  0.7322  0.5704 -1.3499
 1697SOL    HW216554   3.084   0.245   6.830 -1.5705  2.2661  2.9788
 1698SOL     OW16555   0.537   0.634   0.686 -0.6631  0.7627 -0.4928
 1698SOL    HW116556   0.462   0.654   0.743  0.3229  0.9244  0.7410
 1698SOL    HW216557   0.509   0.676   0.604  0.5577  0.5343 -1.0215
 1699SOL     OW16558   0.566   2.794   5.935  0.4590  0.4639  0.3563
 1699SOL    HW116559   0.650   2.780   5.891 -0.4789  0.8789 -1.5402
 1699SOL    HW216560   0.572   2.731   6.006  0.0725 -1.6926 -1.5360
 1700SOL     OW16561   0.329   4.196  16.680  0.7855 -0.1016  0.2214
 1700SOL    HW116562   0.248   4.155  16.649  1.1562 -0.7876  0.1629
 1700SOL    HW216563   0.353   4.225  16.592  0.1895  0.9459  0.4119
 1701SOL     OW16564   0.482   0.637   7.806 -0.5345  0.4717 -0.1658
 1701SOL    HW116565   0.497   0.684   7.887  0.0773 -0.8595  0.4965
 1701SOL    HW216566   0.473   0.708   7.742 -0.1528  2.0599  1.5542
 1702SOL     OW16567   2.045   3.603   6.052  0.5867 -0.3420  0.2271
 1702SOL    HW116568   2.057   3.680   6.107  0.9287 -1.0811  1.1746
 1702SOL    HW216569   1.990   3.549   6.109  0.1024 -0.6122 -0.4838
 1703SOL     OW16570   1.749   4.120   7.779  0.3081  0.2890 -0.0385
 1703SOL    HW116571   1.767   4.210   7.752 -0.0824  0.5597  0.6037
 1703SOL    HW216572   1.764   4.123   7.874 -2.0287  1.7006  0.2839
 1704SOL     OW16573   4.371   4.588   5.050  0.3023  0.1477  0.1759
 1704SOL    HW116574   4.397   4.678   5.029 -2.1550  0.6578 -0.6184
 1704SOL    HW216575   4.435   4.577   5.120  0.9536 -0.8883 -0.5788
 1705SOL     OW16576   0.522   4.387   6.020  0.4524 -0.3057 -0.0653
 1705SOL    HW116577   0.530   4.330   5.944 -1.0486 -0.0849 -0.3877
 1705SOL    HW216578   0.480   4.466   5.986  0.2443 -1.0101 -1.4627
 1706SOL     OW16579   2.322   3.699   7.154  0.0323 -0.3589 -0.3052
 1706SOL    HW116580   2.359   3.776   7.197 -1.0945 -1.0450  1.9015
 1706SOL    HW216581   2.232   3.724   7.134  0.8433  1.8230 -1.2647
 1707SOL     OW16582   2.564   0.412   7.250  0.1860 -0.3785 -0.8150
 1707SOL    HW116583   2.600   0.434   7.164  0.5073  0.3513 -0.4968
 1707SOL    HW216584   2.507   0.336   7.239  0.3158 -0.1076 -3.2632
 1708SOL     OW16585   3.445   3.169   9.436  0.0040 -0.9128  0.1941
 1708SOL    HW116586   3.511   3.234   9.413 -0.4222 -0.5879 -0.1149
 1708SOL    HW216587   3.497   3.119   9.499 -0.8984 -3.4182 -1.0280
 1709SOL     OW16588   2.043   0.589  16.426 -0.1682  0.5622  0.2840
 1709SOL    HW116589   2.129   0.583  16.383 -0.4600  0.0441 -0.2337
 1709SOL    HW216590   1.983   0.613  16.356  1.4361 -1.5696 -1.8404
 1710SOL     OW16591   0.578   0.134   7.200 -0.4520  0.1071 -0.6418
 1710SOL    HW116592   0.554   0.122   7.108  0.0365 -2.0808 -0.4822
 1710SOL    HW216593   0.613   0.222   7.207 -0.6356  0.0285  1.2950
 1711SOL     OW16594   3.063   0.368  17.142  0.3034 -0.1684  0.0262
 1711SOL    HW116595   3.008   0.435  17.100  1.0157 -0.5151 -1.4736
 1711SOL    HW216596   3.057   0.302  17.072 -1.4434 -2.1821  2.0687
 1712SOL     OW16597   1.508   0.239   2.282  0.0765 -0.0301  0.5805
 1712SOL    HW116598   1.508   0.161   2.227  0.4931 -0.1981  0.8164
 1712SOL    HW216599   1.594   0.274   2.258 -0.6639 -0.0859 -2.1349
 1713SOL     OW16600   0.032   0.368   7.087 -0.4651 -0.3137  0.0873
 1713SOL    HW116601   0.025   0.397   7.178 -1.0050 -1.4940  0.4294
 1713SOL    HW216602   0.060   0.276   7.092 -3.2099 -1.2016 -0.6294
 1714SOL     OW16603   2.005   3.305   9.370 -0.5653  0.7292  0.1061
 1714SOL    HW116604   1.981   3.321   9.278 -1.5608 -1.5146 -0.0192
 1714SOL    HW216605   2.023   3.393   9.403 -1.6305  0.9391  0.1044
 1715SOL     OW16606   2.393   1.248   4.925 -0.0842 -0.2549  0.2227
 1715SOL    HW116607   2.488   1.244   4.909 -0.1647  0.1156 -0.3488
 1715SOL    HW216608   2.366   1.161   4.898  1.0927 -0.3484 -0.6605
 1716SOL     OW16609   0.800   2.679  13.297  0.2599 -0.9185 -0.2372
 1716SOL    HW116610   0.841   2.757  13.260 -1.5247  1.5689  3.1096
 1716SOL    HW216611   0.752   2.712  13.372  0.0611  0.2184 -0.8677
 1717SOL     OW16612   0.194   1.885   7.212  0.3464 -0.3105  0.1313
 1717SOL    HW116613   0.108   1.843   7.215  0.0866  0.1662 -0.6805
 1717SOL    HW216614   0.226   1.872   7.302  1.8906 -0.6832 -0.4730
 1718SOL     OW16615   0.098   0.058   8.064 -0.2186 -0.0225 -0.3631
 1718SOL    HW116616   0.008   0.026   8.073 -0.8804  1.3890 -1.9418
 1718SOL    HW216617   0.130   0.022   8.146  0.2840 -2.2777 -1.5427
 1719SOL     OW16618   2.447   0.339   5.141  0.2614  0.5183  0.2501
 1719SOL    HW116619   2.455   0.250   5.176 -0.1300  0.2613 -0.3078
 1719SOL    HW216620   2.508   0.340   5.067  0.3799 -1.2130  0.3178
 1720SOL     OW16621   3.585   0.795  13.642 -0.0889 -0.0688 -0.4416
 1720SOL    HW116622   3.551   0.873  13.686 -2.5072 -1.2605 -0.2164
 1720SOL    HW216623   3.677   0.792  13.670 -0.2470 -0.2110  0.0480
 1721SOL     OW16624   1.498   0.085  11.338 -0.5278  0.4027 -0.0384
 1721SOL    HW116625   1.501   4.713  11.354 -0.9083  0.7825  2.1718
 1721SOL    HW216626   1.457   0.108  11.421  0.1279  0.9190  0.1388
 1722SOL     OW16627   3.970   4.452   1.707  0.0364 -0.3464  0.3718
 1722SOL    HW116628   3.992   4.525   1.765  1.9801 -1.1390  0.6156
 1722SOL    HW216629   3.911   4.495   1.645  1.4765  1.5199  0.3189
 1723SOL     OW16630   1.246   0.772  17.627  0.4479 -0.7119  0.1087
 1723SOL    HW116631   1.241   0.677  17.636 -3.4800 -0.5540 -0.6544
 1723SOL    HW216632   1.165   0.797  17.671  1.5852  2.3792  0.4502
 1724SOL     OW16633   1.745   1.820   6.009  0.1559 -0.0574  0.0366
 1724SOL    HW116634   1.655   1.812   5.979  0.8314 -0.4078 -1.9199
 1724SOL    HW216635   1.775   1.905   5.976  1.7601 -1.3806 -1.9351
 1725SOL     OW16636   0.177   3.167   7.002  0.3923  0.4551  0.3028
 1725SOL    HW116637   0.084   3.147   6.991  0.6354 -1.1997  1.2159
 1725SOL    HW216638   0.203   3.198   6.915 -3.8786 -0.5225 -1.3065
 1726SOL     OW16639   3.394   4.711   4.748  0.3294 -0.0291  1.0043
 1726SOL    HW116640   3.343   4.677   4.822  2.1546 -1.8859  1.4158
 1726SOL    HW216641   3.340   4.693   4.672 -2.1787 -1.4382  3.1437
 1727SOL     OW16642   4.187   2.437  15.460 -0.6885  0.3149  0.3609
 1727SOL    HW116643   4.215   2.390  15.382  1.2550  1.5767  0.3092
 1727SOL    HW216644   4.241   2.400  15.530 -3.2074 -0.4480  1.9134
 1728SOL     OW16645   3.499   4.073   6.719 -0.1489 -1.3528 -0.1344
 1728SOL    HW116646   3.580   4.068   6.668  0.3354 -2.6088  0.7492
 1728SOL    HW216647   3.433   4.024   6.670 -0.5860 -0.0896 -0.8141
 1729SOL     OW16648   2.274   0.178  14.561 -0.2285  0.4427  0.3235
 1729SOL    HW116649   2.225   0.128  14.626  0.4576  0.8157  1.1336
 1729SOL    HW216650   2.340   0.116  14.530  0.3791  1.8088 -1.1551
 1730SOL     OW16651   1.299   3.007   1.846 -0.3427  0.4258 -0.2616
 1730SOL    HW116652   1.292   3.064   1.922  2.7067 -0.1280  0.4527
 1730SOL    HW216653   1.392   2.984   1.834 -0.2974  0.1091  0.7398
 1731SOL     OW16654   2.657   3.135   4.909  0.0066 -0.6576 -0.0716
 1731SOL    HW116655   2.739   3.092   4.885  0.4106  0.1768 -0.1695
 1731SOL    HW216656   2.631   3.187   4.832  1.0884  0.9661  0.6774
 1732SOL     OW16657   3.477   2.768  15.821 -0.1351 -0.5473 -0.1693
 1732SOL    HW116658   3.382   2.780  15.813 -0.0177 -0.9752 -2.0931
 1732SOL    HW216659   3.513   2.857  15.821  1.1517 -1.0881 -2.0968
 1733SOL     OW16660   3.856   1.379   1.248 -0.3399  0.2648 -0.5241
 1733SOL    HW116661   3.912   1.320   1.297 -1.1879 -0.2166 -0.1488
 1733SOL    HW216662   3.892   1.386   1.159  0.1619  1.2563 -0.2421
 1734SOL     OW16663   3.724   3.668   8.172 -0.9166  0.8869  0.9501
 1734SOL    HW116664   3.727   3.736   8.105 -1.6663 -0.5881 -0.5804
 1734SOL    HW216665   3.773   3.603   8.122 -3.8955  0.1952 -1.0752
 1735SOL     OW16666   0.805   1.402   3.136  0.1050 -0.4795 -0.4154
 1735SOL    HW116667   0.759   1.467   3.083  0.5578  1.1672  1.2132
 1735SOL    HW216668   0.755   1.390   3.217 -2.2919  2.3344 -1.4863
 1736SOL     OW16669   2.631   1.136   5.912 -0.3211 -0.4874  0.2036
 1736SOL    HW116670   2.683   1.216   5.903 -0.2917 -0.6028 -0.6202
 1736SOL    HW216671   2.703   1.077   5.933 -0.9889 -1.7567 -1.1474
 1737SOL     OW16672   3.317   0.282   4.968 -0.1103  0.4284 -0.1682
 1737SOL    HW116673   3.250   0.301   4.902 -0.7612  0.8006  0.6083
 1737SOL    HW216674   3.309   0.187   4.979 -1.7345  0.6670  0.6964
 1738SOL     OW16675   1.301   4.149   6.459 -0.5177 -0.1111  0.1892
 1738SOL    HW116676   1.326   4.056   6.455  0.2260  0.1402 -0.9450
 1738SOL    HW216677   1.229   4.152   6.396 -0.2349  2.9272  0.0254
 1739SOL     OW16678   1.003   1.580  11.250  1.0345 -0.0961 -0.5975
 1739SOL    HW116679   1.042   1.642  11.189 -0.7237 -0.0531 -1.6723
 1739SOL    HW216680   1.034   1.497  11.212  0.4092 -0.4292 -0.3824
 1740SOL     OW16681   1.578   4.124   8.333 -0.7047  0.4432  0.2960
 1740SOL    HW116682   1.537   4.210   8.332 -1.4593  0.0847 -0.0421
 1740SOL    HW216683   1.530   4.095   8.411 -1.2815 -3.8368 -1.6030
 1741SOL     OW16684   0.442   4.363  14.366  0.7208 -0.2209 -0.3942
 1741SOL    HW116685   0.463   4.428  14.299  0.5919  0.2325  0.0021
 1741SOL    HW216686   0.408   4.421  14.435  0.8980  2.3669 -2.4685
 1742SOL     OW16687   3.769   0.235  12.932 -0.0980 -0.0332 -0.0164
 1742SOL    HW116688   3.682   0.198  12.945  0.3874 -0.5007  2.0235
 1742SOL    HW216689   3.823   0.159  12.958 -0.7839 -1.5083 -2.9467
 1743SOL     OW16690   4.717   1.151   7.477 -0.3841 -0.9735 -0.5908
 1743SOL    HW116691   4.684   1.239   7.497 -2.3669 -1.7184 -0.5209
 1743SOL    HW216692   0.083   1.151   7.513 -1.4776 -0.2015  2.1411
 1744SOL     OW16693   2.100   0.753   2.805  0.4549 -0.8840  0.6483
 1744SOL    HW116694   2.096   0.662   2.775  0.3120 -0.1675 -1.4922
 1744SOL    HW216695   2.191   0.772   2.826  0.4743 -1.6299  1.2248
 1745SOL     OW16696   1.636   0.183   2.933  0.3153  0.6600  0.3383
 1745SOL    HW116697   1.672   0.187   2.845 -1.4783 -2.0364 -0.5218
 1745SOL    HW216698   1.632   0.088   2.947 -2.5239  1.0110  1.8514
 1746SOL     OW16699   1.406   1.160   1.231  0.1371 -0.3404  0.0047
 1746SOL    HW116700   1.332   1.213   1.203  0.8102  0.8989  0.5714
 1746SOL    HW216701   1.388   1.153   1.324 -0.5675  0.2581 -0.0948
 1747SOL     OW16702   3.592   4.162   5.960  0.2166  0.0355 -0.4795
 1747SOL    HW116703   3.683   4.186   5.979  0.3022 -1.2041  0.6292
 1747SOL    HW216704   3.586   4.203   5.873  0.6373 -0.4756 -0.7519
 1748SOL     OW16705   2.421   3.982   7.207  0.4742  0.2686 -0.1468
 1748SOL    HW116706   2.401   4.045   7.138  3.4181 -2.3357 -3.3938
 1748SOL    HW216707   2.368   4.016   7.279  0.2574 -0.6489  0.1343
 1749SOL     OW16708   3.691   1.869  11.662  0.0043  0.3799  0.2115
 1749SOL    HW116709   3.612   1.822  11.689  0.1392  0.7334  1.2139
 1749SOL    HW216710   3.648   1.949  11.630  2.5070  1.2702 -0.8858
 1750SOL     OW16711   4.289   4.393   3.490 -0.0135 -0.2784  0.1924
 1750SOL    HW116712   4.289   4.489   3.497 -2.8185 -0.2905  0.2475
 1750SOL    HW216713   4.297   4.389   3.395 -1.1439 -0.0965  0.0933
 1751SOL     OW16714   1.963   2.172   9.013 -0.0777 -0.3809 -0.4836
 1751SOL    HW116715   2.006   2.128   8.939  2.3072 -1.7467  1.7079
 1751SOL    HW216716   2.023   2.146   9.083 -0.1844  1.3786  0.2552
 1752SOL     OW16717   3.963   0.458   6.634 -0.2972  0.1009 -0.5318
 1752SOL    HW116718   3.965   0.425   6.724 -1.5928  3.1882  0.6095
 1752SOL    HW216719   3.947   0.550   6.655 -0.0292  0.2872 -1.1435
 1753SOL     OW16720   2.941   3.438   2.203 -0.4625 -0.5962  0.0313
 1753SOL    HW116721   2.860   3.449   2.253 -1.1363 -2.6385 -0.5976
 1753SOL    HW216722   2.916   3.368   2.143 -0.0261  0.8465 -1.8303
 1754SOL     OW16723   4.462   0.716   7.563 -0.6434  0.1948  1.0322
 1754SOL    HW116724   4.409   0.679   7.493  0.9539  0.1009 -0.1202
 1754SOL    HW216725   4.501   0.792   7.521  1.2386 -1.9440 -1.0982
 1755SOL     OW16726   3.495   2.555   9.486 -0.3908  0.2418 -0.0646
 1755SOL    HW116727   3.568   2.538   9.546 -0.1351 -1.8813 -0.9619
 1755SOL    HW216728   3.455   2.626   9.537  1.5970  1.4605 -0.2084
 1756SOL     OW16729   1.106   2.260  10.104 -0.4000 -0.1102 -0.4343
 1756SOL    HW116730   1.136   2.179  10.146  0.0718  0.5463  0.4902
 1756SOL    HW216731   1.040   2.290  10.165  0.2243  0.6228 -0.1147
 1757SOL     OW16732   0.687   1.109   5.637 -0.2754  0.1027 -0.2803
 1757SOL    HW116733   0.636   1.153   5.705 -4.1389 -1.5191 -2.1134
 1757SOL    HW216734   0.653   1.147   5.556 -0.4578  1.8290  0.6008
 1758SOL     OW16735   0.050   3.193   2.929  0.7880  0.7061 -1.0558
 1758SOL    HW116736   0.035   3.198   2.835 -1.9378  0.8711 -0.6121
 1758SOL    HW216737   0.045   3.284   2.957  1.8797  0.5162 -0.2450
 1759SOL     OW16738   0.473   0.936   2.289  0.1130  0.1234 -0.4836
 1759SOL    HW116739   0.399   0.897   2.336 -1.3272 -0.8521 -3.5892
 1759SOL    HW216740   0.538   0.924   2.358 -0.5186  1.3665  0.3272
 1760SOL     OW16741   2.380   2.762  10.605 -0.4377  0.4322 -0.3121
 1760SOL    HW116742   2.317   2.751  10.535  0.5509 -2.3181 -0.7532
 1760SOL    HW216743   2.390   2.857  10.614 -0.2326  0.1012  2.9760
 1761SOL     OW16744   2.777   2.469   0.141 -0.3809  0.1560 -0.7215
 1761SOL    HW116745   2.864   2.476   0.182 -0.5682 -1.1458 -0.0871
 1761SOL    HW216746   2.788   2.406   0.069 -1.0115  0.3526 -0.9884
 1762SOL     OW16747   3.169   2.169   1.978 -0.1842  0.0082 -0.2278
 1762SOL    HW116748   3.227   2.236   1.942 -0.6412 -0.0970 -1.1669
 1762SOL    HW216749   3.202   2.172   2.068  1.4871  0.2587 -0.8484
 1763SOL     OW16750   1.278   3.914   4.121 -0.1741 -0.4486 -0.2726
 1763SOL    HW116751   1.370   3.941   4.131 -0.5848  1.5522 -1.7438
 1763SOL    HW216752   1.241   3.930   4.207  1.4994 -2.1275  0.7619
 1764SOL     OW16753   2.167   1.238  14.998 -0.4831  0.0621 -0.2464
 1764SOL    HW116754   2.194   1.173  14.934  0.7090 -0.7179  1.0377
 1764SOL    HW216755   2.128   1.184  15.067 -1.6249  2.6942  1.1860
 1765SOL     OW16756   3.476   0.300   8.912  0.5835  0.3428 -0.2997
 1765SOL    HW116757   3.520   0.315   8.828  0.9268 -1.2847 -0.4292
 1765SOL    HW216758   3.432   0.217   8.893  0.7332 -0.1842  1.6862
 1766SOL     OW16759   4.622   0.763   1.482  0.0064  0.5230 -0.2766
 1766SOL    HW116760   4.676   0.745   1.560 -0.0326  1.0431 -0.1298
 1766SOL    HW216761   4.540   0.727   1.513  1.0148  0.2577  2.0874
 1767SOL     OW16762   1.083   1.349  11.168  0.2861  0.3954  0.2214
 1767SOL    HW116763   1.159   1.342  11.111  0.7395  1.0107  0.7479
 1767SOL    HW216764   1.084   1.267  11.218 -0.1512  1.8034  2.5258
 1768SOL     OW16765   2.653   1.905  14.408 -0.0199  0.2232  0.3399
 1768SOL    HW116766   2.736   1.950  14.425 -0.0809  0.5700 -0.3035
 1768SOL    HW216767   2.677   1.858  14.329  0.2150  1.4491 -0.3224
 1769SOL     OW16768   0.256   2.141  15.793 -0.3148 -0.1755 -0.2337
 1769SOL    HW116769   0.203   2.211  15.755 -1.0014  0.3072  1.6138
 1769SOL    HW216770   0.194   2.069  15.791 -0.4055 -0.1233  0.4456
 1770SOL     OW16771   2.748   3.633   7.382  0.2557 -0.4943  0.4424
 1770SOL    HW116772   2.733   3.659   7.291 -1.4553 -0.8327  0.6150
 1770SOL    HW216773   2.684   3.684   7.433 -0.6310 -1.1173 -0.0599
 1771SOL     OW16774   3.840   3.621   3.143  0.6662  0.2326  0.3696
 1771SOL    HW116775   3.781   3.545   3.143 -0.2260  0.9304 -0.9595
 1771SOL    HW216776   3.916   3.584   3.189 -1.1137 -3.6198  0.2539
 1772SOL     OW16777   3.825   3.234   7.677  0.1953  0.1234 -0.0554
 1772SOL    HW116778   3.773   3.298   7.725  2.0147  0.2312  1.8050
 1772SOL    HW216779   3.779   3.225   7.594  1.1260  0.8731 -0.6501
 1773SOL     OW16780   2.904   4.683   8.713  0.4362  0.7346  0.4045
 1773SOL    HW116781   2.967   4.617   8.742  1.1410  1.0816 -0.3482
 1773SOL    HW216782   2.825   4.639   8.744 -0.7292  1.6338 -1.2233
 1774SOL     OW16783   1.827   2.524   3.412 -0.1164  0.2696 -0.1210
 1774SOL    HW116784   1.772   2.527   3.333  0.5328  3.4921 -0.4327
 1774SOL    HW216785   1.892   2.460   3.382  1.9507  2.7101 -0.7695
 1775SOL     OW16786   0.292   4.178   4.222  0.2726  0.1371 -0.1180
 1775SOL    HW116787   0.200   4.187   4.248  0.8940  0.0608  2.0205
 1775SOL    HW216788   0.285   4.102   4.164 -0.3696 -0.6975  1.0579
 1776SOL     OW16789   4.234   3.637   2.292 -0.1524  0.0543 -0.2834
 1776SOL    HW116790   4.172   3.693   2.245 -0.3084  1.0733  1.1398
 1776SOL    HW216791   4.210   3.547   2.267 -0.0326 -1.0492  3.6086
 1777SOL     OW16792   1.854   4.056  15.743 -0.2973 -0.1744 -0.0654
 1777SOL    HW116793   1.880   4.032  15.832 -0.7200  0.4330  0.2219
 1777SOL    HW216794   1.788   3.990  15.726 -1.6951  0.9885  0.8048
 1778SOL     OW16795   3.599   2.889   4.595  0.3754  0.1682  0.4785
 1778SOL    HW116796   3.545   2.817   4.565  1.4810  0.9297 -3.2488
 1778SOL    HW216797   3.560   2.968   4.558 -0.9187 -0.0013  1.4777
 1779SOL     OW16798   3.426   2.246   4.851  0.5198  0.5208 -0.0249
 1779SOL    HW116799   3.435   2.214   4.762 -0.9513  0.7165 -0.2529
 1779SOL    HW216800   3.331   2.260   4.853  0.9060  3.4474 -1.5059
 1780SOL     OW16801   3.937   4.311   2.594 -0.1708  0.5417 -0.2482
 1780SOL    HW116802   3.908   4.378   2.656 -0.5207  0.3149 -0.1693
 1780SOL    HW216803   3.909   4.230   2.636  0.2051  0.3044 -0.4607
 1781SOL     OW16804   3.196   2.943   7.708  0.0339  0.5697  0.2855
 1781SOL    HW116805   3.255   2.882   7.752 -0.0082  2.7694  3.4485
 1781SOL    HW216806   3.126   2.928   7.772 -0.9646 -0.7590 -1.1482
 1782SOL     OW16807   1.772   3.338   7.825  0.7000 -0.4905  0.2544
 1782SOL    HW116808   1.810   3.283   7.894 -1.4145 -2.1431  0.1204
 1782SOL    HW216809   1.728   3.400   7.883  1.0297  1.8522 -2.0113
 1783SOL     OW16810   3.258   2.127  17.693 -0.3435 -0.0009  0.3261
 1783SOL    HW116811   3.254   2.127   0.095  0.1585  1.4434  0.3436
 1783SOL    HW216812   3.166   2.102  17.681 -0.3105 -0.2592  0.6068
 1784SOL     OW16813   4.071   2.322   9.873  0.1024  0.3798 -0.5391
 1784SOL    HW116814   3.977   2.309   9.880 -0.3933  3.1280 -2.3628
 1784SOL    HW216815   4.094   2.304   9.964  0.5401 -1.0667 -0.9275
 1785SOL     OW16816   2.599   3.020   2.508 -0.2337  0.1773 -0.2020
 1785SOL    HW116817   2.514   3.033   2.549  0.1971  0.7145  0.5290
 1785SOL    HW216818   2.660   3.050   2.576 -0.8684  0.5346  0.2080
 1786SOL     OW16819   1.777   1.224  17.403 -0.5794 -0.3375 -0.2214
 1786SOL    HW116820   1.841   1.264  17.344 -0.3161  1.9781  1.6794
 1786SOL    HW216821   1.829   1.154  17.444  1.4703  1.0559 -0.4161
 1787SOL     OW16822   2.314   2.632   5.651  0.0643  0.4123 -0.2337
 1787SOL    HW116823   2.385   2.604   5.709  0.5333  1.5240 -0.2705
 1787SOL    HW216824   2.315   2.565   5.583 -1.2100  1.0073 -0.8371
 1788SOL     OW16825   3.501   2.706   4.830 -0.1241 -0.4773 -0.6236
 1788SOL    HW116826   3.514   2.693   4.736 -2.4812  0.4498 -1.0691
 1788SOL    HW216827   3.567   2.650   4.872  0.0802  0.9376  0.9381
 1789SOL     OW16828   4.436   1.048  13.702  0.2816  0.0093 -0.6897
 1789SOL    HW116829   4.416   1.002  13.621 -0.4847  2.7871 -2.0704
 1789SOL    HW216830   4.463   1.137  13.681  0.2557 -0.3264 -2.1045
 1790SOL     OW16831   2.063   1.391   8.125  0.6025 -0.6702 -0.5823
 1790SOL    HW116832   2.041   1.378   8.033 -1.0788 -0.2205 -0.2409
 1790SOL    HW216833   2.032   1.308   8.162 -0.5163  0.1387  0.2962
 1791SOL     OW16834   2.710   1.952   9.270  0.2162  0.1633  0.0005
 1791SOL    HW116835   2.776   1.887   9.292 -0.8661 -1.3962 -1.3102
 1791SOL    HW216836   2.636   1.899   9.241 -0.0331 -1.0491  2.8798
 1792SOL     OW16837   0.705   2.483   1.992 -0.4125  0.1924  0.0340
 1792SOL    HW116838   0.715   2.389   1.976 -0.0626  0.1730  0.3486
 1792SOL    HW216839   0.794   2.513   2.011  0.5390 -1.6217 -1.4806
 1793SOL     OW16840   0.057   3.840   9.008 -0.2528  0.0520  0.1073
 1793SOL    HW116841   0.096   3.762   9.048 -1.5445 -0.7541 -0.1809
 1793SOL    HW216842   0.109   3.906   9.052  1.0472 -0.4644 -0.6579
 1794SOL     OW16843   4.477   2.821   8.964 -0.5819 -0.2839  0.3259
 1794SOL    HW116844   4.437   2.754   8.909 -2.3361  1.1355 -0.1164
 1794SOL    HW216845   4.455   2.787   9.050  0.0276 -1.9067 -0.1687
 1795SOL     OW16846   4.668   1.929   5.962  0.2697  0.0432 -0.1084
 1795SOL    HW116847   4.645   2.008   5.913  1.4280  0.7201  0.4380
 1795SOL    HW216848   0.035   1.924   5.927  0.4691  1.0769  0.2465
 1796SOL     OW16849   0.429   2.740  12.604 -0.2372 -0.3734  0.8200
 1796SOL    HW116850   0.463   2.698  12.683  0.7816  0.2252  0.6959
 1796SOL    HW216851   0.457   2.687  12.529  1.4681 -0.9371  1.8737
 1797SOL     OW16852   3.270   1.873   8.208  0.0204  0.1494  0.2406
 1797SOL    HW116853   3.250   1.899   8.118  2.3729 -0.6835 -0.5378
 1797SOL    HW216854   3.353   1.825   8.208  0.4948  0.9627  0.4680
 1798SOL     OW16855   4.628   1.764   2.504  0.0291  0.3679  0.0255
 1798SOL    HW116856   4.599   1.727   2.421 -1.4833 -0.4638  0.9260
 1798SOL    HW216857   4.642   1.688   2.560 -2.5991 -0.3705 -0.3280
 1799SOL     OW16858   0.873   2.275   7.913  0.4166 -0.2912  0.2147
 1799SOL    HW116859   0.787   2.248   7.946  0.1215  0.6938  0.2753
 1799SOL    HW216860   0.930   2.229   7.975  1.7892  0.8653 -0.1908
 1800SOL     OW16861   1.694   0.980  10.342  0.2493 -0.2960  0.1242
 1800SOL    HW116862   1.775   1.024  10.368 -0.7312  1.6051 -0.0439
 1800SOL    HW216863   1.629   1.021  10.399 -1.0696 -1.8760 -0.2500
 1801SOL     OW16864   4.415   1.879   5.532 -0.0816 -0.0586  0.5301
 1801SOL    HW116865   4.383   1.835   5.611  1.4529 -0.8202  0.7274
 1801SOL    HW216866   4.379   1.832   5.457  1.1597 -1.2071  0.6405
 1802SOL     OW16867   4.045   0.469   9.446 -0.3125 -0.1457 -0.5098
 1802SOL    HW116868   4.040   0.564   9.436 -4.5779 -0.2674  0.4544
 1802SOL    HW216869   4.072   0.457   9.537 -0.6471 -0.8400 -0.4942
 1803SOL     OW16870   2.176   3.375   8.836  0.3123 -0.3575  0.3381
 1803SOL    HW116871   2.155   3.397   8.927  2.0366 -0.3496  0.7477
 1803SOL    HW216872   2.097   3.415   8.799  0.6438  0.2279  0.2574
 1804SOL     OW16873   0.637   0.915   5.054  0.4530  0.0968 -0.5060
 1804SOL    HW116874   0.621   0.878   4.968  0.0080  1.3004 -0.9288
 1804SOL    HW216875   0.733   0.924   5.058  0.4806 -1.2540  1.9588
 1805SOL     OW16876   0.097   1.343   2.045  0.7794 -0.2315 -0.8087
 1805SOL    HW116877   0.043   1.399   1.989  0.5771  0.4943  0.0988
 1805SOL    HW216878   0.155   1.404   2.091  0.5464 -2.1416  2.0072
 1806SOL     OW16879   1.287   1.787   4.204 -0.5385  0.2917 -0.5590
 1806SOL    HW116880   1.195   1.814   4.207 -1.1260 -1.8401  0.6195
 1806SOL    HW216881   1.331   1.872   4.212  0.6193 -0.1977 -1.7937
 1807SOL     OW16882   2.047   4.124   6.650  0.2265  0.3108  0.1163
 1807SOL    HW116883   2.016   4.204   6.692  0.0660  0.1286  0.3460
 1807SOL    HW216884   2.134   4.147   6.618  0.6912 -0.3998  0.8565
 1808SOL     OW16885   2.944   3.535   2.538  0.1368  0.0919  0.3172
 1808SOL    HW116886   2.984   3.487   2.466  0.3631  2.1629 -0.9505
 1808SOL    HW216887   3.002   3.519   2.611  2.5574 -2.1861 -2.1104
 1809SOL     OW16888   0.476   1.753   6.327  0.2541  0.4594 -0.0406
 1809SOL    HW116889   0.547   1.805   6.364 -0.1973 -0.8128  2.6524
 1809SOL    HW216890   0.445   1.711   6.407 -0.9476 -2.1565 -1.8669
 1810SOL     OW16891   0.992   4.257   6.685  0.7441  0.4162 -0.1565
 1810SOL    HW116892   1.053   4.247   6.758 -0.0354  2.0927  0.7248
 1810SOL    HW216893   1.016   4.335   6.635  1.2948 -0.4857 -1.2916
 1811SOL     OW16894   4.292   2.739  10.758 -0.4712 -0.4456  0.3831
 1811SOL    HW116895   4.263   2.731  10.667  1.4090  1.3152 -0.3844
 1811SOL    HW216896   4.210   2.735  10.807 -0.6068 -0.2508  0.1746
 1812SOL     OW16897   0.849   4.580   4.377 -0.1956  0.4480  0.2113
 1812SOL    HW116898   0.896   4.642   4.320  0.3312  1.3736  1.6466
 1812SOL    HW216899   0.758   4.573   4.347 -0.5995  2.3137  0.9705
 1813SOL     OW16900   1.417   2.929   6.276  0.3190  0.2265  0.2624
 1813SOL    HW116901   1.436   2.866   6.345  0.2260 -0.2343 -0.1305
 1813SOL    HW216902   1.322   2.937   6.289  0.1439 -0.9333 -0.2838
 1814SOL     OW16903   2.650   0.497  12.023 -0.2910 -0.4628  0.1003
 1814SOL    HW116904   2.690   0.414  11.997  0.0874  0.7721 -3.3244
 1814SOL    HW216905   2.689   0.557  11.959 -0.5457 -0.0978  0.2890
 1815SOL     OW16906   0.197   3.609  10.754  0.4941 -0.2985 -0.1666
 1815SOL    HW116907   0.155   3.572  10.677 -0.8552 -0.9238  0.8665
 1815SOL    HW216908   0.125   3.599  10.816  0.9045 -0.6949  0.2436
 1816SOL     OW16909   1.463   4.103   3.450 -0.1738  0.2729  0.6584
 1816SOL    HW116910   1.537   4.047   3.425 -0.6580  0.5648 -1.5027
 1816SOL    HW216911   1.506   4.186   3.429 -1.6692  1.1876  1.2888
 1817SOL     OW16912   1.035   4.410  17.105  1.0615 -0.0745  0.3021
 1817SOL    HW116913   0.984   4.454  17.037  1.3754  0.8467  0.6642
 1817SOL    HW216914   1.080   4.479  17.154 -0.4408  1.5379 -0.6012
 1818SOL     OW16915   1.949   1.843   4.879 -0.6494  0.2669 -0.5861
 1818SOL    HW116916   1.972   1.845   4.786  1.1099 -0.1300 -0.1520
 1818SOL    HW216917   1.981   1.927   4.912 -3.3497  1.2538 -0.5102
 1819SOL     OW16918   3.356   0.155  11.350  0.2459 -0.1718 -0.6233
 1819SOL    HW116919   3.409   0.157  11.270 -0.9980  1.6765 -1.4004
 1819SOL    HW216920   3.367   0.061  11.367  1.8134 -0.1345 -1.3785
 1820SOL     OW16921   4.073   1.535  12.537  0.1115  0.4726 -0.3216
 1820SOL    HW116922   4.056   1.440  12.542  1.7755  0.3430  3.0880
 1820SOL    HW216923   4.074   1.558  12.630 -2.6758  0.3392 -0.2581
 1821SOL     OW16924   3.112   3.373  14.079 -0.2808  0.2660  0.5593
 1821SOL    HW116925   3.106   3.398  14.171  0.3320  0.0378  0.6608
 1821SOL    HW216926   3.202   3.398  14.059 -0.7647  2.0941  0.6952
 1822SOL     OW16927   0.779   1.370   4.026  0.3315  0.3320 -0.6744
 1822SOL    HW116928   0.697   1.418   4.039  0.1000 -0.4000  0.5595
 1822SOL    HW216929   0.758   1.329   3.942 -0.6688  1.2245 -0.8606
 1823SOL     OW16930   2.100   2.054   8.775 -0.4155 -0.2022  0.0020
 1823SOL    HW116931   2.122   1.963   8.757 -1.1126 -0.0279 -1.7503
 1823SOL    HW216932   2.027   2.070   8.716 -0.6399  0.4425  0.4531
 1824SOL     OW16933   4.687   2.185   7.961 -0.3385  0.1940 -0.3218
 1824SOL    HW116934   4.672   2.174   7.867 -1.8228 -0.0134 -0.0631
 1824SOL    HW216935   4.609   2.237   7.983 -0.5229 -0.6174  0.9080
 1825SOL     OW16936   0.248   0.034   6.550  0.6155  0.2262 -0.0588
 1825SOL    HW116937   0.301   0.113   6.560 -0.4599  1.0437 -0.7502
 1825SOL    HW216938   0.301   4.680   6.572 -0.8321 -1.2217 -1.5891
 1826SOL     OW16939   4.486   0.401  11.322 -0.1786 -0.1302 -0.5019
 1826SOL    HW116940   4.452   0.477  11.274  0.3714  1.2692  1.3049
 1826SOL    HW216941   4.467   0.429  11.411  1.8503 -0.0111 -0.0897
 1827SOL     OW16942   0.460   4.577   6.243 -0.1877 -0.3673 -0.4703
 1827SOL    HW116943   0.545   4.532   6.240 -0.4938 -1.0643  1.4223
 1827SOL    HW216944   0.482   4.645   6.307 -0.1464 -0.7047 -0.1278
 1828SOL     OW16945   2.882   2.331   4.254 -0.2618  0.7320 -0.3275
 1828SOL    HW116946   2.907   2.252   4.206 -1.1242 -0.5532  1.3326
 1828SOL    HW216947   2.962   2.384   4.248 -1.7804  2.9346 -1.2588
 1829SOL     OW16948   3.767   3.353   1.070  0.5161  0.0753  0.5708
 1829SOL    HW116949   3.849   3.381   1.030  0.3536 -2.6467 -1.6876
 1829SOL    HW216950   3.807   3.294   1.134  0.2220 -1.3963 -0.5884
 1830SOL     OW16951   3.725   2.041   7.741 -0.1255 -0.7464  0.0395
 1830SOL    HW116952   3.679   2.119   7.711  0.8874 -0.1584  0.0328
 1830SOL    HW216953   3.760   2.005   7.660 -0.8808 -0.1032 -0.5694
 1831SOL     OW16954   2.191   2.370   9.625 -0.1291 -0.3630 -0.1853
 1831SOL    HW116955   2.234   2.403   9.546 -2.0487 -0.5214 -1.3100
 1831SOL    HW216956   2.241   2.288   9.626 -0.5053 -0.6526 -3.0745
 1832SOL     OW16957   1.236   0.703   2.757 -0.1621  0.2575  0.2521
 1832SOL    HW116958   1.273   0.616   2.774 -2.4753 -0.3723  2.0292
 1832SOL    HW216959   1.143   0.684   2.770 -0.0134  0.3480  1.4170
 1833SOL     OW16960   1.805   4.642   2.883  0.5564  0.4939 -0.1884
 1833SOL    HW116961   1.821   4.598   2.800 -2.4308 -2.1657  0.6330
 1833SOL    HW216962   1.822   4.579   2.953 -1.2913  0.6988  0.4446
 1834SOL     OW16963   3.395   0.908   8.219  0.3720 -0.4934  0.1972
 1834SOL    HW116964   3.393   0.980   8.281 -1.4412 -1.7800  1.6593
 1834SOL    HW216965   3.421   0.954   8.139  3.4007  1.4020  2.2837
 1835SOL     OW16966   0.097   3.289   4.012  0.3382  0.3951 -0.0060
 1835SOL    HW116967   0.053   3.275   4.096 -0.8708 -2.0687 -1.0847
 1835SOL    HW216968   0.189   3.265   4.026 -0.0225  0.3201  2.2109
 1836SOL     OW16969   1.480   0.446   8.510 -0.0651 -0.2246  0.4607
 1836SOL    HW116970   1.502   0.440   8.603 -0.5758 -1.1745  0.5237
 1836SOL    HW216971   1.394   0.405   8.512 -1.1200  2.0892  1.4489
 1837SOL     OW16972   1.754   0.554   4.605 -0.2349  0.0061  0.0085
 1837SOL    HW116973   1.752   0.646   4.634  4.1378  0.2338 -0.4154
 1837SOL    HW216974   1.810   0.571   4.529 -2.5028 -0.1141 -1.7133
 1838SOL     OW16975   3.632   1.181   2.643  0.2664  0.5487  0.6710
 1838SOL    HW116976   3.603   1.273   2.643  0.0992  0.4949 -1.0926
 1838SOL    HW216977   3.722   1.184   2.673  0.6852 -2.3721 -0.2891
 1839SOL     OW16978   1.681   4.444   0.165  0.4498  0.0334 -0.1489
 1839SOL    HW116979   1.648   4.383   0.099 -3.6819  0.8010  1.2080
 1839SOL    HW216980   1.664   4.396   0.247  0.9327 -0.7992 -0.5339
 1840SOL     OW16981   3.457   4.653   2.559  0.5144  0.4465  0.8686
 1840SOL    HW116982   3.499   4.585   2.506  1.2518  1.2050  0.4650
 1840SOL    HW216983   3.389   4.598   2.595  1.8788 -1.0731  1.1269
 1841SOL     OW16984   2.197   1.098  12.383 -0.5608  0.3510  0.2215
 1841SOL    HW116985   2.239   1.184  12.380 -1.0715  0.6446  1.5258
 1841SOL    HW216986   2.105   1.121  12.395 -0.9857 -0.5466 -1.3629
 1842SOL     OW16987   2.096   0.103   1.585  0.0187 -0.0080 -0.3943
 1842SOL    HW116988   2.136   0.019   1.562  1.6088  0.4944  0.5522
 1842SOL    HW216989   2.025   0.106   1.522  0.8094  0.0932 -1.2886
 1843SOL     OW16990   3.708   2.598   6.319 -0.5013 -0.1251  0.4291
 1843SOL    HW116991   3.657   2.626   6.244 -0.2349 -1.5148 -0.2836
 1843SOL    HW216992   3.655   2.614   6.397 -1.9318  0.1317 -0.6024
 1844SOL     OW16993   2.927   4.359   3.967 -0.6735  0.0577  0.0606
 1844SOL    HW116994   2.850   4.414   3.954  0.0198  1.1297  0.4108
 1844SOL    HW216995   2.887   4.272   3.970 -0.8712  0.1407 -0.2210
 1845SOL     OW16996   0.143   0.660   0.344  0.4281 -0.4248 -0.7254
 1845SOL    HW116997   0.141   0.744   0.298  0.6487 -0.4223 -0.7336
 1845SOL    HW216998   0.238   0.657   0.354  0.2282 -0.3452  1.1402
 1846SOL     OW16999   1.270   3.371   5.424 -0.1441 -0.4266  0.5099
 1846SOL    HW117000   1.344   3.383   5.364 -0.2650  1.8352  0.8143
 1846SOL    HW217001   1.315   3.355   5.507  1.1817  1.5575  0.1724
 1847SOL     OW17002   0.354   3.725   0.512  0.4402 -0.3360 -0.4746
 1847SOL    HW117003   0.323   3.783   0.443  0.1547  0.8980  0.6906
 1847SOL    HW217004   0.358   3.642   0.464 -0.0077 -0.9449  0.5301
 1848SOL     OW17005   1.907   3.904   4.652  0.7490  0.1809 -0.1603
 1848SOL    HW117006   1.988   3.948   4.627  0.2822  0.8426 -0.5231
 1848SOL    HW217007   1.880   3.966   4.720  3.9562 -0.0917  1.3098
 1849SOL     OW17008   0.881   1.615   6.982  0.6615  0.0269 -0.2292
 1849SOL    HW117009   0.882   1.554   6.908 -0.6037 -1.8354  1.2554
 1849SOL    HW217010   0.852   1.564   7.058  0.1886 -0.1472 -0.5219
 1850SOL     OW17011   1.634   3.169  13.975 -0.0249 -0.4223  0.2808
 1850SOL    HW117012   1.699   3.238  13.970 -2.7306  2.2008  1.3567
 1850SOL    HW217013   1.688   3.096  13.945  0.7870 -0.6157  2.2231
 1851SOL     OW17014   4.553   2.486   3.142  0.2515 -0.0097 -0.0727
 1851SOL    HW117015   4.596   2.442   3.068 -0.4732 -0.0283 -0.4817
 1851SOL    HW217016   4.464   2.475   3.110  0.0420  0.6476  0.2837
 1852SOL     OW17017   2.009   3.689   1.723  0.2427 -0.1049 -0.2637
 1852SOL    HW117018   2.038   3.772   1.685  0.0076 -0.7165 -1.7769
 1852SOL    HW217019   2.036   3.708   1.813  1.8388  1.4989 -1.0891
 1853SOL     OW17020   2.744   2.401   7.365  0.2820  0.2463  0.5002
 1853SOL    HW117021   2.686   2.325   7.360  2.5888 -1.4989  0.2652
 1853SOL    HW217022   2.827   2.373   7.325  1.2496  0.9127  2.0292
 1854SOL     OW17023   4.611   3.933  15.728 -0.3589  0.0117  0.6498
 1854SOL    HW117024   4.672   3.871  15.766 -0.1404 -0.5934 -0.6965
 1854SOL    HW217025   4.644   3.923  15.639  2.9968  2.6309  1.6139
 1855SOL     OW17026   0.704   1.078   0.160 -0.0259 -0.8626  0.2949
 1855SOL    HW117027   0.782   1.094   0.213  1.4202 -2.4082 -1.3815
 1855SOL    HW217028   0.681   1.168   0.137 -1.3163 -0.4313  3.2848
 1856SOL     OW17029   0.255   1.651   6.905  0.4545 -0.1969 -0.6974
 1856SOL    HW117030   0.165   1.629   6.881  0.3500  2.3327 -2.6209
 1856SOL    HW217031   0.306   1.571   6.891 -0.3189 -0.8607  0.2935
 1857SOL     OW17032   3.796   1.624   7.790  0.4657  0.5621 -0.7588
 1857SOL    HW117033   3.791   1.650   7.882  0.1674  0.3149 -0.7047
 1857SOL    HW217034   3.875   1.672   7.766  0.7140  1.4677  1.8535
 1858SOL     OW17035   4.025   3.884   2.543 -0.1927 -0.4036 -0.3165
 1858SOL    HW117036   4.015   3.789   2.539 -0.4238 -0.3843 -0.1983
 1858SOL    HW217037   4.097   3.879   2.605  1.3005  1.4076 -1.9349
 1859SOL     OW17038   2.267   3.653   4.961 -0.2446 -0.0417  0.2381
 1859SOL    HW117039   2.258   3.744   4.989  1.2002 -0.2216  1.2725
 1859SOL    HW217040   2.323   3.612   5.027  0.7333 -0.1255 -0.6433
 1860SOL     OW17041   2.600   3.395   8.784  0.0612 -0.2109  0.1509
 1860SOL    HW117042   2.665   3.434   8.726 -0.5314  0.9572  0.2881
 1860SOL    HW217043   2.555   3.473   8.816  1.8874  1.0499 -0.3651
 1861SOL     OW17044   4.178   0.705   2.734  0.3558  0.2671 -0.3125
 1861SOL    HW117045   4.255   0.710   2.678  0.5959 -0.7579 -0.0580
 1861SOL    HW217046   4.154   0.615   2.713 -0.7690  0.1370  1.5459
 1862SOL     OW17047   2.666   1.669  10.989 -0.2035 -0.0996  0.5487
 1862SOL    HW117048   2.628   1.695  10.905 -0.8018  0.0409  0.8666
 1862SOL    HW217049   2.618   1.721  11.053 -0.9920  1.6293 -1.4702
 1863SOL     OW17050   2.308   1.429   5.105  0.3610 -0.3304  0.4440
 1863SOL    HW117051   2.357   1.370   5.047  0.8469  1.3472 -0.8493
 1863SOL    HW217052   2.286   1.364   5.171 -0.0498 -0.6235  0.0164
 1864SOL     OW17053   0.448   4.185   1.477 -0.2601  0.5648 -0.2553
 1864SOL    HW117054   0.543   4.177   1.465  0.1140  3.0510  1.0174
 1864SOL    HW217055   0.431   4.262   1.423  1.6131 -0.1463 -1.8704
 1865SOL     OW17056   3.971   4.604   3.167  1.0670  0.2589 -0.3907
 1865SOL    HW117057   3.999   4.539   3.102  1.1192 -0.5412  0.4321
 1865SOL    HW217058   3.935   4.548   3.236  3.2007  1.9239  2.0407
 1866SOL     OW17059   4.613   3.155   6.970 -0.0877  0.2505 -0.1793
 1866SOL    HW117060   4.582   3.240   6.939 -0.3731  0.0904 -0.3278
 1866SOL    HW217061   4.566   3.099   6.909 -2.0833  0.0084  1.5693
 1867SOL     OW17062   2.998   4.152  15.221 -0.2461 -0.3718  0.5413
 1867SOL    HW117063   2.964   4.241  15.212 -0.9917 -0.6822  0.3319
 1867SOL    HW217064   3.091   4.159  15.199 -0.4725 -0.6427 -0.5206
 1868SOL     OW17065   0.896   1.661   7.585 -0.3312 -0.7748 -0.6394
 1868SOL    HW117066   0.877   1.697   7.498  2.4363  1.8676 -0.1442
 1868SOL    HW217067   0.989   1.649   7.571 -0.3651  1.6838 -2.9967
 1869SOL     OW17068   1.741   3.766   6.994  0.1771  0.2388 -0.1061
 1869SOL    HW117069   1.667   3.822   6.968 -0.2364 -0.3150 -0.1255
 1869SOL    HW217070   1.804   3.805   6.933 -0.9191 -1.5205 -2.3955
 1870SOL     OW17071   0.286   0.482   1.995  0.1843  0.4975  0.3838
 1870SOL    HW117072   0.354   0.470   1.928 -0.9456 -0.2213 -0.6384
 1870SOL    HW217073   0.242   0.563   1.969 -1.3553 -0.5041 -0.1215
 1871SOL     OW17074   3.183   4.111   5.420  0.4717 -0.4367  0.2562
 1871SOL    HW117075   3.261   4.112   5.476  1.0008 -1.3562 -0.4651
 1871SOL    HW217076   3.121   4.134   5.488 -0.6305 -1.9483 -0.2386
 1872SOL     OW17077   4.482   1.408  10.257  0.3098  0.3890 -0.3504
 1872SOL    HW117078   4.432   1.436  10.181  1.4654  0.6354 -1.0209
 1872SOL    HW217079   4.413   1.361  10.303 -0.4981  3.6667  1.8316
 1873SOL     OW17080   2.863   0.050   4.757  0.4760 -0.1963  0.4320
 1873SOL    HW117081   2.825   0.062   4.671 -1.2976  1.5517  1.4570
 1873SOL    HW217082   2.880   4.680   4.744 -0.0099 -0.0438 -1.2827
 1874SOL     OW17083   3.214   0.669   9.187  0.1451 -0.1351 -0.0700
 1874SOL    HW117084   3.232   0.578   9.213 -0.6668  0.0483  1.1178
 1874SOL    HW217085   3.292   0.675   9.132  0.1489 -1.2684 -0.1967
 1875SOL     OW17086   4.351   3.765   1.973 -0.1831  0.0776  0.5735
 1875SOL    HW117087   4.271   3.726   1.938 -0.3363  1.0422 -0.1532
 1875SOL    HW217088   4.393   3.684   2.001  0.6597  0.8656  1.6279
 1876SOL     OW17089   4.314   3.311   7.103 -0.3467 -0.4652 -0.0631
 1876SOL    HW117090   4.394   3.340   7.148 -0.7815  0.6843 -0.0306
 1876SOL    HW217091   4.275   3.398   7.113  1.4674  0.2691  0.6517
 1877SOL     OW17092   2.943   1.297  17.473  0.2669 -0.3761 -0.5391
 1877SOL    HW117093   3.037   1.282  17.478  0.0059 -2.3120 -1.2555
 1877SOL    HW217094   2.917   1.214  17.433 -0.1249 -0.8131  0.6309
 1878SOL     OW17095   0.799   3.870   4.824 -0.4707 -0.3833  0.1974
 1878SOL    HW117096   0.749   3.888   4.744 -0.3188  2.0984  0.6708
 1878SOL    HW217097   0.733   3.822   4.874 -0.3488 -0.5560  0.1920
 1879SOL     OW17098   4.463   3.397   8.091 -0.1325  0.6852 -0.2693
 1879SOL    HW117099   4.458   3.355   8.005 -0.3654  1.9322 -0.8596
 1879SOL    HW217100   4.515   3.474   8.069 -0.9994  0.5597 -2.7149
 1880SOL     OW17101   3.769   1.710   8.037 -0.3195  0.3841  0.1113
 1880SOL    HW117102   3.770   1.784   8.097 -2.4143 -1.2745  2.1719
 1880SOL    HW217103   3.678   1.723   8.009 -0.1049 -0.7885 -1.1621
 1881SOL     OW17104   3.340   3.013   7.467  0.2780  0.2867  0.7326
 1881SOL    HW117105   3.327   2.952   7.395 -2.2915  1.0898  0.4941
 1881SOL    HW217106   3.281   2.969   7.528 -0.5791  1.0876  0.4918
 1882SOL     OW17107   0.672   0.655   4.249 -0.1827 -0.2385  0.2738
 1882SOL    HW117108   0.593   0.701   4.277 -0.6537 -1.1024  0.3503
 1882SOL    HW217109   0.638   0.587   4.191 -3.1832  1.9346 -0.5074
 1883SOL     OW17110   3.303   2.209  11.855  0.2667 -0.2979  0.3593
 1883SOL    HW117111   3.297   2.305  11.851 -2.2528 -0.5927 -2.2885
 1883SOL    HW217112   3.349   2.204  11.772  1.4752  0.1492  1.0000
 1884SOL     OW17113   0.500   4.247   2.275  0.6844  0.0317  0.6093
 1884SOL    HW117114   0.420   4.213   2.315  0.2709  1.0637  0.6718
 1884SOL    HW217115   0.547   4.242   2.358  0.6416 -1.1525  0.5572
 1885SOL     OW17116   1.188   3.351   7.148  0.3116 -0.6289 -0.3316
 1885SOL    HW117117   1.210   3.259   7.166  1.3167 -0.0832  1.1510
 1885SOL    HW217118   1.240   3.355   7.068 -0.7678 -0.8694 -1.0465
 1886SOL     OW17119   1.857   3.713   6.657  0.3401 -0.2731 -0.0189
 1886SOL    HW117120   1.806   3.632   6.660 -0.7849  0.4630  0.6708
 1886SOL    HW217121   1.908   3.688   6.580  1.9275  1.0934  0.6199
 1887SOL     OW17122   4.048   1.749   7.801  0.3838 -0.1599 -0.2912
 1887SOL    HW117123   4.133   1.748   7.758  0.6577  0.2208  0.2482
 1887SOL    HW217124   4.028   1.836   7.768 -0.9433 -0.9026 -1.5017
 1888SOL     OW17125   3.359   0.659  16.352 -0.3323 -0.5331 -0.4329
 1888SOL    HW117126   3.294   0.724  16.379  0.5945  0.0791  0.3015
 1888SOL    HW217127   3.391   0.630  16.437  0.0865  1.9321  0.2478
 1889SOL     OW17128   1.209   4.258   5.095  0.3711  0.6119  0.3461
 1889SOL    HW117129   1.270   4.211   5.152 -2.0758 -0.6717  1.9206
 1889SOL    HW217130   1.242   4.232   5.009  0.1903  0.5032  0.3078
 1890SOL     OW17131   1.428   4.606   8.322 -0.8411  0.2658  0.2071
 1890SOL    HW117132   1.391   4.653   8.247 -0.6187  0.7856  0.4241
 1890SOL    HW217133   1.416   4.666   8.396 -1.4597 -0.5348  0.7548
 1891SOL     OW17134   4.203   4.366   4.984 -0.1450 -0.0736 -0.7479
 1891SOL    HW117135   4.133   4.404   4.931 -0.0606  1.1821  0.0586
 1891SOL    HW217136   4.249   4.443   5.017  2.0561 -0.7211 -2.2999
 1892SOL     OW17137   0.517   4.660   8.625 -0.1880 -0.0913  0.0174
 1892SOL    HW117138   0.537   0.017   8.674  0.2432  0.4301 -1.0213
 1892SOL    HW217139   0.502   4.704   8.542 -1.6692  1.4670  1.0991
 1893SOL     OW17140   4.352   1.605   0.261 -0.1986 -0.1556  0.6617
 1893SOL    HW117141   4.291   1.596   0.334 -1.0017 -0.5951 -0.0652
 1893SOL    HW217142   4.358   1.699   0.242  2.6146 -0.7356 -1.3066
 1894SOL     OW17143   2.064   4.495   9.002 -0.1180  0.6521  0.2930
 1894SOL    HW117144   2.048   4.530   9.089  0.4774  1.5190  0.0530
 1894SOL    HW217145   2.010   4.416   9.009  1.0246 -0.0470  1.2032
 1895SOL     OW17146   1.410   2.181   3.656  0.0860 -0.0387 -0.3845
 1895SOL    HW117147   1.335   2.173   3.598 -0.1094 -0.1885 -0.1065
 1895SOL    HW217148   1.480   2.175   3.591  0.6015 -0.9586  0.2601
 1896SOL     OW17149   2.032   1.427   2.392 -0.2554  0.0143  0.1166
 1896SOL    HW117150   2.017   1.522   2.392  0.4497  0.1235  1.0614
 1896SOL    HW217151   2.023   1.395   2.302 -0.1351 -0.2557  0.2028
 1897SOL     OW17152   2.739   2.406  10.378  0.1573  0.3456  0.1741
 1897SOL    HW117153   2.727   2.409  10.472 -1.2080 -0.1026  0.0214
 1897SOL    HW217154   2.832   2.418  10.361  0.6286 -2.2924  1.0234
 1898SOL     OW17155   1.644   4.008   9.835 -0.5366  0.0368  0.0981
 1898SOL    HW117156   1.551   3.988   9.846 -0.6035 -0.0606 -0.6916
 1898SOL    HW217157   1.679   3.936   9.888  1.5519  1.5107  0.7159
 1899SOL     OW17158   2.279   4.508  12.265 -0.1225  0.2508  0.1261
 1899SOL    HW117159   2.313   4.460  12.340  0.9266  0.5839 -0.1417
 1899SOL    HW217160   2.257   4.588  12.313  0.7207 -0.2985  1.4371
 1900SOL     OW17161   3.644   0.423   4.436 -0.2528  0.1812  0.0768
 1900SOL    HW117162   3.689   0.508   4.441 -0.2545  0.0571  2.5069
 1900SOL    HW217163   3.644   0.409   4.342  0.2619  0.7034 -0.0044
 1901SOL     OW17164   1.276   3.318   4.584  0.2481 -0.3174  0.4319
 1901SOL    HW117165   1.350   3.372   4.613  0.2235  0.0135 -0.1318
 1901SOL    HW217166   1.308   3.280   4.502  1.7583  2.9637 -0.4910
 1902SOL     OW17167   4.019   3.232   7.162  0.4899  0.4534 -0.2014
 1902SOL    HW117168   4.109   3.260   7.145  0.5050  0.6668  0.2372
 1902SOL    HW217169   4.026   3.210   7.255 -3.2668 -0.3328 -0.1209
 1903SOL     OW17170   1.555   1.676   4.535  0.9779 -0.0834 -0.3731
 1903SOL    HW117171   1.550   1.751   4.476  0.5478 -0.5524 -0.9441
 1903SOL    HW217172   1.643   1.666   4.570  0.4746 -1.3279  0.5768
 1904SOL     OW17173   2.903   1.035  14.542 -0.0413 -0.7272  0.5313
 1904SOL    HW117174   2.938   1.074  14.462 -1.7849 -1.6830 -0.7096
 1904SOL    HW217175   2.855   0.963  14.503  0.3706 -0.1142 -1.0952
 1905SOL     OW17176   4.555   1.446  12.851  0.4344  0.3537 -0.2844
 1905SOL    HW117177   4.600   1.446  12.935  0.2891 -0.1721 -0.2048
 1905SOL    HW217178   4.579   1.361  12.813 -0.2787 -1.0215  2.2846
 1906SOL     OW17179   0.184   2.677  13.307  0.1920  0.6396  0.1017
 1906SOL    HW117180   0.202   2.675  13.213 -1.2823 -0.3534 -0.1841
 1906SOL    HW217181   0.141   2.762  13.315  0.7511  0.8817  0.4867
 1907SOL     OW17182   3.713   1.455   7.432  0.9068 -0.6034 -0.3095
 1907SOL    HW117183   3.721   1.548   7.414  2.3115 -0.8275 -0.8762
 1907SOL    HW217184   3.653   1.434   7.360 -0.4300  1.4253  0.2171
 1908SOL     OW17185   1.389   3.888  11.578  0.0847 -0.9704 -0.5334
 1908SOL    HW117186   1.438   3.891  11.496  0.1209  0.7988 -0.4539
 1908SOL    HW217187   1.383   3.982  11.595 -1.0720 -0.9537 -1.0279
 1909SOL     OW17188   4.649   2.389  13.709 -0.2285 -0.0858 -0.6554
 1909SOL    HW117189   4.578   2.430  13.759 -0.1240 -0.2472 -0.3743
 1909SOL    HW217190   4.656   2.457  13.641  0.3221  0.8282  0.3037
 1910SOL     OW17191   1.741   1.308   8.398  0.1788 -0.1338  0.6231
 1910SOL    HW117192   1.824   1.261   8.411  0.6782  0.2566 -1.1439
 1910SOL    HW217193   1.679   1.235   8.396 -0.5049  0.4958 -1.7800
 1911SOL     OW17194   2.365   3.458   6.211 -0.0095 -0.0556 -0.5866
 1911SOL    HW117195   2.383   3.380   6.263 -0.6765 -1.7901 -2.9762
 1911SOL    HW217196   2.305   3.504   6.270  0.4646  1.8243 -1.5614
 1912SOL     OW17197   0.343   3.498   8.609 -0.5839 -0.0457  0.5448
 1912SOL    HW117198   0.327   3.404   8.615  1.5037 -0.3388  1.2275
 1912SOL    HW217199   0.433   3.495   8.641 -0.0073  1.9752 -0.8233
 1913SOL     OW17200   3.780   3.052  16.950  0.5436  0.3732  0.1319
 1913SOL    HW117201   3.707   2.989  16.950 -1.7355  2.9979  0.4314
 1913SOL    HW217202   3.728   3.132  16.946  0.1473  0.1455  0.7614
 1914SOL     OW17203   0.824   1.795   2.608 -0.2508 -0.5106 -0.1580
 1914SOL    HW117204   0.795   1.886   2.600  0.7497 -0.3597 -2.0602
 1914SOL    HW217205   0.889   1.793   2.538  2.6592  2.3031  2.5247
 1915SOL     OW17206   0.723   2.068   2.290 -0.3436 -0.3575  0.2542
 1915SOL    HW117207   0.671   2.062   2.210  0.5323 -0.1995 -0.3314
 1915SOL    HW217208   0.755   2.158   2.286 -1.2133  0.0440  2.2058
 1916SOL     OW17209   3.014   1.687   6.171 -0.3116  0.6270  0.3220
 1916SOL    HW117210   3.032   1.628   6.098 -0.3249  0.0304  0.8014
 1916SOL    HW217211   3.069   1.765   6.161 -1.5829  1.4723 -0.0849
 1917SOL     OW17212   3.071   3.777   0.764  0.4747  0.4517  0.2482
 1917SOL    HW117213   3.055   3.869   0.788  2.1398  0.4687  1.3098
 1917SOL    HW217214   3.129   3.754   0.837 -0.0433 -0.1326  0.4750
 1918SOL     OW17215   1.338   0.122   5.992 -0.1783  0.3890 -0.0805
 1918SOL    HW117216   1.315   0.041   5.947  0.7960  0.7251 -1.1956
 1918SOL    HW217217   1.401   0.087   6.054  1.1629  2.4647 -0.2446
 1919SOL     OW17218   0.628   4.366  10.976  0.1691  0.0042  0.1946
 1919SOL    HW117219   0.657   4.380  10.886  0.1364  1.4899  0.4222
 1919SOL    HW217220   0.615   4.460  10.990 -1.9733  0.0092 -1.7257
 1920SOL     OW17221   4.387   4.146  17.168 -0.1223 -0.3286  0.3261
 1920SOL    HW117222   4.326   4.168  17.239  0.9966  0.9650  0.8728
 1920SOL    HW217223   4.438   4.226  17.168 -0.2762 -0.2386 -2.2015
 1921SOL     OW17224   0.147   1.049   8.683 -0.7318  0.0293 -0.3433
 1921SOL    HW117225   0.115   0.963   8.709 -2.0134 -0.0484 -2.2344
 1921SOL    HW217226   0.208   1.051   8.757 -0.7176  2.7601 -0.3954
 1922SOL     OW17227   4.021   4.579  13.264 -0.2873  0.1752  0.0458
 1922SOL    HW117228   4.114   4.589  13.285  0.0526  0.5345 -1.6182
 1922SOL    HW217229   4.000   4.667  13.232  2.1848  0.4444 -0.8270
 1923SOL     OW17230   1.417   3.199   8.921  0.6226  0.8606 -0.0479
 1923SOL    HW117231   1.509   3.174   8.921 -0.0990 -1.8247  1.8817
 1923SOL    HW217232   1.421   3.284   8.877  0.4522  1.2229  0.6253
 1924SOL     OW17233   0.309   4.306   1.687  0.2094  0.2095 -0.0350
 1924SOL    HW117234   0.338   4.252   1.613  1.6165  1.5597 -0.4516
 1924SOL    HW217235   0.269   4.242   1.746 -0.0419 -0.7600 -1.2615
 1925SOL     OW17236   0.641   4.593  10.060 -0.1388  0.5052 -0.0618
 1925SOL    HW117237   0.680   4.547  10.134 -3.5347 -0.3646  1.1945
 1925SOL    HW217238   0.643   4.514  10.006  1.1187  0.7173 -0.3330
 1926SOL     OW17239   0.228   1.456   8.149  0.7668 -0.0308 -0.3758
 1926SOL    HW117240   0.180   1.373   8.154 -0.4172  0.5959 -1.2791
 1926SOL    HW217241   0.313   1.433   8.111  0.2647  0.0071 -1.5396
 1927SOL     OW17242   0.381   2.408  11.825 -0.0437 -0.0495 -0.0262
 1927SOL    HW117243   0.424   2.329  11.860 -1.3835 -0.7495  0.0269
 1927SOL    HW217244   0.294   2.374  11.805  0.0196 -0.7779  0.9177
 1928SOL     OW17245   0.241   0.011   7.840  0.7008  0.2556 -0.4962
 1928SOL    HW117246   0.252   0.068   7.763 -3.2346  3.3528  1.1959
 1928SOL    HW217247   0.159   0.042   7.878  0.5047 -0.6932 -0.1515
 1929SOL     OW17248   2.110   2.574   7.381  1.0424 -0.4415  0.0065
 1929SOL    HW117249   2.046   2.606   7.318  1.4294  2.1270  0.9279
 1929SOL    HW217250   2.102   2.481   7.360 -0.3765 -0.4220  0.4631
 1930SOL     OW17251   4.618   1.182  14.678  0.3530  0.5818 -0.8768
 1930SOL    HW117252   4.536   1.228  14.698  0.7648  1.9068 -2.2251
 1930SOL    HW217253   4.652   1.168  14.766 -1.3934 -1.5948 -0.5550
 1931SOL     OW17254   2.798   2.230   6.577 -0.0239  0.4164  0.6358
 1931SOL    HW117255   2.851   2.294   6.530  0.0381  0.1600  0.3571
 1931SOL    HW217256   2.827   2.247   6.667 -0.9162  1.8844  0.6427
 1932SOL     OW17257   3.303   4.388   9.641 -0.1750  0.0603 -0.1290
 1932SOL    HW117258   3.268   4.397   9.552 -2.6902  2.1239  1.0736
 1932SOL    HW217259   3.390   4.356   9.617  0.0101 -0.2645  0.9956
 1933SOL     OW17260   1.131   2.436   9.181  0.2824 -0.3606 -0.2792
 1933SOL    HW117261   1.048   2.474   9.154 -0.3446 -0.9057  0.8925
 1933SOL    HW217262   1.118   2.461   9.272 -0.4721  2.5821 -1.1787
 1934SOL     OW17263   1.030   3.721  16.412 -0.4497  0.4395  0.2178
 1934SOL    HW117264   0.998   3.728  16.501 -1.4465 -0.2765 -0.0857
 1934SOL    HW217265   1.124   3.710  16.424 -0.3552 -1.3587 -1.9630
 1935SOL     OW17266   0.584   4.131   3.293 -0.4155 -0.0311 -0.4325
 1935SOL    HW117267   0.546   4.052   3.332  0.9845  0.1610  1.3539
 1935SOL    HW217268   0.546   4.129   3.206  0.4267  0.0876 -0.7958
 1936SOL     OW17269   1.255   1.234   3.992 -0.2297 -0.0964  0.0900
 1936SOL    HW117270   1.188   1.301   3.977  1.4899  1.5750 -0.0853
 1936SOL    HW217271   1.247   1.209   4.083  0.2787  2.1054  0.7437
 1937SOL     OW17272   3.174   0.699   4.909  0.5566  0.3818  0.0751
 1937SOL    HW117273   3.216   0.635   4.966 -2.1259 -0.8110  0.6753
 1937SOL    HW217274   3.101   0.716   4.969 -1.2978 -0.1227 -2.0785
 1938SOL     OW17275   0.382   2.108   5.853 -0.6178  0.0009 -0.5567
 1938SOL    HW117276   0.337   2.033   5.814 -0.5353 -1.0807  1.4055
 1938SOL    HW217277   0.419   2.058   5.926  2.3422  1.3466 -1.1367
 1939SOL     OW17278   2.156   3.081  10.683 -0.0618 -0.2850 -0.9013
 1939SOL    HW117279   2.158   3.033  10.766 -3.7371  0.2565 -0.5070
 1939SOL    HW217280   2.246   3.068  10.652  0.0816  2.1569 -1.4640
 1940SOL     OW17281   3.332   1.777   3.505 -0.0606  0.3162  0.2560
 1940SOL    HW117282   3.365   1.758   3.417  1.5394 -0.7637  1.0819
 1940SOL    HW217283   3.409   1.807   3.553  1.6376  1.6580 -3.3906
 1941SOL     OW17284   3.051   1.616   0.187 -0.0383  0.1199  0.0261
 1941SOL    HW117285   3.087   1.645   0.103 -0.7855 -1.1493 -0.7255
 1941SOL    HW217286   3.114   1.664   0.241 -0.8938  1.7174 -0.3943
 1942SOL     OW17287   0.992   2.052   7.067 -0.5879 -0.1654 -0.4455
 1942SOL    HW117288   1.032   2.095   6.991 -0.1759 -1.5687 -1.0174
 1942SOL    HW217289   0.941   2.122   7.107 -0.4124 -0.7377  0.7779
 1943SOL     OW17290   4.008   2.499   0.689 -0.5898  0.2639 -0.0255
 1943SOL    HW117291   4.046   2.574   0.642  0.3537  0.2831  0.7780
 1943SOL    HW217292   3.917   2.504   0.660 -0.8168  0.2014  0.6676
 1944SOL     OW17293   4.165   4.366   6.744  0.7033  0.3719 -0.3423
 1944SOL    HW117294   4.246   4.320   6.723  1.1429  0.6910  0.6944
 1944SOL    HW217295   4.166   4.370   6.839  0.5188  2.1238 -0.4150
 1945SOL     OW17296   3.374   1.827   6.659 -0.2890 -0.1755 -0.1392
 1945SOL    HW117297   3.343   1.915   6.639 -1.4023 -0.4296  0.4987
 1945SOL    HW217298   3.318   1.801   6.732  0.8345 -1.3672  0.3204
 1946SOL     OW17299   2.310   3.886   2.988  0.2947  0.4624  0.0387
 1946SOL    HW117300   2.339   3.915   3.075 -1.6744  0.8789  0.5638
 1946SOL    HW217301   2.215   3.900   2.996  0.1575 -0.8586  0.5799
 1947SOL     OW17302   2.440   1.348   6.231  0.1855  0.3341  0.3572
 1947SOL    HW117303   2.510   1.365   6.295  0.4406 -3.2916  1.0166
 1947SOL    HW217304   2.412   1.435   6.202  0.2875  1.1460  2.6402
 1948SOL     OW17305   2.692   1.219   6.856  0.8569 -0.0361  0.7554
 1948SOL    HW117306   2.733   1.304   6.836 -0.1214  1.0113  3.2541
 1948SOL    HW217307   2.645   1.209   6.773  0.0349  1.6469  1.0227
 1949SOL     OW17308   1.133   2.640   8.930  0.0130  0.3013  0.1628
 1949SOL    HW117309   1.186   2.561   8.928  0.8817  0.8442  1.2524
 1949SOL    HW217310   1.134   2.665   9.023 -0.1098  0.2054  0.1899
 1950SOL     OW17311   4.682   2.412   5.742  0.4137 -0.0113  0.2107
 1950SOL    HW117312   4.685   2.367   5.657 -1.3316 -2.4733  1.4452
 1950SOL    HW217313   4.635   2.495   5.734 -1.2992 -1.0343 -0.4911
 1951SOL     OW17314   1.806   2.036   2.732 -0.2006 -0.6011 -0.2754
 1951SOL    HW117315   1.865   2.000   2.798  1.1013 -1.7039 -2.0400
 1951SOL    HW217316   1.763   1.956   2.704 -0.7348 -0.3725 -0.1077
 1952SOL     OW17317   0.468   0.359   1.057  0.6752  0.2257 -0.0781
 1952SOL    HW117318   0.483   0.280   1.109  0.9364 -0.3759 -1.0510
 1952SOL    HW217319   0.421   0.321   0.982 -1.9938  0.3265  1.5215
 1953SOL     OW17320   1.045   0.924   2.491  0.3651 -0.1476 -0.2861
 1953SOL    HW117321   1.078   0.907   2.403  0.1467  1.7894 -0.7593
 1953SOL    HW217322   1.114   0.982   2.523  0.3479 -0.0835 -0.3651
 1954SOL     OW17323   3.456   0.366   2.867 -0.1214 -0.3411 -0.0500
 1954SOL    HW117324   3.496   0.451   2.848 -0.2802  0.5603  3.6122
 1954SOL    HW217325   3.410   0.348   2.785 -1.8168 -0.3606  0.8896
 1955SOL     OW17326   3.773   2.096   3.108  0.3515 -0.0663  0.4980
 1955SOL    HW117327   3.810   2.081   3.195 -0.6197  3.1501  1.4479
 1955SOL    HW217328   3.736   2.009   3.093  1.0659 -0.7047  2.4177
 1956SOL     OW17329   3.623   3.891   3.285  0.3596 -0.3666 -0.8425
 1956SOL    HW117330   3.534   3.925   3.286 -0.3970 -2.3121 -1.4656
 1956SOL    HW217331   3.636   3.898   3.190  0.4815 -0.9018 -0.8678
 1957SOL     OW17332   1.116   2.838   4.130 -0.3379  0.1175 -0.5085
 1957SOL    HW117333   1.160   2.869   4.050  0.7423  0.2007  0.1121
 1957SOL    HW217334   1.188   2.846   4.193  0.5761  1.4169 -1.7274
 1958SOL     OW17335   3.793   0.389   7.922  0.4051  0.5340  0.3650
 1958SOL    HW117336   3.856   0.462   7.918  0.0883  0.7273 -1.1338
 1958SOL    HW217337   3.860   0.320   7.919  1.5484  1.6754 -0.4003
 1959SOL     OW17338   1.050   3.780   8.838 -0.4207  0.5227  0.8132
 1959SOL    HW117339   1.111   3.810   8.906 -1.0351  0.7204  1.2856
 1959SOL    HW217340   0.974   3.836   8.855 -0.8363 -0.0156  0.7316
 1960SOL     OW17341   1.632   1.488   7.441  0.4193  0.3934 -0.1625
 1960SOL    HW117342   1.612   1.527   7.526 -1.2271 -2.6562  0.8353
 1960SOL    HW217343   1.713   1.439   7.458  1.1677  1.3149 -1.0815
 1961SOL     OW17344   4.001   4.127   0.758  0.5453 -0.1043  0.2930
 1961SOL    HW117345   3.963   4.066   0.694  1.7498  0.5738 -1.0543
 1961SOL    HW217346   3.924   4.155   0.807  0.9141 -0.5630  1.1264
 1962SOL     OW17347   4.101   2.706   4.763 -0.5100  0.7178  0.0106
 1962SOL    HW117348   4.014   2.731   4.733  0.0034 -0.5876 -2.5173
 1962SOL    HW217349   4.087   2.672   4.851  0.4571 -1.4435 -0.6850
 1963SOL     OW17350   4.219   1.164  15.583 -0.8722  0.0448 -0.5586
 1963SOL    HW117351   4.248   1.172  15.492 -0.1206  0.8655 -0.2382
 1963SOL    HW217352   4.233   1.070  15.598  1.4951  0.5590  0.3248
 1964SOL     OW17353   4.206   1.297   9.259  0.3790 -0.0188 -0.4274
 1964SOL    HW117354   4.249   1.235   9.317  0.2020  0.6364  0.4233
 1964SOL    HW217355   4.213   1.387   9.293 -1.9123  0.2286 -0.6027
 1965SOL     OW17356   0.180   4.348   8.829  0.3807  0.1447 -0.1789
 1965SOL    HW117357   0.234   4.419   8.795  2.8116 -2.1005 -0.9643
 1965SOL    HW217358   0.128   4.397   8.892  0.1021 -1.0822  0.5363
 1966SOL     OW17359   4.611   0.893  14.659  0.0062 -0.1011 -0.2579
 1966SOL    HW117360   4.540   0.956  14.655  1.7442  1.9018  0.0822
 1966SOL    HW217361   4.595   0.850  14.743 -0.1557 -2.8350 -1.6715
 1967SOL     OW17362   2.982   2.374   7.070 -0.3705  0.2581  0.0110
 1967SOL    HW117363   2.980   2.312   7.143 -1.2180  2.1079  1.5740
 1967SOL    HW217364   3.068   2.415   7.083  0.4770 -1.5163 -0.0318
 1968SOL     OW17365   1.515   0.425  17.168 -0.1388 -0.5004 -0.1335
 1968SOL    HW117366   1.574   0.498  17.154  0.4942 -0.8274  0.8233
 1968SOL    HW217367   1.516   0.417  17.264  1.2923  1.5974  0.0346
 1969SOL     OW17368   2.975   1.629   4.783  0.0218  0.8067 -0.4385
 1969SOL    HW117369   3.002   1.695   4.720  0.2617  0.9509 -0.1833
 1969SOL    HW217370   2.893   1.662   4.819 -1.2882 -1.0194 -1.7332
 1970SOL     OW17371   3.106   2.721   6.477  0.1884 -0.3683 -0.4929
 1970SOL    HW117372   3.126   2.633   6.448 -1.5411 -0.6536 -0.8482
 1970SOL    HW217373   3.033   2.736   6.416  1.3759  1.4192 -1.4772
 1971SOL     OW17374   3.396   2.232   2.758  0.4191 -0.0344  0.1463
 1971SOL    HW117375   3.487   2.240   2.786  0.4264 -1.0510  0.4483
 1971SOL    HW217376   3.374   2.184   2.839  1.0537 -2.2664 -1.0138
 1972SOL     OW17377   3.376   3.880  11.166  0.1917 -0.1192  0.3198
 1972SOL    HW117378   3.379   3.794  11.123 -0.6678  0.4455 -0.8775
 1972SOL    HW217379   3.468   3.902  11.181  0.3997 -0.1433 -0.8938
 1973SOL     OW17380   1.221   1.515  15.609  0.2076 -0.3301  0.1760
 1973SOL    HW117381   1.297   1.549  15.562 -0.1095  0.4897  0.2518
 1973SOL    HW217382   1.230   1.421  15.595 -0.4992 -0.4983  0.8374
 1974SOL     OW17383   0.376   2.574  16.295  0.2307 -0.1393  0.2714
 1974SOL    HW117384   0.292   2.619  16.301 -0.2264 -0.4735 -3.3892
 1974SOL    HW217385   0.346   2.501  16.240  1.4070 -1.9274  1.9827
 1975SOL     OW17386   4.507   1.008   1.395 -0.0228  0.0379 -0.1145
 1975SOL    HW117387   4.540   0.921   1.375  1.8087  0.5996  0.4178
 1975SOL    HW217388   4.575   1.059   1.350  0.7200 -0.0429  0.8958
 1976SOL     OW17389   4.479   0.042   1.125  0.2839  0.3945 -0.0860
 1976SOL    HW117390   4.519   0.068   1.208 -3.3116 -0.1578  1.8035
 1976SOL    HW217391   4.544   4.703   1.091  0.7538  0.7005  0.2598
 1977SOL     OW17392   4.702   3.729   4.549 -0.0613 -0.1525 -0.0529
 1977SOL    HW117393   4.672   3.754   4.461 -1.7643 -0.8295  0.3339
 1977SOL    HW217394   0.071   3.703   4.539  0.0054 -0.1284  0.4916
 1978SOL     OW17395   0.901   4.221  14.734  0.0958 -0.1701  0.0498
 1978SOL    HW117396   0.919   4.298  14.786  0.1682  0.1893 -0.5050
 1978SOL    HW217397   0.976   4.228  14.674  0.5286  3.6662  1.0485
 1979SOL     OW17398   0.287   1.148  12.684  0.8507 -0.1546 -0.1723
 1979SOL    HW117399   0.256   1.182  12.600  2.2843 -1.8928 -1.3912
 1979SOL    HW217400   0.331   1.223  12.723  1.2959  0.4028 -1.7301
 1980SOL     OW17401   1.853   1.357   9.449  0.1139  0.4278  0.0996
 1980SOL    HW117402   1.857   1.428   9.513 -0.6985 -0.3033  0.9583
 1980SOL    HW217403   1.943   1.348   9.419  0.5449  1.3584  1.0848
 1981SOL     OW17404   2.065   1.986   0.990  0.1809  0.2818 -0.8543
 1981SOL    HW117405   2.090   2.052   1.055  3.7273 -0.7151 -1.2152
 1981SOL    HW217406   1.973   2.002   0.969 -0.0056 -2.8002 -2.4242
 1982SOL     OW17407   3.308   1.122  11.199 -0.4183 -0.3080  0.1092
 1982SOL    HW117408   3.287   1.031  11.179 -0.2947 -0.1396 -0.7912
 1982SOL    HW217409   3.252   1.155  11.129  0.9139 -0.5329 -1.0649
 1983SOL     OW17410   1.811   1.415   4.023 -0.4425  0.0934 -0.1241
 1983SOL    HW117411   1.732   1.460   3.993 -1.2487 -0.9833  0.3815
 1983SOL    HW217412   1.881   1.464   3.980 -0.4387 -0.4753 -0.7779
 1984SOL     OW17413   2.414   4.166  15.779 -0.0548 -0.1534 -0.2404
 1984SOL    HW117414   2.359   4.088  15.769 -0.8861  0.7695 -2.8409
 1984SOL    HW217415   2.498   4.122  15.769  0.0448  0.0811 -0.4366
 1985SOL     OW17416   3.006   0.393   3.566 -0.2277  0.2117  0.3563
 1985SOL    HW117417   3.055   0.377   3.646 -0.0648 -1.2548 -0.0381
 1985SOL    HW217418   3.066   0.361   3.500 -2.9595 -2.0254 -1.0572
 1986SOL     OW17419   2.728   4.468  16.050 -0.6339  0.3116  0.3520
 1986SOL    HW117420   2.673   4.544  16.068 -0.3616  0.3643  0.9569
 1986SOL    HW217421   2.813   4.506  16.029 -0.5665  0.1005  0.2365
 1987SOL     OW17422   1.579   2.721   8.524 -0.1317 -0.0793 -0.0929
 1987SOL    HW117423   1.637   2.668   8.578  2.8296  1.7037 -1.5386
 1987SOL    HW217424   1.581   2.799   8.580  0.0320 -0.6938  0.7500
 1988SOL     OW17425   0.980   2.191   3.716  0.0822  0.2022  0.1526
 1988SOL    HW117426   1.036   2.268   3.707 -0.9412  0.6440 -2.4495
 1988SOL    HW217427   1.005   2.145   3.796  0.7317  0.2681 -0.0099
 1989SOL     OW17428   3.530   0.729  12.758 -0.3304  0.1700  0.2858
 1989SOL    HW117429   3.515   0.823  12.772  2.5171  0.4472  1.3536
 1989SOL    HW217430   3.493   0.692  12.838  1.5889 -0.8866  0.6629
 1990SOL     OW17431   4.643   4.059   9.620 -0.5194 -0.8687 -0.1277
 1990SOL    HW117432   4.626   4.032   9.711 -2.7699 -1.4119 -0.7079
 1990SOL    HW217433   4.561   4.027   9.582 -0.8148 -0.3337  0.0413
 1991SOL     OW17434   0.786   3.859   9.229 -0.1169 -0.2319 -0.7398
 1991SOL    HW117435   0.794   3.785   9.289  1.2394 -0.0725 -0.7357
 1991SOL    HW217436   0.712   3.827   9.177  0.8952 -0.0954 -2.2683
 1992SOL     OW17437   2.457   2.587   2.245 -0.1402 -0.0004  0.1422
 1992SOL    HW117438   2.534   2.590   2.188  0.1875  0.0694  0.5970
 1992SOL    HW217439   2.491   2.627   2.325 -2.0856 -1.1986  1.5566
 1993SOL     OW17440   3.937   1.951   8.464  0.6385 -0.1461 -0.4978
 1993SOL    HW117441   4.000   1.901   8.411  1.8267  0.1273  0.6640
 1993SOL    HW217442   3.876   1.879   8.481 -0.5228  1.2276  1.0862
 1994SOL     OW17443   0.647   0.368   2.241 -0.1493 -0.2596  0.0689
 1994SOL    HW117444   0.627   0.279   2.214  0.6607 -1.0590  2.1197
 1994SOL    HW217445   0.561   0.404   2.262 -0.7148 -2.6758  1.9276
 1995SOL     OW17446   0.412   2.920   5.592 -0.0204 -0.4216 -0.0798
 1995SOL    HW117447   0.407   2.992   5.529  0.7768  0.8228  1.2783
 1995SOL    HW217448   0.502   2.904   5.562 -0.6947 -2.1643 -1.2056
 1996SOL     OW17449   1.398   4.366  17.146 -0.3044 -0.3256  0.5366
 1996SOL    HW117450   1.446   4.356  17.064  0.3802  2.4706  0.6102
 1996SOL    HW217451   1.459   4.331  17.211  0.5793  1.0969  0.4610
 1997SOL     OW17452   2.141   2.326   3.873 -0.0324 -0.6755  0.7302
 1997SOL    HW117453   2.157   2.338   3.779  2.1839  0.5557  1.2540
 1997SOL    HW217454   2.061   2.275   3.881  0.0503 -1.2129 -1.6482
 1998SOL     OW17455   2.422   3.718   2.342  0.9981  0.3792  0.5305
 1998SOL    HW117456   2.387   3.630   2.352  0.9958  0.6324  2.7332
 1998SOL    HW217457   2.369   3.772   2.400  0.2768  1.5749 -1.2311
 1999SOL     OW17458   4.602   1.401   7.532  0.2131 -0.7093  0.5816
 1999SOL    HW117459   4.555   1.439   7.607  0.5052  0.1586  0.3180
 1999SOL    HW217460   4.642   1.484   7.507 -1.8824  0.9655  2.7099
 2000SOL     OW17461   4.300   1.506   6.133  0.0240 -0.1822 -0.6409
 2000SOL    HW117462   4.380   1.503   6.080 -0.5713  0.0462 -1.5590
 2000SOL    HW217463   4.304   1.593   6.173 -0.1920  0.9147 -2.9693
 2001SOL     OW17464   4.097   0.949   2.792  0.1522  0.2760 -0.8277
 2001SOL    HW117465   4.099   0.859   2.825 -1.4783 -0.0234 -1.5779
 2001SOL    HW217466   4.188   0.977   2.799  0.3505 -0.6750  0.5058
 2002SOL     OW17467   3.814   2.787   5.073  0.2073  0.4225 -0.1141
 2002SOL    HW117468   3.883   2.845   5.105  0.2518 -0.0427  0.6167
 2002SOL    HW217469   3.735   2.840   5.084  1.2641  1.6516  1.5788
 2003SOL     OW17470   2.376   3.853   2.707  0.0502  0.4022  0.2971
 2003SOL    HW117471   2.442   3.787   2.729 -0.4344  0.4298  1.8155
 2003SOL    HW217472   2.361   3.890   2.794  1.6005  0.0405  0.7265
 2004SOL     OW17473   3.684   0.436  14.997  0.2673 -0.4618 -0.0785
 2004SOL    HW117474   3.673   0.529  14.975  0.0051 -0.8474 -1.6078
 2004SOL    HW217475   3.672   0.401  14.909  3.1434 -1.4108 -0.0755
 2005SOL     OW17476   0.528   1.558  14.411 -0.3412 -0.5789  0.1384
 2005SOL    HW117477   0.621   1.546  14.394 -0.1874  1.4724 -0.5608
 2005SOL    HW217478   0.506   1.549  14.318  1.0674 -2.3230 -0.0211
 2006SOL     OW17479   3.655   4.674   4.710  0.1781  0.4382  0.2605
 2006SOL    HW117480   3.560   4.664   4.720  0.0516 -0.5841 -1.8784
 2006SOL    HW217481   3.653   0.035   4.664  0.9664 -0.3227 -1.1435
 2007SOL     OW17482   4.543   2.735   1.816 -0.4454  0.0545 -0.2926
 2007SOL    HW117483   4.508   2.823   1.809 -0.2528  0.3580  2.6009
 2007SOL    HW217484   4.468   2.697   1.769  0.5297 -2.3027  0.0653
 2008SOL     OW17485   1.780   0.568   5.985  0.0664  0.3709  0.3269
 2008SOL    HW117486   1.712   0.586   6.050  0.5805  0.6165  0.7909
 2008SOL    HW217487   1.827   0.650   5.975 -0.7189  0.5230 -2.3298
 2009SOL     OW17488   3.212   2.761  11.841  0.0997 -0.1362  0.3227
 2009SOL    HW117489   3.298   2.735  11.808 -0.7336 -1.0214 -1.1119
 2009SOL    HW217490   3.182   2.813  11.766  0.9551  0.0447  0.1036
 2010SOL     OW17491   3.124   3.669   6.998 -0.6184  0.4009  0.6529
 2010SOL    HW117492   3.078   3.754   6.998 -1.3284  0.0180  0.3929
 2010SOL    HW217493   3.169   3.666   7.082 -1.6407  2.3540  1.2756
 2011SOL     OW17494   1.743   0.447   7.529  0.3354 -0.0973  0.0799
 2011SOL    HW117495   1.782   0.447   7.616 -2.6022 -3.3265  1.3802
 2011SOL    HW217496   1.768   0.537   7.507  0.0693 -0.0694 -0.1031
 2012SOL     OW17497   1.554   1.974   9.156 -0.1138 -0.2294 -0.0360
 2012SOL    HW117498   1.496   1.930   9.219  2.9232 -0.7339  2.4335
 2012SOL    HW217499   1.641   1.938   9.176  0.0582 -0.0499 -0.4673
 2013SOL     OW17500   0.887   4.485  14.863 -0.2495 -0.1330 -0.1717
 2013SOL    HW117501   0.976   4.509  14.890 -0.6068 -0.6106  1.4510
 2013SOL    HW217502   0.863   4.572  14.830 -4.0225 -1.3298 -0.5522
 2014SOL     OW17503   3.991   0.560   7.786  0.2546 -0.1133  0.1993
 2014SOL    HW117504   3.937   0.579   7.709  1.3007 -1.8186 -0.9774
 2014SOL    HW217505   3.977   0.635   7.844 -0.6728  0.1180 -0.3264
 2015SOL     OW17506   4.634   3.041   8.940 -0.4952 -0.4770  0.0624
 2015SOL    HW117507   4.578   3.052   8.864  0.7631 -2.0326 -1.0932
 2015SOL    HW217508   4.589   2.968   8.984 -0.5181  0.8014  2.1795
 2016SOL     OW17509   2.954   1.939   2.061 -0.8185  0.2303 -0.4624
 2016SOL    HW117510   3.007   1.904   1.989 -0.1150  0.8561 -0.2394
 2016SOL    HW217511   2.908   1.861   2.093 -0.0168  0.0549  0.2637
 2017SOL     OW17512   2.470   0.950   2.883  0.1710 -0.2717 -0.1484
 2017SOL    HW117513   2.467   0.996   2.800 -0.5376 -2.2343 -1.2120
 2017SOL    HW217514   2.427   0.873   2.846 -0.2067 -0.8652  1.5125
 2018SOL     OW17515   2.701   1.292  14.475  0.6490  0.4573 -0.5587
 2018SOL    HW117516   2.622   1.239  14.477 -0.6583  2.4023 -0.2237
 2018SOL    HW217517   2.716   1.287  14.569  2.6956 -2.0297 -1.0245
 2019SOL     OW17518   4.373   0.345   0.672 -0.1675 -0.1739  0.0512
 2019SOL    HW117519   4.361   0.379   0.761 -0.7716  1.7554 -0.7698
 2019SOL    HW217520   4.334   0.258   0.675 -0.7266  0.1009  1.0380
 2020SOL     OW17521   1.240   0.851   2.281  0.3840 -0.7090 -0.5069
 2020SOL    HW117522   1.269   0.783   2.220 -0.8808 -1.4593 -0.2613
 2020SOL    HW217523   1.327   0.886   2.303  1.0697 -1.3239 -2.2297
 2021SOL     OW17524   1.800   0.712   3.911  0.6616 -0.4857 -0.2127
 2021SOL    HW117525   1.816   0.629   3.865  0.9492  0.0564 -1.0820
 2021SOL    HW217526   1.707   0.716   3.889  0.1563 -0.5811  1.9029
 2022SOL     OW17527   2.078   4.026   6.027  0.1683  0.0676 -0.1287
 2022SOL    HW117528   2.045   4.101   6.076 -1.6647 -1.1839  0.5460
 2022SOL    HW217529   2.105   3.968   6.098 -2.0024  2.2322  2.4735
 2023SOL     OW17530   0.992   1.291  14.952 -0.0773 -0.6522  0.5878
 2023SOL    HW117531   1.086   1.296  14.940 -0.2450  1.2474  0.1563
 2023SOL    HW217532   0.966   1.376  14.917 -1.9446 -1.2725  0.4430
 2024SOL     OW17533   1.376   3.278   5.664 -0.5228  0.1799 -0.0638
 2024SOL    HW117534   1.459   3.321   5.681  0.1331  0.4403 -3.7735
 2024SOL    HW217535   1.352   3.240   5.748  0.9599 -0.3734  0.1028
 2025SOL     OW17536   0.047   2.743   5.342 -0.0455  0.2776  0.7352
 2025SOL    HW117537   0.124   2.712   5.295 -1.1491 -0.3156 -0.6836
 2025SOL    HW217538   0.039   2.673   5.407 -1.7142 -1.4175 -1.2871
 2026SOL     OW17539   3.366   2.416   6.252 -0.1477  0.3580  0.2635
 2026SOL    HW117540   3.435   2.350   6.261 -2.0707 -1.6425  0.4600
 2026SOL    HW217541   3.321   2.391   6.171  0.3250  0.7728 -0.1285
 2027SOL     OW17542   2.574   4.388  16.984 -0.5194  0.3534 -0.2544
 2027SOL    HW117543   2.637   4.315  16.984  1.0525  1.6825  2.9918
 2027SOL    HW217544   2.614   4.449  16.922  0.1173 -1.1119 -1.2902
 2028SOL     OW17545   0.420   4.301   8.572  0.2712  0.0183 -0.2864
 2028SOL    HW117546   0.427   4.231   8.636 -0.2560  1.6493  1.5830
 2028SOL    HW217547   0.406   4.254   8.490  3.9822  1.0161 -1.4727
 2029SOL     OW17548   2.335   3.232   5.081  0.4050  0.5321  0.7831
 2029SOL    HW117549   2.388   3.289   5.026  2.1765  0.1201  2.0489
 2029SOL    HW217550   2.395   3.187   5.141  0.4162  1.9769  1.8657
 2030SOL     OW17551   3.076   2.942   6.731  0.0674  0.1835  0.1049
 2030SOL    HW117552   3.011   2.897   6.678  0.5007 -0.8507  0.4602
 2030SOL    HW217553   3.134   2.983   6.666 -0.1321  3.0200  1.7045
 2031SOL     OW17554   2.676   1.745   4.263  0.2770  0.3998  0.3422
 2031SOL    HW117555   2.664   1.655   4.293 -0.0886 -0.0587 -1.1772
 2031SOL    HW217556   2.739   1.784   4.324  0.5731  1.1296 -0.4267
 2032SOL     OW17557   2.551   3.099   4.616  0.5771 -0.2652  0.1494
 2032SOL    HW117558   2.475   3.146   4.582  2.8436  3.3306  0.0746
 2032SOL    HW217559   2.513   3.043   4.684 -0.1251 -0.0375 -0.0465
 2033SOL     OW17560   2.625   3.112   3.453  0.7282 -0.0844  0.1288
 2033SOL    HW117561   2.702   3.064   3.482  0.9838 -0.7488 -1.6404
 2033SOL    HW217562   2.649   3.138   3.365 -0.3879 -0.8318 -0.4062
 2034SOL     OW17563   1.284   0.710  16.909 -0.1590  0.6624  0.0008
 2034SOL    HW117564   1.360   0.697  16.853  0.1086  0.8207  0.3299
 2034SOL    HW217565   1.227   0.759  16.849  1.4449  0.5658 -1.6068
 2035SOL     OW17566   3.469   1.691   9.916 -0.1219  0.0723 -0.0698
 2035SOL    HW117567   3.421   1.614   9.885 -0.2609 -0.0574  0.4631
 2035SOL    HW217568   3.548   1.644   9.940  0.8030  1.8571  0.3978
 2036SOL     OW17569   2.040   3.154   4.445 -0.2342  0.0764 -0.1562
 2036SOL    HW117570   2.002   3.240   4.462 -0.1659  0.2038 -0.6583
 2036SOL    HW217571   2.096   3.165   4.368 -1.3283  0.1859 -0.9405
 2037SOL     OW17572   2.813   3.048   2.180  0.4969 -0.7343 -0.2562
 2037SOL    HW117573   2.739   3.001   2.141  1.1283 -0.7555 -1.4382
 2037SOL    HW217574   2.882   3.019   2.120  0.6735 -0.5546 -0.1421
 2038SOL     OW17575   4.455   3.093   2.856 -0.2713 -0.0867  0.6889
 2038SOL    HW117576   4.477   3.007   2.892 -1.0734 -0.8723 -0.6814
 2038SOL    HW217577   4.404   3.141   2.921 -0.0225 -0.1475  0.9292
 2039SOL     OW17578   3.028   2.049  14.079  0.8806  0.0342 -0.2588
 2039SOL    HW117579   2.987   2.040  13.993  0.4575  0.3957 -0.0947
 2039SOL    HW217580   2.949   2.064  14.131  0.2465 -1.7830 -0.6763
 2040SOL     OW17581   3.273   1.769   4.798  0.2619  0.8593 -0.2632
 2040SOL    HW117582   3.262   1.694   4.857  0.6426  0.3875 -0.8029
 2040SOL    HW217583   3.305   1.833   4.862 -0.4927 -0.9915  1.9925
 2041SOL     OW17584   3.300   3.434  13.579  0.0404  0.1476  0.4888
 2041SOL    HW117585   3.251   3.376  13.637  1.1271 -1.4810 -0.1928
 2041SOL    HW217586   3.265   3.521  13.598  0.4330  0.5108 -0.4553
 2042SOL     OW17587   0.677   0.839   1.787  0.4002 -0.1975  0.6061
 2042SOL    HW117588   0.637   0.864   1.870 -2.3988  0.2009 -0.8297
 2042SOL    HW217589   0.726   0.915   1.755 -2.2434  1.2432 -0.0338
 2043SOL     OW17590   2.471   1.640   9.070  0.9128 -0.2860 -0.9391
 2043SOL    HW117591   2.433   1.553   9.077  0.0714  0.3493  2.3191
 2043SOL    HW217592   2.505   1.651   9.159 -0.0147 -0.3497 -0.5763
 2044SOL     OW17593   1.785   0.930   4.058 -0.4590  0.1408 -0.2968
 2044SOL    HW117594   1.838   0.999   4.018 -0.0070  0.1034  0.2498
 2044SOL    HW217595   1.796   0.868   3.986 -0.8028  0.5126 -0.6690
 2045SOL     OW17596   4.633   0.190   5.509 -0.2857 -0.2697 -0.1567
 2045SOL    HW117597   4.626   0.097   5.530  2.4294 -0.6814 -1.0148
 2045SOL    HW217598   4.576   0.190   5.431 -0.7758 -1.8943  0.2011
 2046SOL     OW17599   1.843   0.126   1.827  0.4871  0.2654 -0.1668
 2046SOL    HW117600   1.872   0.201   1.879 -0.8878 -0.1641  1.2006
 2046SOL    HW217601   1.926   0.089   1.798  1.8922  1.1349  2.7741
 2047SOL     OW17602   0.806   2.835  16.677 -0.1549  0.3488 -0.4012
 2047SOL    HW117603   0.777   2.897  16.744 -0.8220  0.0040 -0.3752
 2047SOL    HW217604   0.803   2.757  16.732  0.6410 -0.2432 -1.1883
 2048SOL     OW17605   3.743   4.623  16.351  0.0476 -0.0050 -0.4460
 2048SOL    HW117606   3.743   4.535  16.389 -1.4186  0.2946  0.2379
 2048SOL    HW217607   3.651   4.611  16.328  0.2141 -1.1634 -0.5282
 2049SOL     OW17608   2.850   2.721  11.530 -0.1189  0.2793  0.1646
 2049SOL    HW117609   2.866   2.696  11.439 -0.8051 -1.8185  0.6373
 2049SOL    HW217610   2.846   2.817  11.521 -1.5287  0.1695 -0.3833
 2050SOL     OW17611   1.450   3.980   8.538  0.6146 -0.1394  0.2206
 2050SOL    HW117612   1.357   3.982   8.563  0.4065 -1.4741 -0.4458
 2050SOL    HW217613   1.491   4.003   8.622 -0.3247 -1.0584  0.9337
 2051SOL     OW17614   1.095   3.137   7.722  0.0655 -0.8951  0.0529
 2051SOL    HW117615   1.050   3.053   7.736 -1.7703  0.5872  2.8568
 2051SOL    HW217616   1.132   3.159   7.807  2.8270  1.5653 -1.7726
 2052SOL     OW17617   2.669   0.092  10.947  0.5186  0.0029  0.1449
 2052SOL    HW117618   2.736   0.156  10.969 -2.0447  2.2967  1.3991
 2052SOL    HW217619   2.630   0.133  10.870 -2.6488 -1.2067  1.0768
 2053SOL     OW17620   0.172   1.854   0.195 -0.6543  0.3059 -0.4019
 2053SOL    HW117621   0.111   1.914   0.237 -0.4937  0.9129 -1.0341
 2053SOL    HW217622   0.252   1.906   0.185  0.1843 -1.2280 -1.6801
 2054SOL     OW17623   0.660   3.077   2.205  0.9856  0.2918 -0.2774
 2054SOL    HW117624   0.671   3.168   2.234 -1.3283  0.4679  0.0508
 2054SOL    HW217625   0.570   3.080   2.172 -0.1717 -1.6255  2.6962
 2055SOL     OW17626   2.584   2.230  16.705 -0.0980 -0.4662 -0.2064
 2055SOL    HW117627   2.495   2.206  16.731  0.4676 -1.5303  0.7409
 2055SOL    HW217628   2.593   2.163  16.637  1.5585  0.8575 -1.2854
 2056SOL     OW17629   3.058   0.912   8.214 -0.2408  0.0493  0.3588
 2056SOL    HW117630   3.043   0.976   8.284  0.9971  0.6378  0.1065
 2056SOL    HW217631   3.148   0.887   8.237 -0.4012 -0.4207  0.4600
 2057SOL     OW17632   0.205   0.206   6.238 -0.3755  0.0913 -0.4241
 2057SOL    HW117633   0.288   0.206   6.287  0.0272 -0.3522 -1.1104
 2057SOL    HW217634   0.234   0.187   6.149 -0.9587  0.0591 -0.6064
 2058SOL     OW17635   1.556   0.897   7.456  0.1009 -0.0449  0.1921
 2058SOL    HW117636   1.617   0.828   7.430  0.8814  1.6847 -2.4956
 2058SOL    HW217637   1.567   0.909   7.551  0.2052  1.9796 -0.0897
 2059SOL     OW17638   4.269   2.183   6.236 -0.4891  0.4556 -0.0623
 2059SOL    HW117639   4.293   2.223   6.319 -1.1183  2.9608 -1.0796
 2059SOL    HW217640   4.325   2.223   6.170 -0.9581  1.5836  0.2261
 2060SOL     OW17641   3.817   2.370  17.429 -0.4111 -0.5065 -0.7331
 2060SOL    HW117642   3.780   2.302  17.373 -0.5817  0.3774 -1.6971
 2060SOL    HW217643   3.833   2.439  17.364 -0.4986 -0.2953 -0.5297
 2061SOL     OW17644   3.681   3.574   5.359  0.3726 -0.3972 -0.6412
 2061SOL    HW117645   3.674   3.479   5.349  0.5383 -0.4415 -0.3235
 2061SOL    HW217646   3.752   3.602   5.301 -0.1900  0.8720 -0.7275
 2062SOL     OW17647   0.725   2.881   3.667  0.1989  0.1624 -0.0147
 2062SOL    HW117648   0.757   2.808   3.720 -0.7268  0.2534  0.6863
 2062SOL    HW217649   0.731   2.836   3.583  0.7782 -3.8334  2.1785
 2063SOL     OW17650   1.501   2.591   1.710  0.1362  0.1666  0.2140
 2063SOL    HW117651   1.518   2.676   1.668 -4.5674  1.0525  0.0821
 2063SOL    HW217652   1.512   2.526   1.641 -0.4799 -0.6762  0.9235
 2064SOL     OW17653   3.173   0.258   9.035 -0.7258 -0.0761 -0.2990
 2064SOL    HW117654   3.103   0.274   8.972 -0.7635 -0.8333 -0.4491
 2064SOL    HW217655   3.246   0.237   8.976 -0.1505  1.8721 -0.2602
 2065SOL     OW17656   1.370   2.580   9.203  0.5595 -0.1265  0.0934
 2065SOL    HW117657   1.358   2.573   9.298 -0.6864  2.6811  0.1416
 2065SOL    HW217658   1.283   2.545   9.185 -0.3688  2.3754 -0.3534
 2066SOL     OW17659   0.298   1.378   8.463 -0.0292 -0.2297 -0.5620
 2066SOL    HW117660   0.387   1.368   8.430  0.3310 -0.5025  0.4645
 2066SOL    HW217661   0.317   1.350   8.553  0.5681 -0.6222 -0.8150
 2067SOL     OW17662   2.770   0.652  11.826 -0.0831 -0.3270 -0.0703
 2067SOL    HW117663   2.792   0.735  11.869  0.3972 -1.0421  1.0777
 2067SOL    HW217664   2.770   0.678  11.734 -0.1645  2.2978  0.6704
 2068SOL     OW17665   2.812   4.305   7.579  0.0667  0.0114  0.3480
 2068SOL    HW117666   2.874   4.321   7.650  1.1036  0.5892 -0.6967
 2068SOL    HW217667   2.733   4.344   7.618  1.1556  1.5101  1.0701
 2069SOL     OW17668   0.558   1.848  14.200  0.1505  0.7322  0.1422
 2069SOL    HW117669   0.465   1.845  14.223  0.0104 -1.7782 -0.7511
 2069SOL    HW217670   0.555   1.901  14.121 -3.1829 -0.1607 -0.3264
 2070SOL     OW17671   4.548   1.506   6.023  0.0779  0.1241  0.2017
 2070SOL    HW117672   4.554   1.597   5.994 -1.4353  0.3204  0.4852
 2070SOL    HW217673   4.641   1.501   6.044 -0.2838 -2.9824  1.0320
 2071SOL     OW17674   0.978   4.015   1.631  0.1771  0.1449  0.3882
 2071SOL    HW117675   1.062   3.969   1.641  1.1519  2.1538  1.6520
 2071SOL    HW217676   0.991   4.084   1.566 -1.8376  0.8859  0.7721
 2072SOL     OW17677   1.827   1.817   9.158  0.2979 -1.0857 -0.3443
 2072SOL    HW117678   1.916   1.800   9.188  0.0330 -1.2086  0.3689
 2072SOL    HW217679   1.842   1.843   9.067 -1.6942  1.3111  0.0100
 2073SOL     OW17680   0.678   3.865   7.200  0.3027 -0.0125  0.0174
 2073SOL    HW117681   0.629   3.904   7.273 -2.9226  0.2006 -2.2680
 2073SOL    HW217682   0.769   3.894   7.204  0.6913 -1.1482 -0.4260
 2074SOL     OW17683   3.699   0.279   3.076 -0.3635 -0.1081  0.1279
 2074SOL    HW117684   3.786   0.315   3.060  0.5842 -1.7097  1.7018
 2074SOL    HW217685   3.655   0.290   2.991 -0.5734 -0.8021  0.1443
 2075SOL     OW17686   2.533   2.088   6.358 -0.5750  0.2573  0.0686
 2075SOL    HW117687   2.539   2.075   6.453  0.0017 -1.3559 -0.1968
 2075SOL    HW217688   2.623   2.080   6.327 -0.0558 -2.1678  2.2047
 2076SOL     OW17689   3.910   0.736   0.767 -0.7894  0.3821 -0.3670
 2076SOL    HW117690   3.971   0.737   0.694 -1.9118 -1.4298 -1.3171
 2076SOL    HW217691   3.969   0.773   0.833 -2.5641  1.1841  0.7784
 2077SOL     OW17692   4.284   1.185   4.328 -0.7096  0.2855  0.0086
 2077SOL    HW117693   4.331   1.259   4.288 -1.8308  1.6667  1.2547
 2077SOL    HW217694   4.250   1.144   4.248 -1.2850 -1.0624  0.9606
 2078SOL     OW17695   3.905   0.483   1.923 -0.3572  0.8251 -0.1639
 2078SOL    HW117696   3.824   0.437   1.900  0.5045 -1.4453  1.3516
 2078SOL    HW217697   3.907   0.548   1.853 -0.2157  3.0381  1.9060
 2079SOL     OW17698   1.539   3.468   3.959 -0.7086 -0.1556  0.1079
 2079SOL    HW117699   1.622   3.514   3.951 -0.8018  0.1916  1.1723
 2079SOL    HW217700   1.558   3.387   4.007 -0.7698 -0.0867  0.2476
 2080SOL     OW17701   4.650   4.234  10.126  0.3353  0.2499 -0.1256
 2080SOL    HW117702   0.014   4.257  10.093  0.8387 -2.2893 -0.5720
 2080SOL    HW217703   4.672   4.185  10.205 -1.3528  2.4559  1.7022
 2081SOL     OW17704   3.426   1.351   9.005  0.2020  0.3615  1.2630
 2081SOL    HW117705   3.405   1.258   9.002  0.6531  0.3256 -1.0261
 2081SOL    HW217706   3.520   1.361   9.022  0.3137  1.5839 -0.0505
 2082SOL     OW17707   4.078   1.928   7.408  0.2669 -0.5453  1.2370
 2082SOL    HW117708   4.097   1.964   7.494  1.6703  0.1789  0.6229
 2082SOL    HW217709   4.165   1.905   7.375 -0.0865 -2.5791  1.7439
 2083SOL     OW17710   2.305   0.022  16.284 -0.1310  1.0597  0.4476
 2083SOL    HW117711   2.258   4.661  16.276  1.6667 -0.0314  1.2477
 2083SOL    HW217712   2.309   0.045  16.191 -0.1474  2.3996  0.7810
 2084SOL     OW17713   4.388   4.553  10.815 -0.7370 -0.0338 -0.4695
 2084SOL    HW117714   4.423   4.618  10.875 -1.0982 -0.8414  0.6148
 2084SOL    HW217715   4.420   4.602  10.739  0.2680 -1.6651 -1.1065
 2085SOL     OW17716   1.826   3.773  16.253 -0.3007  0.0099  0.0588
 2085SOL    HW117717   1.738   3.794  16.223 -0.0528  1.4235  0.3128
 2085SOL    HW217718   1.810   3.723  16.333  0.4403  1.4143  1.0941
 2086SOL     OW17719   1.513   0.229  13.077 -0.0359  0.3191 -0.4529
 2086SOL    HW117720   1.542   0.310  13.035 -0.2650  0.6001 -0.0751
 2086SOL    HW217721   1.563   0.245  13.157  0.7141 -1.3238 -0.6051
 2087SOL     OW17722   0.242   3.404  12.559 -0.2445 -0.6446  0.2682
 2087SOL    HW117723   0.277   3.337  12.500  1.1779  2.0370 -1.9395
 2087SOL    HW217724   0.148   3.393  12.548 -0.2751 -0.2940  0.1879
 2088SOL     OW17725   1.156   0.189   6.669 -0.3358 -0.1395  1.2453
 2088SOL    HW117726   1.069   0.155   6.686 -0.5880  1.7600  3.6757
 2088SOL    HW217727   1.138   0.236   6.587 -1.2863 -3.2187 -0.3022
 2089SOL     OW17728   3.278   0.407   4.353  0.3158  0.0306 -0.5100
 2089SOL    HW117729   3.340   0.411   4.426  1.5626 -0.0010 -1.5596
 2089SOL    HW217730   3.270   0.499   4.327 -0.2545 -0.0250 -0.5269
 2090SOL     OW17731   4.243   0.800  14.853 -0.3992  0.2334 -0.7776
 2090SOL    HW117732   4.298   0.722  14.852  0.8665  1.0982  1.7863
 2090SOL    HW217733   4.307   0.848  14.906 -0.1980 -1.2814  0.3493
 2091SOL     OW17734   0.666   4.259   4.724 -0.1601 -0.7709  0.4480
 2091SOL    HW117735   0.599   4.197   4.693 -0.7933  0.5956 -0.8815
 2091SOL    HW217736   0.699   4.278   4.637 -1.6133  0.5954  0.2087
 2092SOL     OW17737   0.138   0.439   6.485  0.1055  0.3857  0.1474
 2092SOL    HW117738   0.135   0.435   6.390  0.1197 -0.5828  0.1848
 2092SOL    HW217739   0.047   0.418   6.506 -0.4368  3.1775  0.5066
 2093SOL     OW17740   2.026   3.223   6.563 -0.0758 -0.5562  0.2217
 2093SOL    HW117741   2.050   3.296   6.619  0.9393  0.4155 -1.4932
 2093SOL    HW217742   1.937   3.244   6.534  0.0870 -0.6527 -0.3364
 2094SOL     OW17743   1.055   2.416   4.165  0.2812 -0.1384 -0.6197
 2094SOL    HW117744   1.049   2.328   4.200  3.0940  0.9545  2.6285
 2094SOL    HW217745   1.143   2.417   4.127 -0.6009 -2.7471 -2.7131
 2095SOL     OW17746   3.456   3.615   4.394 -0.0101  0.3820  0.0405
 2095SOL    HW117747   3.546   3.641   4.412  0.2683 -2.2425  2.3571
 2095SOL    HW217748   3.466   3.554   4.322  0.5251  0.3562  0.1401
 2096SOL     OW17749   2.526   0.439   7.639  0.0660 -0.2021  0.0999
 2096SOL    HW117750   2.468   0.447   7.714 -1.1050  1.3977 -0.9890
 2096SOL    HW217751   2.532   0.343   7.633  0.1713 -0.3091  1.8848
 2097SOL     OW17752   0.422   0.776   3.847  0.0004  0.2628  0.2835
 2097SOL    HW117753   0.462   0.690   3.864  1.3835  0.8761  0.0867
 2097SOL    HW217754   0.415   0.779   3.752  0.6308 -3.6190  0.0943
 2098SOL     OW17755   0.356   0.430   4.970  0.2011  0.0735 -0.2104
 2098SOL    HW117756   0.370   0.336   4.979 -1.8952 -0.1387  0.7410
 2098SOL    HW217757   0.371   0.439   4.875  0.5193  0.1600 -0.1529
 2099SOL     OW17758   0.601   1.412  13.807  0.0074 -0.1029 -0.2979
 2099SOL    HW117759   0.689   1.406  13.770  0.1229  2.2240 -0.3773
 2099SOL    HW217760   0.583   1.320  13.827 -0.9024  0.1557  0.0521
 2100SOL     OW17761   2.981   0.155   2.873  0.0179 -0.0513  0.3635
 2100SOL    HW117762   2.953   0.086   2.812  1.0678 -0.2007  0.0399
 2100SOL    HW217763   3.075   0.137   2.881  0.3645  1.9906  0.6679
 2101SOL     OW17764   4.430   3.964   7.253 -0.0974  0.3444 -0.3736
 2101SOL    HW117765   4.490   4.018   7.202  0.2375  1.1550  0.8929
 2101SOL    HW217766   4.355   4.019   7.276  0.7549  1.0843  0.6007
 2102SOL     OW17767   4.287   1.455   1.807  0.6310 -0.5965  0.4271
 2102SOL    HW117768   4.266   1.362   1.815 -0.4836 -0.5308 -1.6848
 2102SOL    HW217769   4.327   1.456   1.894  0.7775 -2.0711  0.3789
 2103SOL     OW17770   2.534   0.468   2.326 -0.1547  0.6692 -0.3980
 2103SOL    HW117771   2.629   0.471   2.315 -0.2020 -0.1979 -0.9860
 2103SOL    HW217772   2.529   0.382   2.367  1.0536  1.8854  2.3125
 2104SOL     OW17773   0.001   4.617   6.783  0.2582  0.2608 -0.1192
 2104SOL    HW117774   4.678   4.576   6.710  2.4002 -1.1578 -0.6701
 2104SOL    HW217775   4.663   4.683   6.816 -1.8867 -0.8830 -1.7798
 2105SOL     OW17776   2.335   3.801   5.520 -0.0444 -0.3928 -0.7523
 2105SOL    HW117777   2.364   3.893   5.515 -1.4675  0.0338 -1.1477
 2105SOL    HW217778   2.411   3.746   5.539 -0.5163 -0.2999  1.4292
 2106SOL     OW17779   0.909   1.903   2.888 -0.3433 -0.4377 -0.4862
 2106SOL    HW117780   0.860   1.854   2.822 -0.6225 -0.0085 -0.5916
 2106SOL    HW217781   0.948   1.967   2.829 -1.2094 -0.5853 -1.2071
 2107SOL     OW17782   3.221   4.713   7.441 -0.1318  1.0283 -0.4493
 2107SOL    HW117783   3.144   4.669   7.404 -0.5937  1.3201  0.1618
 2107SOL    HW217784   3.180   0.076   7.452  0.5409  1.2060  0.7545
 2108SOL     OW17785   2.222   4.328   2.721 -0.1606  0.3054  0.6121
 2108SOL    HW117786   2.307   4.284   2.719 -0.7365 -1.1070  6.2779
 2108SOL    HW217787   2.257   4.403   2.770  1.5047  0.8071 -1.3101
 2109SOL     OW17788   3.374   3.750   7.193  1.0084  0.0251 -0.1542
 2109SOL    HW117789   3.432   3.803   7.139 -0.6057 -0.1545 -2.0194
 2109SOL    HW217790   3.386   3.795   7.277 -0.2725  0.7224 -0.3500
 2110SOL     OW17791   1.970   4.040  15.983 -0.2766  0.0938  0.1182
 2110SOL    HW117792   1.988   4.036  16.076  1.2108 -0.4307 -0.2003
 2110SOL    HW217793   2.044   3.996  15.940 -0.2504 -0.0234  0.2856
 2111SOL     OW17794   3.563   4.449   3.529 -0.0739  0.1969 -0.7756
 2111SOL    HW117795   3.644   4.499   3.521 -0.0216  0.3076  0.4026
 2111SOL    HW217796   3.602   4.373   3.573  1.7021  0.7666 -1.3804
 2112SOL     OW17797   0.976   2.098  17.192 -0.4879 -0.1444  0.2041
 2112SOL    HW117798   0.966   2.020  17.247  1.5809  1.1905  2.5048
 2112SOL    HW217799   0.920   2.071  17.119  0.3407  1.1205 -0.8841
 2113SOL     OW17800   4.612   2.846   2.908  0.6502 -0.0510  0.2792
 2113SOL    HW117801   4.525   2.836   2.869  0.4246 -1.1357  1.0470
 2113SOL    HW217802   4.647   2.772   2.858  1.0456  0.2652  0.0877
 2114SOL     OW17803   2.211   3.990  17.094 -0.1641 -0.0215  0.0670
 2114SOL    HW117804   2.189   4.037  17.174  3.1030  0.9918  0.3785
 2114SOL    HW217805   2.302   4.019  17.084  0.1381 -0.5540  1.2658
 2115SOL     OW17806   4.650   0.562   2.284  0.2972 -0.0008  0.0798
 2115SOL    HW117807   4.666   0.656   2.279 -0.4134  0.1645  0.9626
 2115SOL    HW217808   4.619   0.552   2.373 -0.3516 -1.8051 -0.3593
 2116SOL     OW17809   2.528   0.967   3.181 -0.1763  0.3892 -0.4658
 2116SOL    HW117810   2.604   0.908   3.180 -0.5408 -0.1147  0.9778
 2116SOL    HW217811   2.499   0.955   3.091 -1.4463 -2.8844  0.3742
 2117SOL     OW17812   2.709   1.219   8.819  0.5491 -0.0443 -0.1128
 2117SOL    HW117813   2.712   1.289   8.885 -0.8168 -1.9007  1.8985
 2117SOL    HW217814   2.720   1.146   8.879 -0.9275 -1.2364 -1.2796
 2118SOL     OW17815   1.629   2.286   6.450  0.0603  0.2215  0.1097
 2118SOL    HW117816   1.712   2.334   6.447  1.0742 -1.5438 -0.4117
 2118SOL    HW217817   1.634   2.241   6.534  2.0904 -0.6372 -0.4634
 2119SOL     OW17818   4.665   1.042  16.619  0.2641 -0.0214  0.0998
 2119SOL    HW117819   4.619   0.968  16.579 -1.9796  0.7402  1.2651
 2119SOL    HW217820   4.697   0.987  16.691  1.3640  1.7366  0.9454
 2120SOL     OW17821   3.106   1.048   4.966 -0.3753  0.0137  0.4061
 2120SOL    HW117822   3.102   0.995   5.046 -0.8888  3.4141  2.6777
 2120SOL    HW217823   3.197   1.075   4.975  0.6167 -2.5708 -2.0373
 2121SOL     OW17824   3.202   3.144   5.017 -0.2745  0.0335 -0.1991
 2121SOL    HW117825   3.227   3.236   5.022 -0.3878  0.0536  0.0140
 2121SOL    HW217826   3.280   3.110   4.974 -0.6494 -0.8059 -0.2152
 2122SOL     OW17827   1.929   0.302   8.691 -0.1741  0.6512 -0.1331
 2122SOL    HW117828   1.873   0.298   8.768 -2.0682  2.2239 -1.4165
 2122SOL    HW217829   1.927   0.390   8.654 -3.3298  0.7517  0.2620
 2123SOL     OW17830   1.512   1.768   5.897 -0.3456  0.3140 -0.5319
 2123SOL    HW117831   1.432   1.819   5.891 -0.6738  0.0427  1.4650
 2123SOL    HW217832   1.483   1.684   5.862 -1.0203  0.2133  0.2638
 2124SOL     OW17833   0.238   3.983   3.855  0.5470  0.2536  0.2542
 2124SOL    HW117834   0.159   3.958   3.805  0.8502  0.1374 -0.1692
 2124SOL    HW217835   0.297   3.932   3.800  0.7988  0.8554 -0.0334
 2125SOL     OW17836   3.916   0.749   6.655 -0.0885  0.1829 -0.0589
 2125SOL    HW117837   3.906   0.728   6.748  1.5398 -0.5740 -0.0494
 2125SOL    HW217838   3.967   0.829   6.668  0.1938  0.6176 -4.0690
 2126SOL     OW17839   1.263   0.325   2.138 -0.0193 -0.0701 -0.7815
 2126SOL    HW117840   1.306   0.403   2.174 -1.0771 -0.0563  0.4398
 2126SOL    HW217841   1.303   0.322   2.051 -1.0863  1.4415 -1.3305
 2127SOL     OW17842   1.886   2.717   4.912  0.2122  0.7404  0.2209
 2127SOL    HW117843   1.861   2.649   4.975 -1.2782  0.1772 -0.9851
 2127SOL    HW217844   1.847   2.694   4.828  2.0320  0.3887 -0.5152
 2128SOL     OW17845   0.338   0.805  10.328 -0.4064  0.6288 -0.3492
 2128SOL    HW117846   0.433   0.808  10.341 -0.2681 -1.9829 -0.7384
 2128SOL    HW217847   0.311   0.743  10.396  0.1172 -0.0513 -0.7694
 2129SOL     OW17848   2.295   4.687  14.891 -0.1929 -0.0746 -0.5388
 2129SOL    HW117849   2.230   4.697  14.822  2.2498  2.3475 -2.4809
 2129SOL    HW217850   2.251   4.620  14.942 -0.5762  0.5521 -0.0435
 2130SOL     OW17851   2.862   1.977   8.030  0.3852 -0.1962  0.4708
 2130SOL    HW117852   2.881   2.067   8.006 -2.8615  0.3951  0.0632
 2130SOL    HW217853   2.873   1.928   7.948  0.3320 -0.0178  0.3571
 2131SOL     OW17854   4.333   1.673   1.653  0.6929  0.6565  0.5877
 2131SOL    HW117855   4.252   1.714   1.682  0.3127  2.0630 -2.4428
 2131SOL    HW217856   4.334   1.593   1.705 -2.3931 -0.1934 -0.6877
 2132SOL     OW17857   4.680   1.153   9.983 -0.0748  0.0085  0.4193
 2132SOL    HW117858   0.021   1.083   9.974 -2.1852 -1.8390 -0.3160
 2132SOL    HW217859   0.004   1.207  10.047 -1.2087  0.6290  0.7355
 2133SOL     OW17860   4.345   0.089   6.261 -0.2209 -0.3970 -0.1034
 2133SOL    HW117861   4.391   0.092   6.345 -1.8290 -1.8265  0.8453
 2133SOL    HW217862   4.400   0.142   6.204  0.3170  0.5577  1.3030
 2134SOL     OW17863   2.155   3.895   9.203  0.5778  0.1331 -0.1090
 2134SOL    HW117864   2.115   3.855   9.280  0.6613  1.2300  0.5016
 2134SOL    HW217865   2.118   3.983   9.209 -1.3386 -0.6964  0.2579
 2135SOL     OW17866   2.477   1.877   4.439 -0.0613  0.5542  0.0119
 2135SOL    HW117867   2.502   1.803   4.384 -1.2645  0.2849 -0.1850
 2135SOL    HW217868   2.509   1.949   4.385  2.2674  0.2803  1.0133
 2136SOL     OW17869   4.568   3.853   5.673  0.1443 -0.3259 -0.2410
 2136SOL    HW117870   4.503   3.909   5.631 -1.0526  0.7673  3.1531
 2136SOL    HW217871   4.616   3.917   5.725 -0.0312 -0.3319 -0.0753
 2137SOL     OW17872   4.706   0.237   4.793 -0.8187 -0.7597  0.0609
 2137SOL    HW117873   4.666   0.219   4.879 -2.4801 -0.7450 -0.7082
 2137SOL    HW217874   4.685   0.330   4.784  0.4625 -0.2760  2.0252
 2138SOL     OW17875   1.609   0.370  14.151  0.3896 -0.6267 -0.4573
 2138SOL    HW117876   1.561   0.290  14.130 -2.1469  0.8099 -0.1147
 2138SOL    HW217877   1.698   0.337  14.144  0.6294 -0.2023  0.6804
 2139SOL     OW17878   3.552   1.716   6.397 -0.3708  0.4296 -0.3433
 2139SOL    HW117879   3.562   1.706   6.492  1.4915  1.4973 -0.4078
 2139SOL    HW217880   3.628   1.669   6.361  0.0627  0.1333  0.9428
 2140SOL     OW17881   1.289   3.388  10.112 -0.3849 -0.1233  0.0177
 2140SOL    HW117882   1.210   3.333  10.118 -0.1099 -0.6083 -0.8752
 2140SOL    HW217883   1.334   3.368  10.194 -0.1813  0.7054  0.0996
 2141SOL     OW17884   2.747   3.870   8.899 -0.3190 -0.4497 -0.0950
 2141SOL    HW117885   2.675   3.896   8.841  0.7858  1.5172 -0.5897
 2141SOL    HW217886   2.715   3.897   8.986 -1.4375 -3.1087  0.3342
 2142SOL     OW17887   0.806   0.317   7.915  0.0963 -0.0534  0.3168
 2142SOL    HW117888   0.833   0.335   8.005  0.9078  0.4406 -0.0340
 2142SOL    HW217889   0.804   0.221   7.912 -1.3631  0.0395 -1.5553
 2143SOL     OW17890   3.759   2.640   1.370 -0.1273 -0.0088 -0.1866
 2143SOL    HW117891   3.720   2.724   1.348  0.7537  0.0595 -1.4477
 2143SOL    HW217892   3.706   2.573   1.326  0.1808  0.5826 -1.4618
 2144SOL     OW17893   1.667   2.708   5.811  0.3391 -0.4926  0.3332
 2144SOL    HW117894   1.664   2.619   5.847  2.8615 -0.3372  0.9886
 2144SOL    HW217895   1.721   2.756   5.874  0.5532  0.4855 -0.6093
 2145SOL     OW17896   0.570   4.297   5.763 -0.2425  0.3459  0.5267
 2145SOL    HW117897   0.650   4.340   5.733 -1.0872  1.7175  0.2328
 2145SOL    HW217898   0.500   4.348   5.722 -1.0351  0.9443  2.6088
 2146SOL     OW17899   3.453   1.099   4.472 -0.0546  0.4139  0.1317
 2146SOL    HW117900   3.460   1.054   4.557  0.0791  2.0042  0.9671
 2146SOL    HW217901   3.370   1.146   4.478 -0.8622 -0.8994 -0.8553
 2147SOL     OW17902   3.165   3.966   1.891  0.1663 -0.3160 -0.2020
 2147SOL    HW117903   3.157   3.876   1.861  0.3351 -0.3358 -0.1862
 2147SOL    HW217904   3.161   4.017   1.810 -0.8952 -0.4704 -0.2373
 2148SOL     OW17905   4.703   0.715   5.064 -0.1789  0.0399  0.2753
 2148SOL    HW117906   4.634   0.774   5.034 -1.5423 -2.1558 -0.9715
 2148SOL    HW217907   0.058   0.767   5.083 -1.3602  0.7625  3.1462
 2149SOL     OW17908   2.318   4.672   2.495 -0.4451 -0.3318 -0.2864
 2149SOL    HW117909   2.397   4.691   2.545  1.6448 -0.9736 -3.3224
 2149SOL    HW217910   2.273   4.625   2.565  1.4932  0.2446  1.3269
 2150SOL     OW17911   4.496   3.666  10.116  0.6031  0.5250 -0.0594
 2150SOL    HW117912   4.584   3.630  10.105  0.1633 -0.5534 -0.0527
 2150SOL    HW217913   4.445   3.608  10.059  1.6915  0.5524 -1.0731
 2151SOL     OW17914   3.669   0.016  13.483 -0.8984  0.3950 -0.0239
 2151SOL    HW117915   3.659   4.685  13.405  1.6561  1.9877 -1.4322
 2151SOL    HW217916   3.686   4.665  13.541 -2.1058 -1.3763 -1.9320
 2152SOL     OW17917   3.349   1.945   9.414 -0.5743  0.8233 -0.4761
 2152SOL    HW117918   3.434   1.941   9.369 -0.2561  0.6566  0.1278
 2152SOL    HW217919   3.343   1.866   9.469 -2.4954  0.5712 -1.0692
 2153SOL     OW17920   1.780   2.982  13.878 -0.0418  0.5173 -0.0206
 2153SOL    HW117921   1.864   2.954  13.915 -1.2715 -1.8402  0.9535
 2153SOL    HW217922   1.815   3.026  13.801 -1.8603  1.4625 -0.3012
 2154SOL     OW17923   1.319   0.780  14.734 -0.2938 -0.0855 -0.5875
 2154SOL    HW117924   1.384   0.710  14.727 -0.3032 -0.0620 -0.9107
 2154SOL    HW217925   1.371   0.859  14.717 -0.5396 -0.2301 -2.0423
 2155SOL     OW17926   2.838   1.305   3.252  0.8077 -0.1570  0.3941
 2155SOL    HW117927   2.898   1.232   3.240 -0.5460 -1.3912  1.1871
 2155SOL    HW217928   2.754   1.268   3.280  0.9281 -0.4320  0.3883
 2156SOL     OW17929   1.301   2.562   7.972 -0.0077 -0.1167  0.2338
 2156SOL    HW117930   1.344   2.486   8.011 -0.5848  0.4869  2.0231
 2156SOL    HW217931   1.368   2.628   7.954 -0.0630 -0.7557 -2.3697
 2157SOL     OW17932   2.387   0.118   7.181  0.3949 -0.7820  0.2001
 2157SOL    HW117933   2.473   0.119   7.224  0.2448  1.8262  0.4346
 2157SOL    HW217934   2.416   0.093   7.093  0.0427  1.4801 -0.5582
 2158SOL     OW17935   4.589   0.718   7.188  0.5311  0.3287  0.1032
 2158SOL    HW117936   4.537   0.764   7.122  0.6025  1.3767  0.7708
 2158SOL    HW217937   4.525   0.651   7.211  1.1917  0.1506  1.3911
 2159SOL     OW17938   4.040   0.246   7.796 -0.7559 -0.0459  0.2002
 2159SOL    HW117939   4.129   0.213   7.810 -0.5056  1.0292  1.1857
 2159SOL    HW217940   4.064   0.337   7.777  1.1589 -0.8339 -1.0622
 2160SOL     OW17941   4.188   4.485   2.975  0.4887  0.0299 -0.2985
 2160SOL    HW117942   4.234   4.409   2.939 -0.1829 -0.8028  0.6048
 2160SOL    HW217943   4.174   4.533   2.894 -1.7044  2.4973  1.5269
 2161SOL     OW17944   3.944   0.573   6.898 -0.7986  0.4096  0.5654
 2161SOL    HW117945   3.957   0.666   6.916  0.4979  0.5618 -1.2745
 2161SOL    HW217946   3.980   0.531   6.976  3.5378  2.3972 -0.3633
 2162SOL     OW17947   3.634   3.975  17.444  0.4035  0.0677  0.0698
 2162SOL    HW117948   3.577   4.046  17.475  0.9690  1.9445 -3.0847
 2162SOL    HW217949   3.645   4.005  17.353  0.5332 -4.0437 -1.2330
 2163SOL     OW17950   3.697   2.832  17.182  0.0343  0.1773 -0.0298
 2163SOL    HW117951   3.646   2.827  17.100  1.0244 -1.4132 -0.5537
 2163SOL    HW217952   3.634   2.842  17.253  1.4340 -1.3820  1.3994
 2164SOL     OW17953   0.430   0.740   4.925 -0.3065 -0.4269 -0.3429
 2164SOL    HW117954   0.420   0.645   4.915 -1.3793 -0.4831  1.2963
 2164SOL    HW217955   0.514   0.756   4.882 -0.5183 -0.2542 -0.6884
 2165SOL     OW17956   1.453   1.991  10.606  0.9084 -0.3000 -0.2120
 2165SOL    HW117957   1.460   1.911  10.658 -0.8063  0.8839  1.8790
 2165SOL    HW217958   1.482   2.066  10.658  2.1163 -1.3172  0.5675
 2166SOL     OW17959   0.138   2.387  15.602 -0.6069  0.4215  0.0911
 2166SOL    HW117960   0.059   2.351  15.641  0.3019 -1.1543  0.5126
 2166SOL    HW217961   0.134   2.344  15.516  1.6393  2.2049 -0.8957
 2167SOL     OW17962   1.078   1.500   3.160  0.2407 -0.6644  0.0996
 2167SOL    HW117963   1.040   1.422   3.199  2.1522 -2.2793 -1.2719
 2167SOL    HW217964   1.006   1.545   3.116  1.1803 -0.0080 -0.7777
 2168SOL     OW17965   3.723   2.966   7.966  0.2758  0.0070  0.2938
 2168SOL    HW117966   3.769   3.048   7.950 -0.3213 -0.1782 -2.2320
 2168SOL    HW217967   3.713   2.932   7.877  1.8213  1.3540 -0.3860
 2169SOL     OW17968   4.294   2.509  11.012  0.0127  0.0073 -0.0569
 2169SOL    HW117969   4.241   2.586  10.993  0.5407  0.8407  1.9200
 2169SOL    HW217970   4.248   2.436  10.969  2.7329 -1.7053 -0.0513
 2170SOL     OW17971   3.319   4.018  12.369 -0.2214  0.4387  0.3801
 2170SOL    HW117972   3.225   4.018  12.352  0.2668 -3.2918 -2.4530
 2170SOL    HW217973   3.344   4.094  12.316  1.8575  0.0026  0.7469
 2171SOL     OW17974   1.733   3.787  15.739  0.4256  0.1962  0.0887
 2171SOL    HW117975   1.718   3.756  15.650 -0.0253 -0.1123  0.2746
 2171SOL    HW217976   1.822   3.751  15.743  0.0700 -0.8964 -2.0054
 2172SOL     OW17977   3.385   2.002   2.954  0.1587 -0.3210 -0.2255
 2172SOL    HW117978   3.463   1.950   2.935 -0.7727 -1.8464  0.1273
 2172SOL    HW217979   3.316   1.936   2.963  0.2974 -0.5292 -0.6982
 2173SOL     OW17980   4.043   1.008   1.686 -0.0526 -0.3957 -0.1831
 2173SOL    HW117981   4.011   0.985   1.773 -0.6285  1.1912  0.0109
 2173SOL    HW217982   4.001   0.936   1.640 -0.7220  0.2630 -0.5975
 2174SOL     OW17983   0.489   1.401   3.943 -0.8087  0.9684 -0.0383
 2174SOL    HW117984   0.542   1.328   3.914 -2.1863 -0.2687  0.5183
 2174SOL    HW217985   0.408   1.379   3.897 -0.5765  0.7093 -0.3195
 2175SOL     OW17986   0.335   2.229   8.282 -0.1458  0.0319  0.6539
 2175SOL    HW117987   0.369   2.144   8.255  0.5227 -0.2919  2.5266
 2175SOL    HW217988   0.247   2.232   8.244  0.6471 -1.5083 -1.3159
 2176SOL     OW17989   2.080   3.834   5.478  0.9254  0.5581  0.0187
 2176SOL    HW117990   2.174   3.823   5.467  1.2768  2.3492  1.2712
 2176SOL    HW217991   2.068   3.782   5.557 -0.9653 -0.2189 -0.7726
 2177SOL     OW17992   3.110   3.415   7.140 -0.4838  0.0854 -0.1406
 2177SOL    HW117993   3.049   3.429   7.212  0.4002 -1.8148  0.9936
 2177SOL    HW217994   3.161   3.338   7.168 -0.3029 -0.1635 -1.1621
 2178SOL     OW17995   0.242   0.883  12.687  0.6293 -0.9808  0.0750
 2178SOL    HW117996   0.316   0.851  12.636  1.8619  1.3249  0.4077
 2178SOL    HW217997   0.246   0.979  12.694 -0.9472 -0.9907  1.3379
 2179SOL     OW17998   1.549   4.614  13.616  0.3692 -0.4078  0.0869
 2179SOL    HW117999   1.491   4.688  13.631  0.5985 -0.5323  1.5275
 2179SOL    HW218000   1.556   4.616  13.520  1.4329  2.0830  0.2148
 2180SOL     OW18001   0.001   0.652   7.575  0.1223 -0.1749  0.1722
 2180SOL    HW118002   0.018   0.612   7.660  1.7654  1.1531  0.4762
 2180SOL    HW218003   4.636   0.687   7.588 -0.3765 -0.9455 -1.1358
 2181SOL     OW18004   3.286   1.243   8.082 -0.2651 -0.5368 -0.4242
 2181SOL    HW118005   3.211   1.272   8.030 -1.5657 -0.1760  1.6636
 2181SOL    HW218006   3.316   1.160   8.044 -0.8261 -0.7439 -0.4035
 2182SOL     OW18007   2.949   2.916   2.807  0.0248 -0.2375  0.2988
 2182SOL    HW118008   3.028   2.870   2.778  1.2096  0.9564  1.6495
 2182SOL    HW218009   2.880   2.863   2.767 -0.0538 -0.1716  0.3492
 2183SOL     OW18010   3.549   1.386   7.241 -0.2476  0.0209  0.6073
 2183SOL    HW118011   3.513   1.462   7.195  2.9164  1.8121  1.0888
 2183SOL    HW218012   3.518   1.301   7.211  0.5394 -1.0969  2.9292
 2184SOL     OW18013   4.307   4.294  17.428  0.0330  0.0774  0.0181
 2184SOL    HW118014   4.217   4.262  17.428  0.5358 -1.3292  0.0055
 2184SOL    HW218015   4.309   4.359  17.499 -0.5753  0.3613 -0.2307
 2185SOL     OW18016   0.622   1.922   6.888 -0.3657 -0.0994  0.1304
 2185SOL    HW118017   0.536   1.920   6.931 -1.1170  2.0988 -1.2315
 2185SOL    HW218018   0.661   1.934   6.975  1.4908  1.0765 -0.8752
 2186SOL     OW18019   1.113   4.074  14.131  0.1111 -0.2340  0.0611
 2186SOL    HW118020   1.102   4.141  14.064  0.4082 -0.9073 -0.6548
 2186SOL    HW218021   1.118   3.997  14.074 -1.2339  0.2675 -0.7373
 2187SOL     OW18022   3.398   3.073   2.756  0.1589 -0.0453  0.1989
 2187SOL    HW118023   3.405   3.007   2.687 -3.0324  0.3658 -0.4688
 2187SOL    HW218024   3.472   3.135   2.751 -1.3680  1.7328 -0.2285
 2188SOL     OW18025   4.341   4.093  10.104  0.3707 -0.0176 -0.0004
 2188SOL    HW118026   4.256   4.080  10.063  0.2657  2.1013 -0.4428
 2188SOL    HW218027   4.317   4.045  10.183  1.2804  0.6363  0.6751
 2189SOL     OW18028   0.266   4.269  14.961  0.5996  0.1110 -0.0027
 2189SOL    HW118029   0.354   4.287  14.928 -0.0408  1.2262 -1.1077
 2189SOL    HW218030   0.283   4.201  15.026 -0.6946 -1.2722 -1.0820
 2190SOL     OW18031   2.849   4.118   2.546 -0.7881  0.0547 -0.2621
 2190SOL    HW118032   2.847   4.039   2.492  0.0836  0.5770 -1.0467
 2190SOL    HW218033   2.786   4.179   2.509 -0.3981 -0.5944 -1.9942
 2191SOL     OW18034   3.053   1.178  13.978 -0.3195  0.5564  0.3523
 2191SOL    HW118035   2.977   1.194  13.921 -0.1309  2.1205  0.5431
 2191SOL    HW218036   3.034   1.112  14.044  0.7095  0.1469  0.2371
 2192SOL     OW18037   0.142   4.270   2.054 -0.0476 -0.7145  0.6867
 2192SOL    HW118038   0.071   4.332   2.039  0.4725 -0.0258  1.0822
 2192SOL    HW218039   0.175   4.306   2.136 -0.1156 -0.9992  0.8378
 2193SOL     OW18040   4.014   0.070   5.110 -0.0428 -0.3709 -0.1406
 2193SOL    HW118041   4.062   4.711   5.123  2.3764  1.0522  0.0436
 2193SOL    HW218042   3.967   0.041   5.033 -0.5283 -1.9684  0.7648
 2194SOL     OW18043   2.439   1.986   4.039  0.1328 -0.1539  0.0197
 2194SOL    HW118044   2.450   2.046   4.113 -0.9942 -1.4749  1.2586
 2194SOL    HW218045   2.345   1.974   4.030  0.1528 -0.4701  0.2230
 2195SOL     OW18046   1.212   3.571   7.352 -0.0469  0.1132  0.0176
 2195SOL    HW118047   1.212   3.509   7.425  2.9467 -0.2548 -0.3163
 2195SOL    HW218048   1.216   3.510   7.279 -2.0154  1.0428 -0.8803
 2196SOL     OW18049   4.657   0.848   6.844 -0.5406 -0.3000 -0.3096
 2196SOL    HW118050   4.580   0.855   6.902  0.0913  2.7201  0.1606
 2196SOL    HW218051   4.704   0.780   6.891 -1.4677  0.8617  2.2814
 2197SOL     OW18052   0.756   0.611   5.670  0.8769 -0.0108  0.7026
 2197SOL    HW118053   0.807   0.692   5.663 -2.0861  1.9275  1.6406
 2197SOL    HW218054   0.735   0.608   5.764 -0.7798 -3.3257  0.2196
 2198SOL     OW18055   1.561   0.790   7.042  0.1714 -0.1146  0.2328
 2198SOL    HW118056   1.489   0.741   7.081  0.6003 -0.9348 -0.0082
 2198SOL    HW218057   1.618   0.805   7.117 -1.1831 -2.4155  1.7179
 2199SOL     OW18058   3.743   2.110   2.233  0.2388 -0.5199  0.4087
 2199SOL    HW118059   3.806   2.113   2.161 -0.3852 -0.5842 -0.1303
 2199SOL    HW218060   3.780   2.170   2.298 -3.8723  1.3678  0.9341
 2200SOL     OW18061   3.537   1.240  14.240  0.1602 -0.2177  0.3535
 2200SOL    HW118062   3.627   1.267  14.258 -0.2318  1.9525 -0.9340
 2200SOL    HW218063   3.495   1.323  14.219  2.0186  0.5434 -0.3907
 2201SOL     OW18064   3.386   4.691   3.563 -0.3736  0.6135  0.3272
 2201SOL    HW118065   3.436   4.614   3.591 -0.1818  0.3210 -0.8376
 2201SOL    HW218066   3.369   0.016   3.645 -0.4431  0.7228  0.2490
 2202SOL     OW18067   3.815   4.559   5.409 -0.2555  0.1748 -0.2338
 2202SOL    HW118068   3.863   4.567   5.327  0.6557  0.4650  0.3230
 2202SOL    HW218069   3.886   4.574   5.471 -0.0705  0.6497 -0.5589
 2203SOL     OW18070   0.710   3.123   6.708 -0.5445  0.1258  0.4297
 2203SOL    HW118071   0.780   3.187   6.694  0.0612 -0.4758  0.6770
 2203SOL    HW218072   0.717   3.057   6.640 -1.6025  1.8008 -1.2892
 2204SOL     OW18073   1.200   2.762   7.764  0.3138 -0.2266  0.1815
 2204SOL    HW118074   1.235   2.795   7.846 -0.7979  0.3105  0.4311
 2204SOL    HW218075   1.146   2.688   7.792  1.2730 -0.5417  1.1878
 2205SOL     OW18076   2.352   0.368   3.495 -0.2961  0.5915  0.0953
 2205SOL    HW118077   2.446   0.371   3.474 -0.6311  3.1565 -1.1714
 2205SOL    HW218078   2.351   0.346   3.588 -1.4843 -0.1453 -0.0967
 2206SOL     OW18079   0.038   0.127   8.792  0.3079  0.2166  0.6636
 2206SOL    HW118080   0.131   0.104   8.796  0.6149  0.8013 -2.6111
 2206SOL    HW218081   0.040   0.214   8.831 -1.7002  1.6969 -2.5047
 2207SOL     OW18082   1.716   1.322   9.150 -0.4009 -0.2269  0.2065
 2207SOL    HW118083   1.721   1.240   9.199 -0.3524 -1.0732 -1.2234
 2207SOL    HW218084   1.647   1.309   9.085 -1.1468 -2.9165  1.5377
 2208SOL     OW18085   2.879   0.556  10.667 -0.1600 -0.0559  0.1586
 2208SOL    HW118086   2.896   0.647  10.644  0.7925  0.2321  2.0064
 2208SOL    HW218087   2.812   0.580  10.732 -1.0684 -0.8024 -0.4913
 2209SOL     OW18088   4.091   3.375   3.064 -0.0466  0.0158 -0.0730
 2209SOL    HW118089   4.151   3.449   3.060  1.9397 -1.5149  1.2677
 2209SOL    HW218090   4.079   3.373   2.969 -0.8221 -1.0772  0.0495
 2210SOL     OW18091   0.494   3.239   5.081  0.0188  0.3140  0.0687
 2210SOL    HW118092   0.484   3.294   5.003  2.4212  0.4441 -0.1726
 2210SOL    HW218093   0.588   3.226   5.095 -0.4889 -0.9462  2.3143
 2211SOL     OW18094   2.678   4.548   3.779 -0.0455 -0.0294 -0.7415
 2211SOL    HW118095   2.645   4.523   3.865  1.0413 -1.0186 -0.6094
 2211SOL    HW218096   2.651   4.640   3.783  1.4161  0.3569  0.4034
 2212SOL     OW18097   1.194   1.936   7.729 -0.0480 -0.1904  0.2091
 2212SOL    HW118098   1.153   1.948   7.815  0.6278 -1.8213  0.7573
 2212SOL    HW218099   1.248   1.862   7.756  0.3538  0.4106  1.0708
 2213SOL     OW18100   4.475   4.639   5.319 -0.6759 -0.3332 -0.2415
 2213SOL    HW118101   4.525   4.629   5.401  0.2077  2.7996 -0.3877
 2213SOL    HW218102   4.478   0.010   5.304 -0.4003  0.0490  2.1253
 2214SOL     OW18103   4.126   2.452   8.056 -0.4670  0.1477  0.2250
 2214SOL    HW118104   4.047   2.432   8.005 -0.7730 -0.4466  0.9211
 2214SOL    HW218105   4.104   2.442   8.149 -4.2540 -0.0431 -0.6607
 2215SOL     OW18106   4.305   2.630   3.316 -0.0932  0.4782 -0.0016
 2215SOL    HW118107   4.297   2.641   3.222 -0.4985 -1.3677 -0.1710
 2215SOL    HW218108   4.354   2.709   3.339 -0.6719  0.7409  0.3481
 2216SOL     OW18109   1.057   0.381  15.421 -0.2855  0.0753  0.4354
 2216SOL    HW118110   1.069   0.449  15.354 -3.0337 -1.5423 -1.6899
 2216SOL    HW218111   1.034   0.317  15.354 -1.4910 -0.4094  1.3228
 2217SOL     OW18112   2.942   0.506   1.050  0.2433 -0.1499  0.1357
 2217SOL    HW118113   2.997   0.562   1.104 -0.4099 -1.8104  2.5556
 2217SOL    HW218114   2.992   0.424   1.055  1.5645  0.6296 -0.3720
 2218SOL     OW18115   0.601   4.571   3.888 -0.2753  0.4946 -0.3571
 2218SOL    HW118116   0.656   4.574   3.810 -0.6554 -2.5744 -0.7523
 2218SOL    HW218117   0.514   4.566   3.848 -0.0415 -1.5868 -0.6471
 2219SOL     OW18118   0.411   3.504   6.966  0.0369 -0.2540 -0.2566
 2219SOL    HW118119   0.462   3.516   7.046  0.2979  0.4232 -0.5242
 2219SOL    HW218120   0.413   3.590   6.923  2.1639 -0.2758 -0.2350
 2220SOL     OW18121   0.315   3.345   5.281 -0.0154  0.1181 -0.0875
 2220SOL    HW118122   0.273   3.418   5.327 -0.1667 -1.1600  1.8199
 2220SOL    HW218123   0.323   3.377   5.191 -0.0882 -1.2200 -0.5672
 2221SOL     OW18124   0.204   4.496   5.078  0.3875 -0.4300 -0.1148
 2221SOL    HW118125   0.203   4.432   5.149  0.0865 -0.5318 -0.2107
 2221SOL    HW218126   0.272   4.553   5.114  1.0757 -0.5108 -1.3103
 2222SOL     OW18127   3.329   3.473   2.535 -0.0787 -0.1591 -0.1066
 2222SOL    HW118128   3.292   3.455   2.621  2.1822 -1.0232  0.6868
 2222SOL    HW218129   3.417   3.502   2.558 -0.0171 -0.3432 -0.1130
 2223SOL     OW18130   0.544   2.433   7.228  0.0637  0.0056 -0.3915
 2223SOL    HW118131   0.606   2.409   7.297  1.2424  0.4336 -1.3113
 2223SOL    HW218132   0.580   2.381   7.157  0.7739 -0.8410  0.5753
 2224SOL     OW18133   0.716   0.316   5.705 -0.0525 -0.6311 -0.8346
 2224SOL    HW118134   0.746   0.407   5.700 -0.4211 -0.4592  0.0983
 2224SOL    HW218135   0.650   0.322   5.636 -0.1161 -0.0753 -0.7252
 2225SOL     OW18136   3.143   0.589  11.704 -0.4029 -0.4006  0.1018
 2225SOL    HW118137   3.073   0.654  11.706  0.2395  0.2458  1.6206
 2225SOL    HW218138   3.229   0.630  11.700 -0.5747 -0.2188 -1.7323
 2226SOL     OW18139   2.071   0.420   2.426  0.0835 -0.2367 -0.8802
 2226SOL    HW118140   2.088   0.492   2.365 -0.1072 -0.5483 -1.3015
 2226SOL    HW218141   1.976   0.412   2.429 -0.0881  1.7022 -1.0159
 2227SOL     OW18142   4.510   2.543   2.517 -0.1557 -0.3328 -0.1425
 2227SOL    HW118143   4.416   2.558   2.528 -0.1264  0.8869 -1.5265
 2227SOL    HW218144   4.518   2.517   2.425 -0.7341 -0.0088 -0.2845
 2228SOL     OW18145   1.267   1.056   8.502  0.9522 -0.7475  0.5904
 2228SOL    HW118146   1.251   1.023   8.590 -2.6824 -1.8974 -0.5032
 2228SOL    HW218147   1.282   1.150   8.513  1.4750 -1.0856  2.8060
 2229SOL     OW18148   3.487   2.677  16.794 -0.2035  0.1368 -0.5041
 2229SOL    HW118149   3.469   2.684  16.700  0.1209  3.3780 -0.3207
 2229SOL    HW218150   3.481   2.581  16.801  1.6315  0.1778  1.6596
 2230SOL     OW18151   3.676   1.412   9.118 -0.4978  0.7394  0.2946
 2230SOL    HW118152   3.707   1.382   9.204 -0.6139 -0.5004 -0.0856
 2230SOL    HW218153   3.656   1.503   9.137 -0.9880  0.7131 -0.1133
 2231SOL     OW18154   3.334   4.195   3.747 -0.2793 -0.3897  0.1351
 2231SOL    HW118155   3.256   4.146   3.771 -0.0670  0.0135  1.6600
 2231SOL    HW218156   3.369   4.143   3.674  0.7473  0.7692 -0.2084
 2232SOL     OW18157   3.960   0.135   8.485  0.1522  0.0352 -0.2719
 2232SOL    HW118158   3.902   0.149   8.560 -0.3438  1.3597 -0.9061
 2232SOL    HW218159   3.936   0.210   8.431  2.0411  1.6332  1.1210
 2233SOL     OW18160   3.650   0.326  17.476  0.2656  0.4338  0.1667
 2233SOL    HW118161   3.657   0.412  17.517 -0.1663  0.8464 -0.6165
 2233SOL    HW218162   3.555   0.323  17.483  0.4543 -0.6495  2.2036
 2234SOL     OW18163   0.165   2.075  11.937 -0.2873 -0.8346 -0.1558
 2234SOL    HW118164   0.094   2.089  11.999  0.9893 -0.5422  1.2337
 2234SOL    HW218165   0.195   1.988  11.964  0.3713 -0.7214 -0.5268
 2235SOL     OW18166   0.070   1.824   8.466 -0.3158 -0.6514 -0.4150
 2235SOL    HW118167   4.721   1.786   8.516  0.2890  0.2788  1.1437
 2235SOL    HW218168   0.092   1.893   8.529  0.7143  0.3833 -1.9172
 2236SOL     OW18169   0.024   0.463   1.548 -0.1487  0.8004 -0.4044
 2236SOL    HW118170   0.077   0.411   1.488  1.5629  0.8363  1.1042
 2236SOL    HW218171   0.027   0.411   1.628  1.9472  0.6773 -0.5747
 2237SOL     OW18172   2.677   2.710   6.083 -0.5806 -0.5081  0.9050
 2237SOL    HW118173   2.660   2.620   6.055  2.0143 -1.0194  0.9576
 2237SOL    HW218174   2.611   2.734   6.148  0.4717 -2.3636  2.6539
 2238SOL     OW18175   0.329   0.163  11.982  0.3536 -0.3422 -0.0033
 2238SOL    HW118176   0.391   0.207  11.924 -2.2213  0.5365 -2.0934
 2238SOL    HW218177   0.306   0.232  12.044  1.3072  1.0591 -1.1997
 2239SOL     OW18178   3.944   4.360   7.198 -0.1155 -0.2602 -0.4195
 2239SOL    HW118179   3.977   4.284   7.152 -2.1194 -1.8085  0.6834
 2239SOL    HW218180   3.948   4.425   7.128 -2.4423  1.0347  0.6491
 2240SOL     OW18181   2.169   0.826   4.295 -0.2838  0.0367 -0.4633
 2240SOL    HW118182   2.199   0.823   4.204  1.6035  1.7882  0.0984
 2240SOL    HW218183   2.188   0.735   4.317 -0.1617 -0.0187 -0.8001
 2241SOL     OW18184   4.615   0.755   1.872 -0.6142  0.3453  0.5778
 2241SOL    HW118185   4.652   0.668   1.861  1.0319  1.2084 -0.8120
 2241SOL    HW218186   4.564   0.746   1.952  0.5843 -1.5853  1.1352
 2242SOL     OW18187   2.216   3.165   5.644  0.1477 -0.0363  0.7469
 2242SOL    HW118188   2.271   3.184   5.568 -0.7711 -0.7624 -0.0976
 2242SOL    HW218189   2.257   3.082   5.671 -1.8569 -1.7339 -1.5045
 2243SOL     OW18190   1.271   4.202   6.083 -0.0777  0.0068  0.2458
 2243SOL    HW118191   1.197   4.230   6.030 -0.2627  1.3494  1.1997
 2243SOL    HW218192   1.263   4.108   6.073 -0.2276  0.0503 -0.0309
 2244SOL     OW18193   1.005   1.255   7.419 -0.0977  0.1740 -0.0420
 2244SOL    HW118194   1.073   1.231   7.482 -0.2116 -0.0121  0.0123
 2244SOL    HW218195   1.055   1.263   7.338  0.0514 -0.8702 -0.0487
 2245SOL     OW18196   0.179   4.549  14.341 -0.6542 -0.1228  0.5559
 2245SOL    HW118197   0.218   4.531  14.427 -0.0091 -0.3411  0.2159
 2245SOL    HW218198   0.087   4.525  14.358 -0.5479  0.5700  2.0950
 2246SOL     OW18199   3.297   0.683   6.585 -0.4905 -0.1669 -0.1852
 2246SOL    HW118200   3.388   0.712   6.581 -0.8264  1.0875  1.1820
 2246SOL    HW218201   3.262   0.751   6.643 -0.7264 -0.2980 -0.1723
 2247SOL     OW18202   3.148   2.446   2.577 -0.0755  0.2586  0.4724
 2247SOL    HW118203   3.082   2.423   2.643 -1.0480  1.8310  0.0682
 2247SOL    HW218204   3.110   2.534   2.572 -0.9406 -0.3702 -4.2894
 2248SOL     OW18205   3.905   0.647   4.291 -0.2752  0.3216  0.1182
 2248SOL    HW118206   3.963   0.602   4.229  0.9846  0.0156  1.5125
 2248SOL    HW218207   3.932   0.738   4.282  0.4580  0.2637  1.7483
 2249SOL     OW18208   3.577   3.993   7.764 -0.1438 -0.3276  0.5975
 2249SOL    HW118209   3.600   4.022   7.675 -2.5643  1.8580  0.6716
 2249SOL    HW218210   3.605   4.074   7.806 -1.4384  1.3323 -1.7196
 2250SOL     OW18211   2.373   2.014   7.973 -0.2765 -0.1459 -0.1390
 2250SOL    HW118212   2.402   2.054   8.055  1.2179  0.2834 -0.8775
 2250SOL    HW218213   2.401   2.080   7.909 -0.9004 -1.3233 -1.6258
 2251SOL     OW18214   2.980   1.080   4.708  0.2013  0.3299 -0.1415
 2251SOL    HW118215   2.945   1.165   4.735  1.5849  1.3700 -1.5983
 2251SOL    HW218216   3.031   1.049   4.784  1.0930 -0.6200 -1.1308
 2252SOL     OW18217   4.129   2.852   9.876  0.1664  0.2920 -0.0758
 2252SOL    HW118218   4.216   2.867   9.912 -1.6488 -1.3597  5.0021
 2252SOL    HW218219   4.153   2.802   9.798  0.1563  0.0530  0.0754
 2253SOL     OW18220   2.465   0.146   6.170  0.1613  0.5809 -0.1888
 2253SOL    HW118221   2.440   0.059   6.139 -0.3169  0.4373  0.6018
 2253SOL    HW218222   2.538   0.176   6.115  1.1510  1.8593  1.8216
 2254SOL     OW18223   3.559   0.891   6.060  0.7158 -0.3796  0.3858
 2254SOL    HW118224   3.552   0.825   6.129  1.3484 -0.4137  0.4176
 2254SOL    HW218225   3.601   0.957   6.114 -2.4153  1.0496  1.0777
 2255SOL     OW18226   2.548   3.019   6.351  0.1044 -0.1641  0.4627
 2255SOL    HW118227   2.633   3.027   6.308 -0.5501 -0.1480 -0.8003
 2255SOL    HW218228   2.529   2.929   6.324 -0.6649  0.3503 -0.6866
 2256SOL     OW18229   0.452   2.345   0.583  0.0171 -0.3993  0.2870
 2256SOL    HW118230   0.381   2.398   0.621 -0.1935  1.1159 -2.2249
 2256SOL    HW218231   0.429   2.254   0.599 -0.6801 -0.0617  1.2252
 2257SOL     OW18232   4.411   1.215   5.668  0.1922 -0.1483  0.5330
 2257SOL    HW118233   4.504   1.224   5.689 -0.4304  1.9798  2.2786
 2257SOL    HW218234   4.411   1.193   5.574  0.7626 -2.2570  1.0099
 2258SOL     OW18235   1.505   4.666   2.917 -0.7589 -0.0647 -0.4242
 2258SOL    HW118236   1.430   4.607   2.914 -2.2682  1.7932  0.6477
 2258SOL    HW218237   1.576   4.617   2.958 -1.0157  0.6375  0.8376
 2259SOL     OW18238   4.190   3.414   2.812  0.3026 -0.3073  1.0917
 2259SOL    HW118239   4.123   3.451   2.754  1.0220 -0.2724  0.2990
 2259SOL    HW218240   4.243   3.489   2.838  2.6974 -2.3087  2.0251
 2260SOL     OW18241   0.159   4.179   5.989 -0.2922  0.2506 -0.0484
 2260SOL    HW118242   0.236   4.181   5.932 -1.5118 -3.0533 -1.8404
 2260SOL    HW218243   0.177   4.259   6.038 -0.5879 -0.7840  1.7749
 2261SOL     OW18244   3.900   3.111   8.357 -0.3462 -0.2572 -0.0847
 2261SOL    HW118245   3.825   3.166   8.381 -0.1773  0.1987 -0.5953
 2261SOL    HW218246   3.936   3.165   8.286  0.7997  0.2518  0.8827
 2262SOL     OW18247   2.443   1.411   8.597  0.2846  0.1342  0.2559
 2262SOL    HW118248   2.461   1.319   8.618  1.8347  0.9706  2.6366
 2262SOL    HW218249   2.418   1.401   8.505 -0.2842 -1.6521  0.6062
 2263SOL     OW18250   3.863   4.058   2.652 -0.2237  0.0487  0.2003
 2263SOL    HW118251   3.792   4.036   2.592  0.0350  0.9028 -0.4304
 2263SOL    HW218252   3.929   3.994   2.624 -0.4991 -1.3313  2.7034
 2264SOL     OW18253   0.419   2.282  11.464 -0.0019  0.4414  0.0070
 2264SOL    HW118254   0.324   2.282  11.479  0.2268  2.8086  1.4760
 2264SOL    HW218255   0.442   2.375  11.468 -0.7856  0.5787  1.7605
 2265SOL     OW18256   4.426   0.487  11.625  0.5035  0.3091 -0.8477
 2265SOL    HW118257   4.348   0.497  11.680  0.9570 -1.3726  0.0851
 2265SOL    HW218258   4.471   0.570  11.640 -0.4214  0.8839 -1.2962
 2266SOL     OW18259   4.028   2.174   8.607  0.7851 -0.2569  0.3625
 2266SOL    HW118260   4.094   2.163   8.538  0.4304 -1.4472  0.2102
 2266SOL    HW218261   3.976   2.099   8.578  0.1669  0.3088  0.0048
 2267SOL     OW18262   4.181   2.940   6.472  0.0908  0.1105  0.5683
 2267SOL    HW118263   4.145   2.976   6.553 -0.3559 -2.2198  1.3787
 2267SOL    HW218264   4.161   2.847   6.481 -0.0658  0.1013  0.0707
 2268SOL     OW18265   4.199   0.946  17.030 -0.7442  0.2293  0.2524
 2268SOL    HW118266   4.254   0.872  17.005  0.2795  0.4043  1.9615
 2268SOL    HW218267   4.266   1.015  17.033 -0.5234  0.1111 -1.8705
 2269SOL     OW18268   3.099   2.714  16.670 -0.6274 -0.4921  0.0833
 2269SOL    HW118269   3.162   2.645  16.688 -1.2424 -0.9515  0.4697
 2269SOL    HW218270   3.127   2.777  16.737  0.8461 -0.0185 -0.9625
 2270SOL     OW18271   3.043   2.247  15.911  0.4903 -0.0796  0.0499
 2270SOL    HW118272   2.949   2.262  15.920  0.5604  1.4996 -1.9798
 2270SOL    HW218273   3.066   2.215  15.998  0.5801 -2.2628 -0.7833
 2271SOL     OW18274   2.940   3.025   5.701  0.2340 -0.5437  0.5012
 2271SOL    HW118275   3.026   3.042   5.662 -0.4481 -0.0787 -0.8059
 2271SOL    HW218276   2.950   3.070   5.785 -0.0956 -0.6843  0.6147
 2272SOL     OW18277   4.199   2.517   9.753  0.0199 -0.1415 -0.0918
 2272SOL    HW118278   4.285   2.489   9.783 -0.6398 -2.6019 -0.4754
 2272SOL    HW218279   4.143   2.453   9.798  1.8339 -1.6229  0.0455
 2273SOL     OW18280   0.175   0.630   3.873 -0.1201  0.2268  0.2239
 2273SOL    HW118281   0.269   0.611   3.870 -0.1399 -0.1403  1.9796
 2273SOL    HW218282   0.171   0.725   3.870 -0.6032  0.2226  0.7060
 2274SOL     OW18283   2.878   1.355   5.496 -0.2622 -0.1902 -0.0909
 2274SOL    HW118284   2.821   1.377   5.570 -1.8215 -0.5858 -1.1612
 2274SOL    HW218285   2.815   1.348   5.424  0.8428  0.4348 -1.1200
 2275SOL     OW18286   0.185   0.762  10.576 -0.1555 -0.3224  0.2473
 2275SOL    HW118287   0.110   0.732  10.524  0.2400 -1.9905  0.6380
 2275SOL    HW218288   0.143   0.765  10.663  2.5685  0.8575  1.4953
 2276SOL     OW18289   3.515   0.653   3.771 -0.2105  0.5420 -0.5594
 2276SOL    HW118290   3.505   0.660   3.676 -3.6263  2.3284 -0.0637
 2276SOL    HW218291   3.527   0.742   3.804  2.0823 -0.2106  0.6556
 2277SOL     OW18292   2.335   0.041   2.060 -0.3548  0.2457  0.1833
 2277SOL    HW118293   2.268   0.049   1.993 -0.3183  1.4047  0.2846
 2277SOL    HW218294   2.319   4.675   2.094  1.9437 -0.9091 -1.7272
 2278SOL     OW18295   3.257   4.255  15.491  0.6715 -0.8363 -0.3173
 2278SOL    HW118296   3.191   4.318  15.463  1.9827  1.7013  2.2587
 2278SOL    HW218297   3.342   4.290  15.464 -0.1877  1.7208  0.3482
 2279SOL     OW18298   4.456   1.240   7.352 -0.6672 -0.2971 -0.4003
 2279SOL    HW118299   4.513   1.313   7.380  0.0913 -0.3733 -1.7724
 2279SOL    HW218300   4.479   1.167   7.410  0.5678  0.6402  0.3070
 2280SOL     OW18301   1.023   4.351  11.511  0.4549 -0.6662  0.0405
 2280SOL    HW118302   1.100   4.402  11.532 -0.4848  0.2061  1.3626
 2280SOL    HW218303   0.973   4.341  11.592  0.2035  0.4784  0.0218
 2281SOL     OW18304   4.353   3.120  16.585 -0.0243  0.0324  0.2795
 2281SOL    HW118305   4.299   3.115  16.664  1.7234 -1.7051  1.3583
 2281SOL    HW218306   4.418   3.056  16.611 -0.5186 -1.1978 -1.5283
 2282SOL     OW18307   4.301   3.456   3.835  0.1927 -0.3557 -0.0820
 2282SOL    HW118308   4.386   3.448   3.878 -0.4585 -3.3126  0.6617
 2282SOL    HW218309   4.312   3.545   3.800  1.6821  0.1242  1.5642
 2283SOL     OW18310   3.372   2.683   5.783 -0.3337  0.5078  0.2454
 2283SOL    HW118311   3.295   2.689   5.839 -1.4819  0.5568 -1.3176
 2283SOL    HW218312   3.363   2.595   5.746 -0.9173 -0.0208  1.6595
 2284SOL     OW18313   0.112   1.885  11.167 -0.8921  0.0087 -0.1621
 2284SOL    HW118314   0.203   1.895  11.197 -0.8082 -0.7314 -0.1760
 2284SOL    HW218315   0.093   1.816  11.231  3.2255 -1.8979 -1.0212
 2285SOL     OW18316   0.590   3.618   7.884  0.1808 -0.0571  0.5230
 2285SOL    HW118317   0.662   3.681   7.883 -1.4184  1.7613 -1.7392
 2285SOL    HW218318   0.543   3.661   7.955 -1.9222  1.0026 -1.4752
 2286SOL     OW18319   3.389   2.274   3.492 -0.2718  0.1362  0.2328
 2286SOL    HW118320   3.314   2.248   3.547  1.1508 -2.2315  1.0656
 2286SOL    HW218321   3.379   2.213   3.419  2.0610 -0.0327  0.0467
 2287SOL     OW18322   1.210   0.456   0.382  0.3277  0.6586  0.4687
 2287SOL    HW118323   1.148   0.461   0.455  0.8025 -1.7147  1.0357
 2287SOL    HW218324   1.209   0.550   0.361 -1.0129  0.8111  1.1988
 2288SOL     OW18325   0.013   2.847   7.915  0.3239 -0.5877  0.1298
 2288SOL    HW118326   0.021   2.931   7.961 -0.9643 -0.1673 -0.4248
 2288SOL    HW218327   0.012   2.795   7.995  2.0543 -0.7697  0.0215
 2289SOL     OW18328   2.533   2.377   6.315  0.6686 -0.0516  0.2345
 2289SOL    HW118329   2.528   2.448   6.380 -1.4152 -2.1816  2.4323
 2289SOL    HW218330   2.555   2.297   6.362  1.4033  0.9834  1.6600
 2290SOL     OW18331   0.206   4.562  14.067  0.4353 -0.1239 -0.3004
 2290SOL    HW118332   0.171   4.515  14.143 -0.7882  3.4191  1.2971
 2290SOL    HW218333   0.295   4.524  14.061 -0.0421 -1.3050  0.0414
 2291SOL     OW18334   2.446   2.616   5.064 -0.0005  0.6449 -0.1246
 2291SOL    HW118335   2.432   2.590   4.973  0.1646  1.4831 -0.3827
 2291SOL    HW218336   2.464   2.528   5.098  1.8153  0.5790 -1.2426
 2292SOL     OW18337   1.001   3.854   3.823  0.3191  0.4369 -0.5558
 2292SOL    HW118338   0.931   3.790   3.833 -0.4708  1.6503  1.6846
 2292SOL    HW218339   1.073   3.814   3.871 -0.0853 -2.4562 -2.3605
 2293SOL     OW18340   3.158   2.372   8.994 -0.1003  0.1108  0.1012
 2293SOL    HW118341   3.071   2.409   8.976  0.3007 -0.4898 -2.9651
 2293SOL    HW218342   3.193   2.400   8.910  1.3699  1.2731  1.1127
 2294SOL     OW18343   1.201   2.264   8.233 -0.0580 -0.3104  0.3119
 2294SOL    HW118344   1.180   2.221   8.316 -2.2273 -0.5753 -0.3712
 2294SOL    HW218345   1.146   2.342   8.239  0.6309 -0.0021  2.6031
 2295SOL     OW18346   4.628   4.462   1.644  0.5057 -0.3881 -0.0480
 2295SOL    HW118347   4.618   4.381   1.695  2.3189 -1.6541 -1.7157
 2295SOL    HW218348   4.712   4.496   1.673 -1.5422  1.8923  3.3210
 2296SOL     OW18349   3.491   1.803  15.240  0.1443 -0.3145  0.0613
 2296SOL    HW118350   3.412   1.774  15.286  0.9357 -0.2981  1.4086
 2296SOL    HW218351   3.484   1.898  15.237  1.7424 -0.1706  1.2182
 2297SOL     OW18352   3.090   3.675   7.454  0.3533 -0.1342  0.2694
 2297SOL    HW118353   3.114   3.602   7.397  0.9664  1.8969 -2.0352
 2297SOL    HW218354   3.010   3.642   7.494 -0.4351 -1.5728 -2.5244
 2298SOL     OW18355   1.493   1.893   3.967 -0.4085  0.1768  0.2700
 2298SOL    HW118356   1.519   1.873   3.877  1.5847  1.3373  0.5686
 2298SOL    HW218357   1.540   1.821   4.009  0.0921  0.6431  0.5289
 2299SOL     OW18358   4.388   0.427   1.673 -0.2722  0.1065  0.0616
 2299SOL    HW118359   4.310   0.383   1.705 -0.3318  1.4474  1.7639
 2299SOL    HW218360   4.408   0.367   1.600 -0.2551 -1.5885  1.4596
 2300SOL     OW18361   1.197   0.695   8.506  0.1741  0.2540  0.9058
 2300SOL    HW118362   1.103   0.696   8.487  0.4429 -1.0822 -0.4778
 2300SOL    HW218363   1.226   0.724   8.419 -0.6482 -0.8387  0.2732
 2301SOL     OW18364   3.401   2.806   8.315 -0.3317  0.4313 -0.2426
 2301SOL    HW118365   3.342   2.882   8.319 -3.0560 -1.5838 -1.6893
 2301SOL    HW218366   3.476   2.842   8.269 -0.9983  2.1031 -0.0225
 2302SOL     OW18367   0.567   3.740   1.915  0.1874  0.3397 -0.2153
 2302SOL    HW118368   0.645   3.777   1.872  0.8505  2.9498  3.1717
 2302SOL    HW218369   0.506   3.799   1.872 -0.5072 -2.6603 -3.3366
 2303SOL     OW18370   2.357   3.828   8.333  0.1707  0.5567 -0.2368
 2303SOL    HW118371   2.398   3.761   8.389 -2.3203 -0.6159  0.1661
 2303SOL    HW218372   2.415   3.838   8.257  1.2589 -2.9748  0.1227
 2304SOL     OW18373   3.787   2.191   4.906 -0.1419  0.6684 -0.3388
 2304SOL    HW118374   3.705   2.144   4.892 -0.6855  0.6296  2.8548
 2304SOL    HW218375   3.760   2.263   4.963  2.4972  1.1607  0.3254
 2305SOL     OW18376   1.653   0.245   0.777  0.4471 -0.2174  0.1029
 2305SOL    HW118377   1.610   0.194   0.847 -0.7484  1.9038  0.9386
 2305SOL    HW218378   1.577   0.268   0.723  1.4890  1.8734 -0.4884
 2306SOL     OW18379   2.224   3.671   6.792 -0.0926  0.2647 -0.4108
 2306SOL    HW118380   2.224   3.765   6.809 -0.1486  0.6324 -2.4208
 2306SOL    HW218381   2.292   3.635   6.849 -0.4792  0.3900  0.1301
 2307SOL     OW18382   0.178   2.461   7.927  0.6363  0.1687  0.2238
 2307SOL    HW118383   0.123   2.439   7.852  1.5327 -0.7285 -0.1625
 2307SOL    HW218384   0.264   2.466   7.886  0.9539  1.6253  1.0570
 2308SOL     OW18385   3.089   4.618  12.355  0.3294  0.3418  0.1547
 2308SOL    HW118386   3.029   4.584  12.289  1.0853 -0.5940 -0.0529
 2308SOL    HW218387   3.148   4.673  12.304 -1.0165 -0.0336 -1.8029
 2309SOL     OW18388   0.074   1.824   8.958  0.2955  0.1670 -0.1348
 2309SOL    HW118389   0.063   1.746   9.012 -1.6738 -0.0866 -0.9185
 2309SOL    HW218390   0.160   1.808   8.918  1.4988 -0.3163  2.6498
 2310SOL     OW18391   1.458   4.713   7.185  0.5219  0.8623  0.2408
 2310SOL    HW118392   1.425   4.632   7.146  1.2777  0.3802  0.5853
 2310SOL    HW218393   1.547   4.717   7.148  0.3107  1.6409 -0.1709
 2311SOL     OW18394   4.277   4.178   9.727 -0.3376 -0.9589  0.3574
 2311SOL    HW118395   4.212   4.185   9.797 -0.3526 -0.0110  0.2427
 2311SOL    HW218396   4.356   4.139   9.765 -0.8480 -0.0931  2.2922
 2312SOL     OW18397   0.621   4.722   6.463 -0.5414 -0.4163  0.3713
 2312SOL    HW118398   0.610   0.020   6.556 -1.8374 -2.6904  0.7360
 2312SOL    HW218399   0.605   4.628   6.459  1.8613 -0.7545 -1.0384
 2313SOL     OW18400   3.070   0.724   4.530 -0.0249  0.0544  0.0436
 2313SOL    HW118401   2.999   0.755   4.474  0.6812 -0.8877 -1.3791
 2313SOL    HW218402   3.128   0.800   4.534  0.6420 -0.4038 -0.7717
 2314SOL     OW18403   3.928   3.765   1.018  0.9663 -0.4219  0.2716
 2314SOL    HW118404   3.961   3.699   0.958  0.6462 -0.4959  0.1751
 2314SOL    HW218405   3.994   3.834   1.017  1.1926 -0.5762  2.4378
 2315SOL     OW18406   1.193   0.855   6.601 -0.1989 -0.0951  0.3315
 2315SOL    HW118407   1.274   0.837   6.553 -0.0062 -1.6077  1.2103
 2315SOL    HW218408   1.219   0.864   6.692  3.2727 -1.5584 -0.4974
 2316SOL     OW18409   3.486   2.041  11.956  0.2570  0.0345 -0.5321
 2316SOL    HW118410   3.416   2.097  11.922  0.1586 -0.2339 -0.7677
 2316SOL    HW218411   3.461   1.955  11.922  2.5745 -0.8281 -0.0102
 2317SOL     OW18412   1.795   4.534   4.853 -0.2705  0.6096 -0.3904
 2317SOL    HW118413   1.720   4.505   4.905  0.6857 -3.0045 -1.0735
 2317SOL    HW218414   1.760   4.615   4.815  0.0789  0.2223 -1.5575
 2318SOL     OW18415   2.401   2.751  17.535 -0.8547 -0.8944  0.1064
 2318SOL    HW118416   2.451   2.732  17.615  2.4286  0.4150 -1.6303
 2318SOL    HW218417   2.420   2.844  17.534  3.0148 -1.6913 -0.4396
 2319SOL     OW18418   1.542   3.224   3.175 -0.4917 -0.1162  0.1631
 2319SOL    HW118419   1.484   3.214   3.099 -2.8869  1.4350  1.8108
 2319SOL    HW218420   1.535   3.319   3.188 -0.1315 -0.4947  3.1018
 2320SOL     OW18421   0.965   3.200   9.187 -0.1650 -0.3857  0.6775
 2320SOL    HW118422   0.870   3.200   9.195 -0.3515 -0.1373 -1.4318
 2320SOL    HW218423   0.991   3.223   9.276  0.1345  0.5110  0.3461
 2321SOL     OW18424   1.244   0.033   9.523 -0.3986 -0.1141 -0.1714
 2321SOL    HW118425   1.334   0.061   9.507 -0.8952  1.3383 -0.5065
 2321SOL    HW218426   1.235   4.713   9.438  1.0324 -0.7467  0.0068
 2322SOL     OW18427   0.410   0.155   1.863  0.3240  0.1908 -0.6434
 2322SOL    HW118428   0.356   0.149   1.784  0.8345  1.4619 -1.0891
 2322SOL    HW218429   0.425   0.249   1.856  1.0244  0.2140  1.1421
 2323SOL     OW18430   2.068   1.427   2.117 -0.5751  0.1120  0.6287
 2323SOL    HW118431   2.118   1.373   2.057  2.0334  0.7105  2.2730
 2323SOL    HW218432   2.033   1.498   2.063 -1.6878  0.1256  1.3553
 2324SOL     OW18433   4.384   3.824   3.179  0.1143 -0.4291  0.3582
 2324SOL    HW118434   4.467   3.790   3.212 -0.7411 -1.2837  1.6661
 2324SOL    HW218435   4.393   3.916   3.205 -0.7876 -0.1175 -0.4392
 2325SOL     OW18436   0.179   0.494   7.773  0.0609  0.5637 -0.5014
 2325SOL    HW118437   0.262   0.512   7.817  0.1148 -0.8727 -0.0060
 2325SOL    HW218438   0.213   0.419   7.723 -0.0364 -0.1659  0.5193
 2326SOL     OW18439   4.140   3.216   5.547  0.5327 -0.1095  0.7062
 2326SOL    HW118440   4.227   3.224   5.508  0.3830  2.0156  0.7874
 2326SOL    HW218441   4.150   3.283   5.614  1.4621  1.7549 -1.2970
 2327SOL     OW18442   2.837   4.450   2.066 -0.4480  0.0366 -0.2736
 2327SOL    HW118443   2.835   4.538   2.103  2.4584  1.0855 -2.5902
 2327SOL    HW218444   2.855   4.465   1.973 -1.7567  0.4409 -0.4637
 2328SOL     OW18445   0.187   3.976   6.646 -0.0861 -0.2714  0.1545
 2328SOL    HW118446   0.266   3.929   6.618  0.6115  0.9723  0.0660
 2328SOL    HW218447   0.156   3.926   6.722 -1.8811 -0.3079 -0.5951
 2329SOL     OW18448   3.397   4.097  14.484 -0.3824 -0.0132 -0.4436
 2329SOL    HW118449   3.480   4.144  14.492 -0.6377  1.0456 -3.8264
 2329SOL    HW218450   3.387   4.119  14.391 -0.2038  0.2239 -0.4050
 2330SOL     OW18451   1.253   3.075   6.549 -0.1619 -0.1542 -0.2240
 2330SOL    HW118452   1.210   3.061   6.634  0.8276  0.7082  0.4205
 2330SOL    HW218453   1.189   3.130   6.504 -0.4438  0.9029  1.4824
 2331SOL     OW18454   0.347   0.880   0.629 -0.0609 -0.5610 -0.4837
 2331SOL    HW118455   0.307   0.958   0.668 -0.6301 -0.7065 -0.7782
 2331SOL    HW218456   0.343   0.824   0.707 -0.3734 -2.5254 -1.9190
 2332SOL     OW18457   1.658   2.601   1.951 -0.3284 -0.0360 -0.0029
 2332SOL    HW118458   1.601   2.586   1.875  0.3252 -1.8121 -0.1220
 2332SOL    HW218459   1.737   2.547   1.946  0.7961  1.3552  2.7610
 2333SOL     OW18460   1.536   0.282   9.093  0.5490 -0.6613 -0.1200
 2333SOL    HW118461   1.569   0.202   9.134  0.8609 -0.3484  0.2256
 2333SOL    HW218462   1.491   0.337   9.157 -0.2232 -0.6097 -0.6962
 2334SOL     OW18463   0.108   0.363   2.168  0.3308 -0.7212  0.0448
 2334SOL    HW118464   0.178   0.403   2.118  0.4244 -0.2868  0.5226
 2334SOL    HW218465   0.053   0.432   2.206  2.1424 -0.0936  1.5313
 2335SOL     OW18466   1.497   3.942   2.645  0.2562 -0.0181 -0.0840
 2335SOL    HW118467   1.474   3.850   2.658 -1.2136  0.2331 -0.8871
 2335SOL    HW218468   1.553   3.960   2.721  0.2845 -1.3470  0.2007
 2336SOL     OW18469   1.119   3.474   3.063 -0.1631  0.5094 -0.8083
 2336SOL    HW118470   1.211   3.498   3.064  0.6043 -2.3705 -1.9364
 2336SOL    HW218471   1.089   3.562   3.084  0.0816 -0.3442  3.2541
 2337SOL     OW18472   0.156   3.579   6.223 -0.2337  0.1043 -0.3132
 2337SOL    HW118473   0.226   3.515   6.238 -0.8356 -0.0765  1.7039
 2337SOL    HW218474   0.117   3.557   6.139 -1.9225 -0.7978  0.7041
 2338SOL     OW18475   3.773   2.393   9.292  0.9247  0.1860  0.2153
 2338SOL    HW118476   3.773   2.301   9.315 -0.4140  0.0688 -0.2365
 2338SOL    HW218477   3.768   2.396   9.196  0.7706  0.0287  0.2177
 2339SOL     OW18478   1.836   2.792   6.865 -0.0298  0.5847  0.1093
 2339SOL    HW118479   1.890   2.865   6.897  1.7310 -1.0264  0.8199
 2339SOL    HW218480   1.892   2.716   6.880  0.3521  0.5642 -1.4107
 2340SOL     OW18481   1.486   0.181   9.469  0.4813 -0.0023  0.2365
 2340SOL    HW118482   1.573   0.197   9.507  0.9702  1.2906 -1.4688
 2340SOL    HW218483   1.478   0.242   9.396  2.1899  2.0634  1.7536
 2341SOL     OW18484   4.387   2.360  17.070 -0.2326  0.3615  0.3282
 2341SOL    HW118485   4.336   2.419  17.013  2.6202  0.4428 -2.1610
 2341SOL    HW218486   4.436   2.306  17.007 -0.1537  1.6220 -0.6997
 2342SOL     OW18487   2.825   0.854   3.222 -0.3086 -0.3034  0.3191
 2342SOL    HW118488   2.791   0.773   3.259 -1.0965 -1.1366 -2.2061
 2342SOL    HW218489   2.865   0.825   3.139 -0.5419 -1.4698  0.6157
 2343SOL     OW18490   0.885   0.313  14.163 -0.7506  0.0841  0.0486
 2343SOL    HW118491   0.875   0.394  14.213 -1.7556  0.5238 -0.8642
 2343SOL    HW218492   0.860   0.344  14.076  1.2662 -1.4565 -1.0594
 2344SOL     OW18493   4.074   0.392   1.122  0.0589  0.8189  0.3297
 2344SOL    HW118494   4.129   0.317   1.098  1.1086  2.3111 -1.9343
 2344SOL    HW218495   4.146   0.453   1.139  0.2873  0.7604 -0.4014
 2345SOL     OW18496   2.015   0.597  12.436 -0.0898  0.3446  0.1387
 2345SOL    HW118497   2.098   0.639  12.413  0.2764 -1.2083 -1.3720
 2345SOL    HW218498   2.051   0.508  12.428 -2.8702 -0.7840  0.1514
 2346SOL     OW18499   2.961   3.126   8.595  0.0213 -0.1575 -0.2067
 2346SOL    HW118500   2.917   3.057   8.547  2.1846 -0.5627 -1.5969
 2346SOL    HW218501   2.893   3.146   8.659  1.2410 -0.1662  1.0980
 2347SOL     OW18502   4.255   2.546   4.602 -0.2022 -0.3087  0.0035
 2347SOL    HW118503   4.344   2.576   4.621  0.3787 -1.7036 -0.5186
 2347SOL    HW218504   4.196   2.590   4.664 -0.2317  0.5602 -0.6493
 2348SOL     OW18505   3.648   3.723   2.438  0.0027  0.4478 -0.6067
 2348SOL    HW118506   3.673   3.718   2.530 -0.0824 -1.8225 -0.7129
 2348SOL    HW218507   3.567   3.672   2.439 -0.5061  1.2529 -0.6264
 2349SOL     OW18508   4.235   3.073  17.136 -0.1134  0.1037  0.3774
 2349SOL    HW118509   4.296   3.147  17.126  0.4669 -0.8547 -3.2238
 2349SOL    HW218510   4.260   3.006  17.073 -0.5548  1.1818 -0.9482
 2350SOL     OW18511   0.363   0.096  12.418  0.0943 -0.0176 -0.0488
 2350SOL    HW118512   0.438   0.095  12.358 -0.4663 -0.6177 -0.7373
 2350SOL    HW218513   0.341   0.189  12.431  0.5977  0.0006  0.6806
 2351SOL     OW18514   2.337   0.520  11.015  0.3553 -0.6091  0.5569
 2351SOL    HW118515   2.384   0.438  11.025  0.3394 -0.5910  0.7815
 2351SOL    HW218516   2.250   0.481  11.005 -0.6301  1.0694  2.4092
 2352SOL     OW18517   1.075   2.370   6.173 -0.2542  0.0933 -0.0203
 2352SOL    HW118518   1.046   2.315   6.246  0.1650  1.5113  1.2179
 2352SOL    HW218519   1.100   2.454   6.212 -1.0562  0.7458 -0.9088
 2353SOL     OW18520   2.962   3.375   8.968 -0.3630  0.0203  0.3980
 2353SOL    HW118521   3.043   3.421   8.987 -1.5626  1.8486  1.1138
 2353SOL    HW218522   2.895   3.442   8.953  0.4859  0.8436  0.2941
 2354SOL     OW18523   3.878   3.049   2.969  0.0798  0.0640  0.3483
 2354SOL    HW118524   3.834   2.988   2.911 -0.7184  0.4731  0.5242
 2354SOL    HW218525   3.881   2.991   3.046 -1.7789 -0.5399 -0.0290
 2355SOL     OW18526   0.759   1.603  13.589 -0.3329  0.0509 -0.4998
 2355SOL    HW118527   0.810   1.670  13.635 -1.0566 -0.7861  1.5519
 2355SOL    HW218528   0.667   1.625  13.607  0.7269  2.1276  2.4445
 2356SOL     OW18529   1.285   4.482   3.708  0.3283 -0.0385 -0.0917
 2356SOL    HW118530   1.310   4.517   3.793 -2.9343 -1.3073  1.3965
 2356SOL    HW218531   1.280   4.388   3.727  0.6777 -0.5249 -2.3090
 2357SOL     OW18532   1.352   2.739  11.297  0.5390  0.2071  0.4323
 2357SOL    HW118533   1.409   2.662  11.290  0.1396 -0.0750  0.3098
 2357SOL    HW218534   1.410   2.812  11.276  0.8879  0.0767  0.9497
 2358SOL     OW18535   0.215   2.482  17.474 -0.8663 -0.2970  0.3746
 2358SOL    HW118536   0.220   2.396  17.433  0.9812  0.1356 -0.3329
 2358SOL    HW218537   0.126   2.516  17.465 -1.1862 -1.2836 -0.1604
 2359SOL     OW18538   3.707   0.245  14.497 -0.6071 -0.2051  0.5735
 2359SOL    HW118539   3.679   0.155  14.481  1.1860 -0.9179  1.4941
 2359SOL    HW218540   3.700   0.276  14.407  0.7484 -2.3840 -0.2744
 2360SOL     OW18541   0.976   3.752   4.994 -0.2462  0.2328  0.1927
 2360SOL    HW118542   0.924   3.815   4.944  1.3672 -0.2346 -2.0609
 2360SOL    HW218543   1.046   3.727   4.934  1.9316  0.3857  2.6898
 2361SOL     OW18544   2.369   3.973   3.234 -0.4573  0.3314 -0.2322
 2361SOL    HW118545   2.440   3.943   3.291 -1.1149 -0.3024  0.2598
 2361SOL    HW218546   2.345   4.058   3.270 -1.0873  0.7939 -1.7816
 2362SOL     OW18547   0.831   1.278   5.206 -0.0155  0.5811 -0.2155
 2362SOL    HW118548   0.915   1.323   5.216  0.6416 -0.6213 -0.4584
 2362SOL    HW218549   0.862   1.194   5.174  0.2329  1.2175 -1.6328
 2363SOL     OW18550   1.459   0.089   1.771 -0.5172 -0.7789 -0.1353
 2363SOL    HW118551   1.549   0.059   1.763  0.5565  2.0168  1.7866
 2363SOL    HW218552   1.474   0.162   1.830 -0.8856 -0.6700 -0.1724
 2364SOL     OW18553   3.299   2.163  14.387 -0.6252 -0.7497  0.1699
 2364SOL    HW118554   3.385   2.192  14.418 -0.1414 -1.5770 -0.4273
 2364SOL    HW218555   3.245   2.237  14.416 -0.5525 -0.3758 -0.6429
 2365SOL     OW18556   4.014   3.518   5.416 -0.2891  0.7249  0.2385
 2365SOL    HW118557   3.955   3.588   5.446  0.4565  0.9365  1.2278
 2365SOL    HW218558   4.099   3.539   5.456  0.1798  1.6837 -1.2947
 2366SOL     OW18559   1.875   4.296   8.382  0.7262 -0.4685  0.2528
 2366SOL    HW118560   1.794   4.285   8.333  0.1885  2.2335  0.5063
 2366SOL    HW218561   1.896   4.203   8.392  1.3377 -0.3964 -0.3801
 2367SOL     OW18562   4.533   0.796  10.341 -0.1237  0.3441 -0.5191
 2367SOL    HW118563   4.439   0.797  10.358  0.4178  0.0674  2.5873
 2367SOL    HW218564   4.541   0.870  10.282  2.0772  1.0203  0.6310
 2368SOL     OW18565   3.578   1.787   4.689 -0.0077 -0.6445 -0.0712
 2368SOL    HW118566   3.515   1.808   4.758 -0.0555 -0.8098 -0.0658
 2368SOL    HW218567   3.625   1.711   4.723 -1.2933 -1.1059  0.6771
 2369SOL     OW18568   0.823   3.564   8.860 -0.0275  0.3836  0.3129
 2369SOL    HW118569   0.902   3.522   8.894 -1.6614 -1.1013  2.3230
 2369SOL    HW218570   0.883   3.636   8.842  0.9559 -0.6759 -0.6658
 2370SOL     OW18571   3.066   3.605   7.920  0.3717  0.1366  0.8122
 2370SOL    HW118572   3.140   3.562   7.962  1.1752 -0.1345 -0.8719
 2370SOL    HW218573   3.101   3.693   7.906  0.5963 -0.2797 -1.2884
 2371SOL     OW18574   1.100   1.127   8.913  0.2042 -0.2108 -0.3338
 2371SOL    HW118575   1.147   1.142   8.994  1.4555 -2.3032 -0.6720
 2371SOL    HW218576   1.170   1.083   8.864 -0.5562 -0.0618 -1.5758
 2372SOL     OW18577   1.832   0.260   8.957  0.7499  0.1606 -0.2183
 2372SOL    HW118578   1.862   0.305   9.036  1.9564  1.4232 -1.4127
 2372SOL    HW218579   1.741   0.286   8.974  0.3678  0.4065 -2.6429
 2373SOL     OW18580   3.038   1.222   2.108  0.4595  0.5566 -0.6576
 2373SOL    HW118581   3.004   1.212   2.019 -1.7195  0.1673  0.2181
 2373SOL    HW218582   3.007   1.312   2.124  1.0886  0.9171 -1.4746
 2374SOL     OW18583   1.673   2.554   3.951  0.4776 -0.1310 -0.1402
 2374SOL    HW118584   1.701   2.579   3.863  1.0737 -0.0569  0.0702
 2374SOL    HW218585   1.599   2.495   3.938  2.0979 -2.6563  2.2042
 2375SOL     OW18586   1.326   2.903   8.590  0.0769  0.4177  0.5408
 2375SOL    HW118587   1.255   2.920   8.652  0.8692  1.1280  1.2556
 2375SOL    HW218588   1.387   2.887   8.662  0.9166  2.6085  0.3122
 2376SOL     OW18589   1.837   2.286   4.482  0.8461  0.2051  0.3285
 2376SOL    HW118590   1.833   2.205   4.532 -1.6236  0.2571  0.2402
 2376SOL    HW218591   1.752   2.319   4.511 -1.0022 -2.0419 -2.5248
 2377SOL     OW18592   0.763   0.893  17.640 -0.5765  0.0531 -0.5825
 2377SOL    HW118593   0.669   0.879  17.624 -0.5790  1.2011 -1.5017
 2377SOL    HW218594   0.752   0.941   0.029  3.5551 -1.1413  0.6424
 2378SOL     OW18595   2.625   0.759   8.054 -0.4779  0.2404  0.1695
 2378SOL    HW118596   2.669   0.725   7.976 -0.1038  0.3805  0.3193
 2378SOL    HW218597   2.550   0.811   8.023 -1.4053 -2.0995 -1.5125
 2379SOL     OW18598   2.224   0.952  14.996 -0.1342 -0.5259 -0.1093
 2379SOL    HW118599   2.305   0.944  14.946  2.3441  0.5998  3.7565
 2379SOL    HW218600   2.227   0.863  15.029 -0.9229 -0.5088  0.0188
 2380SOL     OW18601   4.562   0.442   1.902 -0.2318  0.1283 -0.2443
 2380SOL    HW118602   4.489   0.445   1.842  0.9589 -0.1963 -1.7006
 2380SOL    HW218603   4.522   0.413   1.984 -2.5180  0.6181 -1.2090
 2381SOL     OW18604   1.432   2.068   2.065  0.1506 -0.1108 -0.0726
 2381SOL    HW118605   1.407   2.160   2.078  1.8947  0.7699 -2.8434
 2381SOL    HW218606   1.420   2.046   1.972  0.2311 -2.1453  0.4136
 2382SOL     OW18607   1.528   4.251   5.979 -0.1341  0.3638 -0.4856
 2382SOL    HW118608   1.593   4.275   6.045 -1.1417  1.7626 -0.0054
 2382SOL    HW218609   1.448   4.228   6.027 -0.2317 -1.2916 -1.4437
 2383SOL     OW18610   4.118   3.125   6.745  0.2336  0.0791 -0.0280
 2383SOL    HW118611   4.085   3.113   6.834  0.5094 -0.1394  0.0465
 2383SOL    HW218612   4.059   3.194   6.715  0.1503 -0.4703 -1.1241
 2384SOL     OW18613   0.738   4.027   6.473  0.7682  0.3130  0.0853
 2384SOL    HW118614   0.653   4.058   6.503  0.3698  0.9581 -1.7364
 2384SOL    HW218615   0.786   4.107   6.454 -0.0056  0.9695  0.9118
 2385SOL     OW18616   1.584   1.462   1.932  0.0293 -0.7919  0.0801
 2385SOL    HW118617   1.664   1.431   1.890 -0.0078  0.7592 -1.1100
 2385SOL    HW218618   1.528   1.465   1.854 -1.8839  1.5917  1.5686
 2386SOL     OW18619   2.418   2.093   2.816  0.4689 -0.5325 -0.5002
 2386SOL    HW118620   2.513   2.087   2.802  0.4825 -0.5754 -0.3854
 2386SOL    HW218621   2.380   2.061   2.734 -0.9605 -2.3946  0.8904
 2387SOL     OW18622   1.391   3.467   3.708  0.5232  0.0359  0.2385
 2387SOL    HW118623   1.457   3.496   3.646 -0.7832  0.7256 -0.8368
 2387SOL    HW218624   1.442   3.456   3.788 -0.7751  4.1002  1.6176
 2388SOL     OW18625   0.800   2.169   8.257 -0.2672  0.3418  0.4762
 2388SOL    HW118626   0.831   2.194   8.345 -0.3633  1.3905  0.2112
 2388SOL    HW218627   0.738   2.238   8.233 -1.0836 -0.4912  0.2226
 2389SOL     OW18628   3.096   1.249   3.441  0.3511  0.1015  0.0713
 2389SOL    HW118629   3.091   1.297   3.524  1.7555  2.2733 -1.1144
 2389SOL    HW218630   3.112   1.319   3.379  0.1015 -0.4190 -0.5814
 2390SOL     OW18631   0.815   2.659  15.297  0.0151 -0.1184  0.2980
 2390SOL    HW118632   0.785   2.704  15.377 -0.6944  3.5010 -1.9973
 2390SOL    HW218633   0.796   2.722  15.227 -0.3805 -0.0253  0.4867
 2391SOL     OW18634   0.652   3.076  13.344 -0.6138 -0.2570  0.0630
 2391SOL    HW118635   0.561   3.054  13.328 -0.7177  2.8546 -3.5976
 2391SOL    HW218636   0.640   3.141  13.413 -3.6633 -1.7349  0.9162
 2392SOL     OW18637   3.993   0.550   4.515  0.2441  0.4321 -0.3181
 2392SOL    HW118638   4.083   0.556   4.485 -0.0864  1.0610 -1.1901
 2392SOL    HW218639   3.943   0.591   4.444 -1.7772 -1.7988 -0.2066
 2393SOL     OW18640   0.777   2.706   2.895  0.0580  0.5534 -0.4773
 2393SOL    HW118641   0.687   2.682   2.873  0.7191 -0.7668 -1.7738
 2393SOL    HW218642   0.813   2.710   2.807  0.7894 -0.4627 -0.2242
 2394SOL     OW18643   1.587   2.513   7.121  0.1608 -0.3350  0.0076
 2394SOL    HW118644   1.557   2.603   7.136 -0.1524 -0.4298 -0.0626
 2394SOL    HW218645   1.629   2.491   7.204  1.7889  1.8200 -0.2472
 2395SOL     OW18646   2.886   0.528   7.655  0.5805 -0.7261 -0.0110
 2395SOL    HW118647   2.860   0.479   7.577  0.7790 -0.9078  0.0374
 2395SOL    HW218648   2.885   0.451   7.711 -0.8320 -0.5175  0.2430
 2396SOL     OW18649   3.339   2.372  14.621 -0.5305 -0.4183  0.8688
 2396SOL    HW118650   3.269   2.366  14.555 -0.1026  0.9725  0.2892
 2396SOL    HW218651   3.288   2.402  14.696  0.7739  2.1709  0.7208
 2397SOL     OW18652   1.468   0.090   6.877  0.7792  0.8296 -0.1212
 2397SOL    HW118653   1.522   0.152   6.924  1.1254 -0.0435  0.6267
 2397SOL    HW218654   1.400   0.072   6.942  0.4002 -1.8216 -1.2524
 2398SOL     OW18655   2.124   3.603   8.327 -0.0297 -0.3300 -0.2198
 2398SOL    HW118656   2.089   3.679   8.282  0.8257 -0.6023 -1.3389
 2398SOL    HW218657   2.209   3.601   8.283 -0.3979 -0.1460 -0.9456
 2399SOL     OW18658   4.693   1.441   3.699 -0.1402 -1.0213  0.3073
 2399SOL    HW118659   0.055   1.486   3.694 -1.4766  1.5132  0.9022
 2399SOL    HW218660   4.634   1.515   3.705 -2.6512 -2.9007 -1.2842
 2400SOL     OW18661   2.947   3.319   5.524 -0.5894  0.3650 -0.3111
 2400SOL    HW118662   2.870   3.264   5.535 -0.0782 -0.0839  1.0279
 2400SOL    HW218663   2.971   3.360   5.607  3.8020  1.1796 -1.9628
 2401SOL     OW18664   3.604   2.054   6.580  0.1030  0.4528 -0.3572
 2401SOL    HW118665   3.522   2.079   6.622 -0.7180  1.8235 -2.7463
 2401SOL    HW218666   3.558   2.019   6.504 -0.1995  1.7251 -0.7612
 2402SOL     OW18667   2.906   2.596  10.066 -0.9758  0.0946 -0.6882
 2402SOL    HW118668   2.833   2.534  10.069 -0.3705 -0.5381  0.5917
 2402SOL    HW218669   2.978   2.566  10.121 -1.9776  0.9350  1.0722
 2403SOL     OW18670   3.905   0.063   4.803  0.3365  0.2712  0.0539
 2403SOL    HW118671   3.825   0.019   4.777  1.6213 -0.8346 -2.0013
 2403SOL    HW218672   3.875   0.153   4.817 -1.0670 -0.7351  3.4194
 2404SOL     OW18673   1.143   0.954   0.236  0.3625  0.1161  0.1114
 2404SOL    HW118674   1.155   0.957   0.331  1.2867 -0.2999  0.0135
 2404SOL    HW218675   1.061   1.002   0.227  0.7852  1.2936  2.4422
 2405SOL     OW18676   3.892   2.103   2.010 -0.0590 -0.0479 -0.4180
 2405SOL    HW118677   3.971   2.125   1.960 -1.3585  3.6989 -0.7889
 2405SOL    HW218678   3.893   2.010   1.986 -2.2444  0.2816 -1.7025
 2406SOL     OW18679   0.485   0.853   0.199  0.6177 -0.8884 -0.3759
 2406SOL    HW118680   0.471   0.871   0.106  0.8055 -0.4119 -0.3108
 2406SOL    HW218681   0.433   0.923   0.239  1.1090 -1.2194  0.8192
 2407SOL     OW18682   1.525   2.229   4.327 -0.2467  0.1098  0.4129
 2407SOL    HW118683   1.455   2.282   4.288  1.5488  2.4673  0.4233
 2407SOL    HW218684   1.598   2.290   4.324 -1.8378  1.9898 -0.2156
 2408SOL     OW18685   0.599   4.635  10.966 -0.1217  0.0401 -0.4200
 2408SOL    HW118686   0.661   4.701  10.936 -1.3459  2.7200  2.9593
 2408SOL    HW218687   0.530   4.695  10.993 -1.2385 -1.6961  0.6352
 2409SOL     OW18688   1.896   3.867   7.794  0.0107  0.3075  0.2313
 2409SOL    HW118689   1.923   3.815   7.870 -0.0092  0.4786  0.3570
 2409SOL    HW218690   1.970   3.928   7.783  0.5771 -0.5065 -0.4518
 2410SOL     OW18691   1.836   2.711   7.741 -0.1054 -0.2627  0.3331
 2410SOL    HW118692   1.750   2.690   7.706  0.1829  0.4716 -0.8295
 2410SOL    HW218693   1.824   2.805   7.725 -0.1716 -0.3335 -0.0260
 2411SOL     OW18694   1.005   3.748  12.107 -0.6064 -0.5142 -0.5826
 2411SOL    HW118695   0.956   3.815  12.155  1.8997  1.1243 -0.3143
 2411SOL    HW218696   1.092   3.758  12.145 -1.0043 -0.0464  0.2166
 2412SOL     OW18697   2.871   3.644   1.857 -0.1455 -0.4040  0.0918
 2412SOL    HW118698   2.877   3.629   1.762 -0.9222  0.7603 -0.1422
 2412SOL    HW218699   2.779   3.645   1.880  0.1251  2.5795  1.0702
 2413SOL     OW18700   3.775   2.197   4.605 -0.1024 -0.0139 -0.1593
 2413SOL    HW118701   3.834   2.129   4.574 -0.7040 -0.6496  0.0708
 2413SOL    HW218702   3.786   2.185   4.699  1.9560  0.2772 -0.3740
 2414SOL     OW18703   1.186   1.134   6.135 -0.4156  0.2700  0.0601
 2414SOL    HW118704   1.193   1.088   6.051  3.0074 -1.0950  1.0983
 2414SOL    HW218705   1.094   1.110   6.144 -0.2089 -1.1386 -1.5357
 2415SOL     OW18706   2.419   2.816   1.090 -0.0536  0.1984  0.4190
 2415SOL    HW118707   2.480   2.887   1.071  0.1870 -0.2613 -0.5425
 2415SOL    HW218708   2.474   2.764   1.148 -0.2560 -0.3790  0.0998
 2416SOL     OW18709   1.349   4.057  14.762 -0.3385  0.2448 -0.3217
 2416SOL    HW118710   1.420   4.006  14.722 -1.8452 -1.8454 -0.2964
 2416SOL    HW218711   1.404   4.074  14.838 -0.0656  0.9649 -0.6689
 2417SOL     OW18712   1.403   0.108   7.442 -0.8112 -0.1467  0.4481
 2417SOL    HW118713   1.387   0.088   7.350  1.4134  3.7464 -0.7493
 2417SOL    HW218714   1.431   0.025   7.481 -1.6411 -0.4203  0.4516
 2418SOL     OW18715   3.109   0.806   6.148  0.3173 -0.3908 -0.3538
 2418SOL    HW118716   3.085   0.724   6.103 -2.2595  0.9287 -1.4210
 2418SOL    HW218717   3.058   0.799   6.228 -0.3434  0.3541 -0.7012
 2419SOL     OW18718   1.175   3.374   1.964  0.2841  0.0835  0.2266
 2419SOL    HW118719   1.267   3.347   1.958 -0.0694 -0.9633 -0.4724
 2419SOL    HW218720   1.138   3.288   1.983  0.1181  0.1848  0.3601
 2420SOL     OW18721   0.899   1.069   6.196  0.0964  0.0875  0.4181
 2420SOL    HW118722   0.902   1.004   6.266  1.6898  0.0373  0.3046
 2420SOL    HW218723   0.810   1.097   6.216 -1.1648 -2.6204 -1.3967
 2421SOL     OW18724   3.574   0.000   5.127 -0.5478 -0.4583 -0.1140
 2421SOL    HW118725   3.589   0.059   5.053 -1.8242  1.2129  0.9583
 2421SOL    HW218726   3.601   4.636   5.098  0.2278  0.9204 -3.4651
 2422SOL     OW18727   1.651   3.246   5.680  0.0564 -0.1584  0.0309
 2422SOL    HW118728   1.641   3.151   5.684 -2.2179  0.1163  0.7250
 2422SOL    HW218729   1.739   3.257   5.717  0.5992 -0.9452 -1.0230
 2423SOL     OW18730   2.965   4.479   7.138  0.0461 -0.5731  0.1527
 2423SOL    HW118731   2.872   4.460   7.122  0.2951 -1.1360 -0.6251
 2423SOL    HW218732   3.005   4.436   7.063  3.5963 -0.9873  2.2792
 2424SOL     OW18733   1.465   2.171   6.044 -0.4786 -0.3488 -0.3784
 2424SOL    HW118734   1.474   2.165   6.139  0.5916  0.4776 -0.4284
 2424SOL    HW218735   1.444   2.263   6.028  0.6232 -0.3970 -2.0301
 2425SOL     OW18736   2.649   2.184  11.236  0.4358  0.1631 -0.2647
 2425SOL    HW118737   2.630   2.169  11.143 -1.3591  1.6267 -0.1364
 2425SOL    HW218738   2.739   2.217  11.232 -0.2544  2.0294 -0.6237
 2426SOL     OW18739   3.442   0.702   2.852  0.7331  0.7024  0.4450
 2426SOL    HW118740   3.449   0.702   2.756  0.4414 -1.8950  0.4384
 2426SOL    HW218741   3.357   0.743   2.865 -0.3143 -0.8904 -1.5040
 2427SOL     OW18742   1.361   0.725   9.391 -0.1273 -0.0923 -0.4699
 2427SOL    HW118743   1.313   0.767   9.461 -0.2811 -0.7906 -0.1518
 2427SOL    HW218744   1.403   0.807   9.365  0.2860 -0.7435 -1.8514
 2428SOL     OW18745   0.213   2.089   4.817  0.7614  0.3294  0.0495
 2428SOL    HW118746   0.308   2.075   4.820  0.9063  1.0057 -1.2143
 2428SOL    HW218747   0.211   2.185   4.813 -2.5490  0.3339  1.9606
 2429SOL     OW18748   2.630   1.029  17.469  0.6626  0.0709 -0.1196
 2429SOL    HW118749   2.705   0.969  17.464  0.6474 -0.1217  1.8592
 2429SOL    HW218750   2.612   1.013  17.562  1.9976 -0.6341  0.0239
 2430SOL     OW18751   4.137   0.746  13.115 -0.1400 -0.0771 -0.0121
 2430SOL    HW118752   4.080   0.711  13.046 -1.1544  0.6978  0.4409
 2430SOL    HW218753   4.087   0.736  13.196 -0.2694  0.1253 -0.0682
 2431SOL     OW18754   0.895   1.371   2.614 -0.1484  0.0323  0.2393
 2431SOL    HW118755   0.865   1.294   2.567  1.3711  1.0504 -2.3780
 2431SOL    HW218756   0.810   1.412   2.631 -0.0891 -0.6824  2.2855
 2432SOL     OW18757   1.087   2.823   5.552  0.2115 -0.4125 -0.4185
 2432SOL    HW118758   1.183   2.829   5.555  0.0458  2.3148 -0.4842
 2432SOL    HW218759   1.081   2.729   5.535 -0.5320 -0.5030  0.3514
 2433SOL     OW18760   0.361   1.887   6.991 -0.3444 -0.0788  0.1963
 2433SOL    HW118761   0.313   1.890   7.073 -1.2943 -1.5230 -0.2932
 2433SOL    HW218762   0.319   1.808   6.956  1.0265 -0.5263 -0.4526
 2434SOL     OW18763   0.383   3.578  11.002 -0.3452 -0.7140 -0.2148
 2434SOL    HW118764   0.288   3.565  11.000 -0.6087  1.1078  0.5038
 2434SOL    HW218765   0.398   3.671  11.018 -1.8874 -0.9502  2.5969
 2435SOL     OW18766   2.028   4.448   3.447 -0.3259  0.8245 -0.4111
 2435SOL    HW118767   1.954   4.397   3.479  0.6538  0.0721  0.6365
 2435SOL    HW218768   2.005   4.527   3.496  2.5642  0.5965  1.3214
 2436SOL     OW18769   0.379   1.342   3.213 -0.7786 -0.5167  0.0584
 2436SOL    HW118770   0.366   1.417   3.156  2.0595  0.1401  0.2923
 2436SOL    HW218771   0.360   1.281   3.141  2.1721 -0.2574 -0.9328
 2437SOL     OW18772   1.517   2.273   3.876  0.1476 -0.2336 -0.0333
 2437SOL    HW118773   1.446   2.302   3.933 -0.3448  3.3841 -2.5164
 2437SOL    HW218774   1.465   2.261   3.797  0.6517  0.9700 -0.5505
 2438SOL     OW18775   0.770   0.415   1.322  0.1012  0.0932  0.0775
 2438SOL    HW118776   0.704   0.476   1.353  0.2301 -0.0004  0.5289
 2438SOL    HW218777   0.807   0.400   1.409 -1.1821 -0.7202  0.4759
 2439SOL     OW18778   1.850   2.639   2.945 -0.4070 -0.2237 -0.2726
 2439SOL    HW118779   1.876   2.731   2.943 -0.1410 -0.2332  2.7613
 2439SOL    HW218780   1.885   2.596   2.867  0.2336  0.1114 -0.1672
 2440SOL     OW18781   1.460   1.407   6.482 -0.3800  0.1027 -0.1548
 2440SOL    HW118782   1.427   1.429   6.395  1.6753 -1.6323 -1.3758
 2440SOL    HW218783   1.469   1.312   6.491 -0.9334 -0.0593 -1.4081
 2441SOL     OW18784   1.619   0.161   8.202  0.5676 -0.5250  0.3849
 2441SOL    HW118785   1.667   0.233   8.242 -1.8276 -0.0051  2.3180
 2441SOL    HW218786   1.573   0.131   8.281 -1.1531  1.0917  0.0075
 2442SOL     OW18787   1.205   3.887   2.667 -0.1390  0.3433 -0.3317
 2442SOL    HW118788   1.299   3.904   2.662  0.0599 -0.8018 -0.5315
 2442SOL    HW218789   1.178   3.978   2.654  1.3965  0.9979  1.0606
 2443SOL     OW18790   0.460   4.604  16.862  0.1716  0.7425  0.2201
 2443SOL    HW118791   0.409   4.668  16.912 -2.3066 -1.0172 -0.0610
 2443SOL    HW218792   0.431   4.526  16.908 -0.6122  0.6264 -0.4799
 2444SOL     OW18793   1.723   2.283  17.143  0.5835 -0.4351 -0.5538
 2444SOL    HW118794   1.664   2.215  17.175 -1.4597  1.1494 -0.9221
 2444SOL    HW218795   1.747   2.317  17.229  2.4363 -0.3346 -1.1175
 2445SOL     OW18796   1.024   1.909   4.199 -0.1091  0.2376 -0.0075
 2445SOL    HW118797   0.986   1.941   4.281  1.8389 -0.9578  1.3609
 2445SOL    HW218798   0.957   1.847   4.173  0.8023 -1.1985  1.0741
 2446SOL     OW18799   0.782   1.072   4.588 -0.2384 -0.3426  0.5372
 2446SOL    HW118800   0.742   1.147   4.542  1.2295 -0.2989 -0.6749
 2446SOL    HW218801   0.717   1.002   4.581  1.4119 -1.8240  0.0361
 2447SOL     OW18802   0.568   3.026   7.323 -0.0892 -0.1029 -0.0141
 2447SOL    HW118803   0.518   3.101   7.289 -1.7404 -1.5687 -0.8004
 2447SOL    HW218804   0.657   3.062   7.319  0.3626 -1.1928  0.2720
 2448SOL     OW18805   3.996   4.103   3.514 -0.4534  0.1263  0.0008
 2448SOL    HW118806   4.021   4.101   3.606 -0.3756  0.2289 -0.0176
 2448SOL    HW218807   3.990   4.008   3.502 -0.6396 -0.0972  1.9334
 2449SOL     OW18808   4.173   3.923   3.939 -0.0507 -0.0369  0.3759
 2449SOL    HW118809   4.165   3.865   4.015  1.5793 -0.7097  0.0437
 2449SOL    HW218810   4.234   3.991   3.967  0.2936  1.3218 -3.7118
 2450SOL     OW18811   0.829   1.929   0.126  0.0457 -0.6430 -0.4390
 2450SOL    HW118812   0.761   1.977   0.173 -0.1025 -0.9540 -0.3394
 2450SOL    HW218813   0.844   1.999   0.062  0.7670 -0.4701 -0.0730
 2451SOL     OW18814   1.298   3.854   3.614  0.4414 -0.1193  0.1500
 2451SOL    HW118815   1.283   3.804   3.694 -0.9315 -0.6767 -0.4672
 2451SOL    HW218816   1.307   3.943   3.647 -0.1076  0.1028 -0.3065
 2452SOL     OW18817   3.990   1.854   5.444  0.3130 -0.1879  0.2157
 2452SOL    HW118818   3.895   1.871   5.446  0.5019  0.7733  1.0894
 2452SOL    HW218819   3.994   1.769   5.488  1.6051 -0.7888 -1.0667
 2453SOL     OW18820   4.158   2.670   6.554 -0.0188  0.0344  0.3199
 2453SOL    HW118821   4.195   2.722   6.624  2.0706  2.5890 -2.7067
 2453SOL    HW218822   4.175   2.585   6.594  0.9440  0.5351  0.9600
 2454SOL     OW18823   1.778   0.209   3.784 -0.3094  0.1424 -0.0827
 2454SOL    HW118824   1.810   0.168   3.704  0.5795  0.1024  0.2915
 2454SOL    HW218825   1.684   0.192   3.775 -0.0674 -2.1176  1.4328
 2455SOL     OW18826   2.509   1.787   3.498  0.3472 -0.5366  0.1106
 2455SOL    HW118827   2.584   1.746   3.542 -1.3249 -1.5538  2.0072
 2455SOL    HW218828   2.485   1.850   3.566 -1.2258  1.0041 -1.8588
 2456SOL     OW18829   1.753   4.266   2.904  0.0557 -0.0025  0.1014
 2456SOL    HW118830   1.845   4.242   2.902  0.0159 -0.0372 -1.7766
 2456SOL    HW218831   1.768   4.321   2.981 -0.7406  2.1416 -1.2899
 2457SOL     OW18832   4.141   1.675  11.131  0.2343 -0.9557  0.2433
 2457SOL    HW118833   4.153   1.628  11.213  1.9349 -1.0711 -0.0682
 2457SOL    HW218834   4.085   1.612  11.086 -1.1785  0.2518  0.3030
 2458SOL     OW18835   4.641   2.988   3.126 -0.0164 -0.7472 -0.2483
 2458SOL    HW118836   4.667   3.073   3.091 -0.0009 -1.0310 -0.9391
 2458SOL    HW218837   4.623   2.934   3.048 -1.6371 -0.3812 -0.1293
 2459SOL     OW18838   3.831   2.250   5.801  0.8846 -0.0929  0.0261
 2459SOL    HW118839   3.913   2.212   5.833  1.1466 -0.2172 -0.7972
 2459SOL    HW218840   3.782   2.266   5.881 -0.5968 -1.4509 -0.5980
 2460SOL     OW18841   4.532   2.955   9.312  0.4530  0.2261  0.1743
 2460SOL    HW118842   4.464   2.915   9.257 -0.0742  1.6596 -0.2110
 2460SOL    HW218843   4.498   3.043   9.328  0.0679 -0.4303  2.9799
 2461SOL     OW18844   1.261   1.811  10.100 -0.0127 -0.1220  0.6842
 2461SOL    HW118845   1.316   1.744  10.141  0.9238 -1.7783 -3.2352
 2461SOL    HW218846   1.307   1.814  10.016 -1.3691 -1.5095 -0.0977
 2462SOL     OW18847   0.454   0.862   7.656  0.2239  0.1859 -0.2509
 2462SOL    HW118848   0.433   0.922   7.728  0.0255  2.1227 -1.8999
 2462SOL    HW218849   0.439   0.918   7.580 -0.5394  1.3743  0.7615
 2463SOL     OW18850   2.075   1.067  15.184 -0.8574  0.3927 -0.6905
 2463SOL    HW118851   2.142   1.075  15.252 -0.4677  0.1163 -1.0411
 2463SOL    HW218852   2.117   1.014  15.116 -3.6709 -0.9173 -1.3953
 2464SOL     OW18853   0.898   1.417   8.636  0.3854 -0.1047  0.1840
 2464SOL    HW118854   0.899   1.359   8.712  1.5325 -2.4535 -1.6514
 2464SOL    HW218855   0.937   1.495   8.677  0.6348 -0.2832  0.2858
 2465SOL     OW18856   2.244   3.962   3.602 -0.5747 -0.0756  0.2020
 2465SOL    HW118857   2.285   3.890   3.554  1.6514  1.1420  0.2713
 2465SOL    HW218858   2.153   3.948   3.574 -0.6023 -1.0368  0.7860
 2466SOL     OW18859   2.837   0.096   3.794  0.9788 -0.3004  0.5030
 2466SOL    HW118860   2.909   0.035   3.808 -0.7245 -2.3688  0.2329
 2466SOL    HW218861   2.803   0.079   3.706  1.4164 -0.1191  0.3013
 2467SOL     OW18862   2.607   1.546   3.267  0.0997 -0.0915  0.6399
 2467SOL    HW118863   2.633   1.638   3.263 -1.6390  0.3826  0.5003
 2467SOL    HW218864   2.649   1.526   3.350 -2.3643  1.1403  2.1523
 2468SOL     OW18865   0.689   2.972   6.956 -0.0507  0.1811 -0.0370
 2468SOL    HW118866   0.638   3.048   6.929  0.5018 -0.7400 -3.6469
 2468SOL    HW218867   0.641   2.900   6.916  0.6386 -0.0334 -0.4642
 2469SOL     OW18868   1.086   2.028   3.130  0.3647  0.1073 -0.2569
 2469SOL    HW118869   0.993   2.049   3.118  0.2510  0.6047  1.5118
 2469SOL    HW218870   1.094   1.962   3.061  0.9313 -1.5421  1.3746
 2470SOL     OW18871   1.048   2.921   1.915  0.6302  0.1913 -0.1561
 2470SOL    HW118872   1.111   2.940   1.845 -1.2193  1.6053 -1.4321
 2470SOL    HW218873   1.108   2.892   1.984 -1.2460 -0.5291  1.1430
 2471SOL     OW18874   3.694   4.359   1.434 -0.1831  0.2444  0.8489
 2471SOL    HW118875   3.711   4.302   1.359 -0.9200  0.0705  0.8209
 2471SOL    HW218876   3.749   4.310   1.495  1.2972  0.3288 -0.4100
 2472SOL     OW18877   2.248   1.761   7.518 -0.0135 -0.9818  0.1345
 2472SOL    HW118878   2.199   1.680   7.510 -0.8826 -0.2791 -1.6073
 2472SOL    HW218879   2.269   1.770   7.425 -1.9169  1.6049 -0.0504
 2473SOL     OW18880   3.121   1.098   1.628 -0.2132  0.2928 -0.3715
 2473SOL    HW118881   3.182   1.030   1.656 -1.9390  0.1326  3.0501
 2473SOL    HW218882   3.081   1.126   1.710 -2.9029 -3.2856 -0.4896
 2474SOL     OW18883   2.795   0.969   5.192  0.6847 -0.2105  0.3668
 2474SOL    HW118884   2.705   0.941   5.207  0.1123  0.3964 -1.9956
 2474SOL    HW218885   2.837   0.943   5.274  3.1029 -0.3534 -0.9096
 2475SOL     OW18886   0.594   2.536  13.167  0.1423  0.3205 -0.2051
 2475SOL    HW118887   0.569   2.566  13.080 -1.3415  0.0614  0.1312
 2475SOL    HW218888   0.674   2.585  13.185  0.2017 -0.0468  0.5411
 2476SOL     OW18889   0.543   3.791   5.142 -0.2027  0.5459 -0.1403
 2476SOL    HW118890   0.533   3.878   5.182  5.7367  0.7273  0.8880
 2476SOL    HW218891   0.577   3.745   5.219 -0.2408 -1.6834 -1.4507
 2477SOL     OW18892   1.219   3.685  11.721  0.0572  0.3275  0.2308
 2477SOL    HW118893   1.264   3.601  11.710 -1.1212 -0.3552  0.5367
 2477SOL    HW218894   1.287   3.748  11.702  0.2095 -0.6226 -2.4850
 2478SOL     OW18895   0.631   3.874  12.853 -0.4498 -0.1566  0.2686
 2478SOL    HW118896   0.667   3.948  12.803 -0.2364  0.0478  0.7328
 2478SOL    HW218897   0.632   3.908  12.942  0.1033  1.9741 -0.5290
 2479SOL     OW18898   2.627   3.429   3.647  0.1350  0.0667  0.2427
 2479SOL    HW118899   2.535   3.404   3.637  0.0961  0.8718 -1.3302
 2479SOL    HW218900   2.657   3.413   3.558  0.9681 -2.3905  0.9518
 2480SOL     OW18901   3.215   0.104  15.855  0.2516  0.1466  0.4653
 2480SOL    HW118902   3.200   0.038  15.787 -1.5511  3.4734 -2.4031
 2480SOL    HW218903   3.148   0.080  15.920  1.2536 -1.6528  0.8232
 2481SOL     OW18904   1.608   0.440  15.209  0.2238 -0.1812 -0.0263
 2481SOL    HW118905   1.678   0.442  15.144 -0.1271  0.5662 -0.3682
 2481SOL    HW218906   1.587   0.533  15.203 -1.2552 -0.5148 -0.0331
 2482SOL     OW18907   4.410   3.198   5.474 -0.2116 -0.3816 -0.1526
 2482SOL    HW118908   4.402   3.273   5.533 -0.8198 -1.2137  0.8415
 2482SOL    HW218909   4.476   3.226   5.411  1.5614 -0.0939  1.8379
 2483SOL     OW18910   2.112   3.325   5.283  0.1903  0.3671 -0.6169
 2483SOL    HW118911   2.169   3.395   5.316  0.7975 -0.3191 -0.2058
 2483SOL    HW218912   2.175   3.254   5.298  0.1203  0.7857  1.6671
 2484SOL     OW18913   1.657   0.953  11.249  0.1717 -0.0621  0.1772
 2484SOL    HW118914   1.676   0.953  11.343 -3.0413  1.3638  0.8097
 2484SOL    HW218915   1.592   0.882  11.247  1.0736 -0.9673  1.9021
 2485SOL     OW18916   1.903   4.116  11.555 -0.1257 -0.7346  0.6521
 2485SOL    HW118917   1.886   4.205  11.585  1.5710 -1.0320  2.5180
 2485SOL    HW218918   1.902   4.072  11.640  0.1391  0.2690  1.1710
 2486SOL     OW18919   3.530   0.143   0.322  0.5437 -0.1020 -0.0596
 2486SOL    HW118920   3.497   0.175   0.238 -0.9098  1.1739  0.9985
 2486SOL    HW218921   3.588   0.068   0.308  0.0842  0.2994 -4.2041
 2487SOL     OW18922   1.775   0.756  14.140 -0.5287  0.0113 -0.1043
 2487SOL    HW118923   1.796   0.756  14.047  1.9184 -1.0860  0.4488
 2487SOL    HW218924   1.863   0.734  14.172 -1.0128 -0.7128  0.7300
 2488SOL     OW18925   0.546   3.541   7.191  0.0006  0.4167  0.2981
 2488SOL    HW118926   0.595   3.504   7.265 -1.4041 -1.6291  0.2115
 2488SOL    HW218927   0.626   3.562   7.142  0.5405 -1.3314  0.4205
 2489SOL     OW18928   2.367   2.510   4.825  0.2043  0.3832 -0.2862
 2489SOL    HW118929   2.334   2.485   4.739  1.5608  0.4114 -0.8203
 2489SOL    HW218930   2.295   2.561   4.862  0.8826  1.8568 -1.0220
 2490SOL     OW18931   4.256   4.671   9.538 -0.8648 -0.0188 -0.4583
 2490SOL    HW118932   4.172   4.633   9.564  0.7922 -2.8066  0.7713
 2490SOL    HW218933   4.305   4.650   9.617  0.5101 -1.3658 -1.6760
 2491SOL     OW18934   0.932   0.635   6.242 -0.9088  0.1275  0.3177
 2491SOL    HW118935   0.856   0.647   6.185  0.6082  0.1030 -1.7287
 2491SOL    HW218936   0.993   0.630   6.169  0.2120  2.1005  1.0990
 2492SOL     OW18937   3.730   2.882   7.716 -0.5053  0.3393 -0.4482
 2492SOL    HW118938   3.812   2.896   7.668  0.1469 -2.2715 -0.0864
 2492SOL    HW218939   3.659   2.884   7.652 -1.2491 -0.0276  0.3712
 2493SOL     OW18940   1.035   1.803   8.507  0.2135 -0.1237 -0.2891
 2493SOL    HW118941   1.122   1.782   8.543  0.3909  0.3293 -0.4554
 2493SOL    HW218942   0.994   1.843   8.584 -1.3491 -1.5486 -0.3830
 2494SOL     OW18943   2.520   3.521   3.897  0.0957  0.6700  0.2671
 2494SOL    HW118944   2.547   3.613   3.896  2.2608  0.0464  1.3152
 2494SOL    HW218945   2.570   3.484   3.824  0.6225 -2.1032  2.0321
 2495SOL     OW18946   0.834   4.495   0.054 -0.0485 -0.0510  0.1521
 2495SOL    HW118947   0.886   4.547   0.116  1.6846  0.2236 -1.5326
 2495SOL    HW218948   0.867   4.415   0.095  0.9796 -0.3523 -1.2431
 2496SOL     OW18949   4.171   4.296   3.905  0.0881  0.4151  0.3572
 2496SOL    HW118950   4.094   4.287   3.962 -0.5860  1.3690 -0.3977
 2496SOL    HW218951   4.230   4.234   3.947  2.8077  2.6464 -0.1821
 2497SOL     OW18952   4.193   4.389   8.769  0.4281  0.2136 -0.5528
 2497SOL    HW118953   4.177   4.482   8.755  0.2465  0.2876  0.1399
 2497SOL    HW218954   4.126   4.350   8.713  1.0859 -0.4611 -0.8724
 2498SOL     OW18955   0.700   1.165   2.986 -0.0930  0.4792 -0.4164
 2498SOL    HW118956   0.753   1.243   3.003  0.5874  0.1328 -0.9506
 2498SOL    HW218957   0.718   1.132   3.074 -0.3105  2.1189  0.2328
 2499SOL     OW18958   4.398   0.073  14.622  0.2217  0.9401 -0.1378
 2499SOL    HW118959   4.371   4.704  14.617 -1.7210  1.3918  2.2324
 2499SOL    HW218960   4.482   0.072  14.577  1.2245  1.7008  1.7441
 2500SOL     OW18961   3.900   4.343   4.883  0.0216  0.2865 -0.1494
 2500SOL    HW118962   3.844   4.374   4.812  2.0973 -1.6618 -2.6409
 2500SOL    HW218963   3.982   4.390   4.869 -1.4871  2.3524 -2.0829
 2501SOL     OW18964   0.734   1.090   3.235  0.3517 -0.1050  0.0514
 2501SOL    HW118965   0.748   1.035   3.312  0.5537  1.2440  0.9796
 2501SOL    HW218966   0.701   1.165   3.286  0.5185 -0.4752  0.7033
 2502SOL     OW18967   0.608   3.779   6.417 -0.5907  0.5144 -0.3022
 2502SOL    HW118968   0.658   3.858   6.397 -0.4379  0.7043  0.8433
 2502SOL    HW218969   0.670   3.707   6.406 -1.0353  0.1225 -0.2777
 2503SOL     OW18970   1.570   1.075  16.555  0.3651  0.3126  0.2403
 2503SOL    HW118971   1.645   1.134  16.542  1.4865 -1.4560 -1.2720
 2503SOL    HW218972   1.513   1.151  16.569 -1.0710 -0.7450  0.1028
 2504SOL     OW18973   1.699   2.227   9.118 -0.0853 -0.0057 -0.5630
 2504SOL    HW118974   1.661   2.142   9.141  1.9163 -1.2165 -1.7905
 2504SOL    HW218975   1.784   2.199   9.084  0.5695  3.2479 -1.6377
 2505SOL     OW18976   0.388   2.198   9.765 -0.6592  0.2382 -0.0181
 2505SOL    HW118977   0.324   2.208   9.835 -0.4578 -2.2821  0.5341
 2505SOL    HW218978   0.363   2.276   9.716 -1.6849 -1.8613 -2.7756
 2506SOL     OW18979   1.496   3.665   2.666 -0.1185 -0.3836  0.1070
 2506SOL    HW118980   1.417   3.611   2.679  0.9238 -1.7653  0.7132
 2506SOL    HW218981   1.565   3.603   2.644  0.7271  0.7864 -0.4997
 2507SOL     OW18982   1.717   2.095   5.920 -0.1601 -0.0793  1.0555
 2507SOL    HW118983   1.643   2.116   5.976 -1.0706 -0.7438  0.1001
 2507SOL    HW218984   1.681   2.087   5.831 -0.1213  3.7553  0.6655
 2508SOL     OW18985   1.803   3.932  15.347  0.5620 -0.6322 -0.3565
 2508SOL    HW118986   1.754   3.999  15.395 -0.0339 -2.2115  1.2242
 2508SOL    HW218987   1.748   3.924  15.268 -1.1155  0.1197  0.7289
 2509SOL     OW18988   1.057   0.149   7.691 -0.6531 -0.8991  0.2884
 2509SOL    HW118989   1.107   0.078   7.650  0.5260  0.6926 -1.0601
 2509SOL    HW218990   1.044   0.105   7.775  4.5164 -0.9999  1.0583
 2510SOL     OW18991   0.625   0.620  17.462  0.3983 -0.4138 -0.7098
 2510SOL    HW118992   0.596   0.593  17.549 -0.5395 -0.2890 -0.9748
 2510SOL    HW218993   0.718   0.640  17.471  0.1203  0.9913 -0.8524
 2511SOL     OW18994   4.585   0.904   7.423 -0.1784 -0.4691 -0.1800
 2511SOL    HW118995   4.636   0.977   7.458 -1.4373  0.6418 -0.6213
 2511SOL    HW218996   4.643   0.875   7.353 -0.7165  1.7594 -1.5499
 2512SOL     OW18997   1.338   2.111   7.199 -0.6983 -0.3873 -0.3261
 2512SOL    HW118998   1.274   2.114   7.128  1.8803  1.8850 -2.5389
 2512SOL    HW218999   1.335   2.017   7.216 -1.1353 -0.0043  1.7884
 2513SOL     OW19000   0.587   0.554   0.022  0.0027 -0.3137 -0.9463
 2513SOL    HW119001   0.600   0.541   0.116 -0.9820  0.1383 -0.7447
 2513SOL    HW219002   0.491   0.555   0.020 -0.0074  0.5421 -0.2513
 2514SOL     OW19003   4.453   3.126   4.742 -0.9975 -0.5349 -0.0446
 2514SOL    HW119004   4.484   3.183   4.812  2.3138 -2.4777  0.0952
 2514SOL    HW219005   4.506   3.048   4.759 -1.6061 -0.6205  1.4553
 2515SOL     OW19006   3.535   2.987  15.095 -0.4639  0.1463  0.3560
 2515SOL    HW119007   3.582   3.020  15.172 -0.0254 -2.6400  1.2908
 2515SOL    HW219008   3.581   2.910  15.061  0.3832  0.7526  0.1127
 2516SOL     OW19009   1.938   3.814   3.555 -0.0576  0.3030 -0.0613
 2516SOL    HW119010   1.952   3.734   3.504 -2.7305  0.0051 -0.3312
 2516SOL    HW219011   1.925   3.777   3.642 -0.1341  0.7619  0.1229
 2517SOL     OW19012   4.128   0.505   9.696  0.2299 -0.5121 -0.2400
 2517SOL    HW119013   4.121   0.459   9.780  0.3494 -0.1877 -0.0550
 2517SOL    HW219014   4.126   0.593   9.733 -0.0171 -1.0122  0.9377
 2518SOL     OW19015   0.254   3.928   7.393 -0.3547  0.4545 -0.2442
 2518SOL    HW119016   0.192   3.868   7.434 -1.0900  0.2757 -1.6122
 2518SOL    HW219017   0.277   3.872   7.319  0.2425  0.3058  0.0539
 2519SOL     OW19018   4.088   4.528   9.937 -0.8560  0.0977  0.6118
 2519SOL    HW119019   4.067   4.434   9.940  2.2073 -0.5855  1.2255
 2519SOL    HW219020   4.047   4.548   9.853 -1.3197 -0.7465  0.6319
 2520SOL     OW19021   1.322   2.711   8.394 -0.0393 -0.2766  0.1785
 2520SOL    HW119022   1.286   2.795   8.423  0.5643  1.0938 -3.0258
 2520SOL    HW219023   1.383   2.682   8.462 -0.2362 -0.9917  0.0551
 2521SOL     OW19024   2.556   2.406   5.216  0.0571  0.4891 -0.1635
 2521SOL    HW119025   2.540   2.318   5.184  1.8486  0.1566 -0.1688
 2521SOL    HW219026   2.639   2.400   5.264 -0.9560  0.9831  1.6505
 2522SOL     OW19027   1.607   3.444   2.896 -0.4240  0.2173 -0.3011
 2522SOL    HW119028   1.573   3.354   2.891 -1.3583  0.5262  0.6638
 2522SOL    HW219029   1.640   3.462   2.808  2.3144  1.3855  0.9849
 2523SOL     OW19030   3.198   0.053  11.054  0.1411  0.4709 -0.1306
 2523SOL    HW119031   3.235   4.692  11.082 -1.0512 -0.2882 -0.8054
 2523SOL    HW219032   3.140   0.012  10.990 -0.7516 -0.0539  1.0031
 2524SOL     OW19033   0.064   2.575   3.611 -0.8928  0.3229  0.5936
 2524SOL    HW119034   0.123   2.646   3.586 -1.0549 -0.3160 -1.5553
 2524SOL    HW219035   0.011   2.570   3.532 -1.4947 -0.0727  1.0274
 2525SOL     OW19036   2.713   2.450  12.341  0.2878  0.2483 -0.3021
 2525SOL    HW119037   2.752   2.529  12.377 -0.5985 -0.3972  2.0746
 2525SOL    HW219038   2.706   2.472  12.248  2.8996  2.6939  0.0833
 2526SOL     OW19039   0.696   1.477   7.658  0.0432 -0.2812 -0.0184
 2526SOL    HW119040   0.771   1.420   7.645 -0.4326 -1.2877  1.7117
 2526SOL    HW219041   0.736   1.560   7.634  0.0765  0.4510  2.5408
 2527SOL     OW19042   3.478   3.866   0.490 -0.8373 -0.5159 -0.3916
 2527SOL    HW119043   3.533   3.833   0.561 -1.6034 -0.2220  0.3408
 2527SOL    HW219044   3.420   3.790   0.492  0.6645 -1.6727 -0.9520
 2528SOL     OW19045   1.496   2.293  13.702 -0.0748  0.1074  0.1634
 2528SOL    HW119046   1.475   2.350  13.629  0.5115 -0.9180 -0.8039
 2528SOL    HW219047   1.503   2.366  13.763  0.1299 -0.9000  1.3679
 2529SOL     OW19048   1.687   4.526   9.221 -0.1296  0.3772  0.4466
 2529SOL    HW119049   1.649   4.501   9.305 -0.1329 -0.9007  0.0725
 2529SOL    HW219050   1.746   4.453   9.203 -1.5094 -0.3707 -1.0550
 2530SOL     OW19051   3.871   1.882   1.689  0.1686  0.3459  0.5766
 2530SOL    HW119052   3.852   1.970   1.655 -1.1593  0.0966  0.6829
 2530SOL    HW219053   3.907   1.839   1.611  0.5291  1.8224 -0.0718
 2531SOL     OW19054   2.530   3.846   5.009  0.3330  0.1176  0.3788
 2531SOL    HW119055   2.470   3.824   5.081 -0.9018  2.7951  0.1772
 2531SOL    HW219056   2.607   3.792   5.023 -0.6827 -0.6724  2.8553
 2532SOL     OW19057   0.848   3.023   4.521 -0.1464  0.0593  0.3080
 2532SOL    HW119058   0.909   3.064   4.460 -0.2568  0.1356  0.2475
 2532SOL    HW219059   0.812   3.089   4.581 -0.4924  0.2981 -0.1542
 2533SOL     OW19060   3.698   1.124   8.096 -0.1839 -0.5355  0.1090
 2533SOL    HW119061   3.790   1.129   8.121 -0.2243 -1.6717  0.5179
 2533SOL    HW219062   3.692   1.040   8.051  1.0278  0.0772 -1.1771
 2534SOL     OW19063   2.164   0.765  12.807  0.2654 -0.0135 -0.0496
 2534SOL    HW119064   2.181   0.752  12.714  2.0220  0.4009  0.2214
 2534SOL    HW219065   2.208   0.690  12.847  0.6798  0.2766  0.0406
 2535SOL     OW19066   4.199   0.586   4.309 -0.1888  0.1279  0.2985
 2535SOL    HW119067   4.206   0.505   4.259  1.0083  0.0494  0.5940
 2535SOL    HW219068   4.164   0.649   4.246 -1.0476 -0.3083  0.3394
 2536SOL     OW19069   2.432   1.065   9.024 -0.3817 -0.2086 -0.6471
 2536SOL    HW119070   2.396   1.031   8.942  3.3787  1.1949 -2.8648
 2536SOL    HW219071   2.525   1.052   9.009 -0.2229  1.1725 -0.8106
 2537SOL     OW19072   2.764   4.278   7.321  0.6560  0.4294  0.2969
 2537SOL    HW119073   2.727   4.189   7.330  0.0027  0.5990 -0.6959
 2537SOL    HW219074   2.788   4.282   7.414 -0.2176  1.4718  0.4703
 2538SOL     OW19075   3.915   3.166  13.206 -0.4573 -0.2490 -0.6420
 2538SOL    HW119076   3.899   3.101  13.137  1.1586 -1.2262 -0.1204
 2538SOL    HW219077   3.833   3.175  13.254  0.5568 -0.4124  1.1097
 2539SOL     OW19078   2.684   1.141   6.250  0.2487  0.5638 -0.0326
 2539SOL    HW119079   2.684   1.136   6.345  2.5388  1.3700  0.0229
 2539SOL    HW219080   2.594   1.120   6.226  0.2085  0.3445  0.3236
 2540SOL     OW19081   4.286   4.714   4.565  0.0810  0.6153  0.5297
 2540SOL    HW119082   4.301   4.631   4.519  1.1119  0.2793  1.4814
 2540SOL    HW219083   4.375   0.023   4.576 -0.2608  1.8323 -0.1242
 2541SOL     OW19084   2.022   0.655  14.229 -0.0117 -0.2354 -0.1349
 2541SOL    HW119085   1.977   0.577  14.261  0.8614 -1.1264 -1.0798
 2541SOL    HW219086   2.097   0.649  14.289  0.8758 -0.2682 -1.2300
 2542SOL     OW19087   2.839   2.358  16.598  0.1693  0.5356 -0.0694
 2542SOL    HW119088   2.760   2.402  16.567  1.1725  2.5235  0.2182
 2542SOL    HW219089   2.861   2.430  16.656 -0.6430  0.2948  0.5309
 2543SOL     OW19090   0.093   3.560  15.155  0.1091 -0.3121  0.1350
 2543SOL    HW119091   0.075   3.644  15.114 -0.0316 -0.1896  0.4467
 2543SOL    HW219092   0.034   3.496  15.115 -1.2012  0.2726  1.1488
 2544SOL     OW19093   4.476   3.591  10.471 -0.2125  0.3530 -0.2330
 2544SOL    HW119094   4.427   3.573  10.551  1.0042 -0.0831  0.4115
 2544SOL    HW219095   4.544   3.529  10.497  0.3312  2.0108  2.3305
 2545SOL     OW19096   0.011   2.409   6.109 -0.0974 -0.1384 -0.2181
 2545SOL    HW119097   4.656   2.401   6.165  0.8179  2.2761  1.4115
 2545SOL    HW219098   4.720   2.495   6.071 -0.4152 -0.3490 -0.5856
 2546SOL     OW19099   0.731   3.636  13.059 -0.2351  0.2344  0.0447
 2546SOL    HW119100   0.723   3.647  12.965  1.7521  3.3399  0.2544
 2546SOL    HW219101   0.811   3.684  13.082 -1.6429  2.1504  0.8755
 2547SOL     OW19102   3.774   0.511   8.321 -0.1499 -0.5565  0.0840
 2547SOL    HW119103   3.843   0.458   8.360 -0.6928 -0.8282  0.6756
 2547SOL    HW219104   3.711   0.525   8.392 -0.9777 -0.5283 -0.6492
 2548SOL     OW19105   2.629   4.518   0.038  0.1881  0.4639 -0.2469
 2548SOL    HW119106   2.580   4.571   0.100  1.3440 -1.3173  2.1848
 2548SOL    HW219107   2.653   4.578  17.660  0.7691  0.9469  0.3566
 2549SOL     OW19108   1.160   2.835   9.206  0.0173  0.2694 -0.1028
 2549SOL    HW119109   1.250   2.862   9.187  0.0772 -1.1774 -1.8326
 2549SOL    HW219110   1.166   2.816   9.300 -1.1856  2.9243  0.5163
 2550SOL     OW19111   4.063   0.893   4.593 -0.4120  0.5048 -0.1521
 2550SOL    HW119112   3.984   0.891   4.647 -1.4598 -3.2898 -1.7850
 2550SOL    HW219113   4.029   0.918   4.507  0.5623  0.7154 -0.4731
 2551SOL     OW19114   3.450   3.892   0.996  0.2731  0.3143  0.3670
 2551SOL    HW119115   3.481   3.934   1.076 -0.0391  0.5514  0.3646
 2551SOL    HW219116   3.411   3.817   1.040  1.6226 -1.9476 -2.2682
 2552SOL     OW19117   4.436   4.190   2.897  0.2650  0.1353 -0.2992
 2552SOL    HW119118   4.340   4.195   2.897  0.3723  2.0382  0.6216
 2552SOL    HW219119   4.447   4.096   2.913 -1.1483 -0.0788 -0.5862
 2553SOL     OW19120   0.727   1.992   6.262 -0.5805 -0.0901  0.2349
 2553SOL    HW119121   0.737   1.923   6.328 -2.9525 -0.8402 -0.1686
 2553SOL    HW219122   0.719   2.069   6.317  0.6995 -0.6455  1.1885
 2554SOL     OW19123   2.152   4.708   7.295 -0.1512  0.0187  0.5256
 2554SOL    HW119124   2.164   4.613   7.293 -0.2343  0.0072  0.5672
 2554SOL    HW219125   2.240   0.015   7.274  0.3392 -1.7276  0.1242
 2555SOL     OW19126   2.967   4.590  10.937 -0.3660  0.1550 -0.0796
 2555SOL    HW119127   3.027   4.522  10.969  0.0939 -0.0494 -1.3976
 2555SOL    HW219128   2.993   4.603  10.846 -0.3776 -0.4449 -0.1680
 2556SOL     OW19129   4.443   3.537  15.279 -0.0734 -0.7408  0.1509
 2556SOL    HW119130   4.479   3.625  15.290 -2.3740  0.2882 -0.5686
 2556SOL    HW219131   4.396   3.527  15.362 -2.4943  1.1876 -0.9990
 2557SOL     OW19132   2.622   1.576   2.008 -0.0803  0.2048 -0.4830
 2557SOL    HW119133   2.556   1.643   1.992 -0.9754 -0.8864 -1.2395
 2557SOL    HW219134   2.571   1.502   2.040  3.7143 -1.2241  2.2956
 2558SOL     OW19135   1.157   0.855   3.616  0.2894 -0.1039  0.8673
 2558SOL    HW119136   1.216   0.887   3.685  0.8259  0.6182  0.0790
 2558SOL    HW219137   1.212   0.837   3.539  3.1544 -0.5430  2.9896
 2559SOL     OW19138   4.124   0.230  12.374  0.0907  0.3085  0.6830
 2559SOL    HW119139   4.044   0.281  12.382 -1.2358 -1.4538 -1.1523
 2559SOL    HW219140   4.099   0.155  12.429  1.4665 -1.2022 -0.7276
 2560SOL     OW19141   3.035   2.186  10.383 -0.0644 -0.3710  0.0011
 2560SOL    HW119142   3.032   2.276  10.350  1.7950 -0.7188 -1.1335
 2560SOL    HW219143   3.126   2.164  10.364 -0.7213 -1.4564 -2.0100
 2561SOL     OW19144   1.393   1.242  13.124  0.0621  0.3358 -0.3123
 2561SOL    HW119145   1.372   1.197  13.206 -0.2201  0.4923 -0.2976
 2561SOL    HW219146   1.487   1.256  13.135 -0.2851  1.3390  1.4498
 2562SOL     OW19147   2.822   3.644   0.700 -0.5689 -0.0596  0.2602
 2562SOL    HW119148   2.915   3.660   0.713 -0.5908 -0.0365  0.3893
 2562SOL    HW219149   2.779   3.729   0.709 -0.3056 -0.0564  1.5858
 2563SOL     OW19150   0.015   0.296   6.026  0.3094  0.3744 -0.0795
 2563SOL    HW119151   0.068   0.264   5.954  0.3433  1.2555 -0.4494
 2563SOL    HW219152   0.078   0.353   6.069  1.4559 -0.6457 -0.4131
 2564SOL     OW19153   4.436   1.662   6.471  0.1230  0.6371  0.1703
 2564SOL    HW119154   4.358   1.620   6.436  0.2165 -0.9642  1.8754
 2564SOL    HW219155   4.506   1.607   6.437 -1.4921 -1.4064  0.1842
 2565SOL     OW19156   0.479   1.179   4.500  0.1983  0.2121  0.3772
 2565SOL    HW119157   0.390   1.151   4.478  0.2504 -0.3191  0.8284
 2565SOL    HW219158   0.464   1.174   4.594  1.1963  0.3783  0.5454
 2566SOL     OW19159   3.105   4.689  11.401 -0.2958  0.9311  0.0054
 2566SOL    HW119160   3.197   4.664  11.391 -1.4627 -2.7942 -1.5962
 2566SOL    HW219161   3.083   4.658  11.489  1.8129  1.5114  0.7256
 2567SOL     OW19162   0.491   2.608  14.657 -0.3643 -0.2408  0.2669
 2567SOL    HW119163   0.427   2.547  14.695  0.1787  0.7381  2.7501
 2567SOL    HW219164   0.550   2.536  14.633 -0.3349  0.5851 -2.0899
 2568SOL     OW19165   2.391   3.253   8.713  0.6660  0.4434 -1.0101
 2568SOL    HW119166   2.474   3.292   8.739  1.1317 -0.2166 -1.5060
 2568SOL    HW219167   2.324   3.286   8.773  2.0899  0.9564  0.2875
 2569SOL     OW19168   1.424   0.057   0.071 -0.0998  0.1798  0.0101
 2569SOL    HW119169   1.386   0.134   0.113  1.1411 -0.3520  2.1185
 2569SOL    HW219170   1.511   0.088   0.048  0.0109  0.2019  0.4618
 2570SOL     OW19171   0.086   1.575   9.052  0.0436 -0.0157 -0.4834
 2570SOL    HW119172   0.064   1.519   9.126 -0.7498 -1.1314 -1.5807
 2570SOL    HW219173   0.177   1.545   9.049  0.3960  1.0383 -0.4892
 2571SOL     OW19174   1.299   0.745   7.439  0.2761 -0.3938 -0.1703
 2571SOL    HW119175   1.282   0.782   7.352 -0.0234  0.5572  0.2940
 2571SOL    HW219176   1.387   0.779   7.456 -0.4176  0.2154  2.0662
 2572SOL     OW19177   1.649   0.244   5.601 -0.2711  0.4631 -0.3189
 2572SOL    HW119178   1.567   0.214   5.561 -0.8422 -0.1797  1.2995
 2572SOL    HW219179   1.617   0.261   5.690  1.3303  1.4155  0.0689
 2573SOL     OW19180   4.413   1.040  17.337  0.0684 -0.6513 -0.4016
 2573SOL    HW119181   4.454   0.954  17.322  0.8713 -0.2410 -0.5567
 2573SOL    HW219182   4.459   1.074  17.414  0.0045  2.3660 -1.6894
 2574SOL     OW19183   4.690   2.786  12.424  0.0251 -0.0827 -0.3373
 2574SOL    HW119184   0.021   2.858  12.393  0.1968 -0.3982 -0.7679
 2574SOL    HW219185   0.018   2.721  12.473  1.3815  1.0786 -0.2244
 2575SOL     OW19186   2.881   3.892   3.930 -0.0706  0.4244  0.3182
 2575SOL    HW119187   2.859   3.984   3.948  0.1167  0.6709 -0.6666
 2575SOL    HW219188   2.938   3.868   4.003  0.5730  0.4451 -0.1724
 2576SOL     OW19189   1.980   0.327   1.931  0.3475 -0.2579 -0.5756
 2576SOL    HW119190   2.074   0.338   1.946  0.0160  3.6069 -1.2628
 2576SOL    HW219191   1.944   0.415   1.942 -2.7315 -1.7109  0.7008
 2577SOL     OW19192   0.327   4.533  14.568  0.2311 -0.5170  0.5413
 2577SOL    HW119193   0.406   4.557  14.617  0.9561 -0.3415 -0.7083
 2577SOL    HW219194   0.269   4.538  14.644 -2.2457  0.5655 -1.4344
 2578SOL     OW19195   2.384   2.312   8.232  0.0162 -0.3031 -0.0199
 2578SOL    HW119196   2.309   2.333   8.176  1.2101 -2.9637 -2.5891
 2578SOL    HW219197   2.444   2.277   8.167 -0.1773 -0.1315 -0.2918
 2579SOL     OW19198   4.221   2.098   2.176  0.1735 -0.4676 -0.0248
 2579SOL    HW119199   4.259   2.117   2.090 -0.9096  3.9174  0.4641
 2579SOL    HW219200   4.246   2.178   2.222  0.3024 -0.5756  0.0912
 2580SOL     OW19201   2.442   3.752   4.750  0.2426 -0.0277 -0.1874
 2580SOL    HW119202   2.472   3.794   4.830  1.6423  0.3896 -0.9245
 2580SOL    HW219203   2.350   3.739   4.773  0.5289 -1.0921  0.3368
 2581SOL     OW19204   1.518   1.186   6.973  0.1838  0.5959  0.0932
 2581SOL    HW119205   1.526   1.148   7.061  3.5110  1.9706  0.3887
 2581SOL    HW219206   1.431   1.225   6.976 -0.9586 -1.9148 -0.6345
 2582SOL     OW19207   4.173   2.610   9.391  0.3192 -0.0842  0.6472
 2582SOL    HW119208   4.084   2.576   9.392  1.2082 -2.4407 -1.1863
 2582SOL    HW219209   4.228   2.545   9.347 -1.5176  0.1906 -2.0052
 2583SOL     OW19210   0.795   2.032   5.711  0.5494 -0.1943 -0.4902
 2583SOL    HW119211   0.833   2.004   5.628  0.9049 -2.4365  0.4358
 2583SOL    HW219212   0.738   1.956   5.723  0.6482 -0.2920 -0.6423
 2584SOL     OW19213   2.044   0.243   5.710  0.0026  0.4356  0.9228
 2584SOL    HW119214   2.005   0.257   5.796 -3.6219  4.9749 -1.5129
 2584SOL    HW219215   2.033   0.149   5.694 -0.2490  0.3594  1.5552
 2585SOL     OW19216   4.457   1.934   8.613  0.2062  0.0791 -0.1005
 2585SOL    HW119217   4.491   1.959   8.527  1.7346 -1.7958 -0.0349
 2585SOL    HW219218   4.534   1.890   8.648 -0.1732 -0.4492  0.0791
 2586SOL     OW19219   3.999   2.051  15.906 -0.2560 -0.4693 -0.1127
 2586SOL    HW119220   3.972   2.069  15.996 -0.0235 -1.9148  0.2474
 2586SOL    HW219221   3.921   2.089  15.865 -0.4849  1.6461  2.2642
 2587SOL     OW19222   0.476   0.876   6.505 -0.1638  0.3871  0.3506
 2587SOL    HW119223   0.512   0.866   6.593  1.9687  0.6841 -0.4849
 2587SOL    HW219224   0.388   0.838   6.509  0.1161 -0.4506 -1.5550
 2588SOL     OW19225   0.829   4.517   1.750  0.0568 -0.1644  0.6110
 2588SOL    HW119226   0.831   4.550   1.661  2.3620  1.6133  1.3119
 2588SOL    HW219227   0.922   4.502   1.768  0.5650  1.5376 -0.6327
 2589SOL     OW19228   3.208   1.195   5.790 -0.0793 -0.1599 -0.0212
 2589SOL    HW119229   3.121   1.220   5.823  0.6519 -0.2402  1.9985
 2589SOL    HW219230   3.257   1.227   5.867 -1.6588  0.0576  0.9014
 2590SOL     OW19231   0.950   1.233   5.579  0.2174 -0.1850  0.0955
 2590SOL    HW119232   0.901   1.301   5.532  0.5600 -1.2253 -1.7966
 2590SOL    HW219233   0.885   1.164   5.591  0.9102 -0.5496  1.6992
 2591SOL     OW19234   1.959   4.345  16.280  0.1990 -0.3460 -0.1975
 2591SOL    HW119235   1.925   4.257  16.263  1.7014 -0.6944 -1.3280
 2591SOL    HW219236   1.977   4.337  16.373 -1.0255  0.9864  0.1705
 2592SOL     OW19237   1.994   0.189   3.983  0.1543 -0.1462  0.3732
 2592SOL    HW119238   2.030   0.102   3.966 -1.3456 -0.4926 -0.9873
 2592SOL    HW219239   1.926   0.196   3.917  1.2603  2.5906 -0.4702
 2593SOL     OW19240   0.134   1.240  14.600 -0.3809 -1.0069  0.1530
 2593SOL    HW119241   0.140   1.150  14.570 -1.5712 -1.5559  1.5820
 2593SOL    HW219242   0.042   1.241  14.626 -0.5144 -0.2251 -0.3444
 2594SOL     OW19243   1.687   4.098   5.041  0.0425  0.5895 -0.1970
 2594SOL    HW119244   1.623   4.163   5.071 -1.0103  0.1719 -1.5274
 2594SOL    HW219245   1.759   4.116   5.100  0.3067 -0.4410 -0.2127
 2595SOL     OW19246   1.317   1.137   5.769 -0.1888  0.3039  0.1345
 2595SOL    HW119247   1.363   1.116   5.851 -0.2651 -0.3396  0.0084
 2595SOL    HW219248   1.239   1.175   5.809  0.6626  0.6757  1.4772
 2596SOL     OW19249   4.419   2.700  16.705 -0.1495 -0.1282  0.4118
 2596SOL    HW119250   4.361   2.654  16.765  0.0033 -1.1899 -0.2448
 2596SOL    HW219251   4.504   2.672  16.738 -0.2588  0.5265  1.2235
 2597SOL     OW19252   0.718   2.744   0.797 -0.3506  0.5835 -0.1744
 2597SOL    HW119253   0.683   2.767   0.711 -0.5276 -2.7228 -1.0150
 2597SOL    HW219254   0.633   2.733   0.840 -1.6702 -0.3110 -3.0288
 2598SOL     OW19255   1.911   0.307  12.738 -0.1092  0.0850  0.4216
 2598SOL    HW119256   1.972   0.285  12.809 -1.1265  0.4449  1.3958
 2598SOL    HW219257   1.897   0.401  12.744 -0.8929 -0.0136  0.1485
 2599SOL     OW19258   3.206   0.027   4.999 -0.1393  0.0677 -0.0430
 2599SOL    HW119259   3.111   0.033   4.998 -0.2095 -0.8305  0.5355
 2599SOL    HW219260   3.222   4.661   5.031  1.3868 -0.1750 -1.4954
 2600SOL     OW19261   3.996   2.314   2.728  0.3235  0.4659  0.4859
 2600SOL    HW119262   4.043   2.241   2.687 -1.7684  0.3441 -1.7211
 2600SOL    HW219263   4.004   2.291   2.820 -0.7299 -0.1518  0.4355
 2601SOL     OW19264   0.465   0.781   3.486  0.6897  0.0959  0.2018
 2601SOL    HW119265   0.402   0.822   3.427 -0.7573 -0.8965  1.0828
 2601SOL    HW219266   0.545   0.834   3.484  0.6850  0.0286 -2.8211
 2602SOL     OW19267   2.696   2.559   7.815 -0.4200 -0.1693 -0.1137
 2602SOL    HW119268   2.732   2.643   7.788 -0.6826  0.9021  2.8251
 2602SOL    HW219269   2.701   2.514   7.731  0.1594 -0.7593  0.2305
 2603SOL     OW19270   1.038   0.120   4.285  0.1549  0.4935  0.1956
 2603SOL    HW119271   1.016   0.042   4.234  1.8635 -1.0181  1.7389
 2603SOL    HW219272   1.130   0.102   4.306 -0.2026 -0.5547  0.8483
 2604SOL     OW19273   4.650   2.323  17.235  0.2191  0.5605 -0.1655
 2604SOL    HW119274   4.589   2.312  17.162  1.8694 -0.4582 -1.3752
 2604SOL    HW219275   4.658   2.237  17.276 -4.0753 -0.6851 -1.9237
 2605SOL     OW19276   4.001   2.433   8.593 -0.6050  0.2114  0.1642
 2605SOL    HW119277   3.989   2.338   8.604 -1.8281  0.4857  1.2125
 2605SOL    HW219278   3.971   2.465   8.678 -2.0608  1.5411 -0.8626
 2606SOL     OW19279   0.004   3.523   6.451  0.0647 -0.1903  0.4010
 2606SOL    HW119280   0.069   3.547   6.384  0.1583  0.6912  0.8099
 2606SOL    HW219281   4.645   3.547   6.407  1.1525  2.6509 -0.1041
 2607SOL     OW19282   2.955   2.503   1.475  0.3938  0.3464 -0.0553
 2607SOL    HW119283   2.983   2.412   1.463  1.3443  0.8969 -1.8719
 2607SOL    HW219284   2.975   2.535   1.388 -0.2226 -1.5779 -0.8978
 2608SOL     OW19285   1.736   0.688   7.387  0.2113 -0.2576  0.2062
 2608SOL    HW119286   1.801   0.758   7.386  0.7425 -0.7634 -1.1205
 2608SOL    HW219287   1.759   0.634   7.311  1.0806 -0.8440  0.8789
 2609SOL     OW19288   2.995   1.237   9.675  0.0320  0.2974  0.0880
 2609SOL    HW119289   2.995   1.301   9.746  0.4198  0.6771 -0.2565
 2609SOL    HW219290   2.925   1.284   9.630 -0.8837 -1.3582 -0.2339
 2610SOL     OW19291   1.528   1.335  15.259 -0.2617 -0.1111  0.1358
 2610SOL    HW119292   1.550   1.252  15.300 -0.0493  0.1415  0.5342
 2610SOL    HW219293   1.574   1.340  15.175  1.0565  0.1081  0.8710
 2611SOL     OW19294   0.642   1.214   5.387 -0.0282 -0.2804 -0.0580
 2611SOL    HW119295   0.712   1.253   5.334 -0.8569  0.0588 -0.9162
 2611SOL    HW219296   0.632   1.128   5.347  1.2006 -0.0310 -0.9115
 2612SOL     OW19297   0.989   1.386   6.240  0.0148  0.3231 -0.1756
 2612SOL    HW119298   1.005   1.296   6.211 -3.6572 -0.3357 -0.1583
 2612SOL    HW219299   1.075   1.424   6.257  0.0139 -0.2150  0.9898
 2613SOL     OW19300   0.106   0.912   3.859 -0.0284  0.2811  0.0370
 2613SOL    HW119301   0.168   0.973   3.820 -1.2483  0.8540 -1.0052
 2613SOL    HW219302   0.032   0.911   3.797 -0.1856  2.1488  0.1927
 2614SOL     OW19303   0.670   1.787   2.066  0.3888  0.7434  0.0831
 2614SOL    HW119304   0.764   1.803   2.059  0.3001  0.9856 -0.4974
 2614SOL    HW219305   0.639   1.878   2.066 -1.0582  0.2489  3.8313
 2615SOL     OW19306   0.726   0.001  12.892  0.2903  0.4951 -0.4346
 2615SOL    HW119307   0.660   4.690  12.953  1.0440  2.3035  1.3770
 2615SOL    HW219308   0.805   4.722  12.945 -1.1353 -1.0065  1.6596
 2616SOL     OW19309   3.508   2.696   6.163 -0.2145  0.5143 -0.0916
 2616SOL    HW119310   3.447   2.761   6.127  1.3903  1.0371 -1.8564
 2616SOL    HW219311   3.445   2.624   6.164  1.3666 -0.8706 -0.4430
 2617SOL     OW19312   2.411   0.086   3.494  0.2715  0.1180  0.0389
 2617SOL    HW119313   2.437   4.718   3.481  0.9876  0.5570 -1.6841
 2617SOL    HW219314   2.338   0.093   3.432 -1.3076 -1.5750  1.7342
 2618SOL     OW19315   0.206   2.098   3.782 -0.1285  0.0757  0.7520
 2618SOL    HW119316   0.284   2.154   3.785 -0.2440  0.1754  2.0644
 2618SOL    HW219317   0.221   2.046   3.703  0.2988  1.8001 -0.3010
 2619SOL     OW19318   0.316   4.429  12.649  0.0079 -0.0626  0.1303
 2619SOL    HW119319   0.226   4.408  12.625  0.0529 -0.0129 -0.0790
 2619SOL    HW219320   0.320   4.381  12.732 -0.8064  1.9012  1.3073
 2620SOL     OW19321   3.617   0.005  12.964 -0.6770  0.5300  0.3605
 2620SOL    HW119322   3.555   4.716  13.036 -0.9414 -0.4385 -0.0318
 2620SOL    HW219323   3.690   4.672  12.991 -0.9459 -0.3340 -0.7253
 2621SOL     OW19324   2.493   0.045   0.206  0.6549 -0.3514 -0.2611
 2621SOL    HW119325   2.588   0.046   0.193  0.5722  1.4773 -0.8377
 2621SOL    HW219326   2.501   0.079   0.295 -0.6375 -0.3114 -0.1605
 2622SOL     OW19327   4.232   4.636   1.982 -0.5493 -0.0128 -0.1663
 2622SOL    HW119328   4.229   4.633   2.077  0.0067 -1.6615 -0.1926
 2622SOL    HW219329   4.326   4.636   1.963 -0.8762 -0.2744 -1.8114
 2623SOL     OW19330   2.076   0.765   8.797 -0.0943 -0.1646 -0.1607
 2623SOL    HW119331   2.057   0.857   8.815  1.0309 -0.1949  1.2073
 2623SOL    HW219332   2.167   0.777   8.769  0.8729 -0.2247  2.8919
 2624SOL     OW19333   1.692   1.484   3.023 -0.4238 -0.0366  0.1518
 2624SOL    HW119334   1.710   1.565   3.071  1.8153  0.5053 -1.5938
 2624SOL    HW219335   1.712   1.418   3.089 -2.9182 -1.3704 -0.4224
 2625SOL     OW19336   4.713   1.929  16.385 -0.4515  0.7412  0.2804
 2625SOL    HW119337   0.080   1.938  16.417  0.0884 -1.8620 -0.4920
 2625SOL    HW219338   4.695   1.835  16.391  1.0797  0.5882  2.1317
 2626SOL     OW19339   3.777   2.259   8.872  0.5327 -0.1208  0.3741
 2626SOL    HW119340   3.702   2.209   8.839 -1.0529  1.0005  2.2468
 2626SOL    HW219341   3.736   2.333   8.917 -1.2976 -0.8586 -0.0623
 2627SOL     OW19342   3.056   1.185   8.670 -0.0115 -0.4346 -0.5464
 2627SOL    HW119343   2.990   1.243   8.633 -0.5614 -0.7542 -0.0674
 2627SOL    HW219344   3.048   1.200   8.764  0.8915  0.0801 -0.5464
 2628SOL     OW19345   4.587   0.467   9.758 -0.3207  0.1882 -0.0640
 2628SOL    HW119346   4.567   0.527   9.831  1.3534  0.7762 -0.0909
 2628SOL    HW219347   4.673   0.496   9.728  1.0193 -1.2107  2.4670
 2629SOL     OW19348   3.573   3.257   2.438  0.1927  0.2886  0.7217
 2629SOL    HW119349   3.515   3.248   2.514 -0.0739 -2.5014  0.1811
 2629SOL    HW219350   3.516   3.290   2.369 -0.8690  1.4455  2.1441
 2630SOL     OW19351   1.371   0.734  17.181 -0.0906 -0.1177 -0.4853
 2630SOL    HW119352   1.461   0.706  17.169  0.1565  0.1753  0.6916
 2630SOL    HW219353   1.338   0.725  17.092  0.4515 -3.8741 -0.2667
 2631SOL     OW19354   3.155   3.757   6.167 -0.0483 -0.1233 -0.3860
 2631SOL    HW119355   3.135   3.815   6.093  0.6792 -0.7748 -1.1039
 2631SOL    HW219356   3.249   3.743   6.157  0.1845 -0.6121  2.5473
 2632SOL     OW19357   0.696   0.483   0.856 -0.4994 -0.3644  0.4302
 2632SOL    HW119358   0.648   0.435   0.924 -0.0185 -1.3077  0.1045
 2632SOL    HW219359   0.629   0.536   0.811 -0.0972  0.8543  1.2617
 2633SOL     OW19360   0.724   4.044   5.490  0.0500 -0.3892 -0.0265
 2633SOL    HW119361   0.685   4.049   5.403 -0.5993 -3.5861  0.0843
 2633SOL    HW219362   0.692   3.955   5.506 -0.5716 -0.0705  0.4617
 2634SOL     OW19363   3.290   0.658  11.009  0.3482  0.7871  0.3504
 2634SOL    HW119364   3.228   0.584  11.004 -0.4961  1.6755 -2.2920
 2634SOL    HW219365   3.284   0.694  10.921 -1.1831  0.7742  0.4518
 2635SOL     OW19366   3.435   1.486  14.035 -0.1278  0.0644 -0.3371
 2635SOL    HW119367   3.511   1.472  13.978  1.0039  0.1930  1.1440
 2635SOL    HW219368   3.381   1.409  14.016  1.9830 -1.6761  0.6946
 2636SOL     OW19369   2.166   3.473  12.858 -0.0176 -0.4483 -0.7067
 2636SOL    HW119370   2.106   3.429  12.918 -2.4377 -0.1571 -2.9279
 2636SOL    HW219371   2.116   3.487  12.777  1.6527 -0.8807 -1.8325
 2637SOL     OW19372   4.456   0.357   0.246  0.3984 -0.3341  0.2666
 2637SOL    HW119373   4.373   0.404   0.253  1.6314  1.5713  1.8985
 2637SOL    HW219374   4.514   0.407   0.302  0.8375  1.4810 -1.8166
 2638SOL     OW19375   0.952   3.420  10.037  0.0532  0.0566  0.7805
 2638SOL    HW119376   0.925   3.487  10.100  0.8599 -2.1491  3.4341
 2638SOL    HW219377   0.953   3.347  10.099  0.6453 -0.6778 -0.0990
 2639SOL     OW19378   0.045   4.615   4.466  0.7520  0.2502 -0.2698
 2639SOL    HW119379   0.036   4.691   4.408 -0.5478  1.3709  1.4307
 2639SOL    HW219380   0.076   4.552   4.400 -1.4546  0.4712 -1.5273
 2640SOL     OW19381   3.262   2.474   4.573 -0.3579 -0.0788  0.0322
 2640SOL    HW119382   3.212   2.536   4.521 -0.3193 -2.4965 -2.9460
 2640SOL    HW219383   3.222   2.490   4.658  0.8597 -0.3413  0.6699
 2641SOL     OW19384   2.956   3.526   5.345 -0.4462 -0.1369  0.3346
 2641SOL    HW119385   2.953   3.438   5.382  0.6867  0.0083  0.7840
 2641SOL    HW219386   3.043   3.560   5.368 -0.6167  0.7013 -0.2669
 2642SOL     OW19387   0.240   4.013   7.099 -0.3757 -0.8052  0.3569
 2642SOL    HW119388   0.256   3.928   7.140 -0.6806 -0.4416  1.2382
 2642SOL    HW219389   0.322   4.018   7.050 -1.2335  1.0319 -0.8461
 2643SOL     OW19390   2.034   2.267   6.870 -0.0244 -0.3466 -0.0032
 2643SOL    HW119391   2.063   2.183   6.836 -1.1335 -0.0078 -1.7625
 2643SOL    HW219392   2.026   2.254   6.965 -0.9729  1.0748  0.1060
 2644SOL     OW19393   2.150   4.664   3.119  0.2343 -0.1435 -0.3283
 2644SOL    HW119394   2.104   4.585   3.090  0.3091  0.1597 -1.2686
 2644SOL    HW219395   2.159   4.716   3.040  3.6688 -1.1715 -0.6275
 2645SOL     OW19396   4.606   2.042  11.253 -0.1397  0.0951 -0.7213
 2645SOL    HW119397   4.699   2.027  11.238  0.3652  1.4385  1.0511
 2645SOL    HW219398   4.613   2.129  11.212 -0.7985  1.8431  2.8521
 2646SOL     OW19399   3.241   1.757   6.381  0.2137 -0.2064 -0.6186
 2646SOL    HW119400   3.154   1.743   6.418 -0.2377 -0.7993 -1.8964
 2646SOL    HW219401   3.297   1.781   6.454  0.3494  1.1212 -1.1635
 2647SOL     OW19402   2.604   0.537  16.964  0.5893 -0.4010 -0.1959
 2647SOL    HW119403   2.579   0.578  16.881  0.9565 -0.5464 -0.3773
 2647SOL    HW219404   2.534   0.568  17.022  0.0772 -2.5407  0.3392
 2648SOL     OW19405   0.530   0.200   8.762 -0.6810  0.3241 -0.1691
 2648SOL    HW119406   0.527   0.235   8.851 -0.3721 -0.4315  0.1405
 2648SOL    HW219407   0.623   0.214   8.745 -1.2990  1.7873 -2.3894
 2649SOL     OW19408   4.466   1.957   7.486 -0.1271  0.0117 -0.0580
 2649SOL    HW119409   4.416   1.966   7.567 -0.6079 -1.7698 -0.1380
 2649SOL    HW219410   4.419   1.902   7.423 -0.1994 -1.1390  0.9972
 2650SOL     OW19411   4.359   3.678   5.715  0.3433  0.4459 -0.4799
 2650SOL    HW119412   4.389   3.665   5.805 -0.7397  2.0222  0.1078
 2650SOL    HW219413   4.433   3.719   5.671 -0.4835  1.3500 -1.0412
 2651SOL     OW19414   4.149   0.016   1.611 -0.4495  0.4793 -0.2540
 2651SOL    HW119415   4.229   4.688   1.625  0.0963  1.6316  0.9416
 2651SOL    HW219416   4.081   4.702   1.667  0.7181 -1.2197  0.0410
 2652SOL     OW19417   0.663   1.589   4.411 -0.4209 -0.4417  0.6941
 2652SOL    HW119418   0.568   1.596   4.419 -0.6347 -3.5328  0.6947
 2652SOL    HW219419   0.695   1.658   4.469 -0.4278 -1.5461  2.0059
 2653SOL     OW19420   0.201   3.597   0.692 -0.6238  0.1549 -0.2510
 2653SOL    HW119421   0.250   3.651   0.630  3.5384 -0.4461  2.5083
 2653SOL    HW219422   0.184   3.526   0.630  2.2373  0.1913 -1.0716
 2654SOL     OW19423   1.293   2.471  16.616  0.0005  0.0212  0.0754
 2654SOL    HW119424   1.314   2.385  16.651 -0.9762 -0.4238 -0.4637
 2654SOL    HW219425   1.371   2.484  16.561  0.6152 -2.0390  0.4847
 2655SOL     OW19426   3.954   2.120   0.594  0.4794 -0.3096 -0.1612
 2655SOL    HW119427   3.984   2.187   0.655 -1.8439  1.1091 -0.5971
 2655SOL    HW219428   4.033   2.078   0.559  2.2166  3.3886 -0.7386
 2656SOL     OW19429   2.062   0.190   2.265  0.6536 -0.2317  0.5062
 2656SOL    HW119430   2.080   0.267   2.319 -3.9727  0.9751  0.2903
 2656SOL    HW219431   2.062   0.235   2.181 -1.6654  0.4397  0.8651
 2657SOL     OW19432   1.726   3.772   0.115 -0.3243  0.0260  0.2009
 2657SOL    HW119433   1.771   3.754   0.197 -0.3471 -1.6672 -0.1516
 2657SOL    HW219434   1.642   3.750   0.155  0.1560 -3.0551 -0.4529
 2658SOL     OW19435   0.447   0.233   1.521 -0.6011 -0.5319  0.5349
 2658SOL    HW119436   0.359   0.219   1.557 -0.8759 -1.5630 -0.5779
 2658SOL    HW219437   0.488   0.150   1.544  2.5307  1.0553  0.7030
 2659SOL     OW19438   0.496   0.913  15.420 -0.1885  0.7252  0.0404
 2659SOL    HW119439   0.569   0.944  15.367 -1.3815  2.0756 -0.8061
 2659SOL    HW219440   0.506   0.963  15.501 -2.9998  0.3284  0.6427
 2660SOL     OW19441   4.189   0.038   4.160 -1.2604  0.4414 -0.1400
 2660SOL    HW119442   4.127   0.065   4.228  0.4827  2.3481  0.6674
 2660SOL    HW219443   4.153   4.674   4.142 -2.4088  1.1772 -1.3800
 2661SOL     OW19444   3.597   1.868  10.828 -0.5116 -0.4646  0.3560
 2661SOL    HW119445   3.505   1.893  10.832 -0.1350  0.9392  0.2848
 2661SOL    HW219446   3.594   1.824  10.743 -1.7450  0.2630  0.0249
 2662SOL     OW19447   1.582   4.488   9.763  0.2507  0.2826 -0.2218
 2662SOL    HW119448   1.634   4.563   9.795  3.1875 -1.9628  0.2591
 2662SOL    HW219449   1.495   4.498   9.800  0.4823  2.1022 -0.1473
 2663SOL     OW19450   3.463   0.650  11.856  0.0061  0.6105  0.3382
 2663SOL    HW119451   3.528   0.702  11.903  1.6755 -2.0174  0.9357
 2663SOL    HW219452   3.413   0.717  11.809 -2.9774 -0.8990  1.4251
 2664SOL     OW19453   2.812   0.314  16.016 -0.4209 -0.1112 -0.0684
 2664SOL    HW119454   2.750   0.335  16.086 -1.7033 -0.5297 -1.0832
 2664SOL    HW219455   2.890   0.369  16.024 -1.1913  1.0366 -0.6441
 2665SOL     OW19456   1.155   3.193   3.598  0.0529  0.0233  0.2118
 2665SOL    HW119457   1.159   3.119   3.538  0.8751 -0.2726  0.6438
 2665SOL    HW219458   1.087   3.247   3.557  0.5841 -1.0494 -2.0720
 2666SOL     OW19459   1.491   2.686  16.764 -0.1899  0.6763  0.1488
 2666SOL    HW119460   1.571   2.739  16.764 -1.5250  2.6605 -0.3379
 2666SOL    HW219461   1.457   2.707  16.678 -0.3405 -0.7900 -0.1349
 2667SOL     OW19462   3.286   1.510   9.488  0.1163  0.1556 -0.1924
 2667SOL    HW119463   3.329   1.546   9.410  1.2007  0.5310  0.5849
 2667SOL    HW219464   3.197   1.542   9.471 -0.4819 -2.2671 -1.6195
 2668SOL     OW19465   1.800   4.463  13.600  0.5138  0.1262 -0.7015
 2668SOL    HW119466   1.729   4.527  13.598 -1.5483 -2.1474 -0.4795
 2668SOL    HW219467   1.762   4.394  13.654  1.3739  1.3047  1.3693
 2669SOL     OW19468   0.760   0.996  14.971  0.1185  0.2233 -0.2925
 2669SOL    HW119469   0.847   1.014  15.005  0.3663  0.4101 -1.0293
 2669SOL    HW219470   0.773   0.911  14.929 -0.1693  0.1763 -0.2871
 2670SOL     OW19471   3.268   3.312   1.958 -0.8157 -0.1442  0.6065
 2670SOL    HW119472   3.213   3.328   1.882 -0.1683  1.9302  0.5706
 2670SOL    HW219473   3.278   3.218   1.948  0.6212  0.1529 -0.6821
 2671SOL     OW19474   4.257   1.692  10.322  0.1709 -0.3232  0.4242
 2671SOL    HW119475   4.335   1.713  10.373 -0.3027  0.5560  0.8017
 2671SOL    HW219476   4.293   1.628  10.261 -0.5072 -0.4267  0.1283
 2672SOL     OW19477   0.570   1.333   7.198 -0.3403 -0.4710  0.1045
 2672SOL    HW119478   0.485   1.371   7.220 -0.6321 -0.8462 -0.3695
 2672SOL    HW219479   0.576   1.371   7.110 -0.5183 -3.1105 -1.0619
 2673SOL     OW19480   4.282   2.160  14.092  0.0099 -0.1126  0.4319
 2673SOL    HW119481   4.260   2.146  14.184 -1.8168 -0.0320 -0.0070
 2673SOL    HW219482   4.273   2.068  14.065  0.3134 -0.4745  1.5587
 2674SOL     OW19483   0.926   4.180  11.329  0.4432 -0.5008  0.0137
 2674SOL    HW119484   0.960   4.234  11.400  0.9137  0.5232 -0.9794
 2674SOL    HW219485   0.878   4.254  11.292 -0.7686 -1.6442 -0.7041
 2675SOL     OW19486   4.342   1.128  10.818  0.1578 -0.7808 -0.2943
 2675SOL    HW119487   4.425   1.153  10.777  0.7349 -0.8329  0.8220
 2675SOL    HW219488   4.287   1.126  10.740 -0.6004 -0.7498  0.2419
 2676SOL     OW19489   1.802   3.104   9.169 -0.0829 -0.2039 -0.3282
 2676SOL    HW119490   1.895   3.109   9.145  0.5438  3.6460  2.7927
 2676SOL    HW219491   1.783   3.193   9.199  2.8979  0.7526 -1.3012
 2677SOL     OW19492   0.540   0.629   8.976  0.7265 -0.1647 -0.4878
 2677SOL    HW119493   0.452   0.626   9.014  0.0129  1.1481 -2.0375
 2677SOL    HW219494   0.539   0.722   8.955 -0.1671  0.4783  2.4056
 2678SOL     OW19495   4.167   1.396  15.947  0.4655  0.3400  0.0479
 2678SOL    HW119496   4.243   1.452  15.962 -0.7314  1.4057  2.0601
 2678SOL    HW219497   4.109   1.454  15.996 -0.2775 -0.8470  0.5671
 2679SOL     OW19498   3.093   2.077   3.216 -0.3069 -0.1597  0.3635
 2679SOL    HW119499   3.183   2.102   3.237 -0.0171 -2.9731  2.3984
 2679SOL    HW219500   3.059   2.057   3.303  1.9520 -1.2642  0.9968
 2680SOL     OW19501   1.008   2.886   9.507 -0.1848  0.1907 -0.0149
 2680SOL    HW119502   1.087   2.938   9.490  0.4460  0.1702  2.8203
 2680SOL    HW219503   0.938   2.946   9.483 -1.7553 -2.3852 -1.9241
 2681SOL     OW19504   3.584   3.737   7.896  0.5319 -0.5102 -0.5463
 2681SOL    HW119505   3.554   3.679   7.826  1.4011  0.5140 -1.7629
 2681SOL    HW219506   3.595   3.818   7.846  1.1583 -0.2672  0.0032
 2682SOL     OW19507   4.317   3.035   9.603 -0.1658 -0.0212 -0.0384
 2682SOL    HW119508   4.396   3.053   9.653 -0.6046  2.4072 -0.2500
 2682SOL    HW219509   4.309   2.939   9.605  1.7745 -0.1711  0.3872
 2683SOL     OW19510   4.307   2.213   5.745 -0.0696  0.1403  0.3794
 2683SOL    HW119511   4.347   2.194   5.660 -0.7513 -0.7331  0.2553
 2683SOL    HW219512   4.341   2.301   5.763  0.8367 -0.3621  1.0717
 2684SOL     OW19513   4.260   3.505  16.530  0.2476  0.0148 -0.0085
 2684SOL    HW119514   4.165   3.507  16.526  0.2300  1.1839  1.1139
 2684SOL    HW219515   4.269   3.544  16.443  0.2084 -0.2556 -0.1348
 2685SOL     OW19516   2.881   3.625   3.410  0.6132  0.2945 -0.1461
 2685SOL    HW119517   2.857   3.692   3.347  1.2616  1.2775  0.6532
 2685SOL    HW219518   2.832   3.663   3.483 -0.6841 -1.9797  0.1925
 2686SOL     OW19519   0.534   3.230   6.919 -0.1359 -0.4491  0.2635
 2686SOL    HW119520   0.543   3.208   6.826 -2.7346  3.3119 -0.8700
 2686SOL    HW219521   0.451   3.277   6.929  0.7314  0.8962  1.1782
 2687SOL     OW19522   0.521   1.928   6.032 -0.2619  0.4460  1.0615
 2687SOL    HW119523   0.569   1.943   6.113  0.1387  2.8139  0.3864
 2687SOL    HW219524   0.434   1.942   6.071 -0.7487 -4.0242  1.6039
 2688SOL     OW19525   1.005   3.231   2.451 -0.7602 -0.1149 -0.0870
 2688SOL    HW119526   1.096   3.251   2.428 -0.5512 -1.7991 -0.7567
 2688SOL    HW219527   0.996   3.156   2.392  0.8068  0.5372 -1.1704
 2689SOL     OW19528   3.110   3.712   3.799 -0.1981 -0.3704 -0.1775
 2689SOL    HW119529   3.116   3.619   3.775 -2.3609 -0.1796 -1.4415
 2689SOL    HW219530   3.020   3.718   3.830  0.1270 -3.4385  1.4080
 2690SOL     OW19531   3.649   3.183   3.499 -0.6933 -0.3301 -0.0403
 2690SOL    HW119532   3.644   3.167   3.594  1.5095 -0.7941 -0.0136
 2690SOL    HW219533   3.648   3.091   3.474  1.7093 -0.1767 -0.6130
 2691SOL     OW19534   2.933   0.966   2.747 -0.2663 -0.1884 -0.6048
 2691SOL    HW119535   2.983   0.979   2.666  0.2420 -0.0181 -0.2637
 2691SOL    HW219536   2.857   0.916   2.716 -0.4561  0.7005 -1.5841
 2692SOL     OW19537   1.483   3.782   8.930  0.2198  0.1727  0.6359
 2692SOL    HW119538   1.463   3.790   9.024 -0.8240 -1.5034  0.5706
 2692SOL    HW219539   1.443   3.855   8.884  2.2486  2.2098  2.1301
 2693SOL     OW19540   0.370   0.398   7.352 -0.1686  0.0448  0.0165
 2693SOL    HW119541   0.356   0.303   7.352 -1.5636  0.2440  0.0038
 2693SOL    HW219542   0.446   0.408   7.409 -0.7714 -0.9144  0.9932
 2694SOL     OW19543   3.160   3.896   3.449 -0.1214  0.2874  0.4236
 2694SOL    HW119544   3.072   3.928   3.471  0.0899 -0.0264  1.7422
 2694SOL    HW219545   3.138   3.837   3.378 -1.6627  0.5278  0.6883
 2695SOL     OW19546   4.452   1.476   9.045  0.1457  0.1639  0.3023
 2695SOL    HW119547   4.411   1.530   8.978 -0.1498 -1.3276 -0.7336
 2695SOL    HW219548   4.467   1.535   9.118 -1.0230  2.0038 -0.9413
 2696SOL     OW19549   0.619   2.254  10.299 -0.5009  0.1747  0.5192
 2696SOL    HW119550   0.711   2.230  10.301 -0.7895 -1.1247 -1.1379
 2696SOL    HW219551   0.576   2.171  10.318  1.7873 -1.4433 -1.3774
 2697SOL     OW19552   0.056   3.028  12.238 -0.1558 -0.4891  0.0662
 2697SOL    HW119553   4.692   3.067  12.247  1.8870  3.6621  1.7418
 2697SOL    HW219554   0.089   3.057  12.153 -1.5505  0.3331 -0.2017
 2698SOL     OW19555   1.424   2.209   7.828  0.4251 -0.9339  0.2111
 2698SOL    HW119556   1.345   2.156   7.817 -0.0602 -0.9541  3.7246
 2698SOL    HW219557   1.445   2.187   7.919 -1.4415 -1.3319  0.5529
 2699SOL     OW19558   0.440   2.158   0.205  0.0855  0.1094 -0.3502
 2699SOL    HW119559   0.442   2.254   0.200  4.0271  0.0690  0.7994
 2699SOL    HW219560   0.366   2.154   0.265 -0.3743 -1.6593 -1.0325
 2700SOL     OW19561   0.754   1.791   6.462 -0.2473  0.1499  0.4844
 2700SOL    HW119562   0.747   1.698   6.440 -0.8746 -0.3210  2.6646
 2700SOL    HW219563   0.835   1.795   6.513  0.2942  0.0714 -0.3654
 2701SOL     OW19564   2.303   1.674   5.528 -0.2820 -0.1711 -0.0968
 2701SOL    HW119565   2.229   1.615   5.522 -0.1483 -0.4737  1.3098
 2701SOL    HW219566   2.283   1.727   5.450 -0.1908  1.4445  0.9699
 2702SOL     OW19567   4.285   2.757  15.845 -0.1870  0.6804 -0.1439
 2702SOL    HW119568   4.214   2.766  15.909  2.1208  0.6865  2.3701
 2702SOL    HW219569   4.294   2.848  15.818  0.8803  1.1929  1.9698
 2703SOL     OW19570   2.903   1.266   0.066 -0.0701  0.0078  0.0849
 2703SOL    HW119571   2.962   1.228   0.132  0.0217  0.6011  0.3388
 2703SOL    HW219572   2.943   1.261  17.672  1.3141 -1.2102  0.7833
 2704SOL     OW19573   3.786   2.193   5.263 -0.9587  0.0777  0.1779
 2704SOL    HW119574   3.818   2.210   5.352  2.6765  0.3360 -1.1706
 2704SOL    HW219575   3.863   2.218   5.211 -2.0083 -2.1165 -2.4098
 2705SOL     OW19576   2.481   3.205   2.897  0.2086  0.1314  0.0965
 2705SOL    HW119577   2.501   3.124   2.944  1.4980 -1.7537 -3.6555
 2705SOL    HW219578   2.385   3.210   2.896  0.2173  0.9197  3.7194
 2706SOL     OW19579   0.081   3.285  15.838  0.1414 -0.2373  0.1005
 2706SOL    HW119580   0.005   3.318  15.886  0.2314 -1.0437  0.8105
 2706SOL    HW219581   0.077   3.191  15.859  2.1274 -0.3625 -0.0813
 2707SOL     OW19582   2.576   3.815   1.675 -0.1568  0.6820  0.4615
 2707SOL    HW119583   2.549   3.759   1.748 -0.4447  1.0873  0.6626
 2707SOL    HW219584   2.536   3.767   1.602 -1.6777  0.6666  1.3164
 2708SOL     OW19585   3.371   2.078   3.263 -0.2716 -0.1762  0.1095
 2708SOL    HW119586   3.427   2.000   3.269 -0.3089 -0.3272 -1.5251
 2708SOL    HW219587   3.409   2.118   3.184 -1.7398  1.3626  0.1850
 2709SOL     OW19588   0.318   4.659   4.040  0.5368 -0.6187  0.0456
 2709SOL    HW119589   0.333   4.645   3.947 -4.6535  1.0866 -1.0598
 2709SOL    HW219590   0.228   4.628   4.050 -0.9439  3.7920  0.3576
 2710SOL     OW19591   0.877   1.113   4.079  0.1057 -0.1849  0.1510
 2710SOL    HW119592   0.821   1.191   4.088 -1.5413 -1.2904 -0.4317
 2710SOL    HW219593   0.845   1.070   4.159 -2.8958  1.7767  0.0315
 2711SOL     OW19594   2.265   3.800   9.583 -0.0425  0.8583 -0.0633
 2711SOL    HW119595   2.243   3.891   9.599  0.4317  1.0573 -0.5137
 2711SOL    HW219596   2.186   3.780   9.532  0.3933  1.4411 -0.9663
 2712SOL     OW19597   4.160   3.943   4.750 -0.6278  0.4775  0.0478
 2712SOL    HW119598   4.211   3.885   4.693  0.0267 -0.2036  1.3329
 2712SOL    HW219599   4.220   3.975   4.817  0.1023  0.3365 -0.5315
 2713SOL     OW19600   3.893   1.777   7.284 -0.1099 -0.1829 -0.2230
 2713SOL    HW119601   3.976   1.794   7.328  0.8896 -0.2783 -2.0772
 2713SOL    HW219602   3.923   1.787   7.194  0.0099  0.7773 -0.0755
 2714SOL     OW19603   2.389   0.141  16.513 -0.4912 -0.0693 -0.6808
 2714SOL    HW119604   2.301   0.160  16.547 -0.8463 -0.0711 -1.5851
 2714SOL    HW219605   2.363   0.078  16.446 -2.5347  2.7393 -2.5270
 2715SOL     OW19606   1.183   2.737  16.716  0.5116  0.6914 -0.0388
 2715SOL    HW119607   1.223   2.671  16.661  0.5335  1.5355 -1.0435
 2715SOL    HW219608   1.134   2.679  16.774  2.0295  1.6634  2.2393
 2716SOL     OW19609   0.928   4.497  15.835  0.4432  0.6638  0.4235
 2716SOL    HW119610   0.890   4.430  15.780 -0.5766  1.4007  0.2308
 2716SOL    HW219611   0.998   4.450  15.881 -0.2566 -0.6590  0.1227
 2717SOL     OW19612   4.311   1.593   2.518  0.1028 -0.0044  0.4418
 2717SOL    HW119613   4.390   1.556   2.478 -0.9404  0.0858 -1.6984
 2717SOL    HW219614   4.244   1.565   2.456  1.3074  0.9968 -1.3124
 2718SOL     OW19615   3.242   2.997   1.298  0.8036  0.4391  0.0475
 2718SOL    HW119616   3.173   3.028   1.355  0.5723  0.8267 -0.4393
 2718SOL    HW219617   3.278   3.081   1.267 -1.1879  1.7933  1.4354
 2719SOL     OW19618   1.637   1.613   8.766  0.2396  0.7280  0.7504
 2719SOL    HW119619   1.585   1.580   8.840  1.2156 -0.9531  0.6863
 2719SOL    HW219620   1.614   1.706   8.764  0.0120  0.6799  0.9783
 2720SOL     OW19621   4.370   2.357   6.990  0.0509  0.2187 -0.1195
 2720SOL    HW119622   4.320   2.281   7.019  1.5897 -0.7295  0.0472
 2720SOL    HW219623   4.350   2.416   7.063 -0.4609  1.0153 -0.9167
 2721SOL     OW19624   2.468   4.455   8.512  0.0073  0.3895  0.2725
 2721SOL    HW119625   2.562   4.451   8.525  0.0207 -0.2556 -0.0070
 2721SOL    HW219626   2.443   4.541   8.545  0.4283  0.1569  1.1960
 2722SOL     OW19627   1.945   3.125  15.900  0.6299  0.4266  0.1172
 2722SOL    HW119628   2.014   3.190  15.917  0.1937  0.7249  0.7108
 2722SOL    HW219629   2.007   3.054  15.883 -1.4466 -1.0442 -1.3646
 2723SOL     OW19630   3.471   1.024   3.026  0.1931 -0.4712 -0.6426
 2723SOL    HW119631   3.500   0.941   3.064  2.0111 -0.8657 -2.8597
 2723SOL    HW219632   3.435   1.000   2.941  1.5836 -0.8568 -1.1266
 2724SOL     OW19633   0.602   0.051  12.190 -0.5875 -0.3064  0.0489
 2724SOL    HW119634   0.626   0.003  12.269  0.7993 -0.1081 -0.2544
 2724SOL    HW219635   0.690   0.063  12.155 -0.1041 -0.7645  1.0981
 2725SOL     OW19636   2.267   1.823   6.228 -0.1297 -0.0876  0.6843
 2725SOL    HW119637   2.345   1.785   6.267  0.8430  0.1982 -1.0009
 2725SOL    HW219638   2.310   1.874   6.159 -1.3737 -1.7180 -1.2836
 2726SOL     OW19639   2.081   0.500   1.594  0.1593  0.2915  0.1426
 2726SOL    HW119640   2.136   0.552   1.652 -1.0746 -1.4460  2.8825
 2726SOL    HW219641   2.135   0.423   1.574 -0.9516 -0.3109 -0.5359
 2727SOL     OW19642   1.117   4.360   4.289  0.1611  0.2557 -0.1022
 2727SOL    HW119643   1.168   4.426   4.335 -1.0242 -0.2217  1.8944
 2727SOL    HW219644   1.181   4.305   4.244 -1.8226 -2.1185 -0.0329
 2728SOL     OW19645   2.942   0.800  11.659  0.3848 -0.3334  0.4512
 2728SOL    HW119646   2.878   0.838  11.598  0.1640  0.8426  1.4051
 2728SOL    HW219647   2.917   0.843  11.741 -3.3591  0.1267 -0.9211
 2729SOL     OW19648   1.189   4.701   8.662 -0.0319 -0.0092 -0.1239
 2729SOL    HW119649   1.174   4.693   8.568  0.6857 -1.7299 -0.0948
 2729SOL    HW219650   1.113   4.654   8.696  0.3546 -1.4603 -1.2887
 2730SOL     OW19651   1.285   2.386   2.382  0.9197  0.1675  0.4011
 2730SOL    HW119652   1.331   2.329   2.443  0.4472 -0.7102 -0.0640
 2730SOL    HW219653   1.349   2.411   2.315 -0.1249  1.5566 -0.0945
 2731SOL     OW19654   4.558   3.174  12.321  0.0527  0.5434 -0.0642
 2731SOL    HW119655   4.534   3.114  12.392  0.8330  0.1116 -0.1682
 2731SOL    HW219656   4.479   3.171  12.266 -0.7907 -3.9771  1.4054
 2732SOL     OW19657   2.155   2.017   7.539  0.1961  0.3689  0.3374
 2732SOL    HW119658   2.168   1.923   7.555  3.6399  0.6931 -0.5793
 2732SOL    HW219659   2.095   2.041   7.610 -0.9287 -0.1365 -0.4375
 2733SOL     OW19660   0.856   0.577  14.280 -0.4644 -0.2240  0.3235
 2733SOL    HW119661   0.777   0.625  14.306  1.4604  3.4008 -0.4979
 2733SOL    HW219662   0.919   0.644  14.306  0.0032 -0.4938 -0.1330
 2734SOL     OW19663   1.299   0.970   9.849 -0.2736 -1.1371 -0.3303
 2734SOL    HW119664   1.368   0.972   9.916 -0.0947  1.7762 -0.5987
 2734SOL    HW219665   1.335   1.045   9.801 -1.4888 -2.1375 -2.7899
 2735SOL     OW19666   2.051   1.441   4.984 -0.4416  0.1884  0.5325
 2735SOL    HW119667   2.024   1.415   5.072  0.9212  1.5509  1.3552
 2735SOL    HW219668   2.138   1.474   5.007  0.0291 -0.9913  0.4485
 2736SOL     OW19669   4.483   1.007   9.505  0.1422  0.4479 -0.5023
 2736SOL    HW119670   4.429   1.086   9.511 -2.3368 -1.2218 -0.5276
 2736SOL    HW219671   4.523   1.018   9.591  2.1613 -0.4473 -1.3198
 2737SOL     OW19672   1.478   1.062   5.546 -0.0198  0.1365  0.2184
 2737SOL    HW119673   1.524   1.026   5.623  0.5708  1.2164  0.3654
 2737SOL    HW219674   1.402   1.097   5.592  0.3829  0.9494  0.2585
 2738SOL     OW19675   1.788   2.813  11.745  0.2467  0.3567 -0.2136
 2738SOL    HW119676   1.778   2.907  11.762  2.2767  0.6940 -0.8263
 2738SOL    HW219677   1.882   2.797  11.749  0.2803  1.2120  2.5806
 2739SOL     OW19678   2.100   2.694   7.610 -0.3007  0.2305 -0.0971
 2739SOL    HW119679   2.019   2.661   7.649  1.5589 -2.2925  1.6389
 2739SOL    HW219680   2.108   2.634   7.536 -1.4574  0.5482 -0.4641
 2740SOL     OW19681   4.001   2.559   4.972 -0.0696  0.2034 -0.2136
 2740SOL    HW119682   3.938   2.585   5.039 -0.8865 -3.6198  0.5440
 2740SOL    HW219683   3.948   2.529   4.899  2.4169 -1.4799 -1.3254
 2741SOL     OW19684   1.432   4.497  14.796 -0.5214 -0.2926 -0.1027
 2741SOL    HW119685   1.501   4.441  14.760 -0.0919  0.2960 -0.2033
 2741SOL    HW219686   1.435   4.559  14.724  3.1367 -2.4361 -1.8183
 2742SOL     OW19687   3.193   3.100   9.422  0.0226  0.3550  0.0288
 2742SOL    HW119688   3.284   3.129   9.421  0.2355 -0.3460 -0.7852
 2742SOL    HW219689   3.177   3.108   9.328 -2.9678 -0.7111  0.4493
 2743SOL     OW19690   1.018   3.397  14.566 -0.1366  0.4068  0.9847
 2743SOL    HW119691   0.944   3.416  14.623 -0.5604  1.2482  0.1652
 2743SOL    HW219692   1.048   3.319  14.612 -0.2783 -0.2773 -0.0921
 2744SOL     OW19693   1.961   2.464   6.667 -0.1929 -0.3351 -0.6234
 2744SOL    HW119694   2.003   2.440   6.584  0.3355  1.4003 -0.8628
 2744SOL    HW219695   2.003   2.410   6.735  0.0391 -1.1573 -1.4147
 2745SOL     OW19696   4.483   1.442   2.917  0.0737 -0.5290  0.5108
 2745SOL    HW119697   4.420   1.394   2.971 -0.4333  1.4115  1.6352
 2745SOL    HW219698   4.493   1.376   2.848 -2.8958  2.2196 -2.5896
 2746SOL     OW19699   1.276   2.457   7.333  0.1336  0.1040 -0.5113
 2746SOL    HW119700   1.270   2.481   7.426 -2.3021  0.4077 -0.7374
 2746SOL    HW219701   1.300   2.365   7.344 -0.2410 -0.1920 -2.2019
 2747SOL     OW19702   4.442   3.968   4.936  0.5140  0.4399  0.1305
 2747SOL    HW119703   4.517   3.966   4.877  1.2324 -1.7000  1.1194
 2747SOL    HW219704   4.465   3.899   4.998  0.6610 -0.3162 -0.7787
 2748SOL     OW19705   2.845   0.930  11.867 -0.1893  0.1822  0.1118
 2748SOL    HW119706   2.908   1.001  11.859 -0.1692  0.4725  2.6883
 2748SOL    HW219707   2.771   0.977  11.905  1.0328  1.3709  1.0331
 2749SOL     OW19708   0.328   2.167   8.875  1.3154  0.3991 -0.2755
 2749SOL    HW119709   0.304   2.258   8.857  0.3302 -0.0562 -1.2584
 2749SOL    HW219710   0.369   2.166   8.961 -2.0647  0.1678  1.3360
 2750SOL     OW19711   1.859   4.534   2.651 -0.4878 -0.4942  0.1818
 2750SOL    HW119712   1.895   4.448   2.626 -0.3118 -0.1196 -0.8904
 2750SOL    HW219713   1.820   4.574   2.573 -1.1032  1.0383  1.2895
 2751SOL     OW19714   0.819   0.694   9.143 -0.3847  0.4191 -0.5030
 2751SOL    HW119715   0.818   0.709   9.237  1.8838 -0.7723 -0.2816
 2751SOL    HW219716   0.755   0.755   9.107 -0.4337  0.1891 -0.8102
 2752SOL     OW19717   3.875   0.967   6.417  0.0889  0.0351  0.6095
 2752SOL    HW119718   3.833   0.897   6.467  1.7861 -2.4441 -1.4569
 2752SOL    HW219719   3.968   0.949   6.428  0.5295  2.4276  0.7938
 2753SOL     OW19720   1.246   2.623   2.630 -0.5276 -0.1498  0.9775
 2753SOL    HW119721   1.162   2.663   2.652 -0.1564  0.6802  0.8871
 2753SOL    HW219722   1.314   2.691   2.629 -1.9091  1.2155 -0.2527
 2754SOL     OW19723   4.075   4.334   2.371 -0.6932  0.4576 -0.2670
 2754SOL    HW119724   4.114   4.248   2.386 -0.6198  0.3652 -0.9970
 2754SOL    HW219725   4.031   4.346   2.455 -1.5669  1.2185 -0.8298
 2755SOL     OW19726   1.215   4.145   3.551 -0.0081 -0.1824 -0.3416
 2755SOL    HW119727   1.215   4.177   3.641  2.4659  0.0857 -0.4447
 2755SOL    HW219728   1.308   4.125   3.541  0.1184 -0.2744  1.0028
 2756SOL     OW19729   0.846   2.533   4.813  0.1362 -0.0210 -0.2250
 2756SOL    HW119730   0.929   2.488   4.801  0.2151  0.5528 -1.8655
 2756SOL    HW219731   0.792   2.454   4.802  0.3347  0.0879 -1.9643
 2757SOL     OW19732   2.057   0.414   8.325  0.7539 -0.6565 -0.0249
 2757SOL    HW119733   2.140   0.369   8.310  0.0496 -1.8895 -0.1888
 2757SOL    HW219734   2.098   0.471   8.390 -0.9261 -1.6316  1.9017
 2758SOL     OW19735   0.932   2.662   8.767 -0.1533 -0.2701 -0.3767
 2758SOL    HW119736   1.020   2.686   8.796  0.5289 -0.5942 -2.1665
 2758SOL    HW219737   0.885   2.696   8.843  2.1436  0.6457  0.6324
 2759SOL     OW19738   2.530   1.442  10.924  0.6662  0.0958  0.3704
 2759SOL    HW119739   2.610   1.397  10.898  2.0183  3.6620 -1.6116
 2759SOL    HW219740   2.563   1.510  10.983 -0.4826  0.5622  0.4877
 2760SOL     OW19741   4.654   1.234   5.781  0.0981  0.4031  0.3559
 2760SOL    HW119742   4.679   1.147   5.812 -1.3206 -1.2546 -3.1244
 2760SOL    HW219743   0.011   1.271   5.745 -0.5468  0.2825 -1.2228
 2761SOL     OW19744   2.651   3.257  13.131  0.5531 -0.5005  0.8695
 2761SOL    HW119745   2.579   3.194  13.124  0.3269 -0.2630  1.0160
 2761SOL    HW219746   2.722   3.206  13.093  0.2260 -0.9348  0.8354
 2762SOL     OW19747   0.350   2.960   5.932  0.1668 -0.1131 -0.0354
 2762SOL    HW119748   0.307   2.911   5.863 -1.4145  1.0823  0.1025
 2762SOL    HW219749   0.429   2.906   5.938 -0.3866 -0.8323  0.8302
 2763SOL     OW19750   1.137   3.394   4.824  0.1000  0.0653  0.8793
 2763SOL    HW119751   1.212   3.398   4.884  1.0869  0.3535 -0.3707
 2763SOL    HW219752   1.190   3.383   4.745  2.0683 -1.9637  2.4653
 2764SOL     OW19753   1.971   1.453   7.253  0.1543  0.3973  0.2546
 2764SOL    HW119754   1.884   1.457   7.212  0.4213 -3.1015 -0.6525
 2764SOL    HW219755   2.012   1.509   7.188 -0.6693 -1.4943 -1.8746
 2765SOL     OW19756   2.349   0.233  13.012 -0.1209 -0.3200  0.2950
 2765SOL    HW119757   2.422   0.271  13.061 -1.5833  3.0155 -0.0826
 2765SOL    HW219758   2.357   0.271  12.925  1.3093 -1.5470 -0.0879
 2766SOL     OW19759   2.171   2.891   9.139 -0.0310 -0.3555 -0.2317
 2766SOL    HW119760   2.143   2.874   9.229  0.6923 -0.6234 -0.0528
 2766SOL    HW219761   2.150   2.813   9.088  1.2676 -1.2981  0.6555
 2767SOL     OW19762   0.875   2.294   2.528 -0.3550 -0.5306 -0.3337
 2767SOL    HW119763   0.956   2.337   2.554  0.7961 -3.5867  1.2274
 2767SOL    HW219764   0.855   2.332   2.442 -1.0460 -1.6789 -0.6851
 2768SOL     OW19765   0.766   3.414   1.304 -0.1703  0.0100 -0.5034
 2768SOL    HW119766   0.782   3.466   1.382 -2.7576 -2.2845  1.5320
 2768SOL    HW219767   0.804   3.467   1.233  1.6709 -0.4202  0.1604
 2769SOL     OW19768   2.741   1.568  14.414 -0.0712  0.2246 -0.4601
 2769SOL    HW119769   2.707   1.480  14.427  1.0928  0.0314  1.3204
 2769SOL    HW219770   2.808   1.557  14.483  0.3317  0.5102 -0.8059
 2770SOL     OW19771   0.079   0.868   6.373 -0.1929 -0.2330 -0.1522
 2770SOL    HW119772   0.123   0.950   6.350 -2.2008  0.5742 -1.0972
 2770SOL    HW219773   0.019   0.906   6.437  0.0672 -1.1774  0.6524
 2771SOL     OW19774   4.615   1.706   8.640 -0.0931  0.4732  0.3210
 2771SOL    HW119775   4.643   1.621   8.674 -0.2307  1.0133  1.7632
 2771SOL    HW219776   4.521   1.688   8.631  0.1592 -1.0497  0.7008
 2772SOL     OW19777   4.323   4.372   9.546 -0.0602 -0.2125 -0.7510
 2772SOL    HW119778   4.241   4.411   9.579 -0.7725 -1.4645 -1.0620
 2772SOL    HW219779   4.313   4.278   9.560  2.0654 -0.6421 -2.1195
 2773SOL     OW19780   4.181   2.837   2.365  0.5163  1.1369 -0.0378
 2773SOL    HW119781   4.193   2.927   2.395  0.5930  1.5446 -1.2652
 2773SOL    HW219782   4.113   2.847   2.299  0.7864 -2.4504 -0.8538
 2774SOL     OW19783   1.433   4.654  13.002  0.1609 -0.2644  0.0661
 2774SOL    HW119784   1.462   0.019  12.977  0.8616 -0.8633 -1.2187
 2774SOL    HW219785   1.346   4.670  13.040  0.3547 -0.1447  0.4500
 2775SOL     OW19786   1.779   2.029   5.419  0.0394  0.3527 -0.5202
 2775SOL    HW119787   1.770   1.936   5.398 -1.5454  0.1968  0.8306
 2775SOL    HW219788   1.827   2.058   5.341  2.6907  1.4170  1.5355
 2776SOL     OW19789   2.843   3.785   4.492  0.1574  0.7274 -0.2458
 2776SOL    HW119790   2.763   3.819   4.533  1.7881  0.6397  3.0590
 2776SOL    HW219791   2.848   3.702   4.540  0.7803  1.2638  0.6125
 2777SOL     OW19792   0.492   4.324   7.348 -0.2467 -0.0593  0.1802
 2777SOL    HW119793   0.532   4.403   7.311  2.8219 -2.3412 -1.4033
 2777SOL    HW219794   0.411   4.317   7.298  0.0370  3.5038 -0.8174
 2778SOL     OW19795   3.766   2.850  13.192 -0.4098 -0.2325 -0.2016
 2778SOL    HW119796   3.787   2.905  13.116 -0.0870  1.4224  1.0754
 2778SOL    HW219797   3.713   2.781  13.151 -1.7388  1.2170 -0.9198
 2779SOL     OW19798   2.945   4.121   2.817  0.1391 -0.0389 -0.0854
 2779SOL    HW119799   2.905   4.038   2.842  0.6409 -0.4515 -0.6554
 2779SOL    HW219800   2.933   4.125   2.722 -1.6297 -0.2786  0.1330
 2780SOL     OW19801   4.035   2.894   4.383  0.3572  0.2614  0.0823
 2780SOL    HW119802   3.949   2.852   4.389  0.3848  0.3386  0.9946
 2780SOL    HW219803   4.005   2.984   4.393 -2.3589 -0.2566 -3.3908
 2781SOL     OW19804   1.922   1.254   9.804  0.2178  0.1182  0.6230
 2781SOL    HW119805   1.947   1.319   9.870 -0.1027  3.7319 -2.7666
 2781SOL    HW219806   2.003   1.204   9.803  0.5564  0.6660  0.3429
 2782SOL     OW19807   4.159   0.884   9.537 -0.3261  0.3954  0.2751
 2782SOL    HW119808   4.122   0.971   9.550 -0.2783  0.0940  2.3744
 2782SOL    HW219809   4.243   0.912   9.502 -0.6602  1.0876  0.0239
 2783SOL     OW19810   3.909   2.545   9.884  0.1860  0.7087  0.6743
 2783SOL    HW119811   3.920   2.597   9.804  2.8286 -1.1304 -0.2024
 2783SOL    HW219812   3.996   2.557   9.923 -0.8173  2.2398  2.4010
 2784SOL     OW19813   1.957   3.849   2.506  0.2176  0.5550  0.7397
 2784SOL    HW119814   1.867   3.875   2.489 -0.4973 -2.6090 -0.2639
 2784SOL    HW219815   1.934   3.806   2.588  1.2220 -0.5017  0.4831
 2785SOL     OW19816   4.216   0.904   3.151  0.1239  0.0644 -0.1122
 2785SOL    HW119817   4.176   0.842   3.090  1.9532  0.8556 -2.1120
 2785SOL    HW219818   4.291   0.936   3.101 -0.3246  1.7267  0.2899
 2786SOL     OW19819   3.395   2.094  10.655  0.1547  0.4869  0.2213
 2786SOL    HW119820   3.396   2.139  10.739  0.0728  0.1729  0.3885
 2786SOL    HW219821   3.336   2.022  10.676  0.2736  0.2974 -0.0947
 2787SOL     OW19822   1.903   3.499   4.756 -0.3348  0.3932  0.0435
 2787SOL    HW119823   1.831   3.442   4.783  1.0767 -1.0553  0.7398
 2787SOL    HW219824   1.971   3.456   4.808 -2.9815 -1.6407  1.8503
 2788SOL     OW19825   4.130   1.724   2.989  0.6749 -0.1969 -0.0431
 2788SOL    HW119826   4.169   1.683   2.912 -2.5146  1.4834 -2.5407
 2788SOL    HW219827   4.155   1.814   2.967 -1.6071  0.1610 -1.2443
 2789SOL     OW19828   2.420   2.344   2.931 -0.4235  0.1359 -0.0101
 2789SOL    HW119829   2.410   2.285   3.006 -0.6254 -1.2073 -1.0995
 2789SOL    HW219830   2.402   2.282   2.860 -1.7949 -1.4341  1.6865
 2790SOL     OW19831   3.514   0.149   2.352  0.1354  0.0158  0.3300
 2790SOL    HW119832   3.547   0.083   2.412  0.2471 -0.2840 -0.0560
 2790SOL    HW219833   3.519   0.219   2.416 -0.8565 -1.3803  1.9278
 2791SOL     OW19834   3.764   3.435   3.488 -0.1249  0.4091 -0.1021
 2791SOL    HW119835   3.778   3.431   3.394  1.1638  1.8028  0.0239
 2791SOL    HW219836   3.707   3.360   3.505 -0.7362  1.3096  1.7760
 2792SOL     OW19837   1.580   4.718  14.265  0.2968  0.6486  0.3528
 2792SOL    HW119838   1.485   4.713  14.261  0.3556  0.6500 -0.9224
 2792SOL    HW219839   1.605   4.637  14.220  0.2476  1.8547 -1.8501
 2793SOL     OW19840   1.971   0.038  13.649 -0.1472 -0.5301  0.2532
 2793SOL    HW119841   2.012   4.676  13.630  1.1508  0.2239 -0.2727
 2793SOL    HW219842   1.903   0.010  13.710 -0.6264  1.9238  0.8435
 2794SOL     OW19843   2.232   1.682   2.706  0.1363  0.1184 -0.0881
 2794SOL    HW119844   2.281   1.678   2.788  0.4651 -0.9409 -0.3357
 2794SOL    HW219845   2.149   1.641   2.732  0.0335  0.6717  0.4549
 2795SOL     OW19846   2.986   0.036  17.143  0.2686 -0.1766 -0.7140
 2795SOL    HW119847   3.078   0.007  17.144  0.0273 -0.9535 -1.6987
 2795SOL    HW219848   2.993   0.108  17.080 -4.5281  0.9450  0.0641
 2796SOL     OW19849   3.485   1.071   9.008 -0.0916  0.1895  0.1011
 2796SOL    HW119850   3.464   1.030   9.092 -1.9209 -3.1870 -1.9621
 2796SOL    HW219851   3.536   0.996   8.978  2.3547  1.4168  1.2854
 2797SOL     OW19852   1.321   3.045   5.089 -0.5320  0.3842  0.0480
 2797SOL    HW119853   1.337   3.027   4.997  2.4256  2.4043  0.1693
 2797SOL    HW219854   1.410   3.033   5.123 -0.6199 -0.0934  0.1165
 2798SOL     OW19855   0.082   3.687  10.373  0.4643  0.1682  0.1162
 2798SOL    HW119856   0.094   3.610  10.428  1.3457  0.1612 -0.0847
 2798SOL    HW219857   4.711   3.705  10.380  0.5037  0.5682 -0.4251
 2799SOL     OW19858   2.096   0.485   2.696 -0.4297  0.1406 -0.7795
 2799SOL    HW119859   2.168   0.448   2.748 -0.5701 -0.4395 -0.9892
 2799SOL    HW219860   2.087   0.433   2.616  1.5549 -0.7303 -0.4439
 2800SOL     OW19861   4.685   2.347   2.941 -0.3153  0.3064 -0.0433
 2800SOL    HW119862   0.056   2.349   2.920 -0.5993  3.5662 -0.9675
 2800SOL    HW219863   4.658   2.268   2.894  0.6244 -0.7466  1.1817
 2801SOL     OW19864   0.207   2.696   6.006  0.3820 -0.4197 -0.2113
 2801SOL    HW119865   0.163   2.651   5.933  1.4958 -0.8875 -0.5952
 2801SOL    HW219866   0.217   2.785   5.972 -1.3826 -0.3258 -0.4667
 2802SOL     OW19867   0.206   2.745   7.733  0.4413  0.5088 -0.3735
 2802SOL    HW119868   0.132   2.786   7.779  0.7059  0.9480 -0.3350
 2802SOL    HW219869   0.158   2.711   7.658 -0.4945 -0.0069  0.4558
 2803SOL     OW19870   3.351   0.612   6.080  0.2190  0.8330 -0.0194
 2803SOL    HW119871   3.335   0.635   5.988  0.7331  2.7212  0.3707
 2803SOL    HW219872   3.321   0.689   6.128 -1.8012 -1.2915  2.1064
 2804SOL     OW19873   2.018   4.135   8.047 -0.3477  0.1038 -0.1724
 2804SOL    HW119874   2.075   4.096   8.114  0.9259  1.8945 -0.2156
 2804SOL    HW219875   2.042   4.225   8.067 -0.6353 -0.0014  0.6423
 2805SOL     OW19876   4.127   1.841   1.811 -0.2687 -0.1039 -0.0810
 2805SOL    HW119877   4.095   1.927   1.839 -0.8057  0.3457 -2.0357
 2805SOL    HW219878   4.046   1.798   1.786 -0.4899  1.0969 -1.4420
 2806SOL     OW19879   4.186   1.232   6.045 -0.3996  0.1224  0.1042
 2806SOL    HW119880   4.280   1.227   6.031 -0.3083  3.7083 -0.4407
 2806SOL    HW219881   4.177   1.314   6.094  1.0439  0.6075 -0.4429
 2807SOL     OW19882   0.826   2.768   4.477 -0.6690 -0.1759  0.0445
 2807SOL    HW119883   0.739   2.772   4.436 -0.9292  2.2785  0.8559
 2807SOL    HW219884   0.830   2.857   4.511 -1.1014  0.4572 -1.5231
 2808SOL     OW19885   1.306   0.442   2.785  0.5180  0.2077  0.1581
 2808SOL    HW119886   1.357   0.394   2.720  1.1955  0.0104  0.8373
 2808SOL    HW219887   1.298   0.379   2.857 -3.1073  1.7416  1.0974
 2809SOL     OW19888   3.218   0.237   8.030  0.0691  0.0598  0.1425
 2809SOL    HW119889   3.276   0.212   8.102 -1.7777 -0.2312  1.5274
 2809SOL    HW219890   3.138   0.196   8.064  1.3737 -1.5793  1.2447
 2810SOL     OW19891   3.600   4.013   2.569  0.0039  0.2426  0.5806
 2810SOL    HW119892   3.632   3.987   2.483  0.3811  0.4472  0.6582
 2810SOL    HW219893   3.522   3.958   2.573 -0.5239  0.9234 -0.6184
 2811SOL     OW19894   0.747   3.014  10.912  0.0430 -0.0805  0.8307
 2811SOL    HW119895   0.688   3.006  10.987 -0.7936  0.4794  0.2504
 2811SOL    HW219896   0.709   2.950  10.852  1.0236  1.2212 -1.1977
 2812SOL     OW19897   0.101   3.846   9.504 -0.3616 -0.4680  0.1807
 2812SOL    HW119898   0.040   3.774   9.490 -2.4471  1.5789 -1.1346
 2812SOL    HW219899   0.057   3.923   9.539  0.5407 -0.2842  0.9153
 2813SOL     OW19900   1.974   1.729   4.349 -0.0401  0.0979  0.2309
 2813SOL    HW119901   2.001   1.715   4.258 -0.8807 -0.4109  0.0613
 2813SOL    HW219902   1.959   1.638   4.376  2.3966 -0.0003  1.2187
 2814SOL     OW19903   2.092   2.899   2.963  0.1101 -0.2438  0.1266
 2814SOL    HW119904   2.173   2.913   2.914  0.1007  1.3764  0.5409
 2814SOL    HW219905   2.118   2.926   3.051  0.5833 -2.3672  0.6284
 2815SOL     OW19906   0.459   1.949   5.508  0.7254  0.7302 -0.0367
 2815SOL    HW119907   0.512   1.928   5.585  2.3288 -1.2027 -1.6673
 2815SOL    HW219908   0.434   2.041   5.513 -2.1331 -0.1013  0.9133
 2816SOL     OW19909   1.160   0.047   6.923  0.3586  0.5721 -0.4040
 2816SOL    HW119910   1.091   4.704   6.928 -0.1731  1.2807  1.6404
 2816SOL    HW219911   1.133   0.103   6.851 -0.9529  0.0115 -0.3521
 2817SOL     OW19912   2.541   3.800   8.133  0.2569  0.1080  0.6177
 2817SOL    HW119913   2.543   3.828   8.042  0.5522 -2.1236 -0.0644
 2817SOL    HW219914   2.600   3.726   8.119 -0.3350  0.3590 -3.1773
 2818SOL     OW19915   3.633   0.470   7.050 -0.0978  0.2837  0.2279
 2818SOL    HW119916   3.719   0.428   7.051  0.0047  0.4027 -1.8506
 2818SOL    HW219917   3.587   0.395   7.012  0.9509 -0.6255  0.7626
 2819SOL     OW19918   3.866   0.152   3.253 -0.0250  0.2632 -0.3792
 2819SOL    HW119919   3.787   0.162   3.200 -0.7294 -4.0342 -0.1358
 2819SOL    HW219920   3.893   0.069   3.213  1.6063  1.1264 -1.0561
 2820SOL     OW19921   4.605   1.686   7.342  0.5244 -0.4241  0.0363
 2820SOL    HW119922   4.520   1.647   7.322  0.8092 -1.1394  0.2232
 2820SOL    HW219923   4.624   1.729   7.259  0.2093  1.4665  0.9346
 2821SOL     OW19924   3.278   1.931   8.962  0.1785 -0.5178 -0.0045
 2821SOL    HW119925   3.361   1.907   9.003  0.0795 -0.4740  0.2210
 2821SOL    HW219926   3.245   1.855   8.914  0.2763 -0.4383 -0.1971
 2822SOL     OW19927   2.630   2.047   6.633  0.3115 -0.2602 -0.2213
 2822SOL    HW119928   2.589   2.073   6.715 -0.2679  0.9122 -0.8869
 2822SOL    HW219929   2.676   2.128   6.610 -1.3568  0.9999  0.9503
 2823SOL     OW19930   2.190   3.445   5.704 -0.0651  0.5822 -0.2068
 2823SOL    HW119931   2.274   3.461   5.748  0.5768 -1.0568 -0.8317
 2823SOL    HW219932   2.193   3.350   5.714  0.9765  0.6954  0.5601
 2824SOL     OW19933   1.839   3.461   9.828  0.7403  0.4902  0.1594
 2824SOL    HW119934   1.752   3.423   9.815  0.2807  1.3258  0.7964
 2824SOL    HW219935   1.888   3.391   9.872  0.5841  1.1167  1.3439
 2825SOL     OW19936   4.689   2.504   1.854 -0.7125  0.0756  0.0159
 2825SOL    HW119937   4.650   2.591   1.852  1.2788  0.9804  0.0252
 2825SOL    HW219938   4.662   2.479   1.766  1.8499  0.2037 -0.8196
 2826SOL     OW19939   1.610   0.209  14.445 -0.3152 -0.2901  0.0316
 2826SOL    HW119940   1.546   0.263  14.397 -1.1029  0.6914  2.1725
 2826SOL    HW219941   1.596   0.126  14.399 -2.2982  0.0810 -0.0325
 2827SOL     OW19942   0.466   3.049  14.110 -0.0497  0.0679 -0.0348
 2827SOL    HW119943   0.536   2.991  14.141  1.7929  1.0582 -2.3521
 2827SOL    HW219944   0.478   3.120  14.172 -0.3637  0.1117 -0.0282
 2828SOL     OW19945   3.431   3.696   3.821  0.0625  0.6724  0.0821
 2828SOL    HW119946   3.412   3.744   3.741  0.9464 -2.7649 -2.1810
 2828SOL    HW219947   3.405   3.607   3.796  0.4538  0.5696  0.0417
 2829SOL     OW19948   1.929   4.136   5.170  0.8547 -0.2027 -0.0895
 2829SOL    HW119949   1.948   4.123   5.262 -0.7028  0.6336  0.3511
 2829SOL    HW219950   2.010   4.158   5.123  1.9346  1.6810  2.6520
 2830SOL     OW19951   3.916   0.474   5.364  0.1871  0.5367 -0.2803
 2830SOL    HW119952   3.948   0.506   5.280 -1.7414 -0.4498 -1.3643
 2830SOL    HW219953   3.917   0.548   5.425 -0.1226  0.0395  0.3381
 2831SOL     OW19954   0.957   4.146   1.235 -0.6176 -0.0622 -0.3441
 2831SOL    HW119955   0.992   4.205   1.301 -0.2902  1.1929 -1.6354
 2831SOL    HW219956   0.864   4.149   1.257 -0.0432 -2.4500  2.3584
 2832SOL     OW19957   1.471   0.167  14.061 -0.2288  0.1833  0.0242
 2832SOL    HW119958   1.399   0.221  14.028 -0.9699 -1.7102 -1.4289
 2832SOL    HW219959   1.419   0.089  14.077  0.3929 -1.0955 -4.0538
 2833SOL     OW19960   2.006   0.920   5.797 -0.3293 -0.0507  0.6301
 2833SOL    HW119961   2.085   0.959   5.833  0.1605 -0.4474 -0.0175
 2833SOL    HW219962   1.953   0.997   5.776  0.9306  0.0872 -2.0316
 2834SOL     OW19963   2.714   4.102  16.946  0.2551  0.3671  0.0712
 2834SOL    HW119964   2.763   4.083  16.866  0.0780 -0.7544  0.2192
 2834SOL    HW219965   2.775   4.097  17.020  1.2509  0.1998 -0.7587
 2835SOL     OW19966   2.509   0.777   8.354  0.1029 -0.2715 -0.1812
 2835SOL    HW119967   2.546   0.749   8.270 -0.7538  0.8415 -0.9205
 2835SOL    HW219968   2.573   0.758   8.423  1.6041  1.4246 -1.1034
 2836SOL     OW19969   0.290   2.155   6.933 -0.0397 -0.1401  0.3209
 2836SOL    HW119970   0.354   2.198   6.875 -0.4994 -2.7209 -2.1223
 2836SOL    HW219971   0.325   2.069   6.956  1.5760  0.9416  1.8904
 2837SOL     OW19972   2.901   3.069   6.944  0.4607 -0.4953 -0.2296
 2837SOL    HW119973   2.822   3.122   6.938 -0.7849 -2.5554 -1.7812
 2837SOL    HW219974   2.934   3.081   6.855 -0.0618 -0.4836 -0.4223
 2838SOL     OW19975   3.571   0.062   7.211 -0.1747  0.2796 -0.0336
 2838SOL    HW119976   3.482   0.045   7.179  0.0075  1.8803 -1.4035
 2838SOL    HW219977   3.566   0.092   7.302  1.3168  0.6864 -0.0828
 2839SOL     OW19978   2.573   1.439   4.750 -0.0241 -0.3382  0.5258
 2839SOL    HW119979   2.609   1.350   4.752  0.5578 -0.0985  0.8285
 2839SOL    HW219980   2.613   1.488   4.822  0.7620 -0.8849  0.4555
 2840SOL     OW19981   1.808   2.306   8.372 -0.2469  0.4527 -0.6589
 2840SOL    HW119982   1.785   2.321   8.280  2.9797 -1.0512 -1.6795
 2840SOL    HW219983   1.718   2.303   8.404 -0.3983  0.8071 -1.0417
 2841SOL     OW19984   2.249   0.306   6.514 -0.1116 -0.3834 -0.2679
 2841SOL    HW119985   2.287   0.312   6.602 -1.7186 -0.8145  0.4460
 2841SOL    HW219986   2.166   0.267   6.541 -0.6854  2.3181  1.8797
 2842SOL     OW19987   2.089   1.245   2.830  0.0169 -0.8614 -0.0453
 2842SOL    HW119988   2.112   1.156   2.806  1.0066 -0.6922  0.2858
 2842SOL    HW219989   2.002   1.247   2.789 -0.8451  3.2354  1.9162
 2843SOL     OW19990   1.377   2.865  15.442 -0.2525  0.0097  0.1938
 2843SOL    HW119991   1.400   2.804  15.372 -1.2807  0.4087 -0.4873
 2843SOL    HW219992   1.303   2.809  15.464  0.7091 -0.3711  2.4754
 2844SOL     OW19993   4.669   0.122   6.234  0.4654  0.0212  0.1877
 2844SOL    HW119994   0.031   0.164   6.247  0.1014  0.3322  1.4926
 2844SOL    HW219995   4.650   0.158   6.147  2.4794  1.8098  0.4899
 2845SOL     OW19996   1.239   1.196   7.554  0.1839  0.0231 -0.1422
 2845SOL    HW119997   1.288   1.135   7.610 -1.9445  1.1891  2.9906
 2845SOL    HW219998   1.308   1.252   7.517 -1.0576  1.2933 -0.5621
 2846SOL     OW19999   1.303   4.329   9.533  0.3804 -0.3814  0.3541
 2846SOL    HW120000   1.277   4.335   9.625  1.2453 -0.7069  0.6233
 2846SOL    HW220001   1.333   4.239   9.526  1.4826  0.0381 -0.3783
 2847SOL     OW20002   0.634   1.692   6.757 -0.3475  0.0211 -0.8391
 2847SOL    HW120003   0.723   1.665   6.777 -0.3100  1.0720  0.4580
 2847SOL    HW220004   0.631   1.782   6.789 -1.6107  0.6785 -2.7699
 2848SOL     OW20005   4.008   2.584  14.713 -0.3719  0.9316  0.0568
 2848SOL    HW120006   3.978   2.671  14.688 -0.7701  0.1702 -2.1287
 2848SOL    HW220007   3.947   2.527  14.666  1.4646  0.3206 -1.5852
 2849SOL     OW20008   3.528   3.156  16.943  0.6899 -0.1789  0.1954
 2849SOL    HW120009   3.477   3.077  16.925  1.6822 -0.6314 -0.6518
 2849SOL    HW220010   3.489   3.196  17.021  1.4774  3.4385 -1.2302
 2850SOL     OW20011   0.164   4.540   1.709 -0.1011 -0.0340  0.4859
 2850SOL    HW120012   0.177   4.445   1.714 -3.0545 -0.5049 -0.4256
 2850SOL    HW220013   0.203   4.554   1.795  2.3691 -0.4576 -0.5873
 2851SOL     OW20014   1.496   0.679   3.075 -0.3115  0.3507 -0.4859
 2851SOL    HW120015   1.567   0.652   3.132  0.3340  0.4862 -1.2175
 2851SOL    HW220016   1.544   0.714   3.000  0.1293  0.9733  0.0874
 2852SOL     OW20017   0.179   3.813   5.187 -0.4262  0.3974 -0.4379
 2852SOL    HW120018   0.207   3.841   5.274  2.3104 -1.2328 -0.8176
 2852SOL    HW220019   0.203   3.892   5.138  0.8432 -0.2166 -0.7881
 2853SOL     OW20020   3.914   0.575   4.780  0.3518 -0.4423  0.5257
 2853SOL    HW120021   3.959   0.568   4.696  0.1082 -2.4852  0.5535
 2853SOL    HW220022   3.975   0.636   4.819  0.6753  0.1171 -0.8509
 2854SOL     OW20023   2.108   2.259   3.327 -0.2856  0.3501  0.0132
 2854SOL    HW120024   2.148   2.174   3.346 -1.9486 -0.3237  0.4875
 2854SOL    HW220025   2.175   2.325   3.308  1.1690 -0.4758  2.3155
 2855SOL     OW20026   3.973   2.564   2.645  0.1568 -0.2739  0.0958
 2855SOL    HW120027   3.995   2.475   2.673  0.4870 -0.2626 -0.1360
 2855SOL    HW220028   3.933   2.552   2.559 -0.2520 -1.1491  0.4039
 2856SOL     OW20029   3.462   3.197   6.894  0.3323 -0.3332 -0.2600
 2856SOL    HW120030   3.396   3.156   6.950  0.3157  0.8822  0.6257
 2856SOL    HW220031   3.487   3.129   6.833 -0.3745 -1.4583  0.6881
 2857SOL     OW20032   1.121   1.118   6.487 -0.3555 -0.5533  0.1513
 2857SOL    HW120033   1.037   1.164   6.491  0.1304  0.3190  0.3517
 2857SOL    HW220034   1.097   1.027   6.507  0.2195 -1.0705 -1.5149
 2858SOL     OW20035   1.385   2.045  15.286 -0.3111  0.3046 -0.3150
 2858SOL    HW120036   1.384   2.097  15.205  0.3096  1.5362  0.4696
 2858SOL    HW220037   1.343   2.098  15.354 -0.8724 -0.1820 -0.2825
 2859SOL     OW20038   2.992   2.018   1.150 -0.2633  0.1540 -0.7690
 2859SOL    HW120039   2.920   2.064   1.194 -2.1613 -1.7881 -1.8409
 2859SOL    HW220040   3.050   2.004   1.224  2.2442  0.1417 -2.7309
 2860SOL     OW20041   3.788   1.584   4.822  0.3020  0.0924 -0.1016
 2860SOL    HW120042   3.755   1.496   4.841 -0.4072  0.4283  0.2332
 2860SOL    HW220043   3.795   1.583   4.727  0.7210  1.8364 -0.0787
 2861SOL     OW20044   1.909   0.181   8.291  0.2700  0.1491 -0.4173
 2861SOL    HW120045   1.945   0.148   8.374 -1.0247 -0.0033  0.0880
 2861SOL    HW220046   1.956   0.264   8.283 -0.3370  0.3320 -1.9613
 2862SOL     OW20047   3.322   1.490   6.280  0.2627  0.2908 -0.9059
 2862SOL    HW120048   3.417   1.478   6.293  0.1499  0.2668 -0.1171
 2862SOL    HW220049   3.313   1.579   6.313  0.8582 -0.3811  1.1300
 2863SOL     OW20050   1.374   3.300   9.740  0.5902 -0.1761  0.4479
 2863SOL    HW120051   1.314   3.227   9.755  1.7372 -0.9012  1.4438
 2863SOL    HW220052   1.345   3.339   9.657 -0.3111  0.6401  1.1464
 2864SOL     OW20053   4.254   0.165   9.758 -0.2835  0.6489  0.2214
 2864SOL    HW120054   4.304   0.088   9.784 -0.7642 -0.5800 -2.4800
 2864SOL    HW220055   4.314   0.222   9.709 -0.3508 -0.7066 -1.4326
 2865SOL     OW20056   2.229   3.507   7.369 -0.3302  0.1158 -0.4844
 2865SOL    HW120057   2.214   3.545   7.282 -0.5358  1.1145 -0.0152
 2865SOL    HW220058   2.274   3.580   7.410  0.7200  0.2064 -1.7888
 2866SOL     OW20059   0.065   0.996   9.372  0.8189 -0.1004 -0.3765
 2866SOL    HW120060   4.699   1.015   9.401  0.5892  1.5470 -2.1504
 2866SOL    HW220061   0.081   1.076   9.321  1.0893 -0.4656 -0.8620
 2867SOL     OW20062   4.679   4.065   5.412 -0.3727  0.3896  0.4616
 2867SOL    HW120063   0.018   4.079   5.483 -0.4215 -1.5706  0.8838
 2867SOL    HW220064   4.647   4.154   5.399 -0.3081  0.3790  0.2285
 2868SOL     OW20065   0.912   2.177  14.790  0.1971  0.2612 -0.2779
 2868SOL    HW120066   0.856   2.185  14.867  0.7393  1.7647 -0.0445
 2868SOL    HW220067   0.858   2.120  14.735 -1.7789  0.4491  1.4477
 2869SOL     OW20068   1.304   3.581  13.927 -0.4545 -0.4368  0.2940
 2869SOL    HW120069   1.383   3.528  13.942  0.0365  0.1644 -0.1281
 2869SOL    HW220070   1.237   3.514  13.934  0.3150 -1.2036  0.2536
 2870SOL     OW20071   3.662   3.510   8.512  0.1133 -0.1716 -0.4126
 2870SOL    HW120072   3.722   3.576   8.479  0.1228  1.4231  2.7856
 2870SOL    HW220073   3.636   3.545   8.598 -2.5976 -1.4556 -0.6969
 2871SOL     OW20074   3.386   3.394   1.637  0.8855 -1.0411  0.1270
 2871SOL    HW120075   3.412   3.441   1.716  0.0822 -1.3012  0.5515
 2871SOL    HW220076   3.412   3.458   1.571 -1.3583 -2.1223 -1.7924
 2872SOL     OW20077   1.271   2.396   3.867  0.0151  0.6036  0.8989
 2872SOL    HW120078   1.193   2.397   3.812  0.2263  1.6346  0.6266
 2872SOL    HW220079   1.295   2.488   3.861  2.3404  0.0953  2.4543
 2873SOL     OW20080   2.321   0.306   8.252  0.8645  0.1007 -0.8276
 2873SOL    HW120081   2.345   0.326   8.342 -1.8091  0.3892 -0.1583
 2873SOL    HW220082   2.309   0.212   8.267  1.1988 -0.2481 -2.7627
 2874SOL     OW20083   0.718   4.521   7.313 -0.5686  0.2085  0.0054
 2874SOL    HW120084   0.694   4.530   7.221  0.7963 -0.7116 -0.4399
 2874SOL    HW220085   0.742   4.610   7.339  2.2278 -0.2481 -1.0146
 2875SOL     OW20086   2.238   4.180   2.998 -0.3376  0.3102 -0.7236
 2875SOL    HW120087   2.327   4.147   2.995  0.0683  1.3189  0.3488
 2875SOL    HW220088   2.229   4.175   3.094  2.0781  1.6304 -0.4384
 2876SOL     OW20089   2.833   0.801   6.978 -0.6149  0.0257 -0.6677
 2876SOL    HW120090   2.756   0.844   7.014 -2.9949 -2.4242 -2.7966
 2876SOL    HW220091   2.897   0.872   6.968 -2.1894  1.3902 -0.9920
 2877SOL     OW20092   0.875   1.783   3.117 -0.1362 -0.3774  0.6412
 2877SOL    HW120093   0.815   1.716   3.084 -0.4470  0.6410 -0.8714
 2877SOL    HW220094   0.890   1.837   3.039  1.9012 -1.1652  0.4730
 2878SOL     OW20095   2.143   2.736   0.740 -1.0199  0.3484 -0.0600
 2878SOL    HW120096   2.120   2.644   0.753  2.6814 -1.2570 -4.9503
 2878SOL    HW220097   2.099   2.745   0.656  1.0905 -0.7969 -1.3029
 2879SOL     OW20098   1.955   0.282  12.012  0.4203  0.3009  0.2224
 2879SOL    HW120099   1.994   0.332  11.941  3.2489  0.1280  1.6675
 2879SOL    HW220100   2.024   0.311  12.071  1.6249 -2.5208  0.2123
 2880SOL     OW20101   4.308   3.828   6.839 -0.3404  0.2156  0.0784
 2880SOL    HW120102   4.387   3.847   6.787  0.7002 -0.2015  1.5170
 2880SOL    HW220103   4.344   3.774   6.910 -0.8265  0.8515  0.8022
 2881SOL     OW20104   3.518   2.254   5.301 -0.2947 -0.5665  0.4370
 2881SOL    HW120105   3.612   2.238   5.289 -0.0213  1.6347 -0.3509
 2881SOL    HW220106   3.529   2.295   5.387  1.0751 -0.1585  0.0691
 2882SOL     OW20107   1.769   3.010   8.220 -0.0209  0.2466  0.1969
 2882SOL    HW120108   1.720   2.932   8.245 -0.7778  0.7604  0.2913
 2882SOL    HW220109   1.702   3.068   8.184  1.4717 -0.3650 -3.6097
 2883SOL     OW20110   1.390   0.444   4.625  0.2558 -0.4245 -0.1614
 2883SOL    HW120111   1.424   0.486   4.545  2.1972  2.3091  2.0630
 2883SOL    HW220112   1.324   0.384   4.591 -2.1200  1.1468  1.7407
 2884SOL     OW20113   1.998   0.793   6.653 -0.5883  0.4042 -0.4550
 2884SOL    HW120114   1.966   0.883   6.666  2.8331  1.5157  0.5270
 2884SOL    HW220115   1.960   0.747   6.728 -0.7949  2.6826  0.8468
 2885SOL     OW20116   3.600   0.605  17.546  0.5551 -0.1289  0.4012
 2885SOL    HW120117   3.574   0.587  17.637 -1.1455 -1.9196 -0.4393
 2885SOL    HW220118   3.678   0.659  17.554 -0.3326  0.8428  2.4742
 2886SOL     OW20119   0.799   0.380   1.591 -0.4795  0.5035 -0.0420
 2886SOL    HW120120   0.792   0.469   1.625 -1.4813  0.3361  0.1862
 2886SOL    HW220121   0.756   0.330   1.661  0.7042 -0.0459  0.2956
 2887SOL     OW20122   2.646   0.542   2.837 -0.1849 -0.3871  0.9789
 2887SOL    HW120123   2.635   0.545   2.932 -0.4274  1.7047  0.8989
 2887SOL    HW220124   2.657   0.447   2.835 -3.3498 -0.6899 -2.7187
 2888SOL     OW20125   2.180   1.272   0.863 -0.5236  0.2673 -0.1767
 2888SOL    HW120126   2.121   1.345   0.848 -0.1313  0.3575 -1.2822
 2888SOL    HW220127   2.251   1.297   0.804  0.2702 -1.9598 -0.1684
 2889SOL     OW20128   3.968   1.573   1.838  0.1381  0.5737  0.0875
 2889SOL    HW120129   4.019   1.617   1.906  3.2018 -0.9174 -1.2567
 2889SOL    HW220130   4.037   1.553   1.774  0.7196 -0.0191  0.8975
 2890SOL     OW20131   2.716   0.462   7.006  0.0613  0.2205 -0.0024
 2890SOL    HW120132   2.751   0.547   7.032 -0.5459  0.7868 -1.0299
 2890SOL    HW220133   2.790   0.407   7.034 -0.1248  0.1508  0.3432
 2891SOL     OW20134   4.060   0.985  12.779 -0.1169  0.1738 -0.3115
 2891SOL    HW120135   4.132   0.929  12.750  0.5527  0.6546  0.4207
 2891SOL    HW220136   4.095   1.009  12.865 -1.1927  1.5867 -0.2707
 2892SOL     OW20137   1.379   2.638   5.037  0.1203 -0.0915  0.5506
 2892SOL    HW120138   1.405   2.678   4.954 -0.2541 -0.9792 -0.0018
 2892SOL    HW220139   1.298   2.680   5.064 -0.4272 -0.2702 -0.8203
 2893SOL     OW20140   1.687   1.223   7.885  0.0883  0.4307  0.5086
 2893SOL    HW120141   1.671   1.316   7.900 -0.5166  0.8636 -2.9303
 2893SOL    HW220142   1.599   1.190   7.902  0.1421  0.8188  1.5144
 2894SOL     OW20143   1.951   3.481   7.442  0.6840  0.2527  0.3511
 2894SOL    HW120144   1.938   3.392   7.474  1.8615  0.3136  1.0035
 2894SOL    HW220145   2.045   3.479   7.426  0.8326  1.7735  1.0421
 2895SOL     OW20146   1.986   1.047  13.288 -0.0472 -0.2645 -0.2562
 2895SOL    HW120147   1.962   1.071  13.199  1.4335  1.2105 -0.2583
 2895SOL    HW220148   2.034   0.967  13.269  0.2657 -0.3815  1.0190
 2896SOL     OW20149   1.199   0.873   5.605 -0.0419  0.0582 -0.4043
 2896SOL    HW120150   1.237   0.953   5.642 -0.4838 -0.3885  1.0057
 2896SOL    HW220151   1.175   0.915   5.523  0.1621  0.4869 -0.2450
 2897SOL     OW20152   1.608   3.009   5.885 -0.3656 -0.1747  0.1168
 2897SOL    HW120153   1.660   2.973   5.958  1.1352  1.8296  0.0345
 2897SOL    HW220154   1.607   2.938   5.821  1.0726 -1.3572  1.3729
 2898SOL     OW20155   1.173   0.497   8.702  0.1327 -0.0391 -0.3977
 2898SOL    HW120156   1.210   0.553   8.634  2.8376 -3.0682 -1.4534
 2898SOL    HW220157   1.117   0.550   8.758  1.6442  0.3425  0.7745
 2899SOL     OW20158   0.770   4.350   4.502  0.4623 -0.2323 -0.1141
 2899SOL    HW120159   0.792   4.443   4.490  2.3708 -0.4099  1.8588
 2899SOL    HW220160   0.771   4.318   4.411  2.9043  2.3746 -1.0094
 2900SOL     OW20161   0.487   2.878   1.597 -0.2065  0.3236 -0.5186
 2900SOL    HW120162   0.402   2.842   1.570 -0.6786  0.5375  0.6931
 2900SOL    HW220163   0.552   2.808   1.602  0.2325  0.8281  0.8220
 2901SOL     OW20164   0.687   3.219   7.671  0.0156 -0.7975  0.2118
 2901SOL    HW120165   0.609   3.270   7.649 -0.1985 -0.8014  0.9563
 2901SOL    HW220166   0.738   3.289   7.713 -0.7994 -0.7814  1.1838
 2902SOL     OW20167   4.034   0.332   6.038  0.3134  0.4529 -0.2703
 2902SOL    HW120168   4.008   0.280   6.114  1.4876 -0.0206 -0.1946
 2902SOL    HW220169   4.049   0.419   6.075  0.5572  0.4011 -0.2479
 2903SOL     OW20170   0.352   4.001  10.861 -0.1936  0.1352 -0.1290
 2903SOL    HW120171   0.338   3.922  10.912 -0.0070 -0.0707 -0.3954
 2903SOL    HW220172   0.260   4.022  10.843 -0.5846 -2.8777 -1.5645
 2904SOL     OW20173   2.371   4.313   0.173  0.0763 -0.4122  0.1905
 2904SOL    HW120174   2.319   4.385   0.138  0.3985  0.7332  2.0473
 2904SOL    HW220175   2.412   4.355   0.248 -0.8819  0.5682  0.1765
 2905SOL     OW20176   1.220   1.330   1.134 -0.1049 -0.1225  0.0281
 2905SOL    HW120177   1.232   1.415   1.175  0.7661  0.4792 -1.4812
 2905SOL    HW220178   1.138   1.339   1.085 -0.4080 -0.0714  0.5524
 2906SOL     OW20179   3.561   3.614   8.744  0.0964 -0.3773 -0.0619
 2906SOL    HW120180   3.603   3.695   8.772 -0.1260 -0.2930  0.0326
 2906SOL    HW220181   3.498   3.594   8.813  0.8288  1.1172  1.0155
 2907SOL     OW20182   4.120   3.363  10.744  0.2784 -0.0726  0.4894
 2907SOL    HW120183   4.141   3.272  10.765  1.3704  0.5381  2.0828
 2907SOL    HW220184   4.128   3.407  10.829  2.3365  0.3276  0.0835
 2908SOL     OW20185   2.172   3.400  16.947  0.3035  0.2454  0.4043
 2908SOL    HW120186   2.184   3.495  16.947  0.2763  0.2482 -0.3212
 2908SOL    HW220187   2.170   3.396  17.043 -1.9922 -0.3203  0.3184
 2909SOL     OW20188   4.654   2.242   0.776 -0.2296 -0.0698  0.0642
 2909SOL    HW120189   4.610   2.264   0.693 -0.6704 -3.2238 -0.5286
 2909SOL    HW220190   4.676   2.330   0.806 -0.1958  0.4855 -1.5508
 2910SOL     OW20191   1.754   3.878   5.478  0.2149  0.0332  0.0196
 2910SOL    HW120192   1.846   3.874   5.504 -0.1403 -1.8179  0.9646
 2910SOL    HW220193   1.712   3.819   5.541  0.9578  0.9738  1.4185
 2911SOL     OW20194   3.067   4.238   4.968  0.2360  0.3472 -0.2054
 2911SOL    HW120195   3.123   4.187   4.910 -0.0039  0.0888 -0.2094
 2911SOL    HW220196   2.993   4.257   4.910 -0.3719 -1.2984  0.0340
 2912SOL     OW20197   0.042   0.254   9.942 -0.0438 -0.0975  0.1528
 2912SOL    HW120198   0.118   0.216   9.897  0.1849 -0.1334  0.5690
 2912SOL    HW220199   0.004   0.304   9.870 -0.4775 -1.6168 -0.6670
 2913SOL     OW20200   0.557   3.221   3.572  0.0028 -0.1587 -0.2446
 2913SOL    HW120201   0.640   3.263   3.595 -0.4650  0.4416  0.3360
 2913SOL    HW220202   0.579   3.171   3.493  1.9241  2.1111 -1.1497
 2914SOL     OW20203   0.420   1.488  14.175  0.1352 -0.1747  0.0952
 2914SOL    HW120204   0.391   1.398  14.163  0.6516 -0.0025 -2.4330
 2914SOL    HW220205   0.340   1.539  14.185  0.5208  0.4260  0.1921
 2915SOL     OW20206   2.086   3.325   7.980 -0.0248  0.0507 -0.1580
 2915SOL    HW120207   2.034   3.307   8.058  1.3888  0.0619  0.7738
 2915SOL    HW220208   2.139   3.400   8.007  0.3411 -0.1599 -0.2925
 2916SOL     OW20209   2.005   0.791   6.022  0.2457 -0.1899 -0.3629
 2916SOL    HW120210   1.960   0.865   6.063  0.0271 -0.4676 -0.0973
 2916SOL    HW220211   2.014   0.818   5.931 -2.9296 -2.5387 -1.3894
 2917SOL     OW20212   4.415   1.679   9.222  0.1808  0.0706 -0.4100
 2917SOL    HW120213   4.451   1.735   9.292  1.6707 -1.7711  0.2910
 2917SOL    HW220214   4.374   1.748   9.171  1.6293  0.3760 -1.1657
 2918SOL     OW20215   0.229   2.157   0.373  0.2348  0.3157  0.4030
 2918SOL    HW120216   0.301   2.152   0.436 -1.1073 -1.8227  1.7437
 2918SOL    HW220217   0.157   2.110   0.414 -0.3487  0.8436 -0.0100
 2919SOL     OW20218   1.360   1.486   5.974 -0.5698  0.0462  0.2265
 2919SOL    HW120219   1.334   1.576   5.992 -1.2182 -0.1834  0.4316
 2919SOL    HW220220   1.405   1.496   5.890 -1.6785 -1.1080 -0.5044
 2920SOL     OW20221   4.706   4.170  11.430  0.8096  0.2552  0.3014
 2920SOL    HW120222   4.617   4.171  11.395  0.0139  1.3465  2.3770
 2920SOL    HW220223   4.683   4.190  11.520  0.6907  0.1481  0.2947
 2921SOL     OW20224   0.204   4.385   6.184  0.3389 -0.3707  0.1197
 2921SOL    HW120225   0.184   4.452   6.249  3.0306  1.8953 -1.3855
 2921SOL    HW220226   0.284   4.344   6.217  0.3430  0.1720  0.8013
 2922SOL     OW20227   4.365   3.214   3.672  0.3800 -0.1397 -0.0750
 2922SOL    HW120228   4.331   3.127   3.693 -0.4036  0.3520  0.7102
 2922SOL    HW220229   4.296   3.267   3.711 -0.6578 -1.2600 -0.4297
 2923SOL     OW20230   3.591   3.614   7.572  0.0911 -0.2182  0.7488
 2923SOL    HW120231   3.533   3.689   7.554 -0.4165 -0.8902 -0.4268
 2923SOL    HW220232   3.537   3.543   7.537 -0.9462  0.8382  0.1665
 2924SOL     OW20233   0.900   0.853   1.188  0.3088 -0.0467  0.6410
 2924SOL    HW120234   0.841   0.780   1.173  0.0190  0.2064  0.5585
 2924SOL    HW220235   0.985   0.821   1.156  1.7854  4.1433  0.2560
 2925SOL     OW20236   3.744   0.834   1.869 -0.4347  0.3703  0.1664
 2925SOL    HW120237   3.801   0.792   1.805  0.1692 -1.4093  1.8839
 2925SOL    HW220238   3.795   0.828   1.949  1.6910  2.8269 -0.9873
 2926SOL     OW20239   4.692   3.614   3.519  0.3739  0.2341  0.0071
 2926SOL    HW120240   0.049   3.601   3.570  0.4971  0.3222 -0.1616
 2926SOL    HW220241   4.650   3.528   3.525  2.0213 -0.5297  0.4594
 2927SOL     OW20242   2.985   4.639   2.732  0.1315  0.4745  0.1737
 2927SOL    HW120243   2.947   4.604   2.813 -1.8578  2.0134 -0.0984
 2927SOL    HW220244   2.925   4.598   2.669 -0.8198  0.5998  0.9902
 2928SOL     OW20245   2.103   4.059   7.017  0.1024  0.8078 -0.1721
 2928SOL    HW120246   2.176   4.014   6.976  0.0250  0.9161 -0.4342
 2928SOL    HW220247   2.034   4.034   6.955  0.5757 -2.5057  0.6528
 2929SOL     OW20248   2.918   4.566  16.386 -0.8407 -0.2716  0.5489
 2929SOL    HW120249   2.892   4.615  16.464 -0.0553  0.6716  0.2220
 2929SOL    HW220250   2.834   4.537  16.350 -0.1061 -0.4473 -1.0574
 2930SOL     OW20251   2.423   2.689   7.486 -0.2579 -0.7252 -0.6236
 2930SOL    HW120252   2.364   2.637   7.431 -0.4108 -0.2842 -0.8738
 2930SOL    HW220253   2.361   2.753   7.521  1.7538  0.5866  0.5394
 2931SOL     OW20254   2.772   3.006   3.785  0.2459  0.0390 -0.4457
 2931SOL    HW120255   2.688   2.964   3.767  0.8709 -1.2787 -0.2371
 2931SOL    HW220256   2.824   2.980   3.709 -1.8163 -1.4324 -1.3830
 2932SOL     OW20257   1.084   3.201   6.159  0.0027  0.0972 -0.1558
 2932SOL    HW120258   1.084   3.200   6.254 -1.7182  1.1495 -0.1406
 2932SOL    HW220259   1.078   3.294   6.135  0.7151  0.3402  0.6036
 2933SOL     OW20260   2.207   2.748   8.477  0.4161 -0.5460  1.0311
 2933SOL    HW120261   2.151   2.672   8.497  1.2205 -1.6934 -1.0160
 2933SOL    HW220262   2.158   2.822   8.512  1.5114 -1.0201  3.5428
 2934SOL     OW20263   0.299   4.628  11.601  0.7737  0.0790 -0.3626
 2934SOL    HW120264   0.292   4.554  11.661 -0.8171 -0.3325 -1.0308
 2934SOL    HW220265   0.218   4.679  11.611  1.1131  0.5760 -0.1568
 2935SOL     OW20266   1.513   2.659   3.575  0.0909  0.4106  0.5684
 2935SOL    HW120267   1.502   2.703   3.490 -3.2591  0.6676  1.1327
 2935SOL    HW220268   1.424   2.633   3.601 -0.2342 -0.0155 -0.9748
 2936SOL     OW20269   2.231   4.326  13.027 -0.2101  0.1762 -0.0982
 2936SOL    HW120270   2.184   4.337  13.109  0.2167  0.0256  0.1608
 2936SOL    HW220271   2.262   4.236  13.033  2.8581  1.1579 -1.3302
 2937SOL     OW20272   3.388   2.246   1.621  0.1129 -0.1689 -0.7130
 2937SOL    HW120273   3.333   2.172   1.647  0.7234 -0.9092 -1.5272
 2937SOL    HW220274   3.375   2.301   1.699  3.1097 -0.4655 -0.0253
 2938SOL     OW20275   0.697   3.032  14.248  0.5609 -0.1756  0.1057
 2938SOL    HW120276   0.777   3.075  14.281  1.4335 -1.3806 -0.4379
 2938SOL    HW220277   0.710   2.937  14.249 -1.7190 -0.4779 -0.2953
 2939SOL     OW20278   4.274   4.630   8.143  0.2871  0.4974  0.0064
 2939SOL    HW120279   4.341   4.564   8.123 -0.0437 -0.1894  1.1229
 2939SOL    HW220280   4.317   4.689   8.205  1.9529  0.3286 -1.0120
 2940SOL     OW20281   1.508   4.348   5.067  0.1849  0.1372 -0.0011
 2940SOL    HW120282   1.414   4.357   5.079  0.2972  1.7221 -0.3098
 2940SOL    HW220283   1.515   4.371   4.974  0.1190 -0.5600 -0.1824
 2941SOL     OW20284   1.704   4.026   9.413  0.0776  0.1970  0.1121
 2941SOL    HW120285   1.752   3.990   9.487  1.2543  0.9969 -0.2581
 2941SOL    HW220286   1.718   3.963   9.341  2.4860 -0.0026  0.7478
 2942SOL     OW20287   0.105   1.256   7.839  0.5324  0.3357  0.4664
 2942SOL    HW120288   0.094   1.337   7.789  0.5448 -0.0500 -0.1605
 2942SOL    HW220289   0.016   1.222   7.851  0.2894  0.4017 -1.1835
 2943SOL     OW20290   0.374   1.140   4.746  0.1823  0.0048 -0.5800
 2943SOL    HW120291   0.358   1.059   4.794 -0.0767  0.0332 -0.6183
 2943SOL    HW220292   0.290   1.180   4.773 -0.3206 -1.9265  0.7421
 2944SOL     OW20293   1.062   0.149   8.046 -0.1601 -0.2933  0.2271
 2944SOL    HW120294   0.969   0.166   8.065 -0.4032  0.5793 -1.8244
 2944SOL    HW220295   1.087   0.213   8.113 -1.8792  0.3775  0.2241
 2945SOL     OW20296   1.530   0.353   7.123  0.1385  0.2290  0.1741
 2945SOL    HW120297   1.556   0.359   7.215  0.1320 -1.7052  0.3075
 2945SOL    HW220298   1.441   0.386   7.133  0.0281  0.0614 -0.2072
 2946SOL     OW20299   3.570   1.691   8.364 -0.0435 -0.2597  0.0992
 2946SOL    HW120300   3.576   1.775   8.319 -2.3848 -1.3873 -2.2729
 2946SOL    HW220301   3.523   1.637   8.301  1.3914 -0.2165 -1.0198
 2947SOL     OW20302   2.371   4.677   4.739  0.1494 -0.4096 -0.3285
 2947SOL    HW120303   2.451   4.682   4.793 -0.3138 -3.2175  0.6096
 2947SOL    HW220304   2.355   0.048   4.748  1.3628 -0.4161  2.1042
 2948SOL     OW20305   2.823   3.078   6.470 -0.5507  0.2550  0.2044
 2948SOL    HW120306   2.841   3.156   6.419  0.7943  0.8240  1.5607
 2948SOL    HW220307   2.732   3.106   6.485 -0.4423  0.4356  0.5077
 2949SOL     OW20308   1.002   3.574   0.288 -0.8054 -0.6124  0.6273
 2949SOL    HW120309   0.951   3.541   0.362 -0.7148  1.0884  1.4517
 2949SOL    HW220310   1.077   3.616   0.329 -0.1880 -0.4315 -0.6698
 2950SOL     OW20311   3.096   3.740   9.082 -0.1255 -0.6708 -0.2237
 2950SOL    HW120312   3.036   3.758   9.154  0.2188 -0.9108  0.1285
 2950SOL    HW220313   3.122   3.652   9.109 -0.1274 -0.2215  1.2242
 2951SOL     OW20314   2.966   2.474   3.259 -0.1843 -0.1743 -0.3137
 2951SOL    HW120315   2.925   2.529   3.192 -2.2632 -2.0924 -0.5876
 2951SOL    HW220316   3.048   2.447   3.219  0.4285 -1.4035  1.7650
 2952SOL     OW20317   0.806   2.125   3.101  0.1336  0.2380 -0.4967
 2952SOL    HW120318   0.778   2.103   3.012 -2.9710  0.5368  0.4062
 2952SOL    HW220319   0.732   2.101   3.158  0.9434 -4.2297 -1.3517
 2953SOL     OW20320   1.170   3.498   6.636 -0.2596 -0.1837 -0.5711
 2953SOL    HW120321   1.193   3.570   6.695 -0.0418 -1.3929  0.8082
 2953SOL    HW220322   1.252   3.469   6.596  0.2481  1.5878 -0.8477
 2954SOL     OW20323   0.129   0.974  10.337  0.1929  0.0460 -0.5650
 2954SOL    HW120324   0.101   0.937  10.421  0.4543  2.6374  0.6579
 2954SOL    HW220325   0.211   0.927  10.321 -0.9448 -1.5240 -1.7939
 2955SOL     OW20326   2.647   3.772   3.832 -0.1712  0.0148  0.0226
 2955SOL    HW120327   2.591   3.848   3.848 -1.0150 -0.4457 -0.7665
 2955SOL    HW220328   2.711   3.802   3.896 -2.1314  0.7981  1.6247
 2956SOL     OW20329   0.705   3.857   1.499  0.2497 -0.0758 -0.4531
 2956SOL    HW120330   0.610   3.853   1.507  0.4378 -2.2294  0.6347
 2956SOL    HW220331   0.715   3.942   1.456 -2.0924  1.4781  2.0563
 2957SOL     OW20332   0.262   3.905   4.352  0.3464 -0.1188 -0.2465
 2957SOL    HW120333   0.346   3.864   4.371 -0.1088 -0.3327  1.2972
 2957SOL    HW220334   0.269   3.919   4.257 -0.2934 -0.0270 -0.2842
 2958SOL     OW20335   1.136   4.323   0.166 -0.0227  0.4218  0.3462
 2958SOL    HW120336   1.159   4.232   0.182  2.3578  1.1218  0.8214
 2958SOL    HW220337   1.198   4.365   0.226 -0.2437 -0.1166  0.9493
 2959SOL     OW20338   3.493   2.934   3.448 -0.7004  0.5059  0.1714
 2959SOL    HW120339   3.468   2.842   3.440  2.8333 -0.4798  0.4845
 2959SOL    HW220340   3.494   2.941   3.544 -1.5791 -1.9546  0.3645
 2960SOL     OW20341   4.055   3.425   8.283  0.9282  0.1822  0.7210
 2960SOL    HW120342   4.128   3.479   8.313  0.7844 -0.2590  1.8617
 2960SOL    HW220343   4.005   3.410   8.363 -1.7979 -0.5772 -1.1284
 2961SOL     OW20344   4.537   2.235   3.637  0.6610 -0.2686  0.2421
 2961SOL    HW120345   4.470   2.259   3.573  0.6730 -0.1697  0.2674
 2961SOL    HW220346   4.609   2.289   3.603  0.6939 -0.3591  0.1641
 2962SOL     OW20347   3.162   0.405   7.784 -0.3614 -0.7915 -0.2617
 2962SOL    HW120348   3.161   0.330   7.844 -1.5109 -2.5280 -2.4449
 2962SOL    HW220349   3.113   0.475   7.828 -2.7225 -1.9724 -0.9935
 2963SOL     OW20350   0.860   2.789   2.630 -0.1549  0.1267  0.1119
 2963SOL    HW120351   0.832   2.823   2.545 -2.9191  0.0313  0.9847
 2963SOL    HW220352   0.944   2.834   2.642  0.1678 -0.3355 -0.3726
 2964SOL     OW20353   2.893   2.505   4.585 -0.0443 -0.1904  0.0350
 2964SOL    HW120354   2.969   2.529   4.638 -0.8440 -0.0977  1.1460
 2964SOL    HW220355   2.920   2.563   4.513 -0.2186 -1.0884 -0.7452
 2965SOL     OW20356   0.063   0.546  16.670 -0.0571  0.5457 -0.4443
 2965SOL    HW120357   0.122   0.536  16.744 -0.7427  0.4966  0.1000
 2965SOL    HW220358   0.097   0.488  16.602 -1.8491  1.0851 -1.7990
 2966SOL     OW20359   0.721   4.620   1.220 -0.4621 -0.1529  0.1760
 2966SOL    HW120360   0.707   4.714   1.208 -0.5538 -0.1790  0.0769
 2966SOL    HW220361   0.766   4.595   1.139 -0.8506 -0.5052  0.0672
 2967SOL     OW20362   2.639   0.888   2.438  0.2958  0.0703 -0.1681
 2967SOL    HW120363   2.733   0.878   2.451 -0.0371 -0.5298  1.7478
 2967SOL    HW220364   2.634   0.944   2.361  0.8493 -2.6725 -2.1822
 2968SOL     OW20365   2.324   2.680  10.872  0.6927  0.0612  0.9341
 2968SOL    HW120366   2.329   2.588  10.845 -0.6827 -0.3462  2.0708
 2968SOL    HW220367   2.324   2.708  10.781 -0.2447 -1.2778  0.5138
 2969SOL     OW20368   0.647   1.413   2.733  0.8805  0.1344  0.2297
 2969SOL    HW120369   0.616   1.502   2.751  0.5254 -0.1311  0.9065
 2969SOL    HW220370   0.586   1.355   2.779  1.3384  0.2720  1.0179
 2970SOL     OW20371   1.631   1.282   5.414 -0.3848  0.6338 -0.1356
 2970SOL    HW120372   1.582   1.294   5.333 -2.0693 -2.9568  0.3957
 2970SOL    HW220373   1.578   1.214   5.454 -1.8392  1.4390 -0.6741
 2971SOL     OW20374   2.697   0.725   8.624  0.5673 -0.1630  0.0604
 2971SOL    HW120375   2.715   0.734   8.718  2.5812  3.4647 -0.6653
 2971SOL    HW220376   2.755   0.795   8.594  0.8942 -0.9772 -1.2052
 2972SOL     OW20377   1.911   4.002  11.828 -0.1329 -0.9335 -0.7799
 2972SOL    HW120378   1.892   4.022  11.920  0.3870 -0.5345 -0.7579
 2972SOL    HW220379   1.982   3.939  11.841 -1.4968 -2.5282 -1.0586
 2973SOL     OW20380   4.261   2.512  16.871  0.2719 -0.0072  0.1040
 2973SOL    HW120381   4.206   2.436  16.853 -0.6830  0.5492  0.6813
 2973SOL    HW220382   4.204   2.584  16.898  0.5677  0.5417 -0.7247
 2974SOL     OW20383   4.021   2.528   3.296  1.0601 -0.1454 -0.9013
 2974SOL    HW120384   4.047   2.438   3.276  1.2979 -0.3276  0.1923
 2974SOL    HW220385   4.103   2.575   3.311  1.4059 -1.4612  1.4038
 2975SOL     OW20386   3.375   0.587  12.109  0.2349 -0.5563  0.3264
 2975SOL    HW120387   3.445   0.524  12.126  1.8086  0.6884 -1.5402
 2975SOL    HW220388   3.398   0.622  12.023  1.1503 -0.1216  0.7460
 2976SOL     OW20389   4.223   0.941   1.076  0.3855  0.2411  0.0874
 2976SOL    HW120390   4.278   1.015   1.102  1.0086 -0.0798 -0.3346
 2976SOL    HW220391   4.186   0.921   1.162 -0.1671 -0.3312 -0.2839
 2977SOL     OW20392   4.135   0.542  11.384 -0.3821 -0.3091 -0.1199
 2977SOL    HW120393   4.179   0.622  11.412 -2.2226  0.1397  1.4389
 2977SOL    HW220394   4.045   0.571  11.369  0.1293  2.2649  1.8825
 2978SOL     OW20395   4.358   3.753   4.127  0.4874  0.1944 -0.8254
 2978SOL    HW120396   4.359   3.665   4.089  0.0175 -0.8566  1.6083
 2978SOL    HW220397   4.379   3.739   4.219 -0.3301  0.4348 -0.6043
 2979SOL     OW20398   3.642   0.878  13.078  0.2438 -0.1654  0.1365
 2979SOL    HW120399   3.705   0.807  13.064  0.6304  0.6896 -2.3089
 2979SOL    HW220400   3.686   0.933  13.013 -0.0744  2.2483  1.9504
 2980SOL     OW20401   3.328   0.998   6.959  0.1979  0.3507 -0.2981
 2980SOL    HW120402   3.328   0.971   6.868  2.7016  1.3151 -0.5717
 2980SOL    HW220403   3.255   0.941   6.982 -1.7863  2.9265 -0.1807
 2981SOL     OW20404   3.436   4.340   3.317 -0.2437  0.0999 -0.4764
 2981SOL    HW120405   3.475   4.411   3.369  1.0384  0.2665 -1.6556
 2981SOL    HW220406   3.409   4.276   3.382 -0.2008  0.5099 -0.0539
 2982SOL     OW20407   0.493   0.512   3.852 -0.2881 -0.0590  0.0065
 2982SOL    HW120408   0.537   0.436   3.813 -0.0737  0.4274 -0.7067
 2982SOL    HW220409   0.495   0.491   3.945  1.5195 -0.6751 -0.1823
 2983SOL     OW20410   4.627   2.148   7.449 -0.0906  0.3438 -0.1661
 2983SOL    HW120411   4.694   2.121   7.511  0.6755 -1.2630 -1.6944
 2983SOL    HW220412   4.550   2.093   7.464  0.2340  0.0250  0.2852
 2984SOL     OW20413   3.305   3.902   2.119  0.0022  0.0589 -0.0732
 2984SOL    HW120414   3.260   3.901   2.203 -0.7858  1.7684 -0.4709
 2984SOL    HW220415   3.235   3.924   2.057 -1.4231  0.1423  1.5775
 2985SOL     OW20416   3.971   2.303   7.124  0.7008 -0.8189  0.2718
 2985SOL    HW120417   3.986   2.218   7.165 -0.3133 -1.5160 -0.8023
 2985SOL    HW220418   4.006   2.284   7.037 -0.7751  1.1376 -0.7545
 2986SOL     OW20419   1.397   0.855   7.955  0.5661  0.3685 -0.1024
 2986SOL    HW120420   1.458   0.834   8.026  0.4855  1.4490  0.2813
 2986SOL    HW220421   1.340   0.780   7.938  0.0949  0.2264  1.9869
 2987SOL     OW20422   3.379   1.784   7.404  0.5416 -0.1752 -0.6213
 2987SOL    HW120423   3.432   1.778   7.483 -1.9005 -1.3148  0.9266
 2987SOL    HW220424   3.392   1.874   7.374  0.3385  0.1236  0.1987
 2988SOL     OW20425   3.896   0.469  12.971 -0.1259  0.5367  0.1216
 2988SOL    HW120426   3.956   0.453  12.897 -1.1070 -0.4870 -0.4515
 2988SOL    HW220427   3.842   0.390  12.961 -0.4943  0.7536  0.4097
 2989SOL     OW20428   0.021   0.533  13.871  0.2776  0.5678  0.1980
 2989SOL    HW120429   0.069   0.583  13.936 -1.1301  1.3203  0.6628
 2989SOL    HW220430   0.064   0.447  13.880 -2.5520 -1.1223 -2.3661
 2990SOL     OW20431   2.528   2.727  13.738  0.0015  0.1932  0.3936
 2990SOL    HW120432   2.447   2.676  13.750  1.1059 -2.0092 -1.4090
 2990SOL    HW220433   2.500   2.818  13.745  2.3932  1.0728 -1.3842
 2991SOL     OW20434   0.257   2.793  15.904  0.2390 -0.1659  0.2829
 2991SOL    HW120435   0.225   2.883  15.912 -0.6984 -0.3193 -1.6974
 2991SOL    HW220436   0.217   2.758  15.825 -0.5938 -2.7646  1.8842
 2992SOL     OW20437   0.384   0.174   4.138 -0.7181  1.2365 -0.0752
 2992SOL    HW120438   0.366   0.088   4.099  0.0181 -0.2735  2.9230
 2992SOL    HW220439   0.405   0.137   4.224 -1.0591 -1.3360 -1.0920
 2993SOL     OW20440   0.465   3.500  10.746  0.0676 -0.2379  0.2454
 2993SOL    HW120441   0.472   3.517  10.840 -1.4660  1.0198  0.1420
 2993SOL    HW220442   0.387   3.554  10.730 -0.9158 -1.1327  2.0047
 2994SOL     OW20443   1.053   2.680   2.917  0.2210  0.1602  1.0070
 2994SOL    HW120444   1.056   2.590   2.948 -0.9702  0.5107  2.1795
 2994SOL    HW220445   0.959   2.696   2.928  0.2315  0.1407  1.1262
 2995SOL     OW20446   2.079   4.602   1.184  0.1057 -0.5538 -0.1719
 2995SOL    HW120447   2.115   4.541   1.248  1.3043  1.3955  1.0098
 2995SOL    HW220448   2.154   4.640   1.138 -0.8509  3.5177  1.6546
 2996SOL     OW20449   4.132   0.772   0.057  0.2590  0.3778  0.4163
 2996SOL    HW120450   4.126   0.791  17.656 -2.4868  1.4141  0.7988
 2996SOL    HW220451   4.207   0.830   0.075  0.8769 -0.3491  0.1822
 2997SOL     OW20452   4.600   1.181  14.942  0.7411 -0.6771  0.7404
 2997SOL    HW120453   4.516   1.209  14.977  0.0916 -2.4987  0.6490
 2997SOL    HW220454   4.654   1.150  15.015  0.8040 -3.0872 -0.3310
 2998SOL     OW20455   2.495   0.735   4.832 -0.1368  0.1702 -0.2951
 2998SOL    HW120456   2.400   0.721   4.828 -0.1724 -0.1352  1.8039
 2998SOL    HW220457   2.522   0.648   4.802 -0.1743  0.2108 -0.4470
 2999SOL     OW20458   2.096   0.121   9.948 -0.0639  0.4084 -0.1301
 2999SOL    HW120459   2.116   0.147  10.038  3.6058 -2.1061 -0.2115
 2999SOL    HW220460   2.141   0.183   9.890 -0.6851  0.6579 -0.3478
 3000SOL     OW20461   2.902   0.321   4.996 -0.3382 -0.4081 -0.0053
 3000SOL    HW120462   2.927   0.353   4.910 -3.9779  0.5730 -0.7064
 3000SOL    HW220463   2.965   0.372   5.047  1.5696 -2.8486  0.0689
 3001SOL     OW20464   1.957   1.198   7.967 -0.1956  0.0298  0.6460
 3001SOL    HW120465   1.981   1.230   7.880  1.9450 -1.0179  0.8689
 3001SOL    HW220466   1.862   1.199   7.953 -0.4925 -1.2592  2.6111
 3002SOL     OW20467   2.165   1.271   6.418 -0.0513  0.2545 -0.2516
 3002SOL    HW120468   2.080   1.305   6.390  0.4688 -0.2894 -2.5525
 3002SOL    HW220469   2.198   1.349   6.462  1.2739 -0.4394 -0.0065
 3003SOL     OW20470   2.551   3.053  16.928 -0.0871  0.3603  0.2953
 3003SOL    HW120471   2.613   3.125  16.940 -1.8799  1.7432  1.1316
 3003SOL    HW220472   2.539   3.057  16.833 -1.1271  0.0223  0.4205
 3004SOL     OW20473   2.461   3.378  17.036  0.5368 -0.2473 -0.7046
 3004SOL    HW120474   2.545   3.350  17.000  0.0916 -1.5862 -0.7325
 3004SOL    HW220475   2.397   3.357  16.968 -2.3708  1.9629  1.3277
 3005SOL     OW20476   2.791   4.328  12.552  0.0316 -0.3700 -0.2669
 3005SOL    HW120477   2.796   4.325  12.456  0.3327 -1.2276 -0.2303
 3005SOL    HW220478   2.885   4.331  12.570  0.2167  1.3905 -1.5364
 3006SOL     OW20479   1.090   4.143  13.708 -0.5825  0.0681  0.4299
 3006SOL    HW120480   1.085   4.145  13.804 -1.3361  0.5721  0.3833
 3006SOL    HW220481   1.005   4.183  13.689  0.2775  1.4787 -0.4547
 3007SOL     OW20482   1.144   3.694   4.350 -0.1043  0.2179 -0.3287
 3007SOL    HW120483   1.175   3.635   4.281 -1.0340  2.9351 -3.0895
 3007SOL    HW220484   1.119   3.633   4.419 -0.9916  0.2202 -0.6415
 3008SOL     OW20485   3.195   3.618   4.511 -0.4940  0.2693 -0.2024
 3008SOL    HW120486   3.258   3.579   4.452  0.7992 -1.6567  2.4842
 3008SOL    HW220487   3.174   3.689   4.450 -1.5964  1.0499  1.0627
 3009SOL     OW20488   3.412   3.773   2.817 -1.3143  0.4378 -0.3305
 3009SOL    HW120489   3.391   3.858   2.778  1.7781  0.7806 -1.2615
 3009SOL    HW220490   3.468   3.803   2.889 -0.0228 -0.6056 -0.9042
 3010SOL     OW20491   3.763   0.574  12.313 -0.0846  0.3545  0.5407
 3010SOL    HW120492   3.685   0.521  12.302  0.5410 -0.3547 -0.4367
 3010SOL    HW220493   3.776   0.604  12.223  0.5260 -1.5750 -0.0092
 3011SOL     OW20494   3.704   3.426   3.805 -0.1177  0.1895  0.5047
 3011SOL    HW120495   3.696   3.515   3.839 -0.9127  0.4278 -0.2993
 3011SOL    HW220496   3.619   3.389   3.827 -2.0747  4.1878 -0.2038
 3012SOL     OW20497   0.439   2.675   0.842 -0.0677  1.0803 -0.8434
 3012SOL    HW120498   0.451   2.738   0.913 -0.3034  2.8586 -2.3741
 3012SOL    HW220499   0.348   2.645   0.850  0.4380 -0.8103 -2.1721
 3013SOL     OW20500   1.421   0.447  12.379 -0.0844 -0.0582 -0.6359
 3013SOL    HW120501   1.411   0.362  12.422  0.5824  0.3527  0.3306
 3013SOL    HW220502   1.507   0.441  12.338  0.1841 -2.0791  0.2525
 3014SOL     OW20503   4.337   1.682  12.009 -0.2341  0.0216  0.1112
 3014SOL    HW120504   4.247   1.693  12.037 -0.1455 -0.0896  0.4382
 3014SOL    HW220505   4.366   1.612  12.068 -1.2950 -1.1781 -0.7974
 3015SOL     OW20506   2.534   2.953   7.776  0.2146 -0.1880  0.1019
 3015SOL    HW120507   2.465   2.968   7.712  0.3682  0.6654  0.1418
 3015SOL    HW220508   2.582   3.032   7.753  0.8157 -0.2291  1.2316
 3016SOL     OW20509   4.198   4.371   1.583  0.6674  1.0019 -0.7710
 3016SOL    HW120510   4.113   4.396   1.619  0.9765 -0.9041  1.2194
 3016SOL    HW220511   4.254   4.384   1.660 -0.5983 -0.6314  0.4101
 3017SOL     OW20512   2.589   1.774   1.132  0.4572  0.3015  0.4072
 3017SOL    HW120513   2.592   1.806   1.042  0.8624  0.4255  0.4647
 3017SOL    HW220514   2.675   1.806   1.159 -0.4908  0.2286  3.4998
 3018SOL     OW20515   4.248   4.493   4.130 -0.6489  0.4071  0.5809
 3018SOL    HW120516   4.328   4.484   4.181 -0.6745 -2.5146  0.1220
 3018SOL    HW220517   4.194   4.465   4.204 -1.3913  0.2043 -0.0340
 3019SOL     OW20518   1.186   1.149  16.101 -0.1734  0.4546 -0.4412
 3019SOL    HW120519   1.142   1.181  16.180 -0.7191 -0.4037 -0.3945
 3019SOL    HW220520   1.275   1.132  16.132 -0.8224 -0.7500  0.7784
 3020SOL     OW20521   4.005   0.032   6.383  0.0768  0.5235  0.2709
 3020SOL    HW120522   4.090   4.721   6.411  0.9253  1.6948 -0.8777
 3020SOL    HW220523   3.964   4.679   6.341  3.7422 -2.3060  1.8575
 3021SOL     OW20524   0.268   1.625   2.439 -0.5135 -0.7513  0.0397
 3021SOL    HW120525   0.286   1.714   2.468  0.2983 -2.2604  4.1580
 3021SOL    HW220526   0.357   1.604   2.410 -0.1745 -0.2632  0.7265
 3022SOL     OW20527   2.131   0.638   2.279  0.6122  0.1008 -0.4389
 3022SOL    HW120528   2.087   0.720   2.255  0.2183 -0.2490 -0.9058
 3022SOL    HW220529   2.155   0.657   2.370  2.2910  0.5936 -0.9982
 3023SOL     OW20530   0.228   0.593   3.541 -0.6683  0.6188 -0.3696
 3023SOL    HW120531   0.227   0.660   3.609 -3.0824  0.7311 -0.4905
 3023SOL    HW220532   0.316   0.556   3.542 -0.9014  0.0831  0.3046
 3024SOL     OW20533   1.599   0.391   5.837  0.3468 -0.5228 -0.4720
 3024SOL    HW120534   1.537   0.454   5.800  0.0337  1.2094  2.9847
 3024SOL    HW220535   1.654   0.454   5.885 -0.9921  0.9613 -0.8521
 3025SOL     OW20536   0.168   1.627   6.310  1.1396  1.0865 -0.1269
 3025SOL    HW120537   0.165   1.611   6.404 -2.4620 -0.2340 -0.4586
 3025SOL    HW220538   0.166   1.723   6.307  1.2183  1.0610 -1.1970
 3026SOL     OW20539   1.043   0.585   6.873  0.1220  0.0000  0.0460
 3026SOL    HW120540   1.016   0.531   6.947  0.0679  2.0031  1.4941
 3026SOL    HW220541   1.128   0.548   6.849 -1.4185 -3.3149 -0.2140
 3027SOL     OW20542   0.676   2.104   6.680 -0.0824 -0.5907  0.0604
 3027SOL    HW120543   0.647   2.082   6.769 -0.3582 -0.2152  0.0624
 3027SOL    HW220544   0.603   2.069   6.630  0.1308  0.1224 -0.7603
 3028SOL     OW20545   3.580   3.129   0.540 -0.2390  0.2349  0.2036
 3028SOL    HW120546   3.515   3.105   0.474  0.2200  1.0335 -0.5355
 3028SOL    HW220547   3.539   3.212   0.564 -0.0517  0.4719 -0.3031
 3029SOL     OW20548   4.165   4.323   7.371  0.3475 -0.0843 -0.3099
 3029SOL    HW120549   4.083   4.366   7.345  0.4822  0.6383  0.4861
 3029SOL    HW220550   4.163   4.241   7.321 -1.5796 -0.6373  0.6475
 3030SOL     OW20551   3.422   4.717   8.446 -0.0225 -0.5972  0.0328
 3030SOL    HW120552   3.494   4.695   8.505  0.7192 -1.1058 -1.0407
 3030SOL    HW220553   3.366   4.641   8.464 -0.0320 -0.9831 -1.5697
 3031SOL     OW20554   1.181   0.047   5.589 -0.9274 -0.0201  0.1671
 3031SOL    HW120555   1.151   4.689   5.630 -0.8569  0.7740  1.8051
 3031SOL    HW220556   1.100   0.097   5.578 -0.3647  0.6529 -0.8746
 3032SOL     OW20557   4.342   2.337   4.072  0.1887  0.3080  0.3433
 3032SOL    HW120558   4.329   2.363   3.980  1.8546 -1.1098 -0.2916
 3032SOL    HW220559   4.255   2.302   4.091  0.6822 -1.2539 -0.3204
 3033SOL     OW20560   2.467   3.778  12.787  0.2326  0.5944 -0.0987
 3033SOL    HW120561   2.551   3.820  12.804  0.7874 -1.6986  2.8991
 3033SOL    HW220562   2.492   3.696  12.744 -2.4811 -0.6482  0.6440
 3034SOL     OW20563   1.988   2.979   6.164 -0.3038  0.0505 -0.0049
 3034SOL    HW120564   1.958   3.051   6.108 -0.2389  0.0622 -0.0249
 3034SOL    HW220565   2.051   3.025   6.219 -1.2916 -0.9285  1.9252
 3035SOL     OW20566   3.976   4.087   4.312 -1.0475 -0.7135  0.1125
 3035SOL    HW120567   4.029   4.017   4.352 -0.8590  0.5699  2.0926
 3035SOL    HW220568   3.892   4.066   4.353 -0.1578 -0.2027  2.1954
 3036SOL     OW20569   4.099   1.981   4.766 -0.1238  0.5124  0.2267
 3036SOL    HW120570   4.178   1.993   4.819  0.9529 -0.0080 -1.2491
 3036SOL    HW220571   4.030   1.981   4.832 -1.7988  0.1679 -1.5075
 3037SOL     OW20572   3.429   3.863   7.477 -0.0145 -0.6562  0.5111
 3037SOL    HW120573   3.486   3.937   7.459 -1.5933  0.7272  1.1596
 3037SOL    HW220574   3.381   3.895   7.553  2.1781  0.1325  1.5587
 3038SOL     OW20575   0.771   4.115   6.934  0.2618  0.7637  0.0686
 3038SOL    HW120576   0.729   4.177   6.874  0.2844  0.5256 -0.1917
 3038SOL    HW220577   0.860   4.151   6.939 -0.3939  2.6328 -1.5241
 3039SOL     OW20578   0.938   1.287  13.255  0.3961 -0.2368 -0.5428
 3039SOL    HW120579   1.017   1.339  13.245  1.2335 -1.3994  0.0937
 3039SOL    HW220580   0.870   1.354  13.260 -1.1504 -1.6815 -2.0877
 3040SOL     OW20581   0.804   3.032   0.131  0.1738  0.3689 -0.2226
 3040SOL    HW120582   0.870   2.963   0.123 -0.2381 -0.0224 -0.2750
 3040SOL    HW220583   0.858   3.109   0.112 -0.7042  1.2943  1.0123
 3041SOL     OW20584   0.958   3.318   6.683 -0.1287 -0.3502 -0.0617
 3041SOL    HW120585   0.924   3.407   6.679 -0.4716 -0.5645 -1.9217
 3041SOL    HW220586   1.049   3.342   6.699 -0.6049  1.2194  0.2899
 3042SOL     OW20587   3.317   1.597  10.756  0.3393  0.4437 -0.1560
 3042SOL    HW120588   3.286   1.622  10.843 -0.6420 -1.9197  0.1811
 3042SOL    HW220589   3.257   1.657  10.711  0.5109  1.3936  0.8783
 3043SOL     OW20590   3.399   2.343   9.316  0.1047  0.0517  0.4108
 3043SOL    HW120591   3.416   2.416   9.375 -1.3404 -0.1319  1.0575
 3043SOL    HW220592   3.324   2.375   9.267 -0.6213 -1.1334  0.7387
 3044SOL     OW20593   2.603   4.365   7.762  0.1186  0.9784  0.2306
 3044SOL    HW120594   2.674   4.390   7.822  0.5553 -1.3257  0.6834
 3044SOL    HW220595   2.527   4.415   7.792 -1.9722 -1.3467 -1.1700
 3045SOL     OW20596   1.701   4.475  12.887  0.1425 -0.6990 -0.2739
 3045SOL    HW120597   1.695   4.554  12.833  0.4915 -1.8231 -1.9780
 3045SOL    HW220598   1.645   4.508  12.958 -0.9219 -1.0322 -0.9583
 3046SOL     OW20599   4.563   4.679  12.500 -0.2921  0.3705  0.7552
 3046SOL    HW120600   4.474   4.662  12.467  0.4780 -1.2440 -0.4850
 3046SOL    HW220601   4.548   4.640  12.586  0.3226 -1.3395  0.0859
 3047SOL     OW20602   0.212   2.779   3.479  0.3158 -0.0935 -0.6721
 3047SOL    HW120603   0.295   2.822   3.503  0.0101  1.9261 -3.2916
 3047SOL    HW220604   0.223   2.784   3.384  0.8069 -1.5457 -0.6909
 3048SOL     OW20605   4.523   4.472   0.803 -0.7040 -0.6211  0.5827
 3048SOL    HW120606   4.566   4.533   0.863  1.5794  0.1775 -1.8737
 3048SOL    HW220607   4.502   4.403   0.866 -0.4784 -1.9310 -0.7868
 3049SOL     OW20608   2.406   1.234  15.167 -0.4072 -0.0505  0.0206
 3049SOL    HW120609   2.424   1.144  15.139 -2.5977 -0.5393  0.1118
 3049SOL    HW220610   2.357   1.212  15.247 -0.5015  2.3040  0.6040
 3050SOL     OW20611   0.864   1.788   3.574  0.1612  0.2064 -0.2426
 3050SOL    HW120612   0.823   1.822   3.494 -1.2780 -1.7272 -0.3335
 3050SOL    HW220613   0.942   1.743   3.542  0.6187  2.5688 -2.4543
 3051SOL     OW20614   2.666   3.940   2.744 -0.4003 -0.4822  0.4774
 3051SOL    HW120615   2.616   3.970   2.668 -0.5278  0.7434  1.0523
 3051SOL    HW220616   2.716   3.874   2.696  0.2200  0.4707 -0.1998
 3052SOL     OW20617   0.709   4.064   2.559  0.5260 -0.3704  0.1357
 3052SOL    HW120618   0.744   4.075   2.647  0.7266 -0.1699  0.0310
 3052SOL    HW220619   0.677   4.153   2.542 -0.8528 -0.9381 -0.2663
 3053SOL     OW20620   1.239   1.987   9.088  0.3282 -0.2502  0.4337
 3053SOL    HW120621   1.334   1.973   9.082  0.7243  2.6698  0.0074
 3053SOL    HW220622   1.237   2.080   9.067  1.0168  0.0509  1.6802
 3054SOL     OW20623   1.551   0.849   8.184 -0.5163  0.3438  0.3949
 3054SOL    HW120624   1.553   0.791   8.260  2.2534 -0.4193 -0.2570
 3054SOL    HW220625   1.642   0.842   8.155 -1.0467  0.5477 -1.2653
 3055SOL     OW20626   0.131   1.129  12.424 -0.3481 -0.5716 -0.3018
 3055SOL    HW120627   0.043   1.115  12.459 -0.8776 -0.6746 -1.6500
 3055SOL    HW220628   0.139   1.065  12.353  0.6531  1.6287 -2.1877
 3056SOL     OW20629   4.525   2.556   8.594  0.3912 -0.1702 -0.3922
 3056SOL    HW120630   4.567   2.523   8.674  2.9249 -1.8143 -2.3579
 3056SOL    HW220631   4.483   2.636   8.625  1.1876 -0.7129  2.0797
 3057SOL     OW20632   0.505   3.471  15.915  0.3961 -0.3470  0.3814
 3057SOL    HW120633   0.540   3.536  15.976  1.2404  0.7838 -1.2959
 3057SOL    HW220634   0.575   3.406  15.915  1.4602  0.7985  0.0478
 3058SOL     OW20635   3.236   1.026  12.874 -0.1468  1.0298 -0.1086
 3058SOL    HW120636   3.151   1.006  12.914 -0.4208  2.3765 -0.0279
 3058SOL    HW220637   3.292   0.959  12.913 -1.8633 -0.4443 -0.1668
 3059SOL     OW20638   4.173   3.189   9.058  0.2789  0.2215  0.3204
 3059SOL    HW120639   4.203   3.264   9.006 -0.5719  0.1700 -0.2571
 3059SOL    HW220640   4.193   3.218   9.147  1.3541 -1.0981  0.5005
 3060SOL     OW20641   2.056   1.403   8.584 -0.6862 -0.5208 -0.4270
 3060SOL    HW120642   2.036   1.479   8.638  0.9201  0.4137 -1.1280
 3060SOL    HW220643   2.097   1.444   8.507 -1.6452 -0.4713 -0.9110
 3061SOL     OW20644   2.707   2.166   6.893  0.5652  0.0692  0.5966
 3061SOL    HW120645   2.798   2.195   6.902  0.5210  1.0220 -2.0265
 3061SOL    HW220646   2.661   2.249   6.904 -1.4572 -1.0009  0.1228
 3062SOL     OW20647   3.432   3.212   6.449  0.5031 -0.7296 -0.2706
 3062SOL    HW120648   3.457   3.205   6.357 -0.8904  0.0643 -0.6998
 3062SOL    HW220649   3.449   3.305   6.461 -3.8234  0.0586 -0.1817
 3063SOL     OW20650   3.115   1.018   3.584  0.3641 -0.1606 -0.2893
 3063SOL    HW120651   3.118   1.095   3.527 -0.8785  1.8505  2.3822
 3063SOL    HW220652   3.192   0.970   3.552 -0.0937 -1.0694 -0.0424
 3064SOL     OW20653   0.044   3.440  14.018 -0.3876 -0.2097  0.6476
 3064SOL    HW120654   0.091   3.487  13.949  1.0164  2.3887  3.4354
 3064SOL    HW220655   0.110   3.372  14.031 -0.7663 -0.3268  1.9255
 3065SOL     OW20656   2.160   3.982   7.426  0.1544  0.0123  0.0025
 3065SOL    HW120657   2.094   3.972   7.357 -0.0563 -4.1358  0.8211
 3065SOL    HW220658   2.112   4.025   7.497 -0.9981 -1.8191  0.3273
 3066SOL     OW20659   0.633   0.460   6.901 -0.0551  0.0766 -0.2763
 3066SOL    HW120660   0.649   0.511   6.981 -0.4389 -0.8067  0.3702
 3066SOL    HW220661   0.585   0.524   6.850 -2.5582  0.9981  3.2251
 3067SOL     OW20662   3.475   4.154   4.577 -0.1186  0.0945  0.4679
 3067SOL    HW120663   3.480   4.100   4.656  0.3009 -0.3009  0.1627
 3067SOL    HW220664   3.510   4.094   4.511 -0.6829 -0.4356  0.6535
 3068SOL     OW20665   3.271   2.394   7.394 -0.5322  0.1104 -0.3109
 3068SOL    HW120666   3.255   2.347   7.476 -0.6058  0.7533  0.0417
 3068SOL    HW220667   3.245   2.482   7.422 -0.5038 -0.2387  0.8031
 3069SOL     OW20668   0.990   1.440   4.522  0.1204  0.3915 -0.2360
 3069SOL    HW120669   0.933   1.459   4.447 -0.6872  0.1794  0.3320
 3069SOL    HW220670   1.021   1.350   4.511 -1.8576 -0.1582 -1.2963
 3070SOL     OW20671   4.034   1.274  15.324  0.0640  0.1415  0.5970
 3070SOL    HW120672   4.002   1.280  15.415 -0.5894 -1.0025  0.4501
 3070SOL    HW220673   4.124   1.247  15.338  0.2674  0.7577  0.4590
 3071SOL     OW20674   0.493   4.163  11.187 -0.3927 -0.3563 -0.0136
 3071SOL    HW120675   0.563   4.124  11.239 -1.8495 -0.1894  2.0755
 3071SOL    HW220676   0.442   4.207  11.256  0.2542  2.4520 -1.3309
 3072SOL     OW20677   0.902   2.943  16.017 -0.4477  0.4400  0.0412
 3072SOL    HW120678   0.871   2.988  15.938 -0.2709  0.7349  0.1403
 3072SOL    HW220679   0.817   2.934  16.061 -1.8743  1.0210 -2.5975
 3073SOL     OW20680   4.634   4.475   8.239 -0.8197 -0.1051 -0.2906
 3073SOL    HW120681   4.665   4.408   8.178  2.0575  0.6880  0.3157
 3073SOL    HW220682   4.558   4.499   8.185 -1.2638 -3.3489 -1.0851
 3074SOL     OW20683   1.060   3.716  10.265  0.2924  0.2036 -0.5559
 3074SOL    HW120684   0.985   3.658  10.255 -0.5365  1.0811  0.6986
 3074SOL    HW220685   1.077   3.695  10.357 -1.2534 -0.5546 -0.4534
 3075SOL     OW20686   1.687   4.427   6.951  0.6356  0.5821 -0.0183
 3075SOL    HW120687   1.668   4.356   6.890 -3.5308  0.3683  1.5058
 3075SOL    HW220688   1.603   4.438   6.995  1.9475  1.6497  2.1988
 3076SOL     OW20689   0.911   0.454   3.214 -0.6434  0.1571  0.2524
 3076SOL    HW120690   0.969   0.400   3.159 -2.0743 -0.1388 -0.9620
 3076SOL    HW220691   0.959   0.450   3.297  0.6303 -0.3999 -0.4947
 3077SOL     OW20692   3.555   0.362  15.690 -0.3135 -0.0506  0.7390
 3077SOL    HW120693   3.460   0.367  15.677 -0.1355  0.3975 -0.4332
 3077SOL    HW220694   3.584   0.442  15.645  0.9339 -1.4546 -0.9954
 3078SOL     OW20695   1.562   4.013   5.300 -0.0809 -0.7318 -0.0476
 3078SOL    HW120696   1.613   3.965   5.366  1.9711  1.6101  0.0848
 3078SOL    HW220697   1.602   4.098   5.316 -3.2355  0.5132  1.2456
 3079SOL     OW20698   4.062   1.046   9.814 -0.0464 -0.4102 -0.1665
 3079SOL    HW120699   3.967   1.060   9.815  0.2360  1.5961  0.8591
 3079SOL    HW220700   4.088   1.095   9.736 -0.9085  0.1880 -0.0874
 3080SOL     OW20701   3.316   4.011   0.808 -0.0009  0.0734 -0.9791
 3080SOL    HW120702   3.258   4.080   0.841  0.0931  0.2707 -1.2264
 3080SOL    HW220703   3.354   3.972   0.887  0.2108  0.5106 -0.8614
 3081SOL     OW20704   2.393   0.079   7.958 -0.5113 -0.5046  0.3568
 3081SOL    HW120705   2.487   0.091   7.970 -0.5392 -0.8220  0.9203
 3081SOL    HW220706   2.379   0.076   7.864  5.0738 -1.8899 -0.4276
 3082SOL     OW20707   1.255   3.992  17.620  0.0965  0.4286 -0.6732
 3082SOL    HW120708   1.176   3.938  17.614  0.1825  0.2832 -0.5071
 3082SOL    HW220709   1.318   3.922  17.636 -1.4190 -0.1289  2.8175
 3083SOL     OW20710   0.868   1.426   9.508 -0.5570 -0.1908  0.1155
 3083SOL    HW120711   0.790   1.397   9.461 -0.6996 -1.1091  0.9128
 3083SOL    HW220712   0.847   1.514   9.541 -0.4841 -0.2136  0.2234
 3084SOL     OW20713   2.275   2.178   7.062  0.3413 -0.1011 -0.9368
 3084SOL    HW120714   2.273   2.099   7.008 -0.1964 -1.8794  1.7227
 3084SOL    HW220715   2.300   2.133   7.142 -0.9264  1.3830  0.2864
 3085SOL     OW20716   0.067   2.713   6.352 -0.0591 -0.5562  0.0815
 3085SOL    HW120717   0.091   2.641   6.294  0.3043  0.0024 -0.4622
 3085SOL    HW220718   0.110   2.688   6.434 -4.0088 -0.3646  2.1947
 3086SOL     OW20719   2.340   2.144   9.652  0.3198  0.1198 -0.2691
 3086SOL    HW120720   2.415   2.169   9.707 -0.3588  1.7301 -0.0740
 3086SOL    HW220721   2.347   2.049   9.652  0.5072  0.1388 -2.0268
 3087SOL     OW20722   3.003   2.158   7.553 -0.3097 -0.2386  0.0913
 3087SOL    HW120723   3.067   2.140   7.621  1.0394 -0.2172 -1.1702
 3087SOL    HW220724   2.969   2.071   7.529  1.5470 -1.3591  1.5259
 3088SOL     OW20725   4.230   1.397  13.414 -0.3831 -0.5835 -0.5217
 3088SOL    HW120726   4.269   1.310  13.414 -0.6226 -0.7007 -1.6275
 3088SOL    HW220727   4.151   1.378  13.363 -0.6095  2.0262 -1.1668
 3089SOL     OW20728   1.478   3.730  13.110  0.2148  0.0029  0.1688
 3089SOL    HW120729   1.567   3.741  13.077  0.6641 -1.0923  1.0199
 3089SOL    HW220730   1.452   3.641  13.086 -3.9096  1.8822 -2.2884
 3090SOL     OW20731   4.251   2.478   2.767 -0.5753 -0.0010  0.1294
 3090SOL    HW120732   4.159   2.463   2.787 -0.5019  0.4115  0.7794
 3090SOL    HW220733   4.251   2.527   2.686  1.3061  0.5355  0.4616
 3091SOL     OW20734   0.391   0.922  16.025  0.6977 -0.4249 -0.2884
 3091SOL    HW120735   0.450   0.846  16.024  0.3348 -0.7173  0.4474
 3091SOL    HW220736   0.377   0.943  15.933 -1.2800  2.9482  0.7774
 3092SOL     OW20737   2.797   0.575   5.449 -0.1162  0.1895  0.3845
 3092SOL    HW120738   2.772   0.499   5.503 -1.8216 -0.3526 -1.1610
 3092SOL    HW220739   2.722   0.593   5.393 -0.0962 -0.3862  0.1684
 3093SOL     OW20740   0.453   1.309   8.696  0.2482  0.3321 -0.0020
 3093SOL    HW120741   0.512   1.385   8.695 -1.2680  1.4903 -0.6013
 3093SOL    HW220742   0.507   1.237   8.730 -0.1964 -1.1477 -2.5099
 3094SOL     OW20743   1.557   2.984   3.301 -0.2681  0.5519  0.5830
 3094SOL    HW120744   1.652   2.974   3.309 -0.4242 -1.9488 -0.8600
 3094SOL    HW220745   1.569   3.065   3.250  0.1355 -0.0908 -0.3495
 3095SOL     OW20746   2.756   4.509   6.270  0.8159 -0.0624 -0.5755
 3095SOL    HW120747   2.787   4.599   6.275 -1.0773  0.4321  2.0035
 3095SOL    HW220748   2.703   4.509   6.349 -0.4283 -0.2559 -1.4088
 3096SOL     OW20749   0.122   2.696  11.277 -0.0855 -0.6498 -0.1573
 3096SOL    HW120750   0.170   2.776  11.255  1.0327 -1.0690  0.7598
 3096SOL    HW220751   0.168   2.677  11.359 -0.7972  0.4084  0.4953
 3097SOL     OW20752   2.680   0.674   4.491 -0.1781  0.2460  0.1941
 3097SOL    HW120753   2.738   0.629   4.430  0.9568  0.7999  0.8446
 3097SOL    HW220754   2.713   0.763   4.478 -1.8539  0.6814 -1.0176
 3098SOL     OW20755   3.418   0.011  11.635 -0.0816  0.6021 -0.3347
 3098SOL    HW120756   3.510   0.006  11.612 -0.4461  0.8211 -1.8120
 3098SOL    HW220757   3.370   4.694  11.562 -1.7707  0.9560  0.5818
 3099SOL     OW20758   1.998   0.646   4.099  0.3441  0.4146 -0.0750
 3099SOL    HW120759   1.925   0.672   4.042  0.2169 -0.8464 -0.4838
 3099SOL    HW220760   2.065   0.705   4.066  1.7808 -0.9736  0.3681
 3100SOL     OW20761   0.391   1.509   9.029  0.4618 -0.3121  0.5358
 3100SOL    HW120762   0.389   1.593   9.074  1.6789 -1.0276  1.9458
 3100SOL    HW220763   0.486   1.507   9.018  0.5443 -2.5580  1.5072
 3101SOL     OW20764   3.656   1.630   3.465 -0.2536 -0.3331  0.1593
 3101SOL    HW120765   3.600   1.556   3.487  0.3033 -0.5454  0.8712
 3101SOL    HW220766   3.683   1.662   3.551  1.1302 -0.7633 -0.1107
 3102SOL     OW20767   1.194   1.275   2.967 -0.2929  0.5398  0.1348
 3102SOL    HW120768   1.176   1.208   2.901 -1.1410  1.6157 -0.7154
 3102SOL    HW220769   1.128   1.255   3.033  1.7075  0.7911  2.2200
 3103SOL     OW20770   0.917   4.278  16.736  0.1127  0.3724  0.3833
 3103SOL    HW120771   0.836   4.292  16.686 -1.0380 -1.0548  1.8642
 3103SOL    HW220772   0.893   4.313  16.822  0.1524 -3.0182  1.7527
 3104SOL     OW20773   3.947   2.474  10.658 -0.1929  0.6089  0.6600
 3104SOL    HW120774   3.856   2.496  10.635 -0.3599 -1.1749 -0.3948
 3104SOL    HW220775   3.940   2.446  10.749 -0.9492 -1.1405  0.0611
 3105SOL     OW20776   3.864   1.605   9.368 -0.1821 -0.2944  0.5816
 3105SOL    HW120777   3.894   1.643   9.286 -0.5898 -1.7024 -0.2130
 3105SOL    HW220778   3.948   1.608   9.414  1.1599  0.2662 -1.9479
 3106SOL     OW20779   1.964   3.586   5.611 -0.7067 -0.0163 -0.1510
 3106SOL    HW120780   2.026   3.517   5.633 -0.1818  1.2738  2.4337
 3106SOL    HW220781   1.894   3.529   5.578 -0.0974 -0.2235 -1.0764
 3107SOL     OW20782   1.411   0.835   5.377  0.1540  0.2465 -0.4073
 3107SOL    HW120783   1.447   0.888   5.447 -0.1142 -0.4873  0.2818
 3107SOL    HW220784   1.465   0.853   5.300 -1.7962 -0.3338 -1.9445
 3108SOL     OW20785   2.781   0.949   1.266  0.4851  0.1974 -0.3897
 3108SOL    HW120786   2.790   0.854   1.268  1.3499  0.2955 -0.0024
 3108SOL    HW220787   2.846   0.969   1.333 -0.0422  1.5266 -0.2742
 3109SOL     OW20788   4.508   0.692  11.388 -0.0365 -0.2101 -0.2295
 3109SOL    HW120789   4.584   0.639  11.365 -1.0692 -1.9515  0.4375
 3109SOL    HW220790   4.524   0.718  11.479  0.6207  0.4977 -0.5475
 3110SOL     OW20791   0.491   0.662   5.202 -0.1538 -0.3363  0.0842
 3110SOL    HW120792   0.521   0.747   5.233  0.9868 -1.2205  1.4105
 3110SOL    HW220793   0.488   0.683   5.109  0.6085 -0.0575  0.1263
 3111SOL     OW20794   2.109   0.425  11.804 -0.3059 -0.2411  0.8722
 3111SOL    HW120795   2.104   0.485  11.878  5.4456  0.4087  0.6910
 3111SOL    HW220796   2.110   0.485  11.730  0.1951 -0.7286  0.4832
 3112SOL     OW20797   2.374   3.184   8.115 -0.0592  0.4729  0.2272
 3112SOL    HW120798   2.446   3.210   8.058 -0.1524  2.1686  0.8496
 3112SOL    HW220799   2.302   3.238   8.082 -1.0358  0.1418  1.7870
 3113SOL     OW20800   4.653   2.415  16.233  0.1090 -0.0855 -0.1560
 3113SOL    HW120801   0.010   2.364  16.246 -0.1707 -0.4565  0.1153
 3113SOL    HW220802   4.676   2.508  16.241  3.0774 -1.0129  2.1919
 3114SOL     OW20803   0.824   0.933   6.849  0.3056 -0.2491 -0.0382
 3114SOL    HW120804   0.737   0.907   6.881  0.1792 -0.3820 -0.4856
 3114SOL    HW220805   0.886   0.916   6.920  0.2254 -0.9012 -0.1200
 3115SOL     OW20806   3.352   2.118   9.775 -0.1515 -0.4954 -0.4027
 3115SOL    HW120807   3.411   2.151   9.707  0.0290  2.7477  1.3708
 3115SOL    HW220808   3.393   2.149   9.856 -1.3331 -1.7869  0.6809
 3116SOL     OW20809   0.169   2.881   3.219 -0.3837 -0.0471 -0.0257
 3116SOL    HW120810   0.079   2.904   3.196 -0.2966  0.6615  0.3575
 3116SOL    HW220811   0.209   2.927   3.146 -1.8525  2.1626  0.5713
 3117SOL     OW20812   3.906   2.084   7.266 -0.0516  0.1682 -0.6049
 3117SOL    HW120813   3.901   2.026   7.190  0.8176  0.8272 -1.1640
 3117SOL    HW220814   3.964   2.026   7.316 -0.6998 -1.5359 -1.8302
 3118SOL     OW20815   1.772   4.635   4.225  0.0735 -0.5620  0.0641
 3118SOL    HW120816   1.797   0.000   4.252  0.6369 -0.6631 -0.1220
 3118SOL    HW220817   1.858   4.596   4.206  0.3202 -0.0607  0.1608
 3119SOL     OW20818   1.627   4.404   8.233  0.3219  0.4383  0.5854
 3119SOL    HW120819   1.702   4.450   8.195  0.1563  1.6902  1.7671
 3119SOL    HW220820   1.570   4.480   8.237  0.2156  0.3542  0.6692
 3120SOL     OW20821   3.587   3.879   2.178  0.0613  0.1873  0.5269
 3120SOL    HW120822   3.594   3.818   2.252 -0.7988  1.7769  1.9436
 3120SOL    HW220823   3.493   3.886   2.159 -0.0101 -1.4539  0.2806
 3121SOL     OW20824   3.086   0.985   5.539  0.7876  0.8084 -0.1433
 3121SOL    HW120825   2.994   0.962   5.523  1.6298 -2.1844 -0.5239
 3121SOL    HW220826   3.098   1.078   5.517  1.5780  1.3199  2.4368
 3122SOL     OW20827   4.653   3.187  16.726 -0.0433  0.4668 -0.2670
 3122SOL    HW120828   4.602   3.134  16.788 -0.1872  1.6892  0.6408
 3122SOL    HW220829   4.584   3.249  16.704 -0.5212  0.3329  0.8653
 3123SOL     OW20830   1.397   4.027  12.525 -0.1765  0.8968  0.2632
 3123SOL    HW120831   1.344   4.031  12.445  0.2670  0.8515 -0.0341
 3123SOL    HW220832   1.474   4.080  12.503  0.0501  1.0314  1.3769
 3124SOL     OW20833   4.204   1.386   7.441  0.1158 -0.3639  0.4085
 3124SOL    HW120834   4.224   1.293   7.440  4.0540  0.4935 -0.0697
 3124SOL    HW220835   4.110   1.383   7.456 -0.6781 -1.3123 -4.8768
 3125SOL     OW20836   0.168   1.035  17.598 -0.6175  0.0038 -0.1082
 3125SOL    HW120837   0.176   1.129  17.617 -3.3107  0.5220 -1.5798
 3125SOL    HW220838   0.207   1.029  17.511  0.6374  1.0104  0.3794
 3126SOL     OW20839   3.860   2.550   6.034 -0.3921 -0.3397 -0.3740
 3126SOL    HW120840   3.854   2.619   6.101  0.0261  1.1974 -1.9045
 3126SOL    HW220841   3.786   2.494   6.059 -0.4057  0.9012  2.4323
 3127SOL     OW20842   4.462   3.182   7.812  0.4972 -0.0339 -0.0426
 3127SOL    HW120843   4.412   3.100   7.813  2.4257 -1.1800  1.0720
 3127SOL    HW220844   4.541   3.148   7.770  0.1107  0.5004 -1.2159
 3128SOL     OW20845   1.782   4.394   2.269 -0.4082 -0.1167 -0.2751
 3128SOL    HW120846   1.762   4.478   2.309  0.3495 -1.0696  2.0906
 3128SOL    HW220847   1.720   4.381   2.197 -0.8944  0.8846 -0.0329
 3129SOL     OW20848   0.107   2.340   8.161  0.4121 -0.2378  0.0856
 3129SOL    HW120849   0.039   2.300   8.106 -0.6420  0.3648  0.9393
 3129SOL    HW220850   0.158   2.372   8.086  0.8607 -0.8363  0.1376
 3130SOL     OW20851   0.222   3.145   9.230  0.2707  0.5157 -0.2743
 3130SOL    HW120852   0.255   3.102   9.151  0.3208 -0.8628  0.4900
 3130SOL    HW220853   0.301   3.189   9.260  1.2694 -1.4109 -0.0552
 3131SOL     OW20854   2.172   3.792   4.428 -0.3798  0.0998  0.2891
 3131SOL    HW120855   2.187   3.712   4.378 -1.4349 -0.7787  1.3985
 3131SOL    HW220856   2.150   3.766   4.517 -2.8059  2.0398  0.2433
 3132SOL     OW20857   4.045   0.733   7.246 -0.1281  0.0632 -0.0052
 3132SOL    HW120858   3.949   0.737   7.245 -0.0808  1.5831  0.5309
 3132SOL    HW220859   4.052   0.649   7.291 -2.6701  0.8018  1.7393
 3133SOL     OW20860   2.232   1.228   5.649 -0.5550  0.8542  0.6460
 3133SOL    HW120861   2.154   1.255   5.697 -0.6056  0.9198  0.5271
 3133SOL    HW220862   2.236   1.137   5.681 -1.1925 -0.2537 -2.4198
 3134SOL     OW20863   1.627   3.842   6.572 -0.0972  0.5628 -0.2939
 3134SOL    HW120864   1.641   3.822   6.480 -0.7687  1.4342 -0.5888
 3134SOL    HW220865   1.710   3.811   6.609  0.6696  2.8021 -0.1189
 3135SOL     OW20866   3.128   4.697  17.445  0.1625 -0.0105  0.1642
 3135SOL    HW120867   3.157   4.607  17.458  0.6130  0.1398  0.2366
 3135SOL    HW220868   3.125   4.714  17.351  0.7242  0.2729  0.1967
 3136SOL     OW20869   2.484   4.649  15.095  0.4411  0.1420  0.3239
 3136SOL    HW120870   2.541   4.705  15.042 -2.5093  0.6005 -2.3344
 3136SOL    HW220871   2.404   4.637  15.044  0.6377 -0.4488  0.1460
 3137SOL     OW20872   4.145   1.624   2.034  0.2069 -0.9179  0.1125
 3137SOL    HW120873   4.133   1.701   2.089 -3.8493 -0.7704 -0.9988
 3137SOL    HW220874   4.238   1.603   2.041  0.3041 -1.0329 -1.4128
 3138SOL     OW20875   0.368   0.524   6.737  0.3009  0.0385 -0.9197
 3138SOL    HW120876   0.377   0.617   6.718  1.3171  0.3652  1.1571
 3138SOL    HW220877   0.320   0.532   6.820 -0.2532  0.3168 -1.2667
 3139SOL     OW20878   4.245   0.125   8.455  0.6374  0.2208  0.4827
 3139SOL    HW120879   4.247   0.139   8.549 -1.8683 -0.7630  0.6661
 3139SOL    HW220880   4.157   0.158   8.436  1.1457  1.0747 -0.4169
 3140SOL     OW20881   1.859   3.186  10.447  0.3468  0.3590  0.2732
 3140SOL    HW120882   1.850   3.091  10.451 -1.2674  0.5916  2.0797
 3140SOL    HW220883   1.802   3.212  10.520  2.4170  0.1197  1.9698
 3141SOL     OW20884   4.622   2.897   5.944  0.4509 -0.1018  0.5058
 3141SOL    HW120885   4.527   2.890   5.937  0.5766 -0.6879 -0.6519
 3141SOL    HW220886   4.649   2.982   5.910 -0.5487 -0.1393 -0.3807
 3142SOL     OW20887   2.281   0.821   2.068  0.2928 -0.2010 -0.6333
 3142SOL    HW120888   2.298   0.870   2.149  1.2632 -1.0596 -0.3123
 3142SOL    HW220889   2.317   0.881   2.004  0.9148 -0.8127 -0.8615
 3143SOL     OW20890   0.051   3.689   4.165 -0.0511  0.4161 -0.0066
 3143SOL    HW120891   0.123   3.751   4.180 -0.4953  1.0382 -0.4481
 3143SOL    HW220892   0.009   3.716   4.084 -2.9879 -1.0291  1.0543
 3144SOL     OW20893   1.286   1.041  16.404  0.5430  0.1331 -0.7108
 3144SOL    HW120894   1.242   1.014  16.485  1.6592  0.1155 -0.1226
 3144SOL    HW220895   1.236   1.122  16.392  3.7427  1.9099 -1.9853
 3145SOL     OW20896   3.450   2.899   5.174  0.0114  0.3394  0.5396
 3145SOL    HW120897   3.481   2.919   5.262  0.6814 -2.3316  0.9205
 3145SOL    HW220898   3.509   2.967   5.143 -0.3960  0.6022  0.3463
 3146SOL     OW20899   3.848   3.019   9.368 -0.0222 -0.3989 -0.4547
 3146SOL    HW120900   3.780   3.080   9.341  0.8237  0.4527 -0.6729
 3146SOL    HW220901   3.874   2.974   9.287  0.1177 -0.6984 -0.2443
 3147SOL     OW20902   4.473   2.354   1.748  0.1434 -0.1059  0.1702
 3147SOL    HW120903   4.480   2.422   1.681  1.5114  0.2427  0.6536
 3147SOL    HW220904   4.462   2.278   1.691  0.0917 -1.1469  1.5544
 3148SOL     OW20905   1.314   2.432  12.238  0.0637  0.1205 -0.0597
 3148SOL    HW120906   1.345   2.460  12.324 -0.7824  1.9892 -0.3844
 3148SOL    HW220907   1.366   2.486  12.179  0.3410 -1.3581 -1.1827
 3149SOL     OW20908   2.951   3.965   4.299  0.1509  0.2289 -0.2407
 3149SOL    HW120909   2.903   3.895   4.344 -1.3663  1.6088  0.2835
 3149SOL    HW220910   2.982   3.917   4.223 -0.6312 -2.6846  1.2727
 3150SOL     OW20911   2.527   0.680  12.973 -0.2138 -0.0467  0.2790
 3150SOL    HW120912   2.448   0.626  12.973 -0.4585  0.3569  3.2767
 3150SOL    HW220913   2.559   0.641  12.891  0.4708  0.8342  0.1246
 3151SOL     OW20914   2.907   4.557  14.917 -0.1755  0.5560 -0.4614
 3151SOL    HW120915   2.897   4.472  14.960 -1.4032  0.4931 -0.8522
 3151SOL    HW220916   2.886   4.529  14.828 -2.0403 -1.8915  0.7416
 3152SOL     OW20917   4.395   1.519   8.609 -0.3597  0.1660 -0.6665
 3152SOL    HW120918   4.335   1.454   8.646  0.6609 -0.8094 -0.7189
 3152SOL    HW220919   4.427   1.477   8.530  0.7007 -0.7086  0.2308
 3153SOL     OW20920   2.459   0.488   1.200  0.1286 -0.2340 -0.5697
 3153SOL    HW120921   2.511   0.562   1.231  0.0183  0.8217 -2.8987
 3153SOL    HW220922   2.376   0.522   1.168 -0.8631 -1.3493  0.8455
 3154SOL     OW20923   0.592   0.385   4.495 -0.3682  0.0002 -0.4448
 3154SOL    HW120924   0.671   0.432   4.471 -0.7350  1.4036  1.0474
 3154SOL    HW220925   0.588   0.319   4.427  0.6382 -2.4300  1.8794
 3155SOL     OW20926   1.676   4.612   2.416 -0.3911  0.3643 -0.1910
 3155SOL    HW120927   1.736   4.685   2.396  0.0223 -0.3171 -1.4457
 3155SOL    HW220928   1.615   4.649   2.479 -2.0357 -0.9545 -1.0261
 3156SOL     OW20929   2.825   1.011   7.768 -0.0181  0.3741  0.3752
 3156SOL    HW120930   2.742   0.967   7.751 -0.4710  0.7346  1.6862
 3156SOL    HW220931   2.870   1.021   7.684 -0.6838 -0.9791 -0.1488
 3157SOL     OW20932   1.909   0.930   0.661 -0.0269  0.3416 -0.1608
 3157SOL    HW120933   1.863   0.857   0.621 -0.1691  0.3092  0.0587
 3157SOL    HW220934   1.866   0.935   0.747 -1.0114 -0.2137 -0.6214
 3158SOL     OW20935   2.195   4.060  13.665  0.1408 -0.1257  0.0936
 3158SOL    HW120936   2.116   4.093  13.708  1.6079  1.1499  1.8126
 3158SOL    HW220937   2.261   4.093  13.725 -0.3337 -0.7066  0.9269
 3159SOL     OW20938   2.486   2.265   9.088 -1.4976 -0.1923  0.4096
 3159SOL    HW120939   2.524   2.342   9.046 -1.9658  0.5586  1.3533
 3159SOL    HW220940   2.414   2.250   9.027 -1.3864  0.2008  0.1819
 3160SOL     OW20941   3.347   0.159   1.379 -0.1913  0.0858  0.2487
 3160SOL    HW120942   3.436   0.191   1.368 -0.7079  0.9802 -1.2829
 3160SOL    HW220943   3.304   0.215   1.314 -2.8959 -1.8476  0.3413
 3161SOL     OW20944   1.469   1.536   5.728  0.1879  0.2994 -0.0156
 3161SOL    HW120945   1.548   1.508   5.682  0.7226  2.2406 -0.2938
 3161SOL    HW220946   1.407   1.531   5.655  0.8398  0.9368 -0.6082
 3162SOL     OW20947   0.414   1.673   5.228  0.5251  0.2762 -0.0049
 3162SOL    HW120948   0.433   1.582   5.206 -0.7979  0.0959 -0.3871
 3162SOL    HW220949   0.320   1.677   5.207  0.2645  1.2133  1.3219
 3163SOL     OW20950   1.072   0.843   4.824 -0.1810 -0.0386 -0.4598
 3163SOL    HW120951   1.123   0.771   4.786  1.9066  1.4510 -0.4951
 3163SOL    HW220952   0.994   0.831   4.771 -1.0142 -1.1304  1.0053
 3164SOL     OW20953   1.474   0.473   7.627 -0.3097 -0.1584 -0.3314
 3164SOL    HW120954   1.555   0.444   7.586  1.1831  1.9855  1.0977
 3164SOL    HW220955   1.408   0.418   7.584 -1.4827  2.3061 -1.6677
 3165SOL     OW20956   1.865   4.090   4.827  0.1220 -0.0344  0.4146
 3165SOL    HW120957   1.949   4.075   4.870 -0.5249 -1.4305  1.1869
 3165SOL    HW220958   1.811   4.125   4.898 -0.0703  1.5205 -0.4874
 3166SOL     OW20959   0.322   4.056   2.383 -0.1997 -0.3751 -0.1895
 3166SOL    HW120960   0.293   4.028   2.296  1.7922 -5.5940  0.8666
 3166SOL    HW220961   0.354   3.976   2.423 -1.4107 -2.4894 -3.4891
 3167SOL     OW20962   2.090   4.355   7.892  0.2442  0.1803  0.2786
 3167SOL    HW120963   2.115   4.376   7.982 -0.0414 -1.6976  0.7828
 3167SOL    HW220964   1.997   4.374   7.883  0.1369 -1.2116 -1.4917
 3168SOL     OW20965   1.733   2.800  14.114 -0.0751 -0.3938 -0.3002
 3168SOL    HW120966   1.701   2.816  14.025 -0.5072  0.8078  0.0782
 3168SOL    HW220967   1.812   2.853  14.109  0.9294 -1.6164  2.6331
 3169SOL     OW20968   2.887   1.903   3.107 -0.2798  0.5640 -0.4223
 3169SOL    HW120969   2.953   1.945   3.162 -0.1651 -1.1633  0.7494
 3169SOL    HW220970   2.818   1.969   3.106  0.2896  1.1367 -3.6157
 3170SOL     OW20971   0.609   3.973   8.985 -0.0561 -0.0496 -0.0378
 3170SOL    HW120972   0.554   3.894   8.995 -0.3843  0.0693 -0.9488
 3170SOL    HW220973   0.585   4.019   9.066 -0.5806  2.0527 -1.4126
 3171SOL     OW20974   1.746   0.484   6.879  0.2905  0.0597  0.5700
 3171SOL    HW120975   1.691   0.513   6.806 -0.0732  0.5537  1.0325
 3171SOL    HW220976   1.736   0.389   6.881  1.0040 -0.0393 -0.8658
 3172SOL     OW20977   4.694   1.864   5.444  0.4313  0.3887  0.0647
 3172SOL    HW120978   4.680   1.876   5.538 -0.6476 -0.8364  0.0574
 3172SOL    HW220979   4.619   1.812   5.414 -0.1482  1.2569  0.0000
 3173SOL     OW20980   3.685   3.210  13.312 -0.5990  0.4781 -0.1626
 3173SOL    HW120981   3.594   3.183  13.328 -0.5791  0.3815 -0.2180
 3173SOL    HW220982   3.674   3.294  13.268  0.3205  1.2045  0.9940
 3174SOL     OW20983   3.690   4.705  10.646 -0.3970  0.0118 -0.4117
 3174SOL    HW120984   3.618   0.032  10.684  1.1171  3.2523 -1.8275
 3174SOL    HW220985   3.679   0.020  10.559  0.4652 -1.6328 -1.2345
 3175SOL     OW20986   0.112   0.945   6.675  0.0254 -0.3276  0.0746
 3175SOL    HW120987   0.133   0.863   6.629 -0.8176 -0.3711 -0.2317
 3175SOL    HW220988   0.033   0.918   6.723 -1.3010  2.1669 -0.7383
 3176SOL     OW20989   1.137   4.023  11.416 -0.0864  0.1406 -0.3520
 3176SOL    HW120990   1.116   3.950  11.357  1.1241  0.3802 -1.1014
 3176SOL    HW220991   1.061   4.076  11.396  0.9838  1.6348 -0.4680
 3177SOL     OW20992   0.938   0.754   8.545  0.1196 -0.6754 -0.5401
 3177SOL    HW120993   0.871   0.694   8.513 -0.3049  0.0557 -1.0060
 3177SOL    HW220994   0.940   0.735   8.639 -0.8202  2.5995  0.1148
 3178SOL     OW20995   4.187   3.030   2.026  0.1326 -0.0721 -0.0234
 3178SOL    HW120996   4.124   2.982   2.081 -1.5972  3.2862  0.9482
 3178SOL    HW220997   4.267   2.999   2.069  0.5688 -0.5923 -1.2053
 3179SOL     OW20998   0.231   3.592   4.493  0.2164  0.3863  0.1685
 3179SOL    HW120999   0.310   3.554   4.454  1.5074  0.6755  2.5291
 3179SOL    HW221000   0.196   3.513   4.534  0.3601 -0.2292 -0.8888
 3180SOL     OW21001   1.275   0.315  15.738 -0.1254 -0.0487  1.0033
 3180SOL    HW121002   1.302   0.405  15.757 -0.2509  0.2414 -0.1938
 3180SOL    HW221003   1.240   0.326  15.650  0.8836  0.9017  0.7311
 3181SOL     OW21004   2.092   3.253  14.072 -0.5202  0.5994  0.0476
 3181SOL    HW121005   2.090   3.326  14.011 -1.4462 -0.5461 -1.2905
 3181SOL    HW221006   2.156   3.196  14.028 -0.1435  1.7023 -0.8096
 3182SOL     OW21007   3.475   0.587  12.992 -0.0316  0.2179  0.5682
 3182SOL    HW121008   3.445   0.608  13.081 -1.7497 -1.0138  0.2903
 3182SOL    HW221009   3.428   0.508  12.962  0.8920 -0.2994  0.4918
 3183SOL     OW21010   0.325   2.868   6.731  0.2615  0.2616  0.2932
 3183SOL    HW121011   0.356   2.955   6.705  0.4210  0.0401 -0.2677
 3183SOL    HW221012   0.392   2.833   6.790 -1.4215 -2.0161  0.8226
 3184SOL     OW21013   2.311   4.188   3.862  0.0089  0.0405  0.4297
 3184SOL    HW121014   2.276   4.212   3.948  0.4491 -1.9591  1.1572
 3184SOL    HW221015   2.302   4.093   3.865  1.6663 -0.1411 -0.4394
 3185SOL     OW21016   2.012   4.266   3.830  0.4691 -0.0477  0.0301
 3185SOL    HW121017   1.982   4.206   3.762  1.2071 -0.2932 -0.0828
 3185SOL    HW221018   2.084   4.227   3.878  0.4408 -0.1765 -0.0303
 3186SOL     OW21019   0.241   0.458   8.878  0.1196  0.1337  0.5240
 3186SOL    HW121020   0.234   0.537   8.931 -0.7394  0.1631  0.3674
 3186SOL    HW221021   0.192   0.397   8.934 -0.8713  0.0720 -0.4140
 3187SOL     OW21022   1.815   1.793   0.840 -0.4020 -0.1513  0.2034
 3187SOL    HW121023   1.849   1.877   0.872  2.0940 -0.6479 -1.2255
 3187SOL    HW221024   1.816   1.731   0.913 -1.9220  0.2334  0.5631
 3188SOL     OW21025   3.504   1.844   5.379 -0.4295  0.2199  0.0247
 3188SOL    HW121026   3.507   1.786   5.455  0.8778 -0.0541 -0.2430
 3188SOL    HW221027   3.508   1.785   5.304 -2.0426 -0.7002  0.6819
 3189SOL     OW21028   4.505   2.814  10.372 -0.6283  0.2287 -0.1006
 3189SOL    HW121029   4.573   2.833  10.436 -0.6910 -3.3550  1.0628
 3189SOL    HW221030   4.458   2.746  10.421  0.6699 -0.6450 -0.0794
 3190SOL     OW21031   1.824   3.461  16.966  0.6847 -0.3611 -0.2029
 3190SOL    HW121032   1.845   3.367  16.972  2.0613 -0.0366  0.1427
 3190SOL    HW221033   1.729   3.466  16.974  0.6537 -1.8732  0.4393
 3191SOL     OW21034   4.180   3.520   3.396 -0.2231 -0.2693  0.3155
 3191SOL    HW121035   4.173   3.425   3.381 -1.2800 -0.2216  0.5257
 3191SOL    HW221036   4.269   3.532   3.363 -0.3936  2.0629  0.7534
 3192SOL     OW21037   3.420   3.944  10.860 -0.2319 -0.8978  0.0537
 3192SOL    HW121038   3.402   3.858  10.899 -0.3908 -1.9147 -2.2198
 3192SOL    HW221039   3.484   3.988  10.915  1.3468  0.1508 -2.6127
 3193SOL     OW21040   3.764   2.850  14.556  0.2160  0.1242 -0.6124
 3193SOL    HW121041   3.842   2.897  14.584 -0.3612  0.8496 -0.2176
 3193SOL    HW221042   3.797   2.787  14.492  0.8638 -1.5124  1.3127
 3194SOL     OW21043   2.424   2.948   5.954 -0.6874  0.6857  0.1881
 3194SOL    HW121044   2.516   2.960   5.978 -1.0821  1.7161  1.2342
 3194SOL    HW221045   2.392   3.037   5.970 -1.3167  0.2660  1.2805
 3195SOL     OW21046   2.864   3.741   7.778 -0.4963  0.2302  0.4690
 3195SOL    HW121047   2.930   3.675   7.797 -0.8241  0.2043  1.5062
 3195SOL    HW221048   2.793   3.685   7.746 -0.4301  0.6001 -0.3279
 3196SOL     OW21049   3.554   0.571   7.946  0.0388 -0.3449  0.2476
 3196SOL    HW121050   3.638   0.547   7.908 -1.3264  0.5434 -3.3625
 3196SOL    HW221051   3.563   0.511   8.020 -0.6430 -0.7185  0.0271
 3197SOL     OW21052   2.246   0.222   4.311 -0.2480 -0.2328  0.0311
 3197SOL    HW121053   2.263   0.267   4.394 -2.4415 -0.4931  0.6233
 3197SOL    HW221054   2.209   0.290   4.254 -0.4241  0.1460  0.5923
 3198SOL     OW21055   1.703   3.738   5.168 -0.0539  0.2122 -0.0453
 3198SOL    HW121056   1.653   3.819   5.184  1.2462  0.7557  1.3039
 3198SOL    HW221057   1.789   3.771   5.194 -0.1058 -0.4772  1.0047
 3199SOL     OW21058   4.111   2.339  10.163 -0.0932  0.3275  0.2317
 3199SOL    HW121059   4.130   2.427  10.128 -1.1053 -0.2312 -1.7192
 3199SOL    HW221060   4.123   2.364  10.255 -1.5730 -1.0626  0.7899
 3200SOL     OW21061   3.221   4.683   1.705 -0.2928 -0.7194  0.3602
 3200SOL    HW121062   3.179   0.042   1.678  0.3158 -0.6771 -0.4573
 3200SOL    HW221063   3.223   4.698   1.799  1.5801 -1.6097  0.4668
 3201SOL     OW21064   0.299   2.909  16.742 -0.3429  0.1370  0.1491
 3201SOL    HW121065   0.309   2.849  16.816 -3.1040  0.0213  0.4352
 3201SOL    HW221066   0.254   2.982  16.786  1.7917 -0.1857  2.8457
 3202SOL     OW21067   1.124   0.217   7.215  0.4168 -0.2688 -0.1912
 3202SOL    HW121068   1.072   0.165   7.276  1.9213 -0.1920  1.1782
 3202SOL    HW221069   1.186   0.157   7.173 -1.0061 -1.8344 -0.0538
 3203SOL     OW21070   4.543   0.908  13.016  0.7907 -0.1190  0.3386
 3203SOL    HW121071   4.568   0.909  12.923  2.2719 -0.3321  0.7256
 3203SOL    HW221072   4.583   0.828  13.050  0.8995 -0.8707 -1.5927
 3204SOL     OW21073   2.896   1.742  10.878 -0.0495 -0.5913 -0.0513
 3204SOL    HW121074   2.826   1.712  10.936 -0.0326  0.4059  0.4794
 3204SOL    HW221075   2.869   1.834  10.876 -1.5816 -0.9935  1.8390
 3205SOL     OW21076   1.638   4.058  16.530  0.2386 -0.0305 -0.3234
 3205SOL    HW121077   1.651   4.141  16.484  1.5365  0.3629  0.7670
 3205SOL    HW221078   1.668   4.097  16.612 -0.7020  3.2544 -1.5542
 3206SOL     OW21079   2.394   4.234   4.433 -0.3387  0.3697 -0.4605
 3206SOL    HW121080   2.377   4.144   4.405 -0.8847 -0.6326  3.0863
 3206SOL    HW221081   2.489   4.238   4.431 -0.4226  1.3408 -2.7653
 3207SOL     OW21082   1.268   2.195   7.444  0.3252 -0.3580 -0.1004
 3207SOL    HW121083   1.332   2.143   7.492 -0.5031 -0.7222  0.6145
 3207SOL    HW221084   1.287   2.163   7.355  2.0447  0.9017 -0.1764
 3208SOL     OW21085   0.735   0.048   7.915  0.0148  0.8790 -0.4861
 3208SOL    HW121086   0.795   4.700   7.940 -1.3909 -0.2008 -0.1448
 3208SOL    HW221087   0.657   0.008   7.952  0.1854  0.7151 -0.2985
 3209SOL     OW21088   3.759   3.180  10.609 -0.1083  0.1299 -0.2695
 3209SOL    HW121089   3.743   3.086  10.612 -1.1459  0.3120 -0.2453
 3209SOL    HW221090   3.700   3.211  10.678  0.3037 -0.3027  0.2752
 3210SOL     OW21091   0.694   1.971   7.148 -0.4766  1.0587  0.3530
 3210SOL    HW121092   0.656   2.057   7.161  0.2015  1.1263  1.8840
 3210SOL    HW221093   0.735   1.951   7.232 -0.2762  0.0724  0.0244
 3211SOL     OW21094   0.596   0.783   7.371  0.0708 -0.7797  0.2982
 3211SOL    HW121095   0.629   0.869   7.398 -1.3277  0.3368 -1.4929
 3211SOL    HW221096   0.510   0.810   7.338  1.1559 -0.2147 -2.1346
 3212SOL     OW21097   3.323   1.684   4.288  0.5804 -0.8511  0.1726
 3212SOL    HW121098   3.382   1.753   4.257 -0.0134  0.0779  1.1013
 3212SOL    HW221099   3.242   1.728   4.316  0.6357 -0.5238 -0.1771
 3213SOL     OW21100   1.533   3.268  12.800 -0.1193 -0.2691  0.3747
 3213SOL    HW121101   1.626   3.285  12.817 -0.8336  2.3347  1.7500
 3213SOL    HW221102   1.547   3.202  12.733 -0.2335  2.5387 -2.4326
 3214SOL     OW21103   3.625   4.619   6.483 -0.0341 -0.1436  0.1863
 3214SOL    HW121104   3.657   4.698   6.439  1.6314 -0.6195  0.5394
 3214SOL    HW221105   3.695   4.560   6.455  1.9515  1.7031  1.1353
 3215SOL     OW21106   1.733   0.226   7.956  0.2119 -0.7719 -0.0860
 3215SOL    HW121107   1.688   0.199   8.036 -2.2703 -0.5691 -1.3887
 3215SOL    HW221108   1.821   0.249   7.984 -0.2882 -0.2200  0.9929
 3216SOL     OW21109   0.702   2.676  11.716 -0.8753  0.5301 -0.2515
 3216SOL    HW121110   0.798   2.672  11.711 -0.8702  0.8471 -0.4521
 3216SOL    HW221111   0.703   2.711  11.805  1.1292  0.7448 -0.3641
 3217SOL     OW21112   4.096   1.079  13.072  0.5132  0.1814  0.2037
 3217SOL    HW121113   4.133   1.036  13.150 -2.4400 -2.9688 -0.1601
 3217SOL    HW221114   4.013   1.113  13.105 -0.1469  0.0850 -1.3824
 3218SOL     OW21115   1.536   2.900   8.770  0.2863 -0.1199  0.5648
 3218SOL    HW121116   1.571   2.845   8.841 -0.9728 -0.1133  1.1856
 3218SOL    HW221117   1.572   2.982   8.805  0.0020 -0.5899  1.9718
 3219SOL     OW21118   2.159   3.667   3.926 -0.2214 -0.2670  0.0268
 3219SOL    HW121119   2.169   3.582   3.969 -1.8945 -0.5649 -0.1752
 3219SOL    HW221120   2.126   3.640   3.840  1.4120  2.1644 -1.3554
 3220SOL     OW21121   3.252   2.455  14.266  0.1005  1.1359  0.2664
 3220SOL    HW121122   3.194   2.430  14.338 -0.6239  0.0686 -0.6864
 3220SOL    HW221123   3.194   2.453  14.190 -0.2573  3.1653  0.4899
 3221SOL     OW21124   4.451   3.522   3.020 -0.3351 -0.5310 -0.4671
 3221SOL    HW121125   4.446   3.496   3.112 -1.2171 -1.2917 -0.7235
 3221SOL    HW221126   4.370   3.572   3.032  0.7799  0.9489  0.8866
 3222SOL     OW21127   0.253   1.263   3.000  0.4640 -0.4728 -0.3989
 3222SOL    HW121128   0.207   1.246   2.918 -2.0617 -0.0108  0.9091
 3222SOL    HW221129   0.203   1.336   3.036  0.0742  1.3222 -4.6171
 3223SOL     OW21130   1.357   0.053   4.547 -0.3830 -0.7061 -0.1309
 3223SOL    HW121131   1.432   0.001   4.577 -0.5760 -1.5028 -1.0181
 3223SOL    HW221132   1.368   0.063   4.452  0.8867  0.2824  0.1158
 3224SOL     OW21133   4.551   2.378   9.706  0.0809 -0.0524  0.5000
 3224SOL    HW121134   4.514   2.392   9.619 -0.4098  0.2883  0.7599
 3224SOL    HW221135   4.542   2.466   9.745 -1.2083  0.0165  0.0428
 3225SOL     OW21136   4.577   3.588   7.615 -0.4824  0.5557  0.0097
 3225SOL    HW121137   4.544   3.677   7.612  0.5408  0.8808 -1.6394
 3225SOL    HW221138   4.499   3.537   7.638 -0.3023 -0.7305 -2.2972
 3226SOL     OW21139   3.101   2.656   4.498  0.1737  0.4140 -0.2565
 3226SOL    HW121140   3.128   2.729   4.554  0.1614 -1.2071  1.8876
 3226SOL    HW221141   3.083   2.705   4.418 -1.4553  2.8150  1.5827
 3227SOL     OW21142   4.586   1.470   8.168  0.8908  0.3007  0.4972
 3227SOL    HW121143   4.638   1.536   8.215  1.0084 -0.1156  0.9559
 3227SOL    HW221144   4.647   1.397   8.173  0.1899 -0.3268 -0.0793
 3228SOL     OW21145   3.621   0.478   2.193 -0.2146  0.0618  0.0639
 3228SOL    HW121146   3.680   0.519   2.129  0.1799  0.9577  0.9940
 3228SOL    HW221147   3.684   0.420   2.235 -2.6711 -1.9056  1.0225
 3229SOL     OW21148   4.140   0.828   3.766  0.0146 -0.0681 -0.1752
 3229SOL    HW121149   4.102   0.916   3.769 -0.9218 -0.5718  2.9612
 3229SOL    HW221150   4.071   0.768   3.739  2.7354 -2.7091 -1.3297
 3230SOL     OW21151   1.513   2.604   4.406 -0.3408  0.1783  0.8333
 3230SOL    HW121152   1.569   2.535   4.440  0.4794 -0.7175 -2.2991
 3230SOL    HW221153   1.511   2.663   4.481 -0.7932  2.2305 -0.7983
 3231SOL     OW21154   0.532   2.386   2.748 -0.6178  0.0677  0.4543
 3231SOL    HW121155   0.519   2.398   2.654 -0.4611 -0.5267  0.3567
 3231SOL    HW221156   0.499   2.471   2.775 -1.2087 -0.5219  1.6065
 3232SOL     OW21157   4.240   0.220   5.189  0.5409  0.0060 -0.0197
 3232SOL    HW121158   4.186   0.192   5.115  0.5713  1.5779 -0.6386
 3232SOL    HW221159   4.213   0.311   5.205 -1.8933 -0.6834 -0.2345
 3233SOL     OW21160   0.142   4.495   7.369 -0.6521  0.1345  0.0484
 3233SOL    HW121161   0.182   4.418   7.328  1.1269  0.0445  1.9071
 3233SOL    HW221162   0.205   4.505   7.441 -0.6304 -2.0757  0.3352
 3234SOL     OW21163   3.456   4.274   1.198  1.0005  0.2223  0.0107
 3234SOL    HW121164   3.447   4.187   1.239  2.2627  0.3094  0.4804
 3234SOL    HW221165   3.549   4.286   1.218  0.8803  1.4694 -0.2116
 3235SOL     OW21166   3.016   4.677  12.597 -0.4947  0.1394 -0.3848
 3235SOL    HW121167   3.032   4.636  12.511 -2.6637  1.0550 -1.2156
 3235SOL    HW221168   3.006   0.046  12.571 -2.7932 -0.2341 -0.8114
 3236SOL     OW21169   2.455   2.736   3.301  0.2515  0.2843  0.2170
 3236SOL    HW121170   2.461   2.831   3.299  0.9257  0.1874 -2.8670
 3236SOL    HW221171   2.511   2.718   3.225 -0.6047  0.6757 -0.5100
 3237SOL     OW21172   0.021   1.330   8.511 -0.2598 -0.0033  0.7983
 3237SOL    HW121173   4.719   1.394   8.444 -0.0468 -0.9473 -0.1623
 3237SOL    HW221174   0.116   1.330   8.497 -0.6528  0.7996 -1.9135
 3238SOL     OW21175   0.458   2.154   4.085 -0.2803  0.1558 -0.2424
 3238SOL    HW121176   0.371   2.192   4.094 -0.7493 -1.1804  0.9441
 3238SOL    HW221177   0.438   2.068   4.048 -2.4220  0.3002  0.5486
 3239SOL     OW21178   1.618   0.652   6.187  0.1794 -0.7495 -0.3338
 3239SOL    HW121179   1.533   0.692   6.207 -0.8619 -2.6367 -0.9054
 3239SOL    HW221180   1.666   0.704   6.251  1.9399 -0.0206 -2.2566
 3240SOL     OW21181   0.839   4.003  17.053  0.0615  0.1475 -0.1403
 3240SOL    HW121182   0.801   3.915  17.050 -2.5582  1.3337 -2.8115
 3240SOL    HW221183   0.925   3.993  17.012  0.7868  0.5796  1.2856
 3241SOL     OW21184   0.892   3.191  11.586 -0.1061  0.3825 -0.1919
 3241SOL    HW121185   0.860   3.242  11.661 -2.2583  0.5588 -1.2243
 3241SOL    HW221186   0.906   3.266  11.528  3.9490  0.2154  0.5896
 3242SOL     OW21187   3.813   1.524   6.980 -0.0727 -0.6356 -0.1975
 3242SOL    HW121188   3.737   1.582   6.982 -1.2824 -2.2138 -0.4331
 3242SOL    HW221189   3.768   1.445   6.948  1.9343 -1.7310 -0.3311
 3243SOL     OW21190   0.291   1.260  14.306 -0.1104  0.0068 -0.4174
 3243SOL    HW121191   0.265   1.254  14.214 -0.7834 -0.0485 -0.2274
 3243SOL    HW221192   0.202   1.281  14.335 -1.3244 -2.1458 -2.5351
 3244SOL     OW21193   1.578   4.523   4.350  0.2649  0.6484  0.0053
 3244SOL    HW121194   1.640   4.571   4.296  3.2952  0.0708  2.9954
 3244SOL    HW221195   1.601   4.558   4.436 -0.6079  1.0509  0.0802
 3245SOL     OW21196   2.330   4.111   5.166 -0.3523 -0.0649 -0.0865
 3245SOL    HW121197   2.424   4.093   5.173 -0.1846  0.2892 -1.4051
 3245SOL    HW221198   2.352   4.197   5.202 -0.7017  0.4854 -1.1690
 3246SOL     OW21199   0.041   3.414   6.688  0.3291 -0.6058  0.1324
 3246SOL    HW121200   4.674   3.401   6.719 -0.1909 -0.2813 -1.2118
 3246SOL    HW221201   0.023   3.442   6.599  1.2327 -1.2206 -0.2445
 3247SOL     OW21202   0.864   1.022   7.153  0.5709 -0.1445 -0.2552
 3247SOL    HW121203   0.810   1.046   7.229 -0.1881  0.8604 -1.1092
 3247SOL    HW221204   0.918   0.945   7.169  0.8474  0.2565  0.7476
 3248SOL     OW21205   4.044   3.298   6.330  0.5392  0.2096 -0.5585
 3248SOL    HW121206   4.086   3.370   6.378 -0.7985 -1.1744  2.6361
 3248SOL    HW221207   3.957   3.299   6.368  0.4731  1.5848 -0.7183
 3249SOL     OW21208   4.328   2.544  16.003  0.5094 -0.2334  0.1172
 3249SOL    HW121209   4.254   2.567  16.059  0.4926 -1.5281  0.6486
 3249SOL    HW221210   4.339   2.621  15.948  0.3412  0.5016  1.1212
 3250SOL     OW21211   1.058   3.704   3.451  0.0072  0.2345 -0.1512
 3250SOL    HW121212   1.097   3.784   3.487  0.1036  0.4053 -0.6417
 3250SOL    HW221213   1.051   3.651   3.530 -0.2089 -2.1574 -1.7855
 3251SOL     OW21214   0.630   0.775  10.319  0.0835 -0.4581 -0.3157
 3251SOL    HW121215   0.714   0.797  10.358 -0.2970  1.1448 -0.4194
 3251SOL    HW221216   0.652   0.800  10.230 -0.4478 -1.1941 -0.6551
 3252SOL     OW21217   2.519   0.815  12.338  0.3072  0.1137 -0.2831
 3252SOL    HW121218   2.581   0.880  12.304 -1.2307  1.0325 -1.3207
 3252SOL    HW221219   2.524   0.818  12.433  0.4107  1.4630 -0.3229
 3253SOL     OW21220   2.908   2.553   9.028 -0.2615 -0.0173 -0.4237
 3253SOL    HW121221   2.907   2.484   9.094 -0.7508  1.2101  0.8311
 3253SOL    HW221222   2.817   2.580   9.024 -0.5778 -0.7500  1.8512
 3254SOL     OW21223   0.947   0.557   7.593  0.5270 -0.0356  0.2583
 3254SOL    HW121224   0.905   0.634   7.632  2.1586  0.7820  0.3855
 3254SOL    HW221225   1.033   0.559   7.635 -0.0518  0.1231  1.4275
 3255SOL     OW21226   3.116   2.024   8.411  0.5301 -0.1269  0.1292
 3255SOL    HW121227   3.099   1.953   8.473  0.9311  0.0953  0.4962
 3255SOL    HW221228   3.182   1.987   8.353 -0.6651 -0.3914 -1.0495
 3256SOL     OW21229   1.584   0.649   8.344 -0.6384 -0.7731 -0.5528
 3256SOL    HW121230   1.609   0.597   8.268 -0.4059  0.7975 -1.5467
 3256SOL    HW221231   1.546   0.586   8.406 -1.8621  2.9388  2.5219
 3257SOL     OW21232   4.553   2.604  14.644  0.1949 -0.0503  0.9151
 3257SOL    HW121233   4.608   2.682  14.643 -0.0802  0.1262 -0.0880
 3257SOL    HW221234   4.613   2.533  14.668 -0.5966 -1.2076 -0.5698
 3258SOL     OW21235   0.281   3.458  11.566 -0.1571  0.2145  0.4897
 3258SOL    HW121236   0.347   3.506  11.616  0.5254  1.3504 -1.4819
 3258SOL    HW221237   0.308   3.372  11.598 -0.4507 -0.0146  0.1119
 3259SOL     OW21238   0.465   3.257  12.755  0.2552 -0.0933  0.1306
 3259SOL    HW121239   0.385   3.229  12.710 -1.2890  1.1175  2.1580
 3259SOL    HW221240   0.453   3.352  12.758  0.9251  0.0644 -1.7195
 3260SOL     OW21241   0.494   2.127  11.249  0.3760 -0.4189  0.3469
 3260SOL    HW121242   0.455   2.185  11.314  0.9886 -0.8828  1.1212
 3260SOL    HW221243   0.571   2.180  11.228  1.7134 -1.4578  2.7062
 3261SOL     OW21244   1.927   3.572  11.854 -0.1673  0.0826 -0.5135
 3261SOL    HW121245   1.992   3.605  11.916 -1.9405  0.0346  1.3560
 3261SOL    HW221246   1.874   3.650  11.836 -3.1847 -2.2425 -1.5300
 3262SOL     OW21247   1.824   3.563   9.406 -0.3676  0.2545  0.3684
 3262SOL    HW121248   1.821   3.642   9.351  0.4737 -0.1164 -0.2189
 3262SOL    HW221249   1.913   3.560   9.441 -0.4876 -0.7950  0.5748
 3263SOL     OW21250   4.294   2.398   6.730  0.0167  0.3595  0.1945
 3263SOL    HW121251   4.347   2.476   6.714  0.1700  0.2164 -0.0026
 3263SOL    HW221252   4.317   2.383   6.821 -0.2801  2.0320  0.5500
 3264SOL     OW21253   0.665   1.596   3.010  0.5413  0.3683  0.1844
 3264SOL    HW121254   0.654   1.621   2.919 -1.5755 -0.2402  0.2883
 3264SOL    HW221255   0.574   1.611   3.036 -0.1576 -1.0521 -1.4514
 3265SOL     OW21256   0.897   4.162   5.672 -0.0269  0.0613 -0.4590
 3265SOL    HW121257   0.872   4.163   5.765 -0.7598  3.0230 -0.6972
 3265SOL    HW221258   0.829   4.112   5.627 -1.2632  1.0445  0.3375
 3266SOL     OW21259   3.699   1.095   3.803  0.2957 -0.4721 -0.0027
 3266SOL    HW121260   3.727   1.081   3.713  3.5535  2.5446  0.5265
 3266SOL    HW221261   3.680   1.006   3.833 -1.8738  0.4198  1.2269
 3267SOL     OW21262   2.085   0.556  13.870 -0.0779  0.3985 -0.4745
 3267SOL    HW121263   2.153   0.576  13.805 -0.4469 -1.6139 -1.4917
 3267SOL    HW221264   2.141   0.551  13.947  0.2216  0.5293 -0.6832
 3268SOL     OW21265   1.522   1.271   3.349  0.0553  0.1702 -0.1605
 3268SOL    HW121266   1.572   1.234   3.422 -0.4446 -0.9053 -0.3598
 3268SOL    HW221267   1.444   1.216   3.357  0.2590  0.3436  2.9892
 3269SOL     OW21268   4.659   2.066   4.964  0.0395 -0.7232 -0.1924
 3269SOL    HW121269   0.024   2.082   4.929 -0.1164 -2.2962 -1.2934
 3269SOL    HW221270   4.661   1.975   4.993 -2.6568 -0.1720  1.6893
 3270SOL     OW21271   1.788   3.293   3.022  0.5371  0.0448  0.2802
 3270SOL    HW121272   1.732   3.363   2.989 -0.5303 -0.8350  0.2169
 3270SOL    HW221273   1.804   3.321   3.112 -2.4593  1.9169  0.2329
 3271SOL     OW21274   3.452   4.208  16.535 -0.2626 -0.6526  0.0086
 3271SOL    HW121275   3.422   4.129  16.491  1.8575 -1.4434 -0.0278
 3271SOL    HW221276   3.406   4.210  16.619  2.1452  1.8405  1.2943
 3272SOL     OW21277   1.103   1.994   4.866  0.0007 -0.2044 -0.3249
 3272SOL    HW121278   1.024   1.940   4.856 -0.1706 -0.3080  1.6050
 3272SOL    HW221279   1.119   1.998   4.960  3.0361  0.1262 -0.8699
 3273SOL     OW21280   3.829   0.313   4.865  0.2919 -1.0004  0.4665
 3273SOL    HW121281   3.844   0.403   4.837 -1.9863 -0.7163  0.1831
 3273SOL    HW221282   3.735   0.299   4.867 -0.0334  0.9588 -1.3619
 3274SOL     OW21283   2.585   0.913   7.656 -0.3955  0.4785  0.1695
 3274SOL    HW121284   2.570   0.839   7.596  0.2046  0.3084  0.2301
 3274SOL    HW221285   2.505   0.964   7.641 -0.0320  0.5579 -1.5975
 3275SOL     OW21286   0.721   2.439   5.055  0.0464  0.7637  0.0976
 3275SOL    HW121287   0.754   2.484   4.977  0.3048 -0.7384 -0.6564
 3275SOL    HW221288   0.629   2.465   5.059 -0.8782 -2.3076 -1.3525
 3276SOL     OW21289   0.642   2.270   5.749 -0.3023  0.2212 -0.2093
 3276SOL    HW121290   0.716   2.215   5.722 -0.6668  0.4808 -1.7144
 3276SOL    HW221291   0.592   2.195   5.780 -0.3199 -0.0752 -0.9673
 3277SOL     OW21292   2.779   0.094   5.350 -0.2730  0.2138  0.3937
 3277SOL    HW121293   2.843   0.129   5.288 -0.6831  0.0049 -0.1475
 3277SOL    HW221294   2.754   0.013   5.306  0.1618  0.1185  0.3224
 3278SOL     OW21295   3.880   2.851   9.127  0.8224 -0.3732  0.2190
 3278SOL    HW121296   3.814   2.886   9.066  1.8584 -1.0150 -1.2445
 3278SOL    HW221297   3.962   2.884   9.090  0.9890 -1.0955 -0.0484
 3279SOL     OW21298   0.925   1.834   2.046 -0.3939  0.5159  0.0558
 3279SOL    HW121299   1.019   1.829   2.065 -0.2277 -0.1042 -0.9490
 3279SOL    HW221300   0.908   1.928   2.051 -2.8813 -0.1461  4.2298
 3280SOL     OW21301   1.688   3.248  10.682 -0.4320 -0.4536 -0.1597
 3280SOL    HW121302   1.638   3.185  10.735 -2.4104 -0.1130 -1.6351
 3280SOL    HW221303   1.693   3.325  10.738 -0.5716  0.9914 -2.1352
 3281SOL     OW21304   4.364   3.252   3.086  0.3507  0.1075  0.3097
 3281SOL    HW121305   4.272   3.278   3.083  0.6709  1.4488  2.1080
 3281SOL    HW221306   4.374   3.223   3.176  2.8009 -0.2917 -0.1009
 3282SOL     OW21307   1.604   0.002   5.065 -0.0638 -0.5059  1.2002
 3282SOL    HW121308   1.619   0.084   5.110  0.9079 -0.2380  0.3914
 3282SOL    HW221309   1.624   4.660   5.133  0.7606 -0.5524  0.9099
 3283SOL     OW21310   0.438   2.661  11.912 -0.3495  0.3799  0.1209
 3283SOL    HW121311   0.482   2.639  11.994 -0.8439 -0.1461  0.2479
 3283SOL    HW221312   0.403   2.581  11.874  0.2344  0.1858 -0.0044
 3284SOL     OW21313   4.347   0.526  12.406 -0.4654  0.5222  0.2505
 3284SOL    HW121314   4.306   0.540  12.320  1.3779 -1.4596 -0.9571
 3284SOL    HW221315   4.267   0.516  12.457  0.0631 -2.0212  0.5595
 3285SOL     OW21316   2.132   4.658   3.956 -0.2623 -0.6541  0.2679
 3285SOL    HW121317   2.207   4.653   4.015  1.3575 -0.6737 -1.7766
 3285SOL    HW221318   2.174   4.671   3.871 -0.7215 -1.4833 -0.0895
 3286SOL     OW21319   2.636   1.561   6.080 -0.6597 -0.2514 -0.0101
 3286SOL    HW121320   2.698   1.609   6.025  0.7311 -0.8909  1.0016
 3286SOL    HW221321   2.558   1.562   6.025 -1.0955 -2.2460  0.5793
 3287SOL     OW21322   4.231   2.423  13.754 -0.3318  0.0227  0.0180
 3287SOL    HW121323   4.255   2.424  13.661  1.0846 -1.6349  0.3517
 3287SOL    HW221324   4.312   2.394  13.795  0.8172  1.7279 -1.0680
 3288SOL     OW21325   3.124   3.206   8.388 -0.2522 -0.5402  0.6305
 3288SOL    HW121326   3.058   3.176   8.451 -1.5195 -0.6235 -0.7095
 3288SOL    HW221327   3.110   3.301   8.386  1.3425 -0.3548 -1.9978
 3289SOL     OW21328   3.728   1.934   7.467  0.3757  0.1656  0.0290
 3289SOL    HW121329   3.703   1.973   7.384  3.5864  0.7533 -0.6721
 3289SOL    HW221330   3.809   1.888   7.443 -0.7106 -0.1949 -2.9261
 3290SOL     OW21331   0.142   2.030   5.313  0.3308 -0.2308  0.2894
 3290SOL    HW121332   0.072   1.975   5.350  1.0286 -1.1013  0.3280
 3290SOL    HW221333   0.215   1.971   5.331  1.4144  0.9820 -0.2302
 3291SOL     OW21334   3.664   1.327   6.906 -0.1020 -0.2615 -0.4435
 3291SOL    HW121335   3.572   1.346   6.925  0.4994  0.5731  1.6559
 3291SOL    HW221336   3.677   1.249   6.961 -0.0350  1.0698  1.4197
 3292SOL     OW21337   2.795   1.091   4.300 -0.3642  0.5277  0.4433
 3292SOL    HW121338   2.782   1.179   4.337  2.6184  1.2341 -0.1692
 3292SOL    HW221339   2.804   1.119   4.209 -0.0425  1.2514  0.6951
 3293SOL     OW21340   1.373   0.278   5.586 -0.2288  0.5052  0.0012
 3293SOL    HW121341   1.301   0.216   5.602  0.0959  0.0962 -0.1149
 3293SOL    HW221342   1.358   0.355   5.641  0.7988  0.0346  0.9258
 3294SOL     OW21343   3.969   2.732  16.510  0.6428 -0.1274  0.5509
 3294SOL    HW121344   4.035   2.792  16.477  0.3831 -1.0604 -1.6607
 3294SOL    HW221345   4.008   2.647  16.487  0.5567 -0.2095  0.7041
 3295SOL     OW21346   3.300   1.970   4.444 -1.1860  0.5444 -0.3689
 3295SOL    HW121347   3.383   1.936   4.478 -0.7199  3.5329  1.4453
 3295SOL    HW221348   3.297   2.053   4.491 -0.3306 -0.2863  1.1583
 3296SOL     OW21349   1.490   0.129   8.456 -0.0133  0.3209  0.7707
 3296SOL    HW121350   1.527   0.101   8.540  2.8712  0.7591 -0.3346
 3296SOL    HW221351   1.468   0.219   8.477  0.5261 -0.1813  3.5384
 3297SOL     OW21352   4.702   1.587   6.890  0.1869 -0.1323  0.0753
 3297SOL    HW121353   4.660   1.525   6.950 -1.6256 -0.2412 -1.3023
 3297SOL    HW221354   4.659   1.562   6.808  0.8894  2.2559 -1.0190
 3298SOL     OW21355   2.026   3.084   7.439  0.0344  0.3527 -0.1048
 3298SOL    HW121356   2.008   3.022   7.369  1.4962  0.9815 -1.0410
 3298SOL    HW221357   2.081   3.149   7.395  1.8630 -2.2271 -1.6078
 3299SOL     OW21358   4.314   2.203   2.832  0.0940 -0.4780 -0.3360
 3299SOL    HW121359   4.313   2.288   2.789  0.4202 -0.0679  0.4613
 3299SOL    HW221360   4.358   2.146   2.769 -0.2630 -0.4933 -0.5682
 3300SOL     OW21361   1.078   1.548   7.408 -0.5688  0.0095  0.0881
 3300SOL    HW121362   1.079   1.458   7.377  1.1922  0.6986 -1.8720
 3300SOL    HW221363   1.166   1.577   7.383 -1.1691  0.3914 -1.6021
 3301SOL     OW21364   3.017   2.251  10.019  0.2328 -0.6585 -0.4392
 3301SOL    HW121365   2.946   2.194  10.049  0.8363 -0.1616  1.8846
 3301SOL    HW221366   2.970   2.279   9.940 -0.8799 -2.5209 -0.4399
 3302SOL     OW21367   3.650   1.086  12.265 -0.1690  0.3550 -0.1165
 3302SOL    HW121368   3.650   1.033  12.345  0.8236  0.2944 -0.1526
 3302SOL    HW221369   3.577   1.052  12.214  0.1879 -2.4246  1.2161
 3303SOL     OW21370   4.617   3.523   5.879 -0.4661  0.3495  0.1996
 3303SOL    HW121371   4.644   3.464   5.949 -2.4450  0.2790  0.9028
 3303SOL    HW221372   4.686   3.589   5.887 -0.9809  0.9380 -0.2334
 3304SOL     OW21373   1.943   4.121   3.622 -0.3947  0.1678  0.7064
 3304SOL    HW121374   1.893   4.039   3.626  0.0571 -0.2181 -1.3832
 3304SOL    HW221375   1.986   4.115   3.537  1.6245  1.2501  1.6579
 3305SOL     OW21376   2.240   2.599   6.334  0.5496 -0.5724  0.6221
 3305SOL    HW121377   2.153   2.623   6.302  1.1556  0.5040 -0.2059
 3305SOL    HW221378   2.218   2.534   6.402  1.1819 -1.2949  0.1395
 3306SOL     OW21379   1.701   1.214   7.250  0.4573 -0.0364 -0.1348
 3306SOL    HW121380   1.623   1.164   7.275 -0.4920  1.3325 -0.4191
 3306SOL    HW221381   1.663   1.294   7.215  0.0245 -0.2540 -0.1714
 3307SOL     OW21382   2.467   0.657   2.511  0.1210  0.3540 -0.0280
 3307SOL    HW121383   2.500   0.728   2.455  0.5466 -0.1855 -0.4528
 3307SOL    HW221384   2.483   0.588   2.446  1.6249  0.1240  0.5910
 3308SOL     OW21385   2.715   3.050   5.909 -0.5503  0.0148  0.2709
 3308SOL    HW121386   2.702   2.969   5.859  2.2702 -1.1032  1.3150
 3308SOL    HW221387   2.689   3.125   5.855 -0.7233 -0.7764 -0.7451
 3309SOL     OW21388   3.860   0.210   0.517 -0.0923 -0.7250  0.0387
 3309SOL    HW121389   3.915   0.145   0.475 -0.1988  0.6171 -2.1293
 3309SOL    HW221390   3.934   0.261   0.549 -0.8049  0.3390  0.0137
 3310SOL     OW21391   0.134   2.182   2.040 -0.2114  0.3157 -0.4920
 3310SOL    HW121392   0.105   2.272   2.059  1.7438  0.7775  0.3178
 3310SOL    HW221393   0.094   2.169   1.954 -1.3779 -0.8090  0.2322
 3311SOL     OW21394   0.169   2.973   1.721  0.6352 -0.7516  0.3222
 3311SOL    HW121395   0.214   2.896   1.685  1.9645 -0.1853  0.7716
 3311SOL    HW221396   0.116   3.003   1.647 -2.4419 -3.3142  1.4663
 3312SOL     OW21397   0.382   1.503  10.560 -0.2025  0.4325 -0.1167
 3312SOL    HW121398   0.385   1.553  10.642  0.8232 -1.8407  1.2194
 3312SOL    HW221399   0.475   1.478  10.563 -0.8240 -1.8900 -0.4924
 3313SOL     OW21400   2.021   4.672   8.708  0.3832  0.0884 -0.5151
 3313SOL    HW121401   1.989   4.687   8.797 -1.4975 -0.7058 -1.0596
 3313SOL    HW221402   2.060   4.584   8.709 -0.4431 -0.2580  0.6134
 3314SOL     OW21403   3.907   4.340   2.171 -0.3406  0.1499 -0.8298
 3314SOL    HW121404   3.987   4.343   2.223 -0.9923 -0.6778  0.2157
 3314SOL    HW221405   3.844   4.332   2.243  1.5185 -0.3458  0.7210
 3315SOL     OW21406   1.488   3.230   4.904 -0.3646  0.5564  0.1324
 3315SOL    HW121407   1.488   3.203   4.995 -0.4482  1.0404  0.2797
 3315SOL    HW221408   1.462   3.147   4.864  2.6955 -0.6038  0.5869
 3316SOL     OW21409   4.639   2.365   6.900  0.6117 -0.1917 -0.0807
 3316SOL    HW121410   4.675   2.452   6.916  4.4986 -1.3013 -2.7814
 3316SOL    HW221411   4.546   2.377   6.920  0.5783 -0.2478 -0.2008
 3317SOL     OW21412   4.305   3.793   1.600 -0.0618  0.4438 -0.3332
 3317SOL    HW121413   4.384   3.777   1.650  0.3605 -1.3064 -1.5368
 3317SOL    HW221414   4.232   3.786   1.662 -1.2725 -1.5016 -1.9726
 3318SOL     OW21415   4.495   2.949   2.612 -0.1053 -0.3157  0.0423
 3318SOL    HW121416   4.453   3.000   2.681 -0.9204  1.3955 -1.7325
 3318SOL    HW221417   4.479   2.861   2.647  2.1986 -0.9740 -0.5957
 3319SOL     OW21418   2.341   0.538   1.760  0.2403  0.3676  0.1165
 3319SOL    HW121419   2.379   0.537   1.848 -1.0334  0.1406  0.6635
 3319SOL    HW221420   2.313   0.447   1.747  0.7549  0.7064 -3.3074
 3320SOL     OW21421   3.670   4.502   5.035 -0.3211  0.4443 -0.1752
 3320SOL    HW121422   3.652   4.442   5.107  1.2086 -1.9778 -1.8130
 3320SOL    HW221423   3.743   4.463   4.988  0.3752 -0.9985  2.1381
 3321SOL     OW21424   2.710   1.024   3.912 -0.4923  0.6101  0.1717
 3321SOL    HW121425   2.666   1.023   3.827 -1.2137  1.0936  0.5413
 3321SOL    HW221426   2.655   0.970   3.970 -1.2966  2.1754  0.8714
 3322SOL     OW21427   0.735   4.699   5.916  0.6035  0.0718 -0.0637
 3322SOL    HW121428   0.809   4.646   5.889 -0.8879 -1.2836 -1.4909
 3322SOL    HW221429   0.657   4.648   5.893 -0.7952  2.3436 -0.3781
 3323SOL     OW21430   0.119   2.848   9.150 -0.5190  0.0502 -0.2890
 3323SOL    HW121431   0.070   2.806   9.220  0.7838 -1.7699 -0.4777
 3323SOL    HW221432   0.061   2.923   9.136  0.3918  0.2362 -3.1632
 3324SOL     OW21433   2.151   4.436   8.611  0.3549 -0.2393 -0.1157
 3324SOL    HW121434   2.137   4.444   8.517 -0.3443  0.7097  0.0714
 3324SOL    HW221435   2.235   4.480   8.625 -0.3914  1.3190 -0.5434
 3325SOL     OW21436   1.618   0.142   7.731 -0.5088  0.0783  0.0163
 3325SOL    HW121437   1.662   0.169   7.811  1.8588  0.1501 -1.3248
 3325SOL    HW221438   1.532   0.120   7.767 -0.0650 -1.3030  0.2101
 3326SOL     OW21439   3.297   2.105   1.097  0.5652 -0.5207 -0.2638
 3326SOL    HW121440   3.373   2.155   1.126  0.9398  0.2778 -2.6170
 3326SOL    HW221441   3.334   2.022   1.068  0.6152 -0.4226 -0.4862
 3327SOL     OW21442   0.348   2.854  11.738  0.2048  0.0265 -0.1307
 3327SOL    HW121443   0.365   2.933  11.789 -0.3178  0.1433 -0.1367
 3327SOL    HW221444   0.380   2.780  11.790 -0.0570  0.6815  0.9480
 3328SOL     OW21445   2.404   4.547   0.321  0.1987 -0.2822  0.1503
 3328SOL    HW121446   2.426   4.628   0.276  1.4606 -0.5197  0.3581
 3328SOL    HW221447   2.396   4.583   0.410  0.8906  0.4161 -0.0699
 3329SOL     OW21448   3.831   3.705  12.821 -0.0381  0.3254 -0.0716
 3329SOL    HW121449   3.791   3.787  12.851  0.2573 -0.0048  1.2066
 3329SOL    HW221450   3.819   3.650  12.899 -0.9102  1.2157  0.4321
 3330SOL     OW21451   1.542   0.019   6.164  0.3422 -0.4499  0.0463
 3330SOL    HW121452   1.636   0.003   6.150  0.8185  1.0140  1.5923
 3330SOL    HW221453   1.538   4.721   6.257 -0.4887 -0.3387  0.0334
 3331SOL     OW21454   0.690   3.795  10.335 -0.2964  0.6206 -0.2936
 3331SOL    HW121455   0.713   3.868  10.393  1.3221 -1.0215  1.1226
 3331SOL    HW221456   0.595   3.805  10.339 -0.2312  1.1707 -0.1329
 3332SOL     OW21457   3.042   3.010   6.296 -0.2514 -0.9569 -0.3975
 3332SOL    HW121458   3.051   2.963   6.213  1.1190 -1.6322  0.1399
 3332SOL    HW221459   2.948   3.006   6.315  0.0872  0.1104  1.4361
 3333SOL     OW21460   2.838   0.928   4.526 -0.0712  0.0112 -0.3919
 3333SOL    HW121461   2.820   0.990   4.456 -1.1230  1.6650  1.3517
 3333SOL    HW221462   2.886   0.986   4.584  1.4941 -0.1107 -1.5711
 3334SOL     OW21463   2.211   3.882   1.317  0.3384  0.0329 -0.3380
 3334SOL    HW121464   2.170   3.850   1.237  0.9642  3.5477 -2.0697
 3334SOL    HW221465   2.287   3.924   1.277  0.8179 -0.2895  0.2198
 3335SOL     OW21466   3.367   3.491   0.850  0.2292 -0.5245 -0.3059
 3335SOL    HW121467   3.406   3.434   0.917  1.3296 -0.2550 -0.7083
 3335SOL    HW221468   3.284   3.510   0.892  1.8404  0.1185  2.6137
 3336SOL     OW21469   1.175   1.180   9.186  0.3937 -0.4707 -0.5348
 3336SOL    HW121470   1.220   1.203   9.266 -0.7714 -1.7598  0.4918
 3336SOL    HW221471   1.129   1.103   9.220 -0.5758  0.4626  0.2925
 3337SOL     OW21472   4.440   0.842   6.998  0.6241  0.5217  0.4566
 3337SOL    HW121473   4.357   0.881   7.022  1.3910  1.7339  1.1503
 3337SOL    HW221474   4.410   0.760   6.959  0.6164  0.7457 -0.0042
 3338SOL     OW21475   1.724   0.365   2.165 -0.3524  0.0990 -0.5028
 3338SOL    HW121476   1.714   0.436   2.229  0.7373  1.6705 -2.0848
 3338SOL    HW221477   1.733   0.423   2.090 -0.2239 -1.2519 -1.5246
 3339SOL     OW21478   0.581   2.574   3.222  0.5409 -0.3259  0.5414
 3339SOL    HW121479   0.572   2.644   3.158 -2.6626 -0.9967  0.2618
 3339SOL    HW221480   0.633   2.512   3.171  0.0477  0.5049 -0.9642
 3340SOL     OW21481   1.039   4.263  17.618  0.3517 -0.3381 -0.1765
 3340SOL    HW121482   1.043   4.270   0.021  2.4175  1.9157 -0.4136
 3340SOL    HW221483   1.008   4.173  17.610  2.4768 -0.9197 -1.9887
 3341SOL     OW21484   4.663   0.879  17.322 -0.0977 -0.6845  0.2405
 3341SOL    HW121485   4.663   0.972  17.344 -0.3769 -0.0135 -2.6583
 3341SOL    HW221486   4.625   0.836  17.399 -0.9822  0.3830  0.3923
 3342SOL     OW21487   3.218   3.240  13.763  0.3515  0.0855 -0.1283
 3342SOL    HW121488   3.220   3.178  13.835 -1.3075 -0.2443 -0.3788
 3342SOL    HW221489   3.242   3.311  13.822 -1.5279 -0.0031  0.7296
 3343SOL     OW21490   4.327   3.365   1.354 -0.8822  0.0334 -0.0835
 3343SOL    HW121491   4.253   3.305   1.354  1.0072 -2.3240  0.7979
 3343SOL    HW221492   4.395   3.302   1.331 -0.7960 -0.7731  2.3105
 3344SOL     OW21493   2.172   3.026   0.502  0.1798 -0.3690  0.0083
 3344SOL    HW121494   2.102   2.960   0.506  0.3112 -0.4822  0.4353
 3344SOL    HW221495   2.121   3.094   0.456 -0.9298 -0.7254  0.7171
 3345SOL     OW21496   3.246   2.558   3.031  0.2911 -0.3923  0.1816
 3345SOL    HW121497   3.297   2.536   2.953 -0.8993 -1.0062 -0.4180
 3345SOL    HW221498   3.198   2.476   3.025 -0.5343  0.0943  0.1072
 3346SOL     OW21499   1.503   2.126   8.857 -0.2241 -0.1137  0.1637
 3346SOL    HW121500   1.510   2.214   8.893 -0.5534  0.4935 -1.2892
 3346SOL    HW221501   1.415   2.128   8.821  0.4962  0.1351 -1.5550
 3347SOL     OW21502   4.711   3.954  15.166  0.1283  0.7636  0.3049
 3347SOL    HW121503   0.059   3.977  15.226 -0.5357  2.4659  0.4540
 3347SOL    HW221504   4.683   4.043  15.144  1.4404  0.8529 -0.9855
 3348SOL     OW21505   1.907   3.192   2.817  0.0697 -0.0899  0.4397
 3348SOL    HW121506   1.849   3.217   2.889  1.7861  1.3211  1.3409
 3348SOL    HW221507   1.911   3.280   2.780  0.8239 -1.3018 -2.3278
 3349SOL     OW21508   2.565   4.722   8.338  0.8651 -0.7056 -0.0652
 3349SOL    HW121509   2.470   4.711   8.344  0.9873 -2.0547 -0.5067
 3349SOL    HW221510   2.595   0.076   8.386 -1.7498 -1.8477  3.3571
 3350SOL     OW21511   2.378   3.947   4.333 -0.0505  0.7243  0.0364
 3350SOL    HW121512   2.432   3.876   4.298  0.4164  1.1694 -0.1253
 3350SOL    HW221513   2.294   3.902   4.344  0.8800 -0.6743  1.4351
 3351SOL     OW21514   4.339   4.355   7.579 -0.2820  0.3855  0.3876
 3351SOL    HW121515   4.416   4.395   7.538  0.1715 -0.4403  0.4246
 3351SOL    HW221516   4.277   4.334   7.509 -0.9655  2.5369  0.3411
 3352SOL     OW21517   4.184   2.109   9.240 -0.4271  0.3158  0.1957
 3352SOL    HW121518   4.191   2.165   9.317  1.2769 -1.2907  1.2194
 3352SOL    HW221519   4.090   2.093   9.244 -0.1472 -1.3040  0.3949
 3353SOL     OW21520   2.785   3.396   1.675 -0.0208 -0.3857 -0.3047
 3353SOL    HW121521   2.736   3.466   1.632 -1.1715 -0.4523  0.9083
 3353SOL    HW221522   2.722   3.349   1.729 -0.9148  0.3418 -0.7266
 3354SOL     OW21523   0.382   4.666   4.885  0.2860 -0.2016  0.3074
 3354SOL    HW121524   0.302   4.650   4.834  1.6490 -1.3084 -1.4844
 3354SOL    HW221525   0.432   4.584   4.875  0.0644 -0.1340 -1.3530
 3355SOL     OW21526   3.318   0.701   8.044  0.1296  0.4848 -0.0417
 3355SOL    HW121527   3.364   0.760   8.103 -3.6585  2.3091  1.0455
 3355SOL    HW221528   3.383   0.681   7.977  2.7133  1.4379  2.1743
 3356SOL     OW21529   1.050   0.643   3.404 -0.0620  0.3783  0.1310
 3356SOL    HW121530   1.023   0.711   3.466 -1.2640  0.6440 -0.6829
 3356SOL    HW221531   1.036   0.700   3.328 -1.1369  1.4015  1.0952
 3357SOL     OW21532   2.457   0.175  15.289 -0.2816 -0.1521  0.2660
 3357SOL    HW121533   2.504   0.199  15.368 -0.7019 -0.3506  0.5760
 3357SOL    HW221534   2.387   0.130  15.335  0.3012  0.6280  1.8999
 3358SOL     OW21535   2.107   1.074   5.305 -0.1182 -0.2396  0.5416
 3358SOL    HW121536   2.173   1.142   5.319  1.6903 -2.3948  2.3856
 3358SOL    HW221537   2.029   1.099   5.355 -1.6762 -2.0299 -0.9977
 3359SOL     OW21538   1.600   3.850  10.153 -0.0682 -0.4462  0.8256
 3359SOL    HW121539   1.519   3.802  10.167  0.3827 -1.4764 -0.0979
 3359SOL    HW221540   1.575   3.937  10.185  2.7924  0.3623  0.9080
 3360SOL     OW21541   3.620   3.850  14.464  0.3689  0.6327 -0.3958
 3360SOL    HW121542   3.677   3.774  14.454  0.6275  0.7940 -0.1794
 3360SOL    HW221543   3.640   3.898  14.383  3.2242 -1.6933 -1.0862
 3361SOL     OW21544   1.064   1.035   0.517 -0.2878 -0.0369 -0.4328
 3361SOL    HW121545   1.081   0.957   0.571 -0.1738  0.1087 -0.2585
 3361SOL    HW221546   1.049   1.106   0.579 -0.9190 -0.6565  0.1316
 3362SOL     OW21547   0.042   1.628   7.553  0.1324  0.2528 -0.1960
 3362SOL    HW121548   4.709   1.666   7.485  0.2883  0.2311 -0.3354
 3362SOL    HW221549   0.108   1.695   7.569  1.5899 -1.8063  2.4031
 3363SOL     OW21550   2.904   0.724  16.372  0.3555  0.0872 -0.5136
 3363SOL    HW121551   2.952   0.755  16.295  1.2438  0.8491  0.3502
 3363SOL    HW221552   2.877   0.640  16.335  0.0683 -1.0484  2.2393
 3364SOL     OW21553   3.213   4.226   4.482  0.3481 -0.5027 -0.2292
 3364SOL    HW121554   3.305   4.215   4.506  0.8263  1.7096 -1.0534
 3364SOL    HW221555   3.172   4.152   4.527 -4.0957  1.7290 -0.5883
 3365SOL     OW21556   0.440   3.034   4.150 -0.4365 -0.6160 -0.7042
 3365SOL    HW121557   0.500   3.057   4.079  0.7332  1.3702  0.9191
 3365SOL    HW221558   0.387   2.962   4.116  0.9522 -1.7599 -0.4110
 3366SOL     OW21559   0.961   0.357   8.561  0.6134  0.5517 -0.4330
 3366SOL    HW121560   0.917   0.361   8.646 -1.3274  0.7679 -1.4596
 3366SOL    HW221561   1.043   0.400   8.588  0.8040 -1.4157  2.2116
 3367SOL     OW21562   2.242   1.942  15.004  0.0228  0.2457  0.0929
 3367SOL    HW121563   2.272   1.853  15.020 -1.5186  0.1412  2.4619
 3367SOL    HW221564   2.311   1.969  14.942 -0.5712 -0.3700 -0.8293
 3368SOL     OW21565   3.266   3.640   9.349 -0.7631 -0.1308  0.0529
 3368SOL    HW121566   3.280   3.730   9.319  1.1035 -1.0626 -1.9060
 3368SOL    HW221567   3.331   3.634   9.419  0.2375  1.1541 -0.7569
 3369SOL     OW21568   2.703   1.619   8.656 -0.2683 -0.0736  0.1781
 3369SOL    HW121569   2.655   1.551   8.609 -0.4773 -1.0348  1.7946
 3369SOL    HW221570   2.769   1.576   8.711 -0.0828  0.4856  0.3884
 3370SOL     OW21571   0.580   2.795   2.098 -0.2692  0.6989 -0.6851
 3370SOL    HW121572   0.593   2.704   2.072  1.2541  0.9611 -0.8740
 3370SOL    HW221573   0.643   2.825   2.032  1.1476 -0.5546  0.1076
 3371SOL     OW21574   4.590   1.024   0.270  0.2959 -0.1656 -0.3214
 3371SOL    HW121575   4.566   1.006   0.361 -0.5766  1.1151 -0.2952
 3371SOL    HW221576   4.505   1.047   0.231  0.1043 -1.7586 -0.8268
 3372SOL     OW21577   0.569   1.389   8.365 -0.8439  0.5629  0.1530
 3372SOL    HW121578   0.541   1.418   8.278  0.9973  1.2704 -0.2005
 3372SOL    HW221579   0.662   1.408   8.365 -0.7730  0.2102  1.1621
 3373SOL     OW21580   4.685   2.660   6.962 -0.6969  0.0489 -0.1295
 3373SOL    HW121581   0.050   2.680   6.995 -0.1851  1.3309 -2.3059
 3373SOL    HW221582   4.634   2.699   7.033 -0.0602  0.8870 -0.1257
 3374SOL     OW21583   2.722   3.655   7.119  0.5311 -0.1794  0.8135
 3374SOL    HW121584   2.720   3.722   7.051 -0.1842  0.2631  1.2662
 3374SOL    HW221585   2.755   3.587   7.061  1.8522  0.3637  0.9149
 3375SOL     OW21586   4.116   1.318   3.035 -0.0687 -0.1722  0.5820
 3375SOL    HW121587   4.143   1.290   2.948 -0.6411 -0.1346  0.3883
 3375SOL    HW221588   4.139   1.238   3.081  0.9732 -0.0608  0.2532
 3376SOL     OW21589   3.971   4.057   3.848  0.0417 -0.1365  0.5727
 3376SOL    HW121590   3.960   4.114   3.924 -0.8125 -0.8137  0.9587
 3376SOL    HW221591   4.031   4.000   3.894 -0.0740 -0.2640  0.5652
 3377SOL     OW21592   3.459   3.353   3.927  0.0689 -0.3432 -0.4257
 3377SOL    HW121593   3.405   3.395   3.860 -0.3756 -1.3459 -0.6908
 3377SOL    HW221594   3.448   3.261   3.902  1.8065 -0.8964  0.8473
 3378SOL     OW21595   1.288   3.657  14.905  0.2712 -0.5788 -0.4624
 3378SOL    HW121596   1.272   3.696  14.819 -2.0278  0.4619  0.4425
 3378SOL    HW221597   1.210   3.682  14.955 -2.3464  0.9715 -5.3071
 3379SOL     OW21598   3.283   2.850   1.017 -0.1084 -0.1965 -0.3215
 3379SOL    HW121599   3.332   2.925   0.982  1.0671 -1.2190 -0.8502
 3379SOL    HW221600   3.215   2.889   1.072 -0.9394  0.7350 -1.9866
 3380SOL     OW21601   1.532   4.717   2.149  0.3581  0.6102  0.1233
 3380SOL    HW121602   1.597   4.713   2.080 -0.1152  1.0883 -0.3544
 3380SOL    HW221603   1.560   4.651   2.212  0.5546 -0.3678 -0.9938
 3381SOL     OW21604   1.389   1.018  12.305  0.2091  0.3853  0.2747
 3381SOL    HW121605   1.342   0.936  12.319  0.1027  0.3813 -0.1089
 3381SOL    HW221606   1.367   1.068  12.384  1.8073  0.6711  0.5540
 3382SOL     OW21607   1.680   1.237   6.768 -0.0070 -0.1355 -0.0451
 3382SOL    HW121608   1.636   1.220   6.852 -0.7017 -3.0945 -1.0358
 3382SOL    HW221609   1.690   1.333   6.769  3.9327 -0.5259 -1.9638
 3383SOL     OW21610   2.147   4.439   6.131  0.1826 -0.2916  0.2313
 3383SOL    HW121611   2.092   4.499   6.080  0.6937  0.2933  0.3663
 3383SOL    HW221612   2.090   4.381   6.182 -1.8297  0.3595 -1.2794
 3384SOL     OW21613   2.584   0.374   8.085 -0.2736  0.0649 -0.3810
 3384SOL    HW121614   2.633   0.456   8.088 -0.8035  0.3419  0.7235
 3384SOL    HW221615   2.553   0.379   8.175 -0.8055  1.0597 -0.6251
 3385SOL     OW21616   3.231   0.421  16.305  0.1049  0.0409  0.7371
 3385SOL    HW121617   3.258   0.513  16.308  0.0310  0.1734 -2.6887
 3385SOL    HW221618   3.316   0.380  16.287 -0.4365 -0.3311 -0.9300
 3386SOL     OW21619   0.621   0.412   5.134 -0.3857 -0.6581  0.2740
 3386SOL    HW121620   0.655   0.466   5.205  0.1906 -0.2932 -0.2785
 3386SOL    HW221621   0.549   0.462   5.096  0.1795  0.3174  0.4841
 3387SOL     OW21622   2.510   2.071  11.834  0.3674  0.8387 -0.5520
 3387SOL    HW121623   2.497   1.976  11.840 -0.6439  0.8533 -2.3790
 3387SOL    HW221624   2.424   2.107  11.858  0.3497  0.5374 -0.1576
 3388SOL     OW21625   2.383   3.032  13.906  0.4696  0.3764 -0.1540
 3388SOL    HW121626   2.294   3.012  13.937  0.2736  1.7295  0.1357
 3388SOL    HW221627   2.381   3.124  13.882 -1.4557  0.7711  1.5128
 3389SOL     OW21628   2.645   1.353   0.036  0.4699 -0.0988  0.5168
 3389SOL    HW121629   2.732   1.314   0.040  0.5120  0.1174  1.7858
 3389SOL    HW221630   2.682   1.438   0.058 -1.0504  1.1809 -1.8835
 3390SOL     OW21631   2.896   1.933   7.474  0.4989  0.0794  0.4826
 3390SOL    HW121632   2.875   1.865   7.410  1.0984  1.4151 -1.1130
 3390SOL    HW221633   2.983   1.900   7.498  2.1037  3.8596 -0.2897
 3391SOL     OW21634   3.860   3.845   9.676  0.6225 -0.6400 -0.1542
 3391SOL    HW121635   3.867   3.766   9.728 -1.9376  0.6167  2.1106
 3391SOL    HW221636   3.941   3.824   9.630  0.6567 -0.4684 -0.1736
 3392SOL     OW21637   0.187   3.979  16.288  0.0531 -0.1643 -0.1904
 3392SOL    HW121638   0.182   3.905  16.227  0.3563  1.3863 -2.0996
 3392SOL    HW221639   0.259   4.030  16.251 -1.7859  2.6017  0.0598
 3393SOL     OW21640   2.701   0.404   9.049  0.0877  0.0855  0.4449
 3393SOL    HW121641   2.629   0.468   9.054 -0.2017 -0.0756 -1.8198
 3393SOL    HW221642   2.749   0.419   9.130 -1.8258  0.2384  1.5510
 3394SOL     OW21643   4.320   1.952  12.418  0.1557  0.3466 -0.0309
 3394SOL    HW121644   4.412   1.957  12.445 -0.2655 -1.5605  1.7485
 3394SOL    HW221645   4.299   1.859  12.431  1.3920  0.0195 -0.3397
 3395SOL     OW21646   2.151   3.547  13.514 -0.4861  0.0856 -0.0517
 3395SOL    HW121647   2.165   3.633  13.554  0.9810 -0.3108  0.2847
 3395SOL    HW221648   2.212   3.557  13.441 -1.2013 -1.9874 -0.9248
 3396SOL     OW21649   4.441   0.199  12.609 -0.8019  0.0381  0.2245
 3396SOL    HW121650   4.534   0.193  12.627 -0.6785  1.2425 -0.0225
 3396SOL    HW221651   4.407   0.119  12.650  2.0157 -1.3023 -0.0892
 3397SOL     OW21652   3.020   1.105   6.716  0.1462  0.2624 -0.0245
 3397SOL    HW121653   3.028   1.011   6.705 -1.3456  0.2158 -0.7091
 3397SOL    HW221654   3.060   1.138   6.635 -1.1234 -0.9706 -1.1532
 3398SOL     OW21655   0.956   2.742   2.294 -0.9682 -0.5060 -0.3366
 3398SOL    HW121656   0.877   2.774   2.338 -0.7067  0.2262 -0.3915
 3398SOL    HW221657   0.933   2.721   2.203 -1.7039  0.4236 -0.3669
 3399SOL     OW21658   2.864   2.795   6.982  0.4742 -0.0431  0.2503
 3399SOL    HW121659   2.896   2.885   6.970 -1.2837  0.9090  2.6665
 3399SOL    HW221660   2.886   2.757   6.897  0.4133  1.5982 -0.5043
 3400SOL     OW21661   3.440   3.104   0.855 -0.6491  0.2077 -0.5543
 3400SOL    HW121662   3.434   3.159   0.777  1.0659  1.4787  0.2051
 3400SOL    HW221663   3.449   3.175   0.919  0.8650  0.2309 -0.7961
 3401SOL     OW21664   0.727   1.904   8.107 -0.5633  0.1482  0.5098
 3401SOL    HW121665   0.754   1.846   8.179 -1.1355  0.0981  0.6780
 3401SOL    HW221666   0.778   1.979   8.138  1.0121 -1.0439  0.8085
 3402SOL     OW21667   2.775   4.286   4.878  0.1809 -0.7433 -0.1602
 3402SOL    HW121668   2.730   4.201   4.879 -0.2464 -0.5064  0.7807
 3402SOL    HW221669   2.745   4.322   4.794 -0.6429 -0.7466  0.1360
 3403SOL     OW21670   4.640   3.334   1.870  0.4096 -0.5175 -0.3801
 3403SOL    HW121671   4.612   3.331   1.778  2.4924  2.1010 -1.1226
 3403SOL    HW221672   4.699   3.409   1.882 -0.4100  0.0939 -0.1564
 3404SOL     OW21673   4.524   4.435   8.498  0.4723 -0.6336  0.4152
 3404SOL    HW121674   4.524   4.522   8.536  2.2621 -1.2515  1.8299
 3404SOL    HW221675   4.563   4.459   8.414  1.3308  1.2593  1.3580
 3405SOL     OW21676   0.549   0.798   8.022 -0.1002 -0.0974  0.6551
 3405SOL    HW121677   0.467   0.842   8.043 -1.6869 -2.4639 -0.6146
 3405SOL    HW221678   0.594   0.817   8.104 -1.5148  0.3908  1.3228
 3406SOL     OW21679   0.011   1.262   3.986  0.2403  0.3708 -0.1739
 3406SOL    HW121680   0.043   1.212   3.910 -0.4033 -0.8360  0.3425
 3406SOL    HW221681   4.710   1.341   3.937 -0.1392 -0.9878 -2.1833
 3407SOL     OW21682   0.165   4.671  11.916 -0.0602 -0.0717  0.1154
 3407SOL    HW121683   0.138   4.713  11.834 -0.4115  1.0475  0.8145
 3407SOL    HW221684   0.219   0.020  11.949 -2.4038 -0.1252  3.9935
 3408SOL     OW21685   3.849   1.546   5.239  0.3058 -0.4178  0.9963
 3408SOL    HW121686   3.824   1.618   5.180 -0.1036 -0.3886  1.2098
 3408SOL    HW221687   3.944   1.549   5.231  0.0384  0.2959 -2.1508
 3409SOL     OW21688   3.022   0.548   6.131 -0.8825 -0.7116 -0.1136
 3409SOL    HW121689   3.107   0.510   6.110 -1.6095 -0.9173 -2.7825
 3409SOL    HW221690   3.041   0.571   6.222 -2.4553  0.8081 -0.1586
 3410SOL     OW21691   0.319   0.856   3.079 -0.0577 -0.2230 -0.5318
 3410SOL    HW121692   0.413   0.876   3.074  0.0740 -1.1067 -1.6020
 3410SOL    HW221693   0.299   0.838   2.987 -2.1889 -0.9057  0.0776
 3411SOL     OW21694   0.817   2.902   4.112  0.3013 -0.0616 -0.2349
 3411SOL    HW121695   0.814   2.811   4.139 -3.0594 -0.1642 -0.9526
 3411SOL    HW221696   0.907   2.919   4.142 -0.4740 -0.5195  2.3689
 3412SOL     OW21697   2.249   1.747  15.864  0.7204 -0.2417  0.0794
 3412SOL    HW121698   2.254   1.841  15.881 -0.0979 -0.2585  0.4235
 3412SOL    HW221699   2.314   1.737  15.794  0.8012  0.3457  0.0711
 3413SOL     OW21700   4.558   3.049   6.512 -0.4538  0.0311 -0.9240
 3413SOL    HW121701   4.525   2.986   6.447 -1.0220 -0.7698  0.1286
 3413SOL    HW221702   4.485   3.108   6.528 -1.5479 -0.9101 -2.4764
 3414SOL     OW21703   1.269   1.371  15.944 -0.4798  0.3260 -0.2648
 3414SOL    HW121704   1.265   1.283  15.983  1.2972  0.5372  0.4029
 3414SOL    HW221705   1.176   1.394  15.949 -0.3810  0.2175  2.2883
 3415SOL     OW21706   0.031   4.199   4.470 -0.2914 -0.4051  0.0912
 3415SOL    HW121707   0.082   4.128   4.509  0.2285 -0.4172 -0.6183
 3415SOL    HW221708   4.721   4.236   4.552 -1.6659 -0.3136 -0.5049
 3416SOL     OW21709   1.276   4.568   4.385 -0.5349  0.2158  0.2666
 3416SOL    HW121710   1.296   4.567   4.479  0.7541 -0.7416 -0.0321
 3416SOL    HW221711   1.361   4.577   4.341 -0.3711  1.9196  0.8955
 3417SOL     OW21712   0.502   2.394   6.121  0.3062  0.2118  0.1126
 3417SOL    HW121713   0.463   2.360   6.201  1.1575  1.3296  0.9963
 3417SOL    HW221714   0.430   2.377   6.060  1.1681 -0.6505 -0.6668
 3418SOL     OW21715   1.870   2.908   3.272  0.1329  0.8750 -0.5018
 3418SOL    HW121716   1.964   2.902   3.253 -0.3016 -0.1560 -2.3520
 3418SOL    HW221717   1.850   2.817   3.250  0.9851  0.0850  1.9675
 3419SOL     OW21718   0.872   2.407  15.595  0.7459  0.2985  0.1636
 3419SOL    HW121719   0.828   2.323  15.603 -1.6895  1.7221  1.8641
 3419SOL    HW221720   0.799   2.461  15.624 -0.4336 -2.2081  1.8063
 3420SOL     OW21721   0.608   2.081   9.861 -0.0541 -0.0438 -0.3830
 3420SOL    HW121722   0.532   2.137   9.845  0.5648  0.8962  0.0318
 3420SOL    HW221723   0.648   2.120   9.938  0.1838  3.0078 -2.0622
 3421SOL     OW21724   2.213   3.054   6.862  0.6985 -0.0320  0.5399
 3421SOL    HW121725   2.295   3.103   6.856  0.9239 -0.4843 -0.0956
 3421SOL    HW221726   2.236   2.996   6.934  0.4135 -0.2199  0.4791
 3422SOL     OW21727   1.500   4.391   2.641 -0.3469 -0.0447  0.5930
 3422SOL    HW121728   1.514   4.361   2.551 -1.0212 -0.9792  0.7867
 3422SOL    HW221729   1.405   4.403   2.637 -0.5902 -1.4223  2.2551
 3423SOL     OW21730   4.080   1.486   8.375 -0.6005  0.4810 -0.5115
 3423SOL    HW121731   4.135   1.524   8.306  0.4743  0.3768  0.2958
 3423SOL    HW221732   4.086   1.555   8.441 -0.0595 -1.2079  1.1982
 3424SOL     OW21733   0.504   0.986  15.080 -0.5469  0.1041 -0.8973
 3424SOL    HW121734   0.577   1.046  15.063 -1.1596  1.1360  0.1353
 3424SOL    HW221735   0.560   0.908  15.088 -0.8927 -0.0494  0.1295
 3425SOL     OW21736   3.955   2.532   7.737 -0.6041 -0.4362  0.2717
 3425SOL    HW121737   3.940   2.481   7.817 -0.3577  1.5340  1.5882
 3425SOL    HW221738   4.049   2.548   7.744 -0.6701 -1.8223  4.4126
 3426SOL     OW21739   4.068   3.479  16.320  0.0393 -0.0254  0.6728
 3426SOL    HW121740   4.096   3.460  16.231  2.5020 -0.5831  1.5597
 3426SOL    HW221741   4.003   3.548  16.306 -0.0348 -0.3484 -0.5930
 3427SOL     OW21742   4.428   1.961   1.588  0.0582  0.9485  0.0082
 3427SOL    HW121743   4.519   1.941   1.565  0.2320  0.2951  1.2513
 3427SOL    HW221744   4.393   1.873   1.604  1.1723  0.7388  1.3115
 3428SOL     OW21745   2.393   1.354   9.069  0.7315  0.1453 -0.3235
 3428SOL    HW121746   2.418   1.265   9.094 -2.1968  0.3530  3.4391
 3428SOL    HW221747   2.330   1.334   9.000  0.0473 -1.5079  0.7731
 3429SOL     OW21748   4.444   3.820   7.508 -0.4581 -0.0002  0.4849
 3429SOL    HW121749   4.358   3.781   7.494 -0.0333 -0.8282  0.1979
 3429SOL    HW221750   4.461   3.836   7.415 -0.6603 -1.7015  0.1576
 3430SOL     OW21751   2.264   0.048   0.981 -0.0676  0.2779  0.4481
 3430SOL    HW121752   2.193   0.102   0.946 -0.9795 -0.2318  1.5177
 3430SOL    HW221753   2.278   4.706   0.912 -1.0823  1.0372 -0.4766
 3431SOL     OW21754   1.934   3.311  11.794 -0.4260  0.2043 -0.5097
 3431SOL    HW121755   2.025   3.342  11.795 -0.7274  1.1040 -1.0951
 3431SOL    HW221756   1.902   3.397  11.822  0.2870 -1.0023  4.0574
 3432SOL     OW21757   4.125   1.835   8.293  0.0795  1.0560 -0.3458
 3432SOL    HW121758   4.195   1.810   8.353  1.2818  1.2891 -1.6485
 3432SOL    HW221759   4.132   1.772   8.222  0.7956 -0.3139  0.9449
 3433SOL     OW21760   1.305   4.167   1.694  0.3044  0.2182  0.9376
 3433SOL    HW121761   1.271   4.105   1.630  0.6161  1.7235 -0.6826
 3433SOL    HW221762   1.317   4.238   1.632 -2.9493  0.5380  0.6340
 3434SOL     OW21763   1.650   0.066  17.477 -0.4929  0.3067 -0.2473
 3434SOL    HW121764   1.661   0.058  17.572 -0.3384  0.1835 -0.2764
 3434SOL    HW221765   1.563   0.104  17.466  0.1299  2.7408  3.0091
 3435SOL     OW21766   0.635   2.265   7.040  0.2525  0.4694  0.0856
 3435SOL    HW121767   0.728   2.258   7.020  0.3920 -0.5898  1.0606
 3435SOL    HW221768   0.605   2.276   6.950  0.6626 -0.9259 -0.2194
 3436SOL     OW21769   3.547   1.975  13.695 -0.2244 -0.8731 -0.2026
 3436SOL    HW121770   3.475   1.962  13.756 -0.9323  1.4324 -0.5329
 3436SOL    HW221771   3.520   2.055  13.650  1.0172 -0.6882 -0.6173
 3437SOL     OW21772   3.353   0.307   7.567 -0.0116  0.0989 -0.1659
 3437SOL    HW121773   3.404   0.302   7.647 -0.1445 -0.4922 -0.1200
 3437SOL    HW221774   3.266   0.327   7.602 -0.2258  1.7825 -1.6375
 3438SOL     OW21775   2.989   2.475   6.074 -0.4459  0.6064 -0.2106
 3438SOL    HW121776   3.044   2.397   6.061  0.1925  1.3466 -1.8726
 3438SOL    HW221777   2.915   2.445   6.022 -0.0561  0.3223 -0.5978
 3439SOL     OW21778   4.509   0.647  17.490  0.2693 -0.9093  0.4421
 3439SOL    HW121779   4.466   0.565  17.511 -0.8817 -0.1944  0.8496
 3439SOL    HW221780   4.500   0.690  17.575  0.8252  0.4549 -0.1716
 3440SOL     OW21781   0.400   2.954  13.287  0.0073 -0.2053 -0.4218
 3440SOL    HW121782   0.404   2.859  13.277 -1.3183 -0.5626  2.3679
 3440SOL    HW221783   0.321   2.982  13.241 -0.2495 -0.5677 -0.2057
 3441SOL     OW21784   2.848   0.021   4.082 -0.6217  0.0783  0.1739
 3441SOL    HW121785   2.796   4.663   4.089  0.2131 -0.4729 -0.0614
 3441SOL    HW221786   2.835   0.048   3.991 -3.5049 -2.4354 -0.1820
 3442SOL     OW21787   3.938   4.356   0.398 -0.4679  0.6030 -0.0365
 3442SOL    HW121788   3.936   4.449   0.375  0.9508  0.7955  0.6760
 3442SOL    HW221789   3.846   4.335   0.415 -1.4006  2.0711 -3.1592
 3443SOL     OW21790   1.492   1.438   1.691 -0.4058  0.2383 -0.2929
 3443SOL    HW121791   1.434   1.399   1.626 -1.2477 -0.3746  0.8266
 3443SOL    HW221792   1.553   1.478   1.628  2.0662 -1.1086  1.2293
 3444SOL     OW21793   2.201   0.438   6.004 -0.2801  0.0714 -0.6742
 3444SOL    HW121794   2.207   0.374   6.074  4.0242 -1.2286 -2.2134
 3444SOL    HW221795   2.111   0.422   5.976 -0.7638  0.8459  0.4612
 3445SOL     OW21796   3.660   0.005   2.989  0.0367  0.4769 -0.0875
 3445SOL    HW121797   3.661   0.094   3.026 -2.2413 -0.2271  1.6550
 3445SOL    HW221798   3.638   0.022   2.898 -1.9195  0.5505  0.4145
 3446SOL     OW21799   1.304   2.557  15.408 -0.8851 -0.0386 -0.3257
 3446SOL    HW121800   1.312   2.507  15.327  0.7686 -2.2234  1.1807
 3446SOL    HW221801   1.213   2.543  15.433 -0.7625 -1.6177 -0.7272
 3447SOL     OW21802   3.043   2.820   4.831  0.0052 -0.0174 -0.2991
 3447SOL    HW121803   3.122   2.821   4.884 -0.4258 -0.3329  0.3391
 3447SOL    HW221804   3.040   2.727   4.811  0.3262  0.5271 -2.9290
 3448SOL     OW21805   2.209   0.606  12.227  0.2194 -0.3006 -0.3236
 3448SOL    HW121806   2.302   0.590  12.237  0.1009  0.4507  2.0058
 3448SOL    HW221807   2.209   0.701  12.215 -0.0665 -0.1889  0.5678
 3449SOL     OW21808   4.468   3.201   1.638  0.3906  0.3723 -0.5494
 3449SOL    HW121809   4.415   3.279   1.623 -0.3780  0.4522  2.6276
 3449SOL    HW221810   4.413   3.158   1.704  1.7037  2.9991  2.2656
 3450SOL     OW21811   3.770   1.753   4.289  0.3711 -0.6596  0.5070
 3450SOL    HW121812   3.771   1.657   4.287 -2.0078 -0.6691 -0.6471
 3450SOL    HW221813   3.726   1.777   4.207  3.4198  1.0491 -0.6274
 3451SOL     OW21814   1.166   1.666   7.032 -0.0396 -0.3215  0.1878
 3451SOL    HW121815   1.141   1.732   7.097 -0.6322 -0.2721 -0.0845
 3451SOL    HW221816   1.079   1.634   7.009 -0.7301  1.3254  0.4692
 3452SOL     OW21817   3.699   4.040  17.189  0.3840  0.3094  0.0677
 3452SOL    HW121818   3.766   4.089  17.238  0.3425 -1.1394  1.6057
 3452SOL    HW221819   3.739   4.015  17.106 -0.6640  0.2695 -0.4204
 3453SOL     OW21820   3.982   0.127   2.415 -0.4794 -0.0264 -0.4836
 3453SOL    HW121821   4.071   0.147   2.442 -0.6916 -2.5245  2.1210
 3453SOL    HW221822   3.942   0.110   2.500 -0.4144 -1.9712 -0.8376
 3454SOL     OW21823   2.847   3.970   4.751 -0.3288  0.2298 -0.2931
 3454SOL    HW121824   2.766   4.017   4.768 -0.9993 -1.9280  2.5222
 3454SOL    HW221825   2.862   3.908   4.823 -0.2846 -1.8379 -2.0871
 3455SOL     OW21826   0.739   3.727  12.543 -0.4441 -0.5525 -0.1526
 3455SOL    HW121827   0.809   3.778  12.585 -1.6313 -0.1187  1.3085
 3455SOL    HW221828   0.700   3.694  12.623  1.9454 -3.2657 -0.1134
 3456SOL     OW21829   2.141   3.457   2.687  0.2178  0.2921 -0.0116
 3456SOL    HW121830   2.046   3.451   2.689  0.2154  0.3657  0.1131
 3456SOL    HW221831   2.158   3.471   2.594 -1.4592  0.0872 -0.3458
 3457SOL     OW21832   4.344   3.240   4.055 -0.1912 -0.4088 -0.0310
 3457SOL    HW121833   4.401   3.316   4.058  1.2084 -1.4015 -1.3531
 3457SOL    HW221834   4.255   3.268   4.076  0.3122  1.1529  0.0020
 3458SOL     OW21835   0.788   4.713   6.214  0.0644  0.0364 -0.2397
 3458SOL    HW121836   0.874   4.686   6.181 -0.1204  1.4248 -1.8259
 3458SOL    HW221837   0.739   0.008   6.134  0.3546  0.7025 -0.2680
 3459SOL     OW21838   0.688   4.668   3.384  0.0849 -0.3706  0.1403
 3459SOL    HW121839   0.666   4.586   3.340 -0.8324  0.7186 -1.4246
 3459SOL    HW221840   0.639   0.010   3.333  1.0982  0.0760 -0.2647
 3460SOL     OW21841   4.122   4.597   7.861  0.0997  0.3184  0.7234
 3460SOL    HW121842   4.104   4.604   7.955 -0.7125 -0.8940  0.6586
 3460SOL    HW221843   4.185   4.667   7.847  1.9201 -1.5769 -0.5634
 3461SOL     OW21844   1.893   0.775  12.779  0.0601 -0.3320  0.0490
 3461SOL    HW121845   1.985   0.798  12.764  0.1745 -0.0639  1.2033
 3461SOL    HW221846   1.889   0.786  12.874 -0.2018  0.0880 -0.0092
 3462SOL     OW21847   3.969   3.538   7.188 -0.1676  0.0380 -0.0528
 3462SOL    HW121848   3.921   3.609   7.231  0.1599  0.0966  0.2219
 3462SOL    HW221849   3.930   3.462   7.231  2.0070 -1.9634 -1.6491
 3463SOL     OW21850   3.052   2.133   6.742 -0.3267  0.3169 -0.0093
 3463SOL    HW121851   2.979   2.072   6.755  1.0963 -1.3012  0.4307
 3463SOL    HW221852   3.013   2.219   6.752 -0.0250  0.3306  1.1076
 3464SOL     OW21853   0.706   4.541   2.356  0.3011  0.5441 -0.0338
 3464SOL    HW121854   0.650   4.586   2.419 -1.3322 -1.2631 -0.2089
 3464SOL    HW221855   0.765   4.613   2.331 -0.2097  1.0974  0.3825
 3465SOL     OW21856   1.200   3.719   3.962 -0.0791 -0.5248 -0.2168
 3465SOL    HW121857   1.205   3.636   4.010  1.1560 -0.6262 -0.5137
 3465SOL    HW221858   1.215   3.788   4.027  0.6290  0.8411 -1.8244
 3466SOL     OW21859   2.738   3.150   8.749  0.4621 -0.3096  0.3143
 3466SOL    HW121860   2.656   3.106   8.772 -0.9382  2.0970  0.0052
 3466SOL    HW221861   2.711   3.242   8.751  1.5017 -0.0439  2.2962
 3467SOL     OW21862   2.909   3.592   6.489 -0.4581 -0.2455 -0.1381
 3467SOL    HW121863   2.958   3.657   6.539 -0.1533 -0.2016 -0.4950
 3467SOL    HW221864   2.829   3.644   6.479  0.3206  0.8532 -0.6783
 3468SOL     OW21865   3.288   1.287   2.667 -0.4210  0.9682  1.0481
 3468SOL    HW121866   3.255   1.376   2.676 -1.0182  0.8287  0.2552
 3468SOL    HW221867   3.279   1.251   2.756  1.7028  1.3121  1.3975
 3469SOL     OW21868   3.431   2.115  13.942 -0.4766  0.1950 -0.4635
 3469SOL    HW121869   3.481   2.195  13.926  0.0505  0.1257  0.8070
 3469SOL    HW221870   3.359   2.159  13.986  0.8365  1.9254 -0.0382
 3470SOL     OW21871   4.213   3.152   1.769 -0.1781  0.1764  0.6541
 3470SOL    HW121872   4.230   3.104   1.851  0.8963  0.7815  0.7855
 3470SOL    HW221873   4.135   3.105   1.740  0.6349 -0.4165 -0.5648
 3471SOL     OW21874   1.282   1.466   7.717 -0.3747  0.4982 -0.3264
 3471SOL    HW121875   1.218   1.435   7.782 -0.3398  0.1194 -0.4705
 3471SOL    HW221876   1.341   1.394   7.696 -0.2473 -0.1351  2.1436
 3472SOL     OW21877   4.189   1.348   1.062 -0.1591 -0.5870 -0.1331
 3472SOL    HW121878   4.239   1.296   1.125 -0.5907  0.1273  0.7956
 3472SOL    HW221879   4.245   1.419   1.031 -3.8814  1.9447 -1.1050
 3473SOL     OW21880   1.771   2.502   3.152  0.0104  0.4547  0.1350
 3473SOL    HW121881   1.797   2.553   3.075 -0.5290 -0.0446 -0.3792
 3473SOL    HW221882   1.719   2.433   3.111  0.1549 -1.8497  3.8745
 3474SOL     OW21883   1.768   3.426   8.453 -0.4564  0.2596  0.1324
 3474SOL    HW121884   1.841   3.414   8.513 -2.5074 -0.4810  2.4579
 3474SOL    HW221885   1.691   3.438   8.509 -0.3221 -2.5499  0.9047
 3475SOL     OW21886   4.394   1.223   0.402 -0.8211  0.0449  0.0803
 3475SOL    HW121887   4.419   1.283   0.332  0.0530  0.8857  1.0997
 3475SOL    HW221888   4.302   1.250   0.401 -1.0441 -0.8332 -1.9153
 3476SOL     OW21889   2.645   4.541   5.991  0.2969 -0.2587  0.3650
 3476SOL    HW121890   2.691   4.550   6.074  1.9097  2.3264 -0.8133
 3476SOL    HW221891   2.720   4.545   5.931 -1.4463  1.4842 -1.6955
 3477SOL     OW21892   1.979   0.977   3.006 -0.5842  0.0407  0.1668
 3477SOL    HW121893   1.890   0.985   2.971 -1.3155  1.2369  2.2998
 3477SOL    HW221894   2.028   0.952   2.928  0.5659 -1.3773  1.3391
 3478SOL     OW21895   2.559   3.898   3.402  0.1300 -0.0060  0.7530
 3478SOL    HW121896   2.483   3.861   3.446  0.1670 -2.9767 -1.7417
 3478SOL    HW221897   2.629   3.893   3.467  1.9182 -0.9832 -1.2379
 3479SOL     OW21898   3.886   0.305  15.125  0.6719 -0.4177 -0.1464
 3479SOL    HW121899   3.807   0.348  15.092  1.1682  0.2489 -0.4752
 3479SOL    HW221900   3.904   0.348  15.208 -1.1269 -1.0411  0.5521
 3480SOL     OW21901   1.268   2.247  12.003 -0.3816 -0.2482 -0.2679
 3480SOL    HW121902   1.363   2.241  12.009 -0.3469  1.3241  0.6500
 3480SOL    HW221903   1.246   2.199  12.083 -0.9838 -2.0502 -1.5131
 3481SOL     OW21904   1.500   3.562   8.191 -0.4142  0.0194 -0.3419
 3481SOL    HW121905   1.500   3.516   8.275 -1.0800  0.7865  0.0745
 3481SOL    HW221906   1.503   3.651   8.226  0.8778  0.2132 -0.9326
 3482SOL     OW21907   1.809   3.392   9.161  0.8178 -0.0762  0.0723
 3482SOL    HW121908   1.791   3.472   9.112 -0.6346 -1.6919 -2.0556
 3482SOL    HW221909   1.764   3.412   9.243 -0.4252 -3.7482  0.2845
 3483SOL     OW21910   0.658   2.686   1.554 -0.4902  0.1982  0.0463
 3483SOL    HW121911   0.609   2.611   1.586 -2.4469  0.8723 -1.3599
 3483SOL    HW221912   0.741   2.644   1.577  0.7069  3.3908  1.5793
 3484SOL     OW21913   3.164   2.005  11.247  0.2612 -0.1658 -0.3357
 3484SOL    HW121914   3.215   2.062  11.305  1.0835 -0.0899 -1.1329
 3484SOL    HW221915   3.222   1.929  11.237  1.4686  0.2498  3.4713
 3485SOL     OW21916   1.026   1.945  15.191  0.1195  0.1258 -0.5146
 3485SOL    HW121917   0.981   2.027  15.207  0.2903 -0.1055  1.2217
 3485SOL    HW221918   1.044   1.913  15.280 -2.6188  3.0090  1.0593
 3486SOL     OW21919   1.009   2.002  16.030 -0.0546 -0.0834 -0.3550
 3486SOL    HW121920   0.990   2.093  16.051  0.0688 -0.4233  1.2435
 3486SOL    HW221921   1.062   1.982  16.108 -0.6476  0.0311  0.0792
 3487SOL     OW21922   1.951   3.912   6.815  0.0994 -0.7933 -0.1497
 3487SOL    HW121923   1.926   3.842   6.755  1.5704 -2.1142  0.7640
 3487SOL    HW221924   1.998   3.975   6.761 -1.0074  0.5226  0.4258
 3488SOL     OW21925   3.998   2.056   1.348  0.0412 -0.2692  0.5064
 3488SOL    HW121926   4.069   2.026   1.291 -1.5046  0.4652 -1.7984
 3488SOL    HW221927   3.926   2.066   1.287  1.0658 -0.2384 -0.6964
 3489SOL     OW21928   4.536   2.440   1.246  0.5849 -0.7831 -0.3069
 3489SOL    HW121929   4.557   2.484   1.164  0.2912 -0.0728  0.0056
 3489SOL    HW221930   4.441   2.446   1.241  0.6713 -0.8773 -2.0286
 3490SOL     OW21931   2.948   0.819   9.033 -0.2396 -0.6650  0.0042
 3490SOL    HW121932   3.002   0.865   8.969  1.3255 -5.3832 -2.0158
 3490SOL    HW221933   3.003   0.807   9.110 -0.6990 -3.2404 -0.0658
 3491SOL     OW21934   3.090   4.002   4.576 -0.4296  0.2245  0.2955
 3491SOL    HW121935   3.012   3.963   4.537  1.7255  0.9027 -4.6060
 3491SOL    HW221936   3.064   3.984   4.666  0.7061 -2.6163  0.0459
 3492SOL     OW21937   3.518   3.179  13.655  0.3513  0.2051 -0.0275
 3492SOL    HW121938   3.467   3.233  13.595 -0.6880 -0.8599 -0.1088
 3492SOL    HW221939   3.554   3.242  13.718 -1.1006 -0.5884  1.6277
 3493SOL     OW21940   0.711   4.391   4.075  0.3910 -0.2734  0.5708
 3493SOL    HW121941   0.684   4.458   4.012  1.3699  1.2876  1.7975
 3493SOL    HW221942   0.622   4.377   4.108 -0.6285  0.7387 -1.7258
 3494SOL     OW21943   2.296   2.717   7.855  0.1545 -0.3394  0.8624
 3494SOL    HW121944   2.338   2.635   7.829  3.3147  1.2978  0.8849
 3494SOL    HW221945   2.210   2.706   7.814  0.2879 -0.0033  0.4987
 3495SOL     OW21946   0.075   2.321   8.634 -0.3208 -0.0006 -0.1085
 3495SOL    HW121947   0.015   2.301   8.563  0.1608 -0.9922 -0.2284
 3495SOL    HW221948   0.014   2.295   8.703 -0.1628  1.4866  0.6047
 3496SOL     OW21949   1.779   0.584   7.140  0.3843 -0.3765 -0.6689
 3496SOL    HW121950   1.800   0.495   7.168  0.6526 -0.5178 -1.3341
 3496SOL    HW221951   1.713   0.577   7.072  2.9308  0.7229 -3.2399
 3497SOL     OW21952   1.097   0.880  14.920  0.1190  0.3276 -0.0236
 3497SOL    HW121953   1.183   0.841  14.908  0.3610  0.5096  1.1585
 3497SOL    HW221954   1.055   0.834  14.992  2.7269 -2.4444 -0.3094
 3498SOL     OW21955   2.108   0.677  14.655 -0.0367  0.0383 -0.0502
 3498SOL    HW121956   2.144   0.653  14.570 -0.2548 -1.2089  0.2037
 3498SOL    HW221957   2.093   0.586  14.681 -1.5335 -0.3719 -2.3102
 3499SOL     OW21958   2.654   3.467   4.858  0.4572 -0.0452  0.0377
 3499SOL    HW121959   2.632   3.448   4.950 -2.4019  1.5974 -0.3030
 3499SOL    HW221960   2.727   3.410   4.835 -0.7441 -0.8917 -1.6642
 3500SOL     OW21961   4.642   2.952   4.113  0.0356  0.0795 -0.2147
 3500SOL    HW121962   4.633   2.992   4.199  1.5526  0.6535 -0.3145
 3500SOL    HW221963   4.551   2.964   4.088 -0.3491 -2.3757 -0.0041
 3501SOL     OW21964   4.547   2.818  10.874 -0.2022 -0.0570  0.1600
 3501SOL    HW121965   4.518   2.791  10.961  0.8786  0.2713  0.6194
 3501SOL    HW221966   4.469   2.782  10.830 -0.8067 -0.0704  1.2293
 3502SOL     OW21967   1.450   2.442   2.640  0.5717  0.2530  0.1104
 3502SOL    HW121968   1.517   2.506   2.662  2.3736 -1.3073 -0.7838
 3502SOL    HW221969   1.382   2.506   2.618  0.9045  0.2900 -0.8120
 3503SOL     OW21970   0.511   4.176   7.843 -0.2880  0.3355 -0.3590
 3503SOL    HW121971   0.424   4.152   7.812 -0.3320 -0.7573  0.6006
 3503SOL    HW221972   0.556   4.116   7.783 -1.3788 -0.1930 -0.6498
 3504SOL     OW21973   2.288   2.401   6.913  0.0035  0.0089 -0.2590
 3504SOL    HW121974   2.289   2.361   6.826 -4.2568 -2.0030  0.6154
 3504SOL    HW221975   2.279   2.329   6.975  1.2154 -0.1119 -0.2247
 3505SOL     OW21976   2.397   4.088   6.648  0.1310  0.4272 -0.4692
 3505SOL    HW121977   2.474   4.142   6.668 -1.0094  1.3217  1.4465
 3505SOL    HW221978   2.354   4.147   6.585 -2.2330  0.1558  0.9020
 3506SOL     OW21979   4.337   1.842   2.683 -0.1932  0.2893  0.4542
 3506SOL    HW121980   4.396   1.910   2.650  1.0836  0.0377  2.2510
 3506SOL    HW221981   4.337   1.775   2.615  3.5067  1.1229 -0.3480
 3507SOL     OW21982   4.022   4.429  15.923  0.4000  0.2036  0.0256
 3507SOL    HW121983   4.074   4.387  15.854  0.6026  0.0883  0.2487
 3507SOL    HW221984   4.095   4.461  15.976  0.7240 -0.7724  0.1794
 3508SOL     OW21985   4.624   0.685   3.093  0.4241  0.2416  0.0458
 3508SOL    HW121986   4.670   0.737   3.027 -0.7151  1.0817 -0.0943
 3508SOL    HW221987   4.617   0.754   3.159 -0.0116  0.0120  0.2373
 3509SOL     OW21988   0.063   2.902   6.833  0.4102 -0.0371  0.0452
 3509SOL    HW121989   0.149   2.888   6.792  1.3982  0.0889  2.0626
 3509SOL    HW221990   0.061   2.817   6.876 -1.1071  1.1518  2.3108
 3510SOL     OW21991   0.958   3.184   8.754 -0.3683  0.3374  0.0475
 3510SOL    HW121992   1.007   3.239   8.693  2.3763 -2.4412 -0.2348
 3510SOL    HW221993   0.896   3.128   8.708 -1.5800  0.3139  1.6982
 3511SOL     OW21994   2.394   3.561  14.654 -0.1545 -0.5279 -0.7480
 3511SOL    HW121995   2.474   3.510  14.666  1.3064  1.3243 -2.6354
 3511SOL    HW221996   2.328   3.497  14.628 -2.1169  0.5160  1.6031
 3512SOL     OW21997   3.128   3.434   9.544 -0.0045 -0.3266 -0.6818
 3512SOL    HW121998   3.107   3.515   9.591 -0.2670 -0.1308 -1.1307
 3512SOL    HW221999   3.150   3.462   9.455  1.2245 -0.8904 -0.5530
 3513SOL     OW22000   0.169   2.971   2.006 -0.2728  0.0687  0.2126
 3513SOL    HW122001   0.163   3.066   2.016  2.1472  0.3172 -0.7766
 3513SOL    HW222002   0.154   2.962   1.912 -1.5022 -1.6131  0.5558
 3514SOL     OW22003   3.274   3.357   3.460  0.1550 -0.5636 -0.3216
 3514SOL    HW122004   3.185   3.343   3.426  0.9091 -1.5781 -1.8882
 3514SOL    HW222005   3.311   3.269   3.452 -1.8327 -1.3102 -1.2796
 3515SOL     OW22006   1.292   2.202   3.154 -0.3358  0.0492  0.0802
 3515SOL    HW122007   1.306   2.181   3.246 -0.8342  2.4717  0.7049
 3515SOL    HW222008   1.198   2.182   3.159  0.1248 -2.3303 -0.7988
 3516SOL     OW22009   0.498   4.567   8.973 -0.5368 -0.1820  0.3632
 3516SOL    HW122010   0.583   4.581   9.015 -0.5411 -1.0313  0.6410
 3516SOL    HW222011   0.452   4.497   9.018  0.2977  0.7629  2.6599
 3517SOL     OW22012   0.196   2.630   8.551  0.0106 -0.8687 -0.1910
 3517SOL    HW122013   0.107   2.658   8.572  0.4767  2.2283 -2.2946
 3517SOL    HW222014   0.190   2.608   8.458 -0.2868  1.5672 -0.7401
 3518SOL     OW22015   2.786   0.297  10.667 -0.0061 -0.3059 -0.2947
 3518SOL    HW122016   2.762   0.306  10.759 -0.6101  0.0257 -0.4880
 3518SOL    HW222017   2.812   0.386  10.644 -0.7958  0.6544  2.5007
 3519SOL     OW22018   4.477   3.503   4.619 -0.5890 -0.1591  0.6579
 3519SOL    HW122019   4.503   3.583   4.665 -0.7205  0.3494 -0.1524
 3519SOL    HW222020   4.395   3.486   4.666 -0.0835  0.5913  1.8367
 3520SOL     OW22021   0.383   1.669   5.890  0.5064 -0.1999 -0.3024
 3520SOL    HW122022   0.379   1.600   5.823 -1.4396 -1.7264  1.4129
 3520SOL    HW222023   0.476   1.689   5.882  0.2893  0.4862 -1.1527
 3521SOL     OW22024   2.771   2.318   1.668 -0.2329  0.4532  0.5135
 3521SOL    HW122025   2.824   2.250   1.627  0.4194  0.4246  1.3879
 3521SOL    HW222026   2.806   2.395   1.624  0.8396 -1.1029 -1.3133
 3522SOL     OW22027   0.450   4.367   4.136  0.0671 -0.5622  0.2972
 3522SOL    HW122028   0.379   4.319   4.179  1.8237 -2.9314  0.5451
 3522SOL    HW222029   0.410   4.376   4.049  0.2910 -1.9227  0.0567
 3523SOL     OW22030   4.304   2.411   3.054 -0.5265  0.0630 -0.1829
 3523SOL    HW122031   4.271   2.332   3.096 -1.4466  0.6097  0.1318
 3523SOL    HW222032   4.306   2.376   2.965 -2.1765  0.5460 -0.4212
 3524SOL     OW22033   1.339   0.644   7.078 -0.7077  0.0681 -0.2953
 3524SOL    HW122034   1.334   0.580   7.007  0.8176  0.1018 -0.4311
 3524SOL    HW222035   1.265   0.608   7.126 -1.7811  1.6694 -0.7243
 3525SOL     OW22036   1.404   0.410   6.126 -0.1279 -0.6518  0.1047
 3525SOL    HW122037   1.426   0.396   6.219 -1.2956  1.0419  0.6378
 3525SOL    HW222038   1.491   0.420   6.087 -0.3836  0.3476 -0.2164
 3526SOL     OW22039   4.450   0.893  11.035 -0.4190  0.3958 -0.3254
 3526SOL    HW122040   4.372   0.860  10.990 -0.8445 -1.2248  1.6084
 3526SOL    HW222041   4.508   0.889  10.959 -0.4321 -0.8052 -0.2691
 3527SOL     OW22042   2.218   3.065   8.871 -0.1213  0.5930 -0.4833
 3527SOL    HW122043   2.258   2.999   8.929 -0.8021 -0.3120 -1.0381
 3527SOL    HW222044   2.201   3.138   8.930 -0.5226  0.8726 -0.9542
 3528SOL     OW22045   1.937   3.543  15.437 -0.1176  0.1667  0.0843
 3528SOL    HW122046   2.023   3.582  15.416 -0.5466  1.1465  0.1303
 3528SOL    HW222047   1.920   3.491  15.358 -0.2878 -0.0333  0.2566
 3529SOL     OW22048   4.175   2.014   0.478  0.4482  0.0211 -0.0320
 3529SOL    HW122049   4.147   2.086   0.420 -0.6231  1.3634  2.1411
 3529SOL    HW222050   4.209   1.960   0.407 -1.5736  0.8340 -1.6470
 3530SOL     OW22051   3.872   3.351   1.851 -0.1320  0.1613  0.1997
 3530SOL    HW122052   3.883   3.308   1.935  0.3005 -1.3157 -0.6178
 3530SOL    HW222053   3.962   3.373   1.826 -0.5496  1.7267  0.0654
 3531SOL     OW22054   2.695   3.933   6.717  0.1503  0.4909 -0.6945
 3531SOL    HW122055   2.786   3.947   6.691  1.0989 -1.2781  1.6376
 3531SOL    HW222056   2.647   4.016   6.714  0.6851  0.7709 -1.4700
 3532SOL     OW22057   0.804   3.050   8.134  0.6826 -0.0053  0.5151
 3532SOL    HW122058   0.872   2.984   8.144  0.8346  0.1455  0.4664
 3532SOL    HW222059   0.738   3.013   8.192 -1.5610  0.1601 -1.9205
 3533SOL     OW22060   4.390   0.913  14.451  0.1804  0.0236 -0.5166
 3533SOL    HW122061   4.406   0.982  14.386  1.0720  0.5126  0.2262
 3533SOL    HW222062   4.474   0.869  14.450  1.1889  1.9029  1.5439
 3534SOL     OW22063   0.361   2.892   9.846 -0.9129 -0.3449 -0.1020
 3534SOL    HW122064   0.337   2.831   9.916  0.9309  0.4154  1.1913
 3534SOL    HW222065   0.287   2.875   9.788 -1.7840  1.1071  0.5946
 3535SOL     OW22066   4.475   2.949   6.242 -0.1560  0.2236 -0.0365
 3535SOL    HW122067   4.571   2.951   6.234 -0.2039  1.4312 -0.2840
 3535SOL    HW222068   4.459   3.040   6.219  1.4812  0.3894 -0.5695
 3536SOL     OW22069   2.294   2.920  11.136  0.5974  0.2087  0.1172
 3536SOL    HW122070   2.373   2.957  11.098  1.7455 -2.1017  0.2543
 3536SOL    HW222071   2.332   2.897  11.221  1.3349 -1.2415 -0.6055
 3537SOL     OW22072   0.902   2.416   4.508 -0.8198  0.0738 -0.0799
 3537SOL    HW122073   0.894   2.511   4.494  0.9673  0.2372 -0.0014
 3537SOL    HW222074   0.917   2.425   4.602 -1.0792  0.9226 -0.1126
 3538SOL     OW22075   3.859   4.092  16.975  0.6683 -0.1377 -0.5288
 3538SOL    HW122076   3.807   4.117  16.898 -0.9845 -0.9174  0.3355
 3538SOL    HW222077   3.943   4.135  16.956 -1.3058  3.1830 -1.8439
 3539SOL     OW22078   3.910   0.076   6.653 -0.3029 -0.0967 -0.2238
 3539SOL    HW122079   3.826   0.117   6.631 -0.4275  0.2971  0.9642
 3539SOL    HW222080   3.946   0.067   6.565  1.3783 -1.2107  0.5732
 3540SOL     OW22081   0.598   0.850   8.570 -0.1947 -0.3976  0.6897
 3540SOL    HW122082   0.584   0.762   8.605 -1.0664 -0.9664 -1.1013
 3540SOL    HW222083   0.637   0.886   8.650  1.5230  2.8772 -1.6709
 3541SOL     OW22084   2.042   1.712   2.381 -0.0764 -0.3210  0.5974
 3541SOL    HW122085   2.025   1.777   2.449  0.9169  0.3805  0.1836
 3541SOL    HW222086   2.135   1.726   2.361 -0.4638  0.2442 -0.8574
 3542SOL     OW22087   1.766   0.330   4.761  0.0573  0.1142 -0.3083
 3542SOL    HW122088   1.778   0.403   4.700 -1.4380 -0.4112 -1.2287
 3542SOL    HW222089   1.673   0.338   4.781 -0.4466 -4.1263 -0.9677
 3543SOL     OW22090   2.086   3.675  14.199  0.0081  0.0780 -0.1350
 3543SOL    HW122091   2.142   3.618  14.251  3.4783  3.1931 -0.3987
 3543SOL    HW222092   2.099   3.748  14.260  1.6216  1.3874 -2.0582
 3544SOL     OW22093   2.379   1.997   5.285  0.4174 -0.1852  0.3591
 3544SOL    HW122094   2.473   2.001   5.298  0.1071  0.1791  2.5108
 3544SOL    HW222095   2.368   1.922   5.228 -2.7808  1.5040 -1.2855
 3545SOL     OW22096   3.750   4.290   9.358  0.6589 -0.0680 -0.0400
 3545SOL    HW122097   3.660   4.270   9.385 -0.0588  1.6045 -1.2118
 3545SOL    HW222098   3.804   4.224   9.402  2.4685  1.4428 -0.0320
 3546SOL     OW22099   3.399   4.631   2.225  0.4621 -0.0485 -0.3330
 3546SOL    HW122100   3.438   4.710   2.262 -0.7715  0.4260 -0.0438
 3546SOL    HW222101   3.446   4.565   2.276  0.3578 -2.0128 -2.8037
 3547SOL     OW22102   4.614   1.103  17.504 -0.2977 -0.1824 -0.3783
 3547SOL    HW122103   4.581   1.138  17.586  0.9497 -2.3657  1.0580
 3547SOL    HW222104   4.704   1.132  17.513 -0.1633 -1.0452  1.0959
 3548SOL     OW22105   3.353   1.590   8.962  0.8450 -0.1173  0.2525
 3548SOL    HW122106   3.276   1.571   8.907  0.0483 -0.6174  1.5220
 3548SOL    HW222107   3.389   1.501   8.961  0.0374 -0.4280 -0.8309
 3549SOL     OW22108   2.637   3.620   9.196 -0.5494  0.3787 -0.1092
 3549SOL    HW122109   2.617   3.698   9.247 -3.4453  0.1172 -0.8591
 3549SOL    HW222110   2.699   3.579   9.256  0.7657  0.6215 -1.3006
 3550SOL     OW22111   1.443   0.699  12.462  0.2503 -0.0710 -0.3062
 3550SOL    HW122112   1.354   0.695  12.495  0.2927 -0.1332 -0.2011
 3550SOL    HW222113   1.449   0.606  12.439  1.9714 -0.1401  0.3886
 3551SOL     OW22114   3.071   1.120  14.761  0.5084 -0.0465  0.1588
 3551SOL    HW122115   3.017   1.089  14.688  0.4050 -0.8279  0.5685
 3551SOL    HW222116   3.020   1.200  14.773  0.4481  0.0977 -1.1152
 3552SOL     OW22117   3.757   3.095  10.273 -0.2481  0.0493 -0.1143
 3552SOL    HW122118   3.801   3.043  10.340 -0.6309  0.0842  0.1607
 3552SOL    HW222119   3.690   3.140  10.325  1.1724  1.4791  0.4865
 3553SOL     OW22120   3.759   2.865   5.410  0.1485 -0.1349  0.5838
 3553SOL    HW122121   3.828   2.872   5.345  0.2940  0.9318  0.8481
 3553SOL    HW222122   3.808   2.849   5.491 -0.0966  1.5744  1.0723
 3554SOL     OW22123   2.966   1.282   5.869 -1.0352  0.2732  0.8426
 3554SOL    HW122124   2.913   1.300   5.792  0.8639 -0.5842 -0.6557
 3554SOL    HW222125   2.903   1.301   5.938 -1.6714  0.4691  0.2069
 3555SOL     OW22126   1.691   3.648  17.160 -0.4425 -0.2594  0.2128
 3555SOL    HW122127   1.697   3.624  17.252  1.4874 -1.3069 -0.1788
 3555SOL    HW222128   1.624   3.589  17.125 -0.3141 -0.1869 -0.1558
 3556SOL     OW22129   0.170   2.598  12.567 -0.2473  0.1557  0.2673
 3556SOL    HW122130   0.235   2.585  12.498  1.3700  1.6797  1.4988
 3556SOL    HW222131   0.231   2.619  12.638 -2.0539  1.5991  1.4148
 3557SOL     OW22132   3.635   3.022   3.783  0.2700 -0.5407  0.2005
 3557SOL    HW122133   3.689   2.970   3.723 -0.6185 -0.9770 -0.2193
 3557SOL    HW222134   3.699   3.089   3.806  1.4744 -1.0138 -1.6840
 3558SOL     OW22135   2.585   2.740   4.292 -0.0983 -0.1463  0.5695
 3558SOL    HW122136   2.573   2.696   4.208  0.3228 -0.6015  0.7453
 3558SOL    HW222137   2.505   2.723   4.342 -0.5158  0.1596  0.0068
 3559SOL     OW22138   3.008   2.663   2.437  0.6057  0.1864  0.2615
 3559SOL    HW122139   3.074   2.675   2.369  0.1162  0.3792 -0.1812
 3559SOL    HW222140   2.958   2.745   2.431  0.0877  0.0761  2.6989
 3560SOL     OW22141   4.611   0.832  12.023  1.0133 -0.0956  0.3013
 3560SOL    HW122142   4.586   0.918  11.989  1.3957 -0.8289 -1.8068
 3560SOL    HW222143   4.567   0.772  11.963 -2.6880  1.2198  1.6295
 3561SOL     OW22144   4.020   0.413   8.507  0.0847  0.1831  0.2695
 3561SOL    HW122145   4.077   0.490   8.513 -0.6077  0.6907  0.3182
 3561SOL    HW222146   4.005   0.395   8.600 -0.1547  0.9819  0.3808
 3562SOL     OW22147   2.370   1.723   8.057  0.5352  0.5077  0.4773
 3562SOL    HW122148   2.382   1.699   7.965  0.1962  1.2188  0.2457
 3562SOL    HW222149   2.346   1.815   8.046  0.0235  0.4612  1.2422
 3563SOL     OW22150   4.249   2.960   8.397  0.6318  0.5710  0.6964
 3563SOL    HW122151   4.177   2.902   8.371  1.5786 -0.6295  0.7087
 3563SOL    HW222152   4.225   3.037   8.347  0.3062  0.1957  0.2722
 3564SOL     OW22153   3.768   3.744   8.429 -0.5976 -0.0548 -0.6194
 3564SOL    HW122154   3.859   3.770   8.417 -0.3628 -0.9793 -0.8226
 3564SOL    HW222155   3.740   3.718   8.341 -2.5712  0.5774 -0.1697
 3565SOL     OW22156   0.825   2.763   9.003 -0.1524 -0.0376 -0.8574
 3565SOL    HW122157   0.744   2.807   8.977  0.6738  1.6832 -0.4945
 3565SOL    HW222158   0.884   2.834   9.026  0.4842 -0.3952 -1.3598
 3566SOL     OW22159   4.349   2.168   9.005  0.2857 -0.3372 -0.7748
 3566SOL    HW122160   4.329   2.102   9.072  1.2614  0.6451  0.4763
 3566SOL    HW222161   4.260   2.196   8.984 -0.2768 -0.7332  1.1028
 3567SOL     OW22162   1.712   4.265   9.803  0.0016 -0.0073  0.5015
 3567SOL    HW122163   1.644   4.329   9.786  0.1456 -0.5900 -2.2561
 3567SOL    HW222164   1.665   4.184   9.824 -0.8593 -0.0293 -1.5429
 3568SOL     OW22165   3.491   0.669   3.486  0.1745 -0.4219  1.0235
 3568SOL    HW122166   3.504   0.677   3.392 -0.3663 -0.7063  0.9230
 3568SOL    HW222167   3.524   0.581   3.500 -0.7820 -1.3138 -2.2259
 3569SOL     OW22168   3.387   3.934   4.980 -0.1853 -0.3850 -0.0416
 3569SOL    HW122169   3.461   3.925   4.920  1.2788 -1.4709  1.9435
 3569SOL    HW222170   3.348   4.011   4.937  0.8709 -1.0505 -2.1962
 3570SOL     OW22171   2.397   2.550   1.404  0.2124  0.4796  0.4379
 3570SOL    HW122172   2.352   2.630   1.377  0.3349  0.7741  1.0941
 3570SOL    HW222173   2.479   2.558   1.357  1.0323 -3.4080  1.1797
 3571SOL     OW22174   1.466   3.686   7.314  0.3453  0.2262 -0.9222
 3571SOL    HW122175   1.491   3.622   7.248  1.9816 -1.4058  1.2552
 3571SOL    HW222176   1.388   3.646   7.353  1.7606 -1.6747 -0.0317
 3572SOL     OW22177   3.576   1.337   3.724 -0.3668 -0.3396  0.0930
 3572SOL    HW122178   3.590   1.266   3.786 -0.1360 -0.6520 -0.3135
 3572SOL    HW222179   3.663   1.338   3.683  0.5527 -1.1488  2.0372
 3573SOL     OW22180   2.432   3.457   9.089  1.2418  0.0644 -0.0526
 3573SOL    HW122181   2.494   3.521   9.124 -0.2858  0.9709  1.0032
 3573SOL    HW222182   2.361   3.520   9.078  0.6967 -0.7815 -1.3007
 3574SOL     OW22183   2.818   2.828   6.637 -0.2992 -0.3500  0.0882
 3574SOL    HW122184   2.727   2.826   6.666  0.0207  1.9465  1.2580
 3574SOL    HW222185   2.821   2.911   6.589 -1.1138  1.4670  3.1686
 3575SOL     OW22186   1.271   2.019   3.914 -0.1355  0.3619 -0.3476
 3575SOL    HW122187   1.310   2.087   3.859 -1.3096  0.2950 -1.2565
 3575SOL    HW222188   1.352   1.968   3.921 -1.6949 -2.1001 -0.5541
 3576SOL     OW22189   4.147   0.180  14.476  0.1164 -0.1481 -0.0847
 3576SOL    HW122190   4.192   0.109  14.431 -0.6044  0.3945 -1.6635
 3576SOL    HW222191   4.076   0.186  14.412  1.5705 -0.9523 -1.7785
 3577SOL     OW22192   4.099   3.731   1.777  0.5026  0.0311  0.8004
 3577SOL    HW122193   4.079   3.637   1.777 -0.1849  0.1619 -0.9491
 3577SOL    HW222194   4.015   3.772   1.796 -0.0024 -1.2124  1.2464
 3578SOL     OW22195   1.628   2.813   4.665 -0.0380 -0.5860 -0.0336
 3578SOL    HW122196   1.593   2.849   4.583 -1.0602  2.8051  1.9187
 3578SOL    HW222197   1.712   2.775   4.636  1.4454  2.1207  0.7730
 3579SOL     OW22198   2.882   3.519   6.940 -0.1916 -0.3441  0.3296
 3579SOL    HW122199   2.888   3.425   6.923  3.1859  0.0230 -0.5141
 3579SOL    HW222200   2.968   3.537   6.980  0.1781  1.7487 -1.4178
 3580SOL     OW22201   1.991   1.893   6.709 -0.1776  0.7461 -0.0157
 3580SOL    HW122202   1.927   1.834   6.670  0.5832 -2.3207  3.4323
 3580SOL    HW222203   2.059   1.832   6.737 -0.9685 -1.0695 -2.0506
 3581SOL     OW22204   4.655   1.025  11.612 -0.5456 -0.4028 -0.0400
 3581SOL    HW122205   4.635   1.021  11.518  0.3827 -0.7191 -0.2222
 3581SOL    HW222206   4.595   0.965  11.656  1.8156 -0.2544  3.3576
 3582SOL     OW22207   0.940   0.791   3.941 -0.5574 -0.3360 -0.2242
 3582SOL    HW122208   0.971   0.712   3.986 -1.0812 -0.9527 -0.9298
 3582SOL    HW222209   0.883   0.827   4.008 -0.5376 -1.3706  0.3452
 3583SOL     OW22210   3.647   4.454  14.552  0.0367  0.3980  0.5658
 3583SOL    HW122211   3.663   4.371  14.508  1.5854  0.2019  1.5062
 3583SOL    HW222212   3.613   4.422  14.636  0.5650 -0.2027  0.5457
 3584SOL     OW22213   3.432   2.603   7.217 -0.0179  0.0658  0.2695
 3584SOL    HW122214   3.449   2.647   7.133 -1.3503  2.5195  1.2740
 3584SOL    HW222215   3.381   2.670   7.263  0.5053 -0.2679  1.3363
 3585SOL     OW22216   2.430   1.556   5.916  0.0286 -0.0924 -0.1307
 3585SOL    HW122217   2.374   1.628   5.945  0.3389 -0.2426  0.8380
 3585SOL    HW222218   2.400   1.520   5.833 -0.5921 -2.7247  1.2563
 3586SOL     OW22219   1.742   2.329   2.260 -0.0187  0.4836  0.0318
 3586SOL    HW122220   1.836   2.341   2.256 -0.6151  5.1779 -0.0843
 3586SOL    HW222221   1.735   2.306   2.353  0.9763  2.8345  0.7015
 3587SOL     OW22222   1.846   1.714  11.757  0.7559  0.6797  0.1860
 3587SOL    HW122223   1.940   1.730  11.750  0.5442  2.4557  1.4697
 3587SOL    HW222224   1.838   1.725  11.852 -1.2354  0.9562 -0.0067
 3588SOL     OW22225   0.964   3.217   2.077  0.0631  0.3636  0.3786
 3588SOL    HW122226   0.906   3.153   2.035  0.7590 -0.3698  0.5166
 3588SOL    HW222227   1.003   3.162   2.145 -1.2657  1.6660  2.1847
 3589SOL     OW22228   1.416   1.809   8.035  0.3141 -0.0115  0.6313
 3589SOL    HW122229   1.416   1.763   8.120  1.9429 -2.1292 -0.5181
 3589SOL    HW222230   1.502   1.849   8.025 -0.0047 -0.0723 -2.2406
 3590SOL     OW22231   3.987   0.280   4.565  0.0551 -1.0566  0.5502
 3590SOL    HW122232   3.898   0.257   4.593  0.1486 -0.3916  1.3898
 3590SOL    HW222233   3.980   0.376   4.573  1.7132 -0.8128 -0.9479
 3591SOL     OW22234   2.759   0.415   9.598 -0.4015 -0.3275 -0.1527
 3591SOL    HW122235   2.690   0.420   9.532  0.7728  0.1236 -1.3394
 3591SOL    HW222236   2.828   0.474   9.567  1.0332 -3.0371 -2.0934
 3592SOL     OW22237   3.688   0.081   5.371 -0.2889 -0.1711  0.2029
 3592SOL    HW122238   3.649   0.040   5.294 -1.6140  1.1379  0.1655
 3592SOL    HW222239   3.738   0.009   5.410  0.3613  0.1638 -0.0133
 3593SOL     OW22240   2.245   0.859  12.542  0.0788  0.1157  0.7922
 3593SOL    HW122241   2.304   0.907  12.600  0.8430 -0.3190  0.3834
 3593SOL    HW222242   2.197   0.918  12.484  1.1753  0.3105  0.0821
 3594SOL     OW22243   1.309   4.438   6.751 -0.0018  0.0483 -0.2019
 3594SOL    HW122244   1.298   4.529   6.721  0.9626  0.0002 -0.7071
 3594SOL    HW222245   1.369   4.399   6.688  0.7905  1.8217 -0.5581
 3595SOL     OW22246   4.665   3.949   4.751  0.0673 -0.3011 -0.2606
 3595SOL    HW122247   4.677   4.036   4.789  3.1071 -0.9500  0.2859
 3595SOL    HW222248   0.002   3.954   4.677 -0.8957 -0.3079 -1.0480
 3596SOL     OW22249   4.650   2.679   4.797 -0.0878  0.3308  0.0501
 3596SOL    HW122250   4.702   2.758   4.812 -1.2231  1.2217 -0.7419
 3596SOL    HW222251   4.569   2.724   4.773 -0.5611  0.5484  2.0392
 3597SOL     OW22252   1.436   0.918   0.305 -0.5999 -0.1712 -0.1462
 3597SOL    HW122253   1.448   0.980   0.377 -2.5873 -0.7270  0.6764
 3597SOL    HW222254   1.417   0.985   0.239 -0.0902  0.3425  0.2316
 3598SOL     OW22255   4.333   2.262  14.499 -0.3542 -0.3538 -0.2246
 3598SOL    HW122256   4.285   2.202  14.442 -2.7064 -0.2250  1.6116
 3598SOL    HW222257   4.290   2.347  14.491 -2.1374 -1.1645  0.6712
 3599SOL     OW22258   2.947   1.506   9.149 -0.2051 -0.6357  0.1955
 3599SOL    HW122259   2.968   1.584   9.201 -0.7888 -0.6520  0.4593
 3599SOL    HW222260   2.884   1.472   9.212  0.0397  1.0837  1.3710
 3600SOL     OW22261   2.216   0.132   3.294  0.3254  0.1244  0.3155
 3600SOL    HW122262   2.193   0.056   3.241  0.7056  0.4694 -0.3469
 3600SOL    HW222263   2.135   0.182   3.297  0.4993  0.3770  0.7718
 3601SOL     OW22264   3.644   0.325  14.759 -0.4622 -0.3019  0.2119
 3601SOL    HW122265   3.677   0.299  14.673 -1.3741  2.0903 -0.8585
 3601SOL    HW222266   3.551   0.336  14.737  0.2051  0.9190 -1.9871
 3602SOL     OW22267   2.149   0.760   7.642 -0.8669  0.4011  0.4740
 3602SOL    HW122268   2.103   0.716   7.571  0.1468 -0.4929  0.3857
 3602SOL    HW222269   2.079   0.767   7.708 -0.2647 -0.4612  1.1991
 3603SOL     OW22270   0.158   4.377   5.342  0.2499 -0.7043  0.2609
 3603SOL    HW122271   0.066   4.353   5.353 -0.5087  2.1932  0.2175
 3603SOL    HW222272   0.176   4.450   5.401  0.6430 -1.1979  0.7575
 3604SOL     OW22273   0.459   2.219   5.473  0.5843  0.0470 -0.6457
 3604SOL    HW122274   0.526   2.267   5.425  0.4963  2.0227  1.2000
 3604SOL    HW222275   0.447   2.279   5.547  0.6236 -0.6514 -0.0736
 3605SOL     OW22276   3.778   1.847   1.942  0.8346  0.2451 -0.5340
 3605SOL    HW122277   3.716   1.920   1.949 -1.4495 -1.7249 -0.4307
 3605SOL    HW222278   3.803   1.843   1.850  1.1193 -0.6251 -0.4172
 3606SOL     OW22279   3.623   1.178   4.903 -0.0716  0.5594  0.1181
 3606SOL    HW122280   3.598   1.197   4.994 -1.8663  0.8838 -0.4328
 3606SOL    HW222281   3.717   1.194   4.909 -0.4029  1.1024  3.7503
 3607SOL     OW22282   3.907   2.432   1.857  0.7242 -0.0835 -0.6225
 3607SOL    HW122283   3.873   2.435   1.768  0.5715  2.8687 -0.4862
 3607SOL    HW222284   3.999   2.425   1.832  1.0581  0.8692  0.3123
 3608SOL     OW22285   4.060   1.699   4.822  0.5417 -0.3825 -0.3109
 3608SOL    HW122286   4.061   1.790   4.792 -0.0711 -0.2268  0.1469
 3608SOL    HW222287   3.970   1.674   4.802  0.5302  0.9206 -1.8987
 3609SOL     OW22288   0.613   3.678   2.337  0.2169  0.0600 -0.1139
 3609SOL    HW122289   0.602   3.609   2.271 -0.3481 -0.3323  0.3869
 3609SOL    HW222290   0.702   3.669   2.370 -0.7348 -1.2591  2.0586
 3610SOL     OW22291   1.772   0.651  14.484 -0.2056 -0.0225 -0.9779
 3610SOL    HW122292   1.705   0.661  14.416  0.3247  0.2811 -1.4495
 3610SOL    HW222293   1.834   0.599  14.432 -1.1804 -0.2117 -1.9555
 3611SOL     OW22294   1.134   2.545  11.999  0.0081  0.3610 -0.5098
 3611SOL    HW122295   1.167   2.462  12.033  0.6268  0.1621 -1.5703
 3611SOL    HW222296   1.215   2.597  12.001 -0.9332  1.8019 -0.2683
 3612SOL     OW22297   1.512   3.267  12.413 -0.3296  0.5508  0.3176
 3612SOL    HW122298   1.457   3.207  12.465 -1.3590 -0.2938 -1.7668
 3612SOL    HW222299   1.517   3.332  12.483 -3.4979  1.3169 -0.1717
 3613SOL     OW22300   1.096   3.741  15.258  0.3787  0.3966  0.8078
 3613SOL    HW122301   1.041   3.786  15.322 -0.1882 -0.3524  0.8464
 3613SOL    HW222302   1.037   3.699  15.196  0.4444  0.3239  0.7942
 3614SOL     OW22303   2.413   3.493   4.135 -0.1154 -0.2572  0.1066
 3614SOL    HW122304   2.485   3.431   4.147  0.6364  0.6439  0.2733
 3614SOL    HW222305   2.417   3.494   4.040  0.7598 -0.3526  0.1362
 3615SOL     OW22306   3.683   1.406  15.473 -0.3744  0.6330 -0.0818
 3615SOL    HW122307   3.761   1.367  15.511  0.1605  1.4200 -0.3763
 3615SOL    HW222308   3.609   1.394  15.533 -0.9233  1.7980 -0.5308
 3616SOL     OW22309   2.012   4.220   6.298  0.1699 -0.6806 -0.7869
 3616SOL    HW122310   1.943   4.253   6.240  1.0502  1.4492 -0.6164
 3616SOL    HW222311   1.959   4.174   6.363 -0.4544  0.3882 -0.5307
 3617SOL     OW22312   1.190   2.901   2.930 -0.6086  0.6131 -0.3320
 3617SOL    HW122313   1.125   2.831   2.930 -1.2616  1.2214 -0.0376
 3617SOL    HW222314   1.270   2.856   2.902 -0.2232  0.7201  0.5791
 3618SOL     OW22315   3.933   3.953   5.821 -0.0613  0.9320  0.2639
 3618SOL    HW122316   3.976   3.867   5.821 -2.3525 -0.2383 -0.0343
 3618SOL    HW222317   3.848   3.925   5.786 -0.5768 -0.0496  2.3121
 3619SOL     OW22318   0.906   1.761   4.419  0.2625 -0.3716 -0.8025
 3619SOL    HW122319   0.897   1.720   4.334 -1.0672 -0.3937 -0.6671
 3619SOL    HW222320   1.000   1.753   4.434  0.2790  2.3100  0.6723
 3620SOL     OW22321   1.229   2.749   3.600 -0.2898 -0.2294  0.0779
 3620SOL    HW122322   1.154   2.725   3.545 -0.4256 -1.4836  0.8212
 3620SOL    HW222323   1.240   2.840   3.572  1.5417  0.4719  3.0611
 3621SOL     OW22324   4.434   2.690   4.384 -0.3151  0.0670  0.4641
 3621SOL    HW122325   4.516   2.726   4.416  0.5701 -1.8047  0.3013
 3621SOL    HW222326   4.366   2.747   4.420  1.2083  1.8914  0.4626
 3622SOL     OW22327   1.294   1.674  13.790 -0.0041  0.2059 -0.0309
 3622SOL    HW122328   1.341   1.741  13.738 -1.9740  0.4294 -1.5235
 3622SOL    HW222329   1.216   1.723  13.815 -0.9167 -0.9551 -0.6047
 3623SOL     OW22330   2.061   3.827  15.276  0.4900  0.4012  0.0068
 3623SOL    HW122331   2.030   3.773  15.204 -2.3670  1.8343  0.1412
 3623SOL    HW222332   1.987   3.822  15.337  1.8243 -0.9997  1.5088
 3624SOL     OW22333   2.625   3.263   7.572 -0.4178 -0.9011 -0.4254
 3624SOL    HW122334   2.622   3.302   7.485 -0.1248  0.8449  0.3578
 3624SOL    HW222335   2.533   3.275   7.595 -0.7628 -1.1444 -1.6926
 3625SOL     OW22336   2.140   3.584   2.017  0.2481  0.1164  0.8102
 3625SOL    HW122337   2.206   3.516   2.010 -0.8608 -0.9998  1.2986
 3625SOL    HW222338   2.202   3.655   2.001 -0.4423  0.7978  1.1694
 3626SOL     OW22339   3.124   3.987   8.703 -0.7261 -0.1230  0.4924
 3626SOL    HW122340   3.083   3.907   8.737 -3.8065  1.6433  0.8528
 3626SOL    HW222341   3.215   3.959   8.692 -0.4829  1.2524 -0.9598
 3627SOL     OW22342   1.645   1.899   7.677  0.2283 -0.1285  0.5054
 3627SOL    HW122343   1.666   1.987   7.645 -1.8508  0.4908  0.8837
 3627SOL    HW222344   1.621   1.925   7.766  2.2319  1.2003  0.6682
 3628SOL     OW22345   0.178   3.928   8.755 -0.2844  0.0399 -0.4039
 3628SOL    HW122346   0.221   3.921   8.840 -2.2578 -1.1815  0.5008
 3628SOL    HW222347   0.132   3.845   8.746  0.8121 -0.5399 -0.5396
 3629SOL     OW22348   3.653   1.868   4.055 -1.1054 -0.0765 -0.4557
 3629SOL    HW122349   3.681   1.911   3.974  4.5044 -2.8072  0.0679
 3629SOL    HW222350   3.586   1.925   4.093  1.5951  0.6569  3.1385
 3630SOL     OW22351   2.328   1.345   6.752 -0.0499  0.2692  0.6990
 3630SOL    HW122352   2.414   1.375   6.782 -0.8807  2.5104  0.8530
 3630SOL    HW222353   2.332   1.388   6.667 -0.0218 -0.1685  0.4836
 3631SOL     OW22354   0.113   1.778   3.650  0.0802 -0.2233  0.3537
 3631SOL    HW122355   0.136   1.811   3.563 -1.1293  1.2433  0.5725
 3631SOL    HW222356   0.175   1.708   3.666  0.2182 -0.5112 -1.4847
 3632SOL     OW22357   4.191   1.630   4.231 -0.2491  0.4752  0.1862
 3632SOL    HW122358   4.204   1.723   4.208  0.5878  0.5943  1.1565
 3632SOL    HW222359   4.146   1.631   4.315 -0.2300 -1.1697  0.2081
 3633SOL     OW22360   4.542   1.108   0.833 -0.0027  0.0913 -0.2253
 3633SOL    HW122361   4.500   1.023   0.824 -2.9745  1.6414 -0.9662
 3633SOL    HW222362   4.559   1.114   0.927 -0.1310 -0.7662 -0.1476
 3634SOL     OW22363   3.940   3.942   4.904  0.1603  0.1078 -0.0976
 3634SOL    HW122364   3.986   3.901   4.977 -0.2011  0.2541  0.2159
 3634SOL    HW222365   4.015   3.961   4.847 -0.2553  2.5188  0.1351
 3635SOL     OW22366   3.612   1.848   2.969  0.0617 -0.1587 -0.4284
 3635SOL    HW122367   3.679   1.800   3.018 -0.1060  0.4505  0.3901
 3635SOL    HW222368   3.649   1.839   2.881  1.0541  0.9631 -0.1188
 3636SOL     OW22369   1.158   1.815   8.231 -0.1158 -0.2022  0.3642
 3636SOL    HW122370   1.164   1.721   8.215  1.3610 -0.0009 -0.3101
 3636SOL    HW222371   1.113   1.810   8.315 -0.0607  1.0842  0.4658
 3637SOL     OW22372   4.201   3.608  14.157  0.3476 -0.1203 -0.1781
 3637SOL    HW122373   4.146   3.537  14.126  1.0056 -0.0532 -1.5216
 3637SOL    HW222374   4.271   3.610  14.091  0.9573  0.1745  0.4706
 3638SOL     OW22375   1.424   1.408   4.537  0.1165  0.6507 -0.0177
 3638SOL    HW122376   1.358   1.388   4.603 -1.2365  1.0159 -1.2681
 3638SOL    HW222377   1.470   1.477   4.585  3.8009 -0.8097 -1.4269
 3639SOL     OW22378   1.922   0.863   6.984 -0.0779  0.6252 -0.5826
 3639SOL    HW122379   1.879   0.901   6.907 -1.3001 -0.3456 -0.3877
 3639SOL    HW222380   2.009   0.901   6.993 -0.6307  1.8842 -0.5232
 3640SOL     OW22381   0.507   2.715   4.016 -0.0794 -0.6836  0.4364
 3640SOL    HW122382   0.546   2.678   4.095 -0.4540 -0.2757  0.8064
 3640SOL    HW222383   0.547   2.662   3.947  1.5685  2.0234 -0.7032
 3641SOL     OW22384   3.508   0.056   1.595 -0.3066  0.5705 -0.2799
 3641SOL    HW122385   3.480   4.689   1.579 -0.8372  0.6281  0.3212
 3641SOL    HW222386   3.431   0.103   1.563 -0.6131 -0.9462 -1.7638
 3642SOL     OW22387   1.642   1.273   8.847 -0.2836 -0.6928  0.5460
 3642SOL    HW122388   1.736   1.272   8.828 -0.2052  0.8791  0.8985
 3642SOL    HW222389   1.595   1.262   8.764  1.3339 -1.4756 -0.2923
 3643SOL     OW22390   4.089   3.199   4.205  0.0743  0.5083  0.0223
 3643SOL    HW122391   4.096   3.291   4.179  1.5415  0.1639 -0.8691
 3643SOL    HW222392   4.022   3.168   4.145  0.0664 -1.4631  1.0537
 3644SOL     OW22393   3.007   0.488  10.992 -0.3863  0.1135  0.0891
 3644SOL    HW122394   3.081   0.431  11.015 -1.2594 -0.5719  1.1726
 3644SOL    HW222395   3.033   0.517  10.905  0.3595 -0.8250 -0.0085
 3645SOL     OW22396   3.013   2.528  13.588  0.6232 -0.6195  0.3914
 3645SOL    HW122397   2.919   2.548  13.596  1.3267  2.7164  0.3736
 3645SOL    HW222398   3.047   2.616  13.604 -0.0639 -0.2183 -0.3283
 3646SOL     OW22399   0.728   0.184   4.676 -0.1086  0.0172  0.3050
 3646SOL    HW122400   0.709   0.262   4.623 -1.5633  0.8428  2.0343
 3646SOL    HW222401   0.705   0.217   4.763  1.1554 -0.3505  0.7752
 3647SOL     OW22402   1.433   4.082   9.594 -0.5503 -0.6375  0.1683
 3647SOL    HW122403   1.396   4.045   9.675 -0.0319  4.1679  2.5965
 3647SOL    HW222404   1.525   4.064   9.615 -0.4291 -2.0312 -1.6134
 3648SOL     OW22405   4.060   3.315   3.808  0.2235 -0.0612 -0.3900
 3648SOL    HW122406   4.009   3.379   3.758  0.9030  0.4162 -0.4645
 3648SOL    HW222407   4.126   3.376   3.841  0.9136 -0.1073 -1.6986
 3649SOL     OW22408   2.906   0.884   2.452 -0.4631 -0.3610  0.1552
 3649SOL    HW122409   2.969   0.816   2.426 -1.2375 -1.1330  0.2651
 3649SOL    HW222410   2.948   0.966   2.426  0.7039 -2.1303 -3.5839
 3650SOL     OW22411   2.633   3.323   5.853 -0.4421 -0.3751 -0.8457
 3650SOL    HW122412   2.721   3.299   5.882 -0.1676  0.6779 -0.8203
 3650SOL    HW222413   2.609   3.394   5.913 -1.1742  1.6816 -3.5459
 3651SOL     OW22414   3.569   4.248   9.116  0.4127 -0.5175 -0.2122
 3651SOL    HW122415   3.625   4.324   9.127 -0.7793  0.3722 -0.2607
 3651SOL    HW222416   3.524   4.266   9.199 -0.1321 -0.8680 -0.4267
 3652SOL     OW22417   0.637   4.296  14.688  0.8281 -0.3619 -0.4426
 3652SOL    HW122418   0.732   4.285  14.698  0.6000 -2.2078 -0.1766
 3652SOL    HW222419   0.621   4.363  14.754  1.5898 -0.6087  0.0013
 3653SOL     OW22420   4.079   1.864   2.222  0.2240  0.5646 -0.1297
 3653SOL    HW122421   4.101   1.825   2.307 -0.1540 -1.2420 -0.8644
 3653SOL    HW222422   4.134   1.942   2.221 -2.6578  2.6175  0.2763
 3654SOL     OW22423   0.704   1.649  16.096 -0.0972  0.5517  0.3556
 3654SOL    HW122424   0.614   1.619  16.082  1.0678 -1.4723 -2.6275
 3654SOL    HW222425   0.719   1.679  16.006  0.1393 -0.7319 -0.0304
 3655SOL     OW22426   4.422   3.499   8.349  0.1764 -0.6461 -0.0206
 3655SOL    HW122427   4.374   3.582   8.356 -0.4755 -1.1265  1.1302
 3655SOL    HW222428   4.408   3.480   8.256  0.2047  1.5232 -0.4693
 3656SOL     OW22429   3.186   1.820   3.047 -0.3760 -0.2129 -0.0649
 3656SOL    HW122430   3.110   1.877   3.034 -0.1138  0.5325  1.7797
 3656SOL    HW222431   3.156   1.742   3.000  1.4434 -0.9899  0.0744
 3657SOL     OW22432   4.254   3.698   5.251 -0.6898  0.2455  0.1852
 3657SOL    HW122433   4.329   3.750   5.278 -0.2548  0.2177 -0.9964
 3657SOL    HW222434   4.277   3.610   5.281  0.5094  0.3562 -0.4396
 3658SOL     OW22435   1.709   4.498  15.028  0.0051  0.1045 -0.3902
 3658SOL    HW122436   1.742   4.525  14.942  0.2384 -0.6510 -0.5440
 3658SOL    HW222437   1.635   4.441  15.007 -0.7971  0.7530  0.6974
 3659SOL     OW22438   0.533   2.133   3.621 -0.3164 -0.1104 -0.3661
 3659SOL    HW122439   0.479   2.195   3.669  0.0225  0.3597 -0.5856
 3659SOL    HW222440   0.613   2.162   3.665 -0.7024 -1.8217  1.4696
 3660SOL     OW22441   1.336   1.276  12.478  0.0283  0.0040  0.7866
 3660SOL    HW122442   1.368   1.364  12.459 -1.9528  0.0258 -2.4496
 3660SOL    HW222443   1.402   1.235  12.534 -1.3195 -0.9298  1.7068
 3661SOL     OW22444   0.597   2.720  13.489  0.0033 -0.2940 -0.0682
 3661SOL    HW122445   0.566   2.725  13.580 -0.2249  0.0519 -0.1627
 3661SOL    HW222446   0.549   2.646  13.453 -0.0392  0.2204 -1.0756
 3662SOL     OW22447   2.660   1.836   4.009 -0.5658  0.0171 -0.0223
 3662SOL    HW122448   2.673   1.810   4.100 -0.6774  0.9014  0.2497
 3662SOL    HW222449   2.577   1.882   4.020 -1.7091 -1.7791 -1.1530
 3663SOL     OW22450   1.225   0.465   3.509 -0.1392  0.0382  0.3486
 3663SOL    HW122451   1.179   0.530   3.456  1.4913 -2.9171 -4.6902
 3663SOL    HW222452   1.156   0.450   3.574 -0.3416  1.0207  0.3565
 3664SOL     OW22453   1.094   3.962  14.377 -0.3656  0.4306 -0.2505
 3664SOL    HW122454   1.074   4.005  14.295 -0.7431 -1.9781 -1.4350
 3664SOL    HW222455   1.071   3.870  14.362 -2.5473  0.3340  3.6281
 3665SOL     OW22456   0.444   0.131  14.016 -0.2120 -0.0897 -0.7652
 3665SOL    HW122457   0.472   0.222  14.017 -1.1402  0.1690  0.9065
 3665SOL    HW222458   0.391   0.116  13.938  3.1901 -0.0508 -3.0985
 3666SOL     OW22459   2.744   4.509   6.703 -1.0122  0.1295 -0.1593
 3666SOL    HW122460   2.691   4.517   6.782 -1.5625  1.5004 -0.6590
 3666SOL    HW222461   2.730   4.592   6.656 -0.9817 -1.1732 -2.4737
 3667SOL     OW22462   4.387   0.328   7.178 -0.1165 -0.2198 -0.1831
 3667SOL    HW122463   4.388   0.254   7.239  2.0822 -0.2197 -0.2355
 3667SOL    HW222464   4.401   0.295   7.089  0.5324  2.2116 -0.9971
 3668SOL     OW22465   2.805   4.713  15.957  0.3559  0.0698 -0.4929
 3668SOL    HW122466   2.758   0.067  15.990  0.0426  0.0317 -0.8459
 3668SOL    HW222467   2.792   0.008  15.864 -0.0399  1.0506 -0.2589
 3669SOL     OW22468   1.478   1.403  16.145 -0.2092 -0.4272 -0.2465
 3669SOL    HW122469   1.487   1.308  16.139 -0.0677 -0.3479 -1.2412
 3669SOL    HW222470   1.400   1.418  16.093  0.5587 -1.3420 -1.6779
 3670SOL     OW22471   2.430   1.185   4.250 -0.2296  0.3938  0.0717
 3670SOL    HW122472   2.376   1.212   4.175 -0.0345 -1.1742 -0.6441
 3670SOL    HW222473   2.374   1.123   4.297 -1.4114  0.9758 -0.5657
 3671SOL     OW22474   2.233   3.958   1.591  0.4731 -0.5736 -0.2241
 3671SOL    HW122475   2.238   3.887   1.527  3.3488 -1.4793  0.9991
 3671SOL    HW222476   2.145   3.990   1.571 -0.5614 -1.4534  2.9178
 3672SOL     OW22477   2.283   3.463   2.422  0.7121 -0.2093 -0.0155
 3672SOL    HW122478   2.203   3.496   2.382  1.0666 -0.0484 -0.5855
 3672SOL    HW222479   2.296   3.382   2.373  0.2116 -1.6079  2.1522
 3673SOL     OW22480   3.652   2.285   1.937  0.3866  0.6014  0.2766
 3673SOL    HW122481   3.725   2.228   1.963 -0.4662 -0.4392  0.3882
 3673SOL    HW222482   3.698   2.368   1.950 -0.1566  0.7907  0.9644
 3674SOL     OW22483   2.917   0.804  16.866  0.0423 -0.2583 -0.0968
 3674SOL    HW122484   2.825   0.833  16.867 -0.0383 -0.5061 -0.4259
 3674SOL    HW222485   2.923   0.771  16.776 -2.4950 -2.0089  0.3779
 3675SOL     OW22486   1.755   1.795   6.584  1.0673  0.0848  0.3266
 3675SOL    HW122487   1.749   1.830   6.495  1.0676  1.3246  0.8243
 3675SOL    HW222488   1.697   1.858   6.627 -1.2755 -2.3741  0.7777
 3676SOL     OW22489   4.525   2.645   9.840  0.2274 -0.9913 -0.6590
 3676SOL    HW122490   4.504   2.729   9.800  2.4463 -0.1652 -0.0907
 3676SOL    HW222491   4.490   2.663   9.927  1.5195 -2.9383  0.2440
 3677SOL     OW22492   2.374   3.776   2.069  0.6775  0.0217 -0.1578
 3677SOL    HW122493   2.402   3.724   2.144 -0.0071  1.1357  0.8696
 3677SOL    HW222494   2.440   3.845   2.057  1.9114 -1.3440 -1.1864
 3678SOL     OW22495   3.294   3.928  14.774 -0.1893 -0.3455 -0.7574
 3678SOL    HW122496   3.311   3.883  14.857  0.5951 -0.1644 -0.8170
 3678SOL    HW222497   3.200   3.937  14.783 -0.0529 -0.1488  0.5030
 3679SOL     OW22498   4.540   1.412   6.443 -0.3596  0.3022  0.0638
 3679SOL    HW122499   4.476   1.344   6.465  1.0908 -1.6382 -1.7153
 3679SOL    HW222500   4.604   1.361   6.393 -1.6756 -0.7629 -0.5494
 3680SOL     OW22501   4.546   3.655   1.676 -0.0900  0.6739 -0.0112
 3680SOL    HW122502   4.620   3.656   1.615 -0.9612 -2.6197 -1.1471
 3680SOL    HW222503   4.587   3.675   1.759  0.5259  0.2146 -0.2030
 3681SOL     OW22504   1.041   1.165   4.529  0.3045  0.2619 -0.2333
 3681SOL    HW122505   0.957   1.132   4.560  0.6109  0.2712  0.6183
 3681SOL    HW222506   1.095   1.089   4.550  0.4790  0.9204  1.7043
 3682SOL     OW22507   1.061   4.434   0.529 -0.1644  0.1454 -0.4296
 3682SOL    HW122508   1.017   4.359   0.489  0.3699  0.6017 -1.8689
 3682SOL    HW222509   1.121   4.452   0.456  0.4665  1.1322  0.3191
 3683SOL     OW22510   0.212   0.613   5.153  0.5972  0.2828 -0.0957
 3683SOL    HW122511   0.280   0.563   5.108  0.1943 -0.9484  0.6839
 3683SOL    HW222512   0.150   0.622   5.081  0.0041 -1.2182  0.2300
 3684SOL     OW22513   0.728   0.040   9.885  0.9399  0.3464  0.4379
 3684SOL    HW122514   0.791   4.691   9.893 -2.8044 -2.7565  2.5449
 3684SOL    HW222515   0.679   0.021   9.965  0.0041 -0.0989 -0.2281
 3685SOL     OW22516   4.004   1.377   2.082  0.0355  0.1826 -0.0096
 3685SOL    HW122517   4.019   1.427   2.002  2.1542  0.7644  0.7531
 3685SOL    HW222518   4.047   1.434   2.145 -1.4804  0.9949  0.2853
 3686SOL     OW22519   0.916   2.370   7.615  0.0041  0.1284  0.5555
 3686SOL    HW122520   0.967   2.381   7.696  1.7576 -1.5505 -0.2987
 3686SOL    HW222521   0.946   2.280   7.600  0.2858  0.2417  0.4350
 3687SOL     OW22522   3.083   3.423   2.740  0.4725  0.9617  0.2443
 3687SOL    HW122523   3.102   3.329   2.732 -0.0399  0.8291  0.5467
 3687SOL    HW222524   3.116   3.436   2.829 -0.8329  2.3782  0.5272
 3688SOL     OW22525   0.551   1.266   2.047 -0.0619  0.6671 -0.1764
 3688SOL    HW122526   0.504   1.229   1.973 -1.2441  0.6186  0.5843
 3688SOL    HW222527   0.569   1.355   2.016  0.3596 -0.0024 -1.8071
 3689SOL     OW22528   1.262   3.374  11.732  0.0014 -0.0990 -0.4158
 3689SOL    HW122529   1.194   3.317  11.769 -2.0483  3.6854  1.6298
 3689SOL    HW222530   1.319   3.314  11.685  0.8873 -0.9871  1.8481
 3690SOL     OW22531   2.310   0.405   6.801 -0.0302 -0.1516  0.0435
 3690SOL    HW122532   2.241   0.368   6.856  0.4132 -0.6899  0.2371
 3690SOL    HW222533   2.305   0.501   6.801  0.6031 -0.1185  0.0883
 3691SOL     OW22534   3.165   2.678   5.979 -0.1555 -0.2360 -0.5211
 3691SOL    HW122535   3.085   2.727   5.999  0.1155 -0.6575  1.5904
 3691SOL    HW222536   3.140   2.598   6.025 -1.2593 -0.5083 -1.5897
 3692SOL     OW22537   0.201   1.399  12.103  0.2749  0.2963 -0.0012
 3692SOL    HW122538   0.216   1.439  12.189  1.2591 -0.6338  0.2632
 3692SOL    HW222539   0.277   1.343  12.089 -0.9391 -1.3096 -0.1523
 3693SOL     OW22540   3.493   2.088  12.635  0.0276 -0.3003 -0.1465
 3693SOL    HW122541   3.450   2.158  12.586  1.3397  2.7123  2.9919
 3693SOL    HW222542   3.567   2.083  12.575 -1.3003  0.5216 -1.8744
 3694SOL     OW22543   0.390   0.331   7.672  0.0802 -0.1968 -0.4225
 3694SOL    HW122544   0.442   0.280   7.734  0.1102  1.9124  1.2868
 3694SOL    HW222545   0.459   0.391   7.646 -1.9550  1.8834 -1.0827
 3695SOL     OW22546   0.595   1.101   8.773  0.2528  0.4745 -0.0252
 3695SOL    HW122547   0.685   1.116   8.802 -0.1643  0.9447  1.0275
 3695SOL    HW222548   0.605   1.100   8.678  0.3346 -1.8326 -0.0076
 3696SOL     OW22549   4.135   3.115   4.692  0.3926  0.6176  0.6106
 3696SOL    HW122550   4.210   3.064   4.721  0.6980 -0.6902 -2.5776
 3696SOL    HW222551   4.087   3.125   4.775 -0.0910  0.9653  0.2886
 3697SOL     OW22552   4.538   4.554   6.125 -0.5657 -0.6155  0.2716
 3697SOL    HW122553   4.457   4.606   6.127 -0.9924 -1.2805  0.2520
 3697SOL    HW222554   4.578   4.579   6.208 -0.5141 -0.4507  0.1965
 3698SOL     OW22555   0.688   2.305   4.750 -0.1567 -0.2417 -0.2080
 3698SOL    HW122556   0.610   2.267   4.791  0.8789 -0.9373  1.1194
 3698SOL    HW222557   0.724   2.228   4.706 -1.5959 -0.3837 -1.1356
 3699SOL     OW22558   4.185   4.255   2.833 -0.8717 -0.4367  0.3531
 3699SOL    HW122559   4.100   4.252   2.877 -0.7541  1.6476  0.7141
 3699SOL    HW222560   4.163   4.286   2.745 -1.6146 -0.2644  0.5990
 3700SOL     OW22561   3.848   4.195   1.604  0.2398 -0.3576 -0.2496
 3700SOL    HW122562   3.884   4.265   1.659  2.1417 -3.7473  2.8493
 3700SOL    HW222563   3.926   4.161   1.561 -0.9637 -3.0196 -0.3437
 3701SOL     OW22564   0.571   0.839   6.935 -0.2298  0.0561  0.1793
 3701SOL    HW122565   0.482   0.810   6.914 -0.0773 -0.2936  0.0188
 3701SOL    HW222566   0.545   0.902   7.002  0.1440  0.8072 -0.3956
 3702SOL     OW22567   2.727   4.208  10.924 -0.5200  0.3821  0.4846
 3702SOL    HW122568   2.758   4.124  10.890 -1.1986  0.6121 -0.7018
 3702SOL    HW222569   2.810   4.234  10.965  0.6089  0.1423 -1.6477
 3703SOL     OW22570   3.210   0.971   3.195 -0.2205 -0.1328  0.0163
 3703SOL    HW122571   3.233   0.961   3.287 -1.2137  1.0130  0.3846
 3703SOL    HW222572   3.279   0.931   3.142 -1.0889 -1.1699 -0.3387
 3704SOL     OW22573   0.341   2.344   5.735  0.1513 -0.3517 -0.5867
 3704SOL    HW122574   0.384   2.266   5.773  0.3590  0.0033 -0.0935
 3704SOL    HW222575   0.250   2.318   5.748  0.5466 -0.2617  2.3396
 3705SOL     OW22576   2.666   0.882  16.378 -0.2142 -0.6498 -0.8744
 3705SOL    HW122577   2.738   0.826  16.408  0.9686  2.0778  1.3289
 3705SOL    HW222578   2.721   0.947  16.336 -0.3366 -0.8958 -1.4117
 3706SOL     OW22579   3.538   1.294   6.263  0.1014  0.4912 -0.0892
 3706SOL    HW122580   3.625   1.332   6.274  0.0935  0.7579 -0.9333
 3706SOL    HW222581   3.565   1.217   6.212 -1.8217  0.4992 -1.1086
 3707SOL     OW22582   4.039   2.563   0.946 -0.0999 -0.4821 -0.3288
 3707SOL    HW122583   3.950   2.586   0.969 -0.2548  0.2152 -1.6198
 3707SOL    HW222584   4.040   2.559   0.850  1.0772 -3.2927 -0.2135
 3708SOL     OW22585   4.341   0.349   4.175 -0.2070 -0.3041 -0.2592
 3708SOL    HW122586   4.396   0.311   4.243 -0.5740 -0.4021 -0.0162
 3708SOL    HW222587   4.395   0.412   4.127 -2.0783 -0.2323 -2.2777
 3709SOL     OW22588   0.426   1.767   9.093 -0.1452  0.4499  0.5356
 3709SOL    HW122589   0.473   1.737   9.171  0.6912 -0.7636 -0.4219
 3709SOL    HW222590   0.485   1.837   9.062  0.8940 -1.2908 -1.4569
 3710SOL     OW22591   4.092   0.353   2.076  0.6392 -0.0022  0.4551
 3710SOL    HW122592   4.119   0.302   1.999  0.7192  0.1173  0.4028
 3710SOL    HW222593   4.021   0.406   2.039  1.4488  1.5216  1.0475
 3711SOL     OW22594   1.617   3.110   9.930 -0.1772 -0.6598 -0.1252
 3711SOL    HW122595   1.679   3.074   9.993  1.6934 -2.4551 -2.9406
 3711SOL    HW222596   1.545   3.048   9.933  0.7124 -1.8489 -3.0390
 3712SOL     OW22597   2.050   1.765   5.739  0.4466 -0.3441  0.0394
 3712SOL    HW122598   2.009   1.841   5.697  0.5677  0.3637  1.2080
 3712SOL    HW222599   2.140   1.797   5.736  0.1571  0.4190 -0.6349
 3713SOL     OW22600   0.400   0.064   7.376  0.1219 -0.3491 -0.0856
 3713SOL    HW122601   0.474   0.083   7.318  0.9363 -1.7493  0.4821
 3713SOL    HW222602   0.445   0.026   7.452 -2.8499  1.3277  2.5353
 3714SOL     OW22603   1.224   1.542   8.213 -0.5978  0.0429  0.4116
 3714SOL    HW122604   1.183   1.511   8.132  1.9550  2.0893 -1.6393
 3714SOL    HW222605   1.318   1.532   8.200 -0.7769 -0.7607 -0.2708
 3715SOL     OW22606   0.250   2.664  11.563  0.3673 -0.3601  0.3056
 3715SOL    HW122607   0.260   2.747  11.610  0.8319 -0.2669  0.0321
 3715SOL    HW222608   0.342   2.640  11.553  0.0688 -0.0941 -2.8830
 3716SOL     OW22609   3.359   4.552   1.182  0.2179  0.2077  0.3228
 3716SOL    HW122610   3.402   4.594   1.107  1.0073 -1.4063 -0.1151
 3716SOL    HW222611   3.404   4.470   1.199 -0.8406 -0.2102  1.1081
 3717SOL     OW22612   1.709   0.003   9.804  0.2263 -0.6128  0.6368
 3717SOL    HW122613   1.770   0.056   9.752 -0.4598 -1.7544 -1.3265
 3717SOL    HW222614   1.658   0.070   9.850  1.0229  1.2123 -1.1450
 3718SOL     OW22615   0.353   0.288   6.587  0.5382 -0.5575 -0.5333
 3718SOL    HW122616   0.296   0.354   6.548  0.3879 -0.2289  0.2392
 3718SOL    HW222617   0.346   0.312   6.679 -0.8441 -0.6062 -0.6334
 3719SOL     OW22618   3.787   3.899   1.317 -0.0909  0.3057 -0.1653
 3719SOL    HW122619   3.776   3.811   1.280 -2.7092  1.3718 -1.9160
 3719SOL    HW222620   3.828   3.897   1.404  1.8624  1.6557 -1.0290
 3720SOL     OW22621   1.978   3.757   7.373 -0.1052  0.1968  0.2077
 3720SOL    HW122622   1.951   3.690   7.435 -1.8416 -0.4801 -1.2932
 3720SOL    HW222623   2.054   3.790   7.421 -0.6488 -0.9979  1.9026
 3721SOL     OW22624   3.912   4.000   7.448  0.2098  0.4762 -0.0705
 3721SOL    HW122625   3.925   3.927   7.388 -0.0284  0.0615  0.3867
 3721SOL    HW222626   3.976   3.971   7.513 -1.2279 -1.4538  0.4565
 3722SOL     OW22627   1.308   2.731   9.526 -0.3114  0.1412  0.4359
 3722SOL    HW122628   1.401   2.719   9.546  0.3403  0.8959 -2.1631
 3722SOL    HW222629   1.295   2.823   9.504  0.6252  0.0381 -0.5508
 3723SOL     OW22630   3.451   3.436   3.678 -0.6013 -0.3082  0.4553
 3723SOL    HW122631   3.390   3.410   3.609  0.6837 -0.5504 -0.6007
 3723SOL    HW222632   3.521   3.460   3.617 -0.8250 -0.7158  0.0337
 3724SOL     OW22633   0.262   0.901  11.509  0.3263 -0.2103 -0.0906
 3724SOL    HW122634   0.288   0.956  11.435  1.9549 -2.3808 -1.1343
 3724SOL    HW222635   0.334   0.921  11.570  0.2084 -0.3348  0.0881
 3725SOL     OW22636   4.462   2.961   7.414  0.3971  0.0794 -0.4531
 3725SOL    HW122637   4.533   2.922   7.464 -0.8144  1.0702  2.0032
 3725SOL    HW222638   4.478   3.056   7.417 -0.6390  0.1039  3.2709
 3726SOL     OW22639   3.352   2.812  13.288 -0.4178  0.1208  0.1530
 3726SOL    HW122640   3.265   2.798  13.324 -0.5190 -1.6046 -0.7580
 3726SOL    HW222641   3.404   2.855  13.356 -1.0985 -0.4987  1.0665
 3727SOL     OW22642   0.463   2.896   3.516 -0.2895 -0.8756  0.0107
 3727SOL    HW122643   0.494   2.947   3.442  1.5793  0.3767  1.6742
 3727SOL    HW222644   0.518   2.934   3.585 -1.4118  0.9886 -0.1116
 3728SOL     OW22645   1.708   2.655   2.219 -0.3637 -0.2998 -0.2615
 3728SOL    HW122646   1.620   2.663   2.255 -0.0496 -1.7602  0.8008
 3728SOL    HW222647   1.694   2.622   2.130  0.5560 -0.3790 -0.3706
 3729SOL     OW22648   3.413   1.547   3.187 -0.0084  0.1634  0.0706
 3729SOL    HW122649   3.348   1.482   3.161 -1.0674  0.7127  1.3261
 3729SOL    HW222650   3.451   1.514   3.269 -0.4967 -0.3026  0.1065
 3730SOL     OW22651   3.790   0.242   7.314 -0.2288 -0.0001  0.8687
 3730SOL    HW122652   3.832   0.158   7.298 -0.2227  0.1063  0.3237
 3730SOL    HW222653   3.719   0.222   7.374 -0.3471  1.0367  1.0845
 3731SOL     OW22654   3.821   2.699   3.389  0.1168  0.3433  0.1384
 3731SOL    HW122655   3.766   2.623   3.412 -1.7117  1.2235 -1.3764
 3731SOL    HW222656   3.901   2.661   3.352 -0.7668 -2.4452  1.0830
 3732SOL     OW22657   0.637   2.957  11.873  0.2566  0.0575  0.5519
 3732SOL    HW122658   0.675   2.893  11.933 -1.4866  0.1119  1.7178
 3732SOL    HW222659   0.717   2.975  11.824  1.0936 -0.7717  1.6108
 3733SOL     OW22660   2.913   1.889   5.242  0.0455  0.1019  0.7328
 3733SOL    HW122661   2.994   1.929   5.211 -0.1952  0.9456  1.1800
 3733SOL    HW222662   2.923   1.794   5.237 -2.7067 -0.1742  0.1109
 3734SOL     OW22663   2.013   3.964   0.776 -0.1460  0.1249 -0.6741
 3734SOL    HW122664   1.979   3.880   0.744 -2.1289  0.4411  0.5987
 3734SOL    HW222665   2.106   3.949   0.764 -0.2476  0.6295 -2.0407
 3735SOL     OW22666   4.072   1.696  17.026 -0.5528 -0.2229 -0.6945
 3735SOL    HW122667   4.056   1.617  17.078 -1.3425  0.1699 -0.3354
 3735SOL    HW222668   4.024   1.695  16.943 -0.3893 -2.8595 -0.7510
 3736SOL     OW22669   0.925   0.354   6.056  0.6167  0.5366  0.0043
 3736SOL    HW122670   0.839   0.319   6.080  1.5091 -2.1820 -0.6819
 3736SOL    HW222671   0.984   0.285   6.088 -1.3226 -0.9239  0.4322
 3737SOL     OW22672   3.467   4.354   0.896  0.2706 -0.1010 -0.6548
 3737SOL    HW122673   3.472   4.320   0.985 -0.4582  0.2870 -0.4568
 3737SOL    HW222674   3.377   4.338   0.866  0.4675 -0.2682 -1.1663
 3738SOL     OW22675   2.804   1.079   6.534  0.4064  0.0490  0.1609
 3738SOL    HW122676   2.858   1.076   6.613 -0.5265 -0.4277  0.7906
 3738SOL    HW222677   2.766   0.991   6.531  0.3003  0.1438 -1.2494
 3739SOL     OW22678   0.951   4.023  17.617  0.3352 -0.4672 -0.2540
 3739SOL    HW122679   0.955   3.950  17.678 -1.0960  0.5541  1.0508
 3739SOL    HW222680   0.936   3.978  17.534  2.5774 -0.0120 -0.9172
 3740SOL     OW22681   0.774   2.266  11.019  0.1535  0.1677 -0.6824
 3740SOL    HW122682   0.709   2.302  11.079  1.5103  1.1560  0.1948
 3740SOL    HW222683   0.836   2.338  11.017  0.4555 -0.0313  1.2152
 3741SOL     OW22684   0.787   4.516   6.635  0.1109  0.0784 -0.2813
 3741SOL    HW122685   0.741   4.440   6.671  1.5549  0.2082  1.8418
 3741SOL    HW222686   0.819   4.572   6.705 -0.9233 -0.5478  0.6878
 3742SOL     OW22687   4.527   0.840   3.996 -0.0195 -0.1311 -0.1975
 3742SOL    HW122688   4.535   0.869   3.905 -0.8302 -1.1275 -0.5803
 3742SOL    HW222689   4.618   0.840   4.026  0.1439  2.9581 -0.6753
 3743SOL     OW22690   4.378   1.975   2.388 -0.2572  0.3032 -0.4582
 3743SOL    HW122691   4.353   2.020   2.307  1.2394 -1.4595 -1.8892
 3743SOL    HW222692   4.402   1.892   2.347 -0.3233  0.1410 -0.1644
 3744SOL     OW22693   3.758   1.483   4.263  0.1594  0.4576  0.0171
 3744SOL    HW122694   3.848   1.476   4.230  0.1348 -1.6711  0.4137
 3744SOL    HW222695   3.726   1.394   4.279 -1.2231  0.8581 -0.5489
 3745SOL     OW22696   0.572   2.059   3.226 -0.1338  0.2967 -0.6008
 3745SOL    HW122697   0.522   2.106   3.293 -1.7697 -0.1970 -1.4805
 3745SOL    HW222698   0.494   2.021   3.184 -1.8139  0.6008  2.2209
 3746SOL     OW22699   2.021   3.667   7.964  0.4460 -0.5161  0.4858
 3746SOL    HW122700   2.094   3.716   8.001  1.1585 -0.5786 -0.8125
 3746SOL    HW222701   1.953   3.683   8.029  0.0007 -0.6755  0.0672
 3747SOL     OW22702   4.551   1.424   0.268  0.1567 -0.1793 -0.3623
 3747SOL    HW122703   4.624   1.485   0.254 -0.9074  1.4656  1.2349
 3747SOL    HW222704   4.481   1.487   0.250  1.5963  0.8959 -2.2699
 3748SOL     OW22705   1.688   0.034  17.193 -0.4563  0.4656  0.6359
 3748SOL    HW122706   1.733   4.683  17.234 -0.6725 -0.4581 -0.8087
 3748SOL    HW222707   1.657   0.078  17.273 -0.2132 -0.4651  1.2386
 3749SOL     OW22708   3.912   2.824   8.713 -0.6281  0.2614 -0.0211
 3749SOL    HW122709   3.857   2.809   8.636 -2.0360  1.5048  0.7295
 3749SOL    HW222710   3.914   2.920   8.715  2.0738  0.1822  1.4311
 3750SOL     OW22711   0.477   1.683  15.908 -0.3327  0.0511 -0.1722
 3750SOL    HW122712   0.399   1.645  15.947 -1.6796  0.9799 -1.9700
 3750SOL    HW222713   0.433   1.749  15.854 -0.3014 -0.5709 -0.9638
 3751SOL     OW22714   0.819   3.586   9.338 -0.0929 -0.1387 -0.3973
 3751SOL    HW122715   0.769   3.508   9.314 -0.3835 -0.0501 -0.0680
 3751SOL    HW222716   0.801   3.594   9.431 -1.9758 -1.7639 -0.6074
 3752SOL     OW22717   4.260   0.568   0.250 -0.6335  0.1205 -1.2506
 3752SOL    HW122718   4.177   0.594   0.210 -1.3415  1.9552  1.4432
 3752SOL    HW222719   4.276   0.646   0.303  1.7189 -0.6931 -0.7817
 3753SOL     OW22720   3.129   3.462   0.988  0.3320  0.5925  0.5187
 3753SOL    HW122721   3.055   3.416   0.948  0.5331  1.6651 -1.0937
 3753SOL    HW222722   3.125   3.437   1.080  0.3442 -1.6268 -0.0816
 3754SOL     OW22723   3.849   3.822   4.671  0.2911  0.4460  0.1690
 3754SOL    HW122724   3.904   3.748   4.648  0.5590  0.3807  1.0276
 3754SOL    HW222725   3.900   3.860   4.742  1.4477  1.0789 -0.9860
 3755SOL     OW22726   2.834   1.982   3.559  0.5300 -0.0889  0.4148
 3755SOL    HW122727   2.770   2.049   3.538 -0.4238 -1.0217  0.3482
 3755SOL    HW222728   2.788   1.904   3.591 -2.9177  1.1312 -1.6281
 3756SOL     OW22729   1.686   3.950   4.387  0.3275 -0.2609  0.0550
 3756SOL    HW122730   1.708   4.043   4.385  2.3442 -0.7940 -1.9617
 3756SOL    HW222731   1.654   3.943   4.477  0.4469  0.2385  0.1400
 3757SOL     OW22732   4.058   3.693  16.683  0.2247 -0.3834  0.0739
 3757SOL    HW122733   3.983   3.636  16.671 -0.0026  0.0567 -0.5995
 3757SOL    HW222734   4.018   3.780  16.684  0.4875 -0.2463 -1.5396
 3758SOL     OW22735   0.487   3.705   5.432 -0.3372 -0.0444 -0.1519
 3758SOL    HW122736   0.563   3.716   5.489 -1.3675  0.9832  1.0221
 3758SOL    HW222737   0.458   3.616   5.456  2.1226 -0.1904  2.3318
 3759SOL     OW22738   4.648   2.653   2.733  0.0336  0.1730 -0.2440
 3759SOL    HW122739   0.007   2.641   2.684  0.1417 -0.5806  0.1259
 3759SOL    HW222740   4.587   2.607   2.675 -0.4668  0.8527 -0.2484
 3760SOL     OW22741   4.209   2.455   9.002  0.6370  0.8825 -0.0489
 3760SOL    HW122742   4.156   2.400   8.944  2.9954 -0.1564 -1.1939
 3760SOL    HW222743   4.133   2.492   9.047 -0.9287 -0.9357 -1.1856
 3761SOL     OW22744   1.195   3.310  12.119 -0.1330  0.6672 -0.2961
 3761SOL    HW122745   1.115   3.258  12.129 -0.4605  0.6976 -2.6251
 3761SOL    HW222746   1.193   3.315  12.023 -0.5504  0.9448 -0.2741
 3762SOL     OW22747   0.443   0.980   7.102 -0.0339  0.3943 -0.6845
 3762SOL    HW122748   0.352   0.972   7.130 -0.4117 -1.0137 -2.3075
 3762SOL    HW222749   0.479   1.034   7.172 -2.2127  0.2954  0.5093
 3763SOL     OW22750   0.985   3.383   8.979  0.4871  0.0232 -0.0576
 3763SOL    HW122751   0.983   3.331   9.059 -4.3657 -0.0074 -0.2578
 3763SOL    HW222752   0.984   3.312   8.915  2.4792 -2.0788  2.2362
 3764SOL     OW22753   1.477   4.564   7.641 -0.2959  0.1456 -0.1078
 3764SOL    HW122754   1.499   4.533   7.729  1.2501 -1.0074 -0.8810
 3764SOL    HW222755   1.569   4.564   7.612 -0.3733 -0.3777 -0.3528
 3765SOL     OW22756   2.102   0.658   3.595 -0.3724 -0.4611  0.3005
 3765SOL    HW122757   2.185   0.705   3.587 -0.2694 -0.2344  2.6151
 3765SOL    HW222758   2.072   0.698   3.677 -0.8629  1.5753 -0.8674
 3766SOL     OW22759   3.965   4.374   3.339  0.1433 -0.1461  0.4146
 3766SOL    HW122760   4.033   4.322   3.380  2.7722  2.0211 -1.1941
 3766SOL    HW222761   3.902   4.304   3.323 -0.0738  0.2635 -0.5290
 3767SOL     OW22762   4.364   3.019  15.792 -0.3499  0.5271 -0.0603
 3767SOL    HW122763   4.315   3.040  15.713 -1.1829 -1.9989 -0.2223
 3767SOL    HW222764   4.302   3.064  15.850 -1.1370 -2.1424  1.1806
 3768SOL     OW22765   0.850   1.436   6.013  0.5492 -0.2831  0.1498
 3768SOL    HW122766   0.932   1.463   5.972  1.1463 -2.0494  0.1643
 3768SOL    HW222767   0.900   1.405   6.088  1.6163 -0.6645 -0.7035
 3769SOL     OW22768   1.772   1.505   8.210 -0.0670  0.1245 -0.0297
 3769SOL    HW122769   1.729   1.436   8.262 -1.3650  0.8145 -0.1806
 3769SOL    HW222770   1.863   1.475   8.207 -0.3784 -0.8989  0.6392
 3770SOL     OW22771   1.258   3.060   9.718  0.3570  0.2562  0.4105
 3770SOL    HW122772   1.301   3.023   9.795 -0.0960  1.0575  1.0569
 3770SOL    HW222773   1.165   3.047   9.739  0.0295  0.4918 -0.8902
 3771SOL     OW22774   2.257   2.658   4.145 -0.1174  0.4715 -0.3713
 3771SOL    HW122775   2.286   2.748   4.131  1.3594 -0.1989 -1.5729
 3771SOL    HW222776   2.213   2.641   4.062  0.0971 -2.2504  0.0571
 3772SOL     OW22777   4.287   2.215   4.560 -0.0635 -0.4211  0.4289
 3772SOL    HW122778   4.273   2.308   4.579 -0.6409 -0.3041 -0.5200
 3772SOL    HW222779   4.378   2.204   4.587  1.1392 -0.4007 -3.5545
 3773SOL     OW22780   0.069   3.378   9.315  0.0222  0.2126  0.4926
 3773SOL    HW122781   4.709   3.353   9.358  0.1769 -1.6080 -0.2513
 3773SOL    HW222782   0.128   3.305   9.334 -2.3153 -1.4373  1.4715
 3774SOL     OW22783   1.930   2.462   1.068 -0.4163 -0.4249 -0.0321
 3774SOL    HW122784   1.837   2.484   1.062 -0.1877  0.0892 -1.6825
 3774SOL    HW222785   1.930   2.379   1.115 -1.3263  0.4836  1.6205
 3775SOL     OW22786   3.145   1.787   5.475 -0.2726  0.4469  0.4444
 3775SOL    HW122787   3.125   1.836   5.395 -2.4112  2.2515  2.0816
 3775SOL    HW222788   3.233   1.825   5.474  0.9692 -2.4138 -0.5333
 3776SOL     OW22789   0.224   3.522  15.857 -0.0677  0.0081 -0.7091
 3776SOL    HW122790   0.319   3.509  15.856  0.1182  1.3590  0.0932
 3776SOL    HW222791   0.182   3.438  15.837  0.0283  0.0045 -0.8944
 3777SOL     OW22792   0.244   2.222   3.298  0.6592 -0.2519 -0.3446
 3777SOL    HW122793   0.257   2.196   3.207 -1.7652  2.5848 -1.4811
 3777SOL    HW222794   0.310   2.291   3.303 -0.9216  1.1183  1.6651
 3778SOL     OW22795   0.960   0.368   2.390 -0.0544  0.6264  0.0150
 3778SOL    HW122796   0.947   0.345   2.298 -2.4219  1.0395  0.2548
 3778SOL    HW222797   0.986   0.456   2.362  1.8058 -0.3693 -1.3464
 3779SOL     OW22798   3.039   1.446  10.950 -0.3923 -0.3122  0.0416
 3779SOL    HW122799   3.031   1.507  10.877 -1.8048  0.6498  0.9938
 3779SOL    HW222800   3.026   1.513  11.017 -2.1539 -0.0592 -0.5518
 3780SOL     OW22801   2.651   2.859   2.089  0.0277 -0.5292  0.0980
 3780SOL    HW122802   2.641   2.873   1.995  2.2519  1.7080  0.1979
 3780SOL    HW222803   2.665   2.764   2.085  0.2442 -0.5295  0.9616
 3781SOL     OW22804   1.112   1.075  13.954 -0.5265  0.4970  0.2820
 3781SOL    HW122805   1.075   1.030  14.030 -1.7388 -1.7944 -1.6578
 3781SOL    HW222806   1.153   1.153  13.990  0.3599  0.7194 -1.2013
 3782SOL     OW22807   0.819   1.426   7.224  0.0494  0.1633  0.4177
 3782SOL    HW122808   0.728   1.396   7.227 -0.0258  0.4090  0.5834
 3782SOL    HW222809   0.857   1.379   7.298  0.7146 -0.0308 -0.0387
 3783SOL     OW22810   2.793   0.027   0.177 -0.1093 -0.5278 -0.1735
 3783SOL    HW122811   2.801   4.721   0.086 -1.0507  0.5443 -0.5983
 3783SOL    HW222812   2.860   4.692   0.214  0.0761 -0.6209 -0.6558
 3784SOL     OW22813   2.766   1.719   3.620 -0.1511 -0.2128  0.0074
 3784SOL    HW122814   2.763   1.666   3.700  0.6024 -0.9945 -0.4850
 3784SOL    HW222815   2.853   1.691   3.592  0.3578  1.9189 -0.5337
 3785SOL     OW22816   1.299   3.220   4.237  0.0739 -0.5214  0.3035
 3785SOL    HW122817   1.351   3.285   4.285  0.4715 -1.1626  0.7328
 3785SOL    HW222818   1.358   3.148   4.215  2.9410  1.5672  1.1824
 3786SOL     OW22819   3.923   3.401   3.260 -0.8983  0.1173 -0.5024
 3786SOL    HW122820   3.995   3.381   3.200 -0.9811  0.8224 -0.8334
 3786SOL    HW222821   3.968   3.357   3.332 -0.6246  0.1451 -0.6565
 3787SOL     OW22822   1.273   2.726   6.984 -0.0343  0.1089  0.2413
 3787SOL    HW122823   1.241   2.659   7.044  1.5236  0.4791  1.4745
 3787SOL    HW222824   1.261   2.803   7.039 -1.5860  1.0976 -1.4636
 3788SOL     OW22825   2.429   2.956   0.458  0.0613  0.4732  0.6654
 3788SOL    HW122826   2.334   2.962   0.461 -0.0238 -1.4801  1.7474
 3788SOL    HW222827   2.460   2.996   0.539 -3.2722 -0.5908  2.4409
 3789SOL     OW22828   3.397   0.683   6.932  0.1939 -0.3750  0.1755
 3789SOL    HW122829   3.304   0.703   6.925  0.6635  1.2749 -1.4072
 3789SOL    HW222830   3.414   0.719   7.019 -1.2256 -0.9338  0.6774
 3790SOL     OW22831   3.352   4.005   3.285  0.1874 -0.4985  0.0495
 3790SOL    HW122832   3.345   4.056   3.365 -2.0401 -0.4041 -0.2076
 3790SOL    HW222833   3.290   3.933   3.296  1.9648 -2.0975 -0.3639
 3791SOL     OW22834   3.770   4.635   6.846 -0.4335 -0.0170  0.1177
 3791SOL    HW122835   3.831   4.659   6.777  1.0443 -1.2310  1.0068
 3791SOL    HW222836   3.795   4.543   6.853  1.4189  0.4198 -1.0030
 3792SOL     OW22837   4.581   3.319  15.213 -0.0898 -0.1834 -0.2848
 3792SOL    HW122838   4.554   3.256  15.280  2.4480  1.5604  2.3772
 3792SOL    HW222839   4.525   3.393  15.237 -0.6495 -0.8390  0.4366
 3793SOL     OW22840   0.549   2.662   6.178  0.1593  0.3912 -0.9595
 3793SOL    HW122841   0.462   2.641   6.212  1.0838 -1.1606  0.4714
 3793SOL    HW222842   0.570   2.574   6.146  2.3435  0.2786  0.7543
 3794SOL     OW22843   3.540   4.571  13.764  0.0255 -0.2214 -0.1792
 3794SOL    HW122844   3.635   4.574  13.755 -0.0961  4.0671 -0.0488
 3794SOL    HW222845   3.524   4.661  13.793 -2.4419 -1.0056  0.8898
 3795SOL     OW22846   4.604   1.922   6.799  0.0862 -0.2369 -0.2731
 3795SOL    HW122847   4.515   1.887   6.798 -0.4764  1.1568  0.6650
 3795SOL    HW222848   4.637   1.898   6.713  0.4606  0.6910 -0.3831
 3796SOL     OW22849   3.525   4.353  15.491  0.0067 -0.0128  0.2860
 3796SOL    HW122850   3.617   4.329  15.479  0.2201  0.2147  1.5471
 3796SOL    HW222851   3.532   4.439  15.531  0.6938 -1.2312  2.7623
 3797SOL     OW22852   0.841   0.994   8.158 -0.1071 -0.3135 -0.0714
 3797SOL    HW122853   0.904   0.998   8.230  0.8891 -1.3175 -0.8954
 3797SOL    HW222854   0.765   0.970   8.211  1.8676 -1.8895  2.0095
 3798SOL     OW22855   3.543   3.943   3.007  0.0492 -0.1901  0.0092
 3798SOL    HW122856   3.611   4.005   2.981 -1.3497  1.1024 -0.5390
 3798SOL    HW222857   3.474   4.008   3.016  2.0419  2.2675 -2.3753
 3799SOL     OW22858   0.845   0.934  14.417  0.2707 -0.2025  0.0398
 3799SOL    HW122859   0.853   1.023  14.452  1.5105  0.0956 -0.9931
 3799SOL    HW222860   0.916   0.894  14.467  0.8068 -0.4722 -0.9172
 3800SOL     OW22861   2.283   0.343   7.284 -0.6801 -0.4000  0.2987
 3800SOL    HW122862   2.204   0.345   7.230  0.2887 -2.9453 -1.1953
 3800SOL    HW222863   2.329   0.267   7.249  0.8504  0.3504  0.6472
 3801SOL     OW22864   2.155   1.319   9.288 -0.4119 -0.0644 -0.0052
 3801SOL    HW122865   2.241   1.282   9.309 -0.8341 -0.6031  0.7927
 3801SOL    HW222866   2.167   1.408   9.322 -0.6331  0.2214 -0.6726
 3802SOL     OW22867   3.118   2.994  11.643  0.4084  0.0089  0.0666
 3802SOL    HW122868   3.085   3.029  11.561 -0.1550  0.3400  0.4334
 3802SOL    HW222869   3.154   3.070  11.688 -0.9783  0.6122  0.1426
 3803SOL     OW22870   2.782   2.305   2.442  0.1768 -0.6465 -0.1291
 3803SOL    HW122871   2.699   2.273   2.407 -0.0877  0.3206 -0.3906
 3803SOL    HW222872   2.797   2.232   2.502  2.1303  1.4469  1.9723
 3804SOL     OW22873   3.352   1.492   9.765 -1.0038 -0.2683  0.2350
 3804SOL    HW122874   3.347   1.408   9.720  0.5545  1.4842 -3.2512
 3804SOL    HW222875   3.329   1.542   9.686  0.3905 -1.0141 -0.6454
 3805SOL     OW22876   3.212   4.666  15.634  0.1434  0.2794 -0.4486
 3805SOL    HW122877   3.140   4.628  15.583  2.6255 -2.7026 -1.6885
 3805SOL    HW222878   3.282   4.679  15.570  1.2612 -1.2810  0.4675
 3806SOL     OW22879   3.398   0.704  14.183 -0.2347 -0.0239  0.1820
 3806SOL    HW122880   3.399   0.799  14.200 -1.5606 -0.3738  2.2286
 3806SOL    HW222881   3.482   0.703  14.138 -1.3079  1.5306 -1.8549
 3807SOL     OW22882   3.450   2.078  16.491 -0.2340  0.2460  0.0515
 3807SOL    HW122883   3.544   2.078  16.472 -0.1105 -0.7529  0.6962
 3807SOL    HW222884   3.433   1.995  16.536 -0.3395  0.4302  0.3556
 3808SOL     OW22885   0.366   1.493   3.443 -0.4000 -0.1737 -0.3861
 3808SOL    HW122886   0.364   1.440   3.363  1.7865 -0.8011 -0.0364
 3808SOL    HW222887   0.356   1.581   3.406  0.2812 -0.3532 -1.0122
 3809SOL     OW22888   3.032   4.118  13.994  0.0992 -0.3170  0.4711
 3809SOL    HW122889   3.121   4.082  13.996  1.2101  2.3388 -1.0767
 3809SOL    HW222890   3.052   4.188  13.932  1.4154 -1.1018 -0.0002
 3810SOL     OW22891   2.262   3.792  13.646  0.1529 -0.2174 -0.1224
 3810SOL    HW122892   2.222   3.877  13.667  2.2653  0.8493 -0.3778
 3810SOL    HW222893   2.349   3.820  13.618  0.7974 -2.0004  0.0923
 3811SOL     OW22894   2.232   4.639   3.697 -0.2826 -0.3962  0.1181
 3811SOL    HW122895   2.276   4.606   3.618  3.8472  0.7676  1.8901
 3811SOL    HW222896   2.152   4.663   3.652 -0.1840  0.9594  0.6679
 3812SOL     OW22897   1.801   0.151  14.143 -0.7137  0.3862 -0.0415
 3812SOL    HW122898   1.726   0.118  14.193 -1.8361  2.7889 -0.1663
 3812SOL    HW222899   1.785   0.133  14.050  0.8493 -2.3591  0.2039
 3813SOL     OW22900   3.579   2.075  17.483 -0.2835  0.3338 -0.2115
 3813SOL    HW122901   3.671   2.069  17.455 -0.3641  0.6086 -0.5402
 3813SOL    HW222902   3.552   2.155  17.437  0.3760  0.8446  0.2989
 3814SOL     OW22903   2.172   0.063   6.855  0.8027  0.2921 -0.0895
 3814SOL    HW122904   2.112   0.091   6.786 -0.6522 -0.7533  0.7493
 3814SOL    HW222905   2.120   0.066   6.935  1.8239 -0.7194  0.6081
 3815SOL     OW22906   3.164   3.526   4.155 -0.1938 -0.0758 -0.8988
 3815SOL    HW122907   3.259   3.536   4.142 -0.1300 -0.5772 -0.8241
 3815SOL    HW222908   3.145   3.508   4.063 -0.1016  0.1032 -0.9532
 3816SOL     OW22909   2.265   0.407   3.794  0.0101 -0.5048  0.5368
 3816SOL    HW122910   2.311   0.474   3.845 -0.0479  0.0306 -0.1158
 3816SOL    HW222911   2.277   0.343   3.864  1.0025 -0.6769  0.2163
 3817SOL     OW22912   2.475   0.270  12.099 -0.3046  0.1037  0.1056
 3817SOL    HW122913   2.480   0.354  12.054 -0.0454 -0.5092 -1.0059
 3817SOL    HW222914   2.418   0.277  12.175  0.3458  2.5986  0.3642
 3818SOL     OW22915   1.447   2.566   2.966 -0.2622  0.1002  0.5072
 3818SOL    HW122916   1.477   2.655   2.980  1.5143 -0.5218  0.7042
 3818SOL    HW222917   1.497   2.554   2.885 -1.0591  2.7240 -0.3692
 3819SOL     OW22918   2.091   3.363  15.852 -0.1968  0.1552 -0.6987
 3819SOL    HW122919   2.016   3.383  15.796 -1.5385 -2.0530  0.2870
 3819SOL    HW222920   2.165   3.381  15.794  0.0847  0.8179 -0.1371
 3820SOL     OW22921   1.204   1.979   5.460  0.1528 -0.0191 -0.2107
 3820SOL    HW122922   1.289   1.974   5.417 -0.1027 -3.0127 -0.4196
 3820SOL    HW222923   1.213   2.056   5.516  0.8700  0.9725 -1.7169
 3821SOL     OW22924   3.153   2.060   9.235 -0.0422  0.1635 -0.2394
 3821SOL    HW122925   3.107   2.120   9.294  1.3170  0.4762  0.5018
 3821SOL    HW222926   3.224   2.024   9.289  1.6162  1.6580 -1.4301
 3822SOL     OW22927   4.343   1.140   2.380  0.1500 -0.1319  0.2454
 3822SOL    HW122928   4.275   1.090   2.425  0.5495 -1.8199 -1.0416
 3822SOL    HW222929   4.427   1.104   2.406 -1.1360 -2.5696  0.9850
 3823SOL     OW22930   1.721   2.537   3.658  0.4631 -0.0264  0.1040
 3823SOL    HW122931   1.644   2.585   3.626  1.2523  1.4091  0.3219
 3823SOL    HW222932   1.779   2.543   3.582 -1.9561  1.2905 -1.6441
 3824SOL     OW22933   0.227   0.250  15.174  0.5188 -0.8591 -0.4062
 3824SOL    HW122934   0.162   0.180  15.166 -0.2766 -0.0892 -0.5835
 3824SOL    HW222935   0.262   0.239  15.085 -1.3491 -2.1226 -0.9792
 3825SOL     OW22936   1.815   1.681   7.035 -0.1599  0.0186  0.6154
 3825SOL    HW122937   1.905   1.692   7.006 -0.3982 -2.4791 -1.0450
 3825SOL    HW222938   1.778   1.768   7.020 -0.5657 -0.3544 -0.5423
 3826SOL     OW22939   0.892   2.354   0.253 -0.1061  0.0407 -0.1420
 3826SOL    HW122940   0.828   2.354   0.324 -0.4262 -0.6529 -0.4226
 3826SOL    HW222941   0.911   2.260   0.262 -1.3440  0.0294  2.6090
 3827SOL     OW22942   1.989   2.273   6.245  0.0785 -0.6623 -0.4918
 3827SOL    HW122943   2.074   2.292   6.285 -1.2436  4.0891  0.0482
 3827SOL    HW222944   1.929   2.336   6.284  3.5601  1.6270  1.1631
 3828SOL     OW22945   3.132   1.210   6.482 -0.2630  0.4243 -0.0769
 3828SOL    HW122946   3.202   1.153   6.449 -0.4801 -0.7405  1.4774
 3828SOL    HW222947   3.100   1.238   6.397 -0.2551  0.1514 -0.1713
 3829SOL     OW22948   0.834   0.834   2.762 -0.4708  1.1808  0.4296
 3829SOL    HW122949   0.821   0.741   2.777  0.1181  0.3238 -4.2822
 3829SOL    HW222950   0.841   0.833   2.667 -0.9277  2.4783  0.3714
 3830SOL     OW22951   0.677   2.497   6.511  0.1009 -0.3525  0.7453
 3830SOL    HW122952   0.583   2.480   6.509  0.1365 -0.6629  1.5279
 3830SOL    HW222953   0.714   2.441   6.443 -0.5988 -2.5639  2.1946
 3831SOL     OW22954   4.488   0.989   8.239  0.1592 -0.0975 -0.6037
 3831SOL    HW122955   4.434   1.055   8.196  0.5923  0.7676  0.1970
 3831SOL    HW222956   4.465   0.988   8.331 -0.2033  0.3356 -0.6903
 3832SOL     OW22957   3.827   1.381   5.753  0.1078  0.2018  0.3927
 3832SOL    HW122958   3.837   1.287   5.767 -1.0036 -0.0043 -0.1586
 3832SOL    HW222959   3.886   1.397   5.679 -1.3975  1.3822 -0.5545
 3833SOL     OW22960   0.470   3.122  16.909  0.1833  0.3635  0.3026
 3833SOL    HW122961   0.481   3.132  17.003  0.6794 -0.7654  0.3518
 3833SOL    HW222962   0.380   3.156  16.906  0.4257  0.9799 -0.0536
 3834SOL     OW22963   0.681   2.894  12.208  0.0255  0.0654  0.1711
 3834SOL    HW122964   0.658   2.976  12.164 -0.2695  0.2865  0.7383
 3834SOL    HW222965   0.702   2.934  12.292 -1.2008  2.0961 -0.4763
 3835SOL     OW22966   2.665   0.705   3.779  0.2617  0.4592 -0.1135
 3835SOL    HW122967   2.689   0.671   3.694 -0.4946  0.2225 -0.2318
 3835SOL    HW222968   2.749   0.687   3.821  0.1706 -0.5992 -0.4080
 3836SOL     OW22969   3.894   3.112  16.181 -0.2009  0.0168  0.2719
 3836SOL    HW122970   3.875   3.206  16.181  1.7193  0.4124  0.4800
 3836SOL    HW222971   3.803   3.083  16.184  0.5648 -2.4419 -0.5453
 3837SOL     OW22972   2.339   0.763   3.560  0.2696 -0.0723  0.2788
 3837SOL    HW122973   2.330   0.728   3.471  2.0678  1.0538 -0.3383
 3837SOL    HW222974   2.406   0.829   3.551 -0.6238  0.5967 -1.4608
 3838SOL     OW22975   4.706   1.401  12.370  0.0098 -0.4400 -0.4064
 3838SOL    HW122976   4.630   1.343  12.361 -0.8117  0.5800 -0.0525
 3838SOL    HW222977   0.036   1.357  12.437 -1.7052  0.9378  1.8330
 3839SOL     OW22978   1.503   2.499  13.483 -0.1315  0.1832  0.4748
 3839SOL    HW122979   1.427   2.497  13.424 -1.0431  1.7919  1.5958
 3839SOL    HW222980   1.573   2.533  13.427 -1.2809  0.5906 -0.7361
 3840SOL     OW22981   4.203   3.640   3.083  0.2466 -0.1651 -0.1291
 3840SOL    HW122982   4.225   3.706   3.149 -2.2512  2.1408 -1.6426
 3840SOL    HW222983   4.118   3.675   3.057 -0.0662 -1.9312 -1.5056
 3841SOL     OW22984   2.690   2.571  14.926  0.5942  0.3542 -0.5665
 3841SOL    HW122985   2.605   2.588  14.886  0.0352 -1.6776 -0.2472
 3841SOL    HW222986   2.725   2.494  14.883  0.8550  0.8256 -1.1870
 3842SOL     OW22987   0.728   1.552  14.683 -0.4835 -0.2696  0.2093
 3842SOL    HW122988   0.741   1.545  14.588  1.7125  0.7383  0.4323
 3842SOL    HW222989   0.721   1.458  14.699  1.8135 -0.5609 -0.4608
 3843SOL     OW22990   2.688   2.726   5.168  0.4597  0.2771 -0.0947
 3843SOL    HW122991   2.606   2.685   5.140  0.3039 -0.2049  1.0661
 3843SOL    HW222992   2.666   2.817   5.149 -0.5900  0.0921  0.2484
 3844SOL     OW22993   3.930   1.100   6.064 -0.1563  0.8516 -0.3744
 3844SOL    HW122994   3.940   1.009   6.036 -0.7131  0.8844 -0.6737
 3844SOL    HW222995   4.018   1.135   6.077  0.9462 -1.2075 -2.2663
 3845SOL     OW22996   2.434   3.027   2.234  0.3793  0.4760 -0.2248
 3845SOL    HW122997   2.382   2.959   2.277  3.2262 -1.9420 -0.5664
 3845SOL    HW222998   2.499   2.976   2.185  0.4230 -1.8164  2.2098
 3846SOL     OW22999   4.566   2.921  16.568  0.1282  0.4118 -0.2552
 3846SOL    HW123000   4.551   2.835  16.529  0.2797  1.1520 -1.9319
 3846SOL    HW223001   4.553   2.895  16.659 -1.3063  0.3907 -0.4587
 3847SOL     OW23002   0.906   2.369   8.858  0.1744 -0.0585  0.3256
 3847SOL    HW123003   0.965   2.407   8.793 -1.9979  0.1116 -1.5449
 3847SOL    HW223004   0.907   2.428   8.934  0.0443  0.4155 -0.0394
 3848SOL     OW23005   3.579   1.433   2.442  0.1620  0.4765  0.1359
 3848SOL    HW123006   3.666   1.461   2.412  0.5378 -0.6203  0.1973
 3848SOL    HW223007   3.566   1.500   2.508 -0.9160  1.1687 -0.7915
 3849SOL     OW23008   4.663   1.802   7.083 -0.3611 -0.0876  0.4196
 3849SOL    HW123009   4.682   1.738   7.015  0.2465  0.0526  0.4581
 3849SOL    HW223010   4.621   1.874   7.036 -1.3138 -0.2422  1.0356
 3850SOL     OW23011   2.579   3.400   7.342 -1.0270  0.1434 -0.4501
 3850SOL    HW123012   2.629   3.475   7.309  1.1136 -1.0066  0.1779
 3850SOL    HW223013   2.494   3.411   7.299 -0.8203 -0.5636 -1.0419
 3851SOL     OW23014   2.325   3.188   5.957  0.2220 -0.4853 -0.1270
 3851SOL    HW123015   2.341   3.270   6.004  0.6171 -2.1990  2.7249
 3851SOL    HW223016   2.315   3.229   5.871  1.1461  3.3205  1.6108
 3852SOL     OW23017   0.865   1.302   6.495 -0.6548  0.5477  0.3806
 3852SOL    HW123018   0.914   1.328   6.417  0.8008  0.0782  1.1566
 3852SOL    HW223019   0.797   1.369   6.493  0.5924  1.7896  0.1083
 3853SOL     OW23020   0.808   2.727  17.125  0.1922 -0.1322  0.2674
 3853SOL    HW123021   0.878   2.791  17.133  1.0762 -1.2376  1.4395
 3853SOL    HW223022   0.850   2.678  17.054 -0.9981 -0.9977  0.1510
 3854SOL     OW23023   1.258   0.939   4.543 -0.2761 -0.1395 -0.1038
 3854SOL    HW123024   1.299   1.012   4.590 -0.4459  0.0333 -0.2243
 3854SOL    HW223025   1.333   0.891   4.507 -0.2651  0.2656 -0.6146
 3855SOL     OW23026   1.883   0.763   5.298 -0.2711 -0.0370  0.6527
 3855SOL    HW123027   1.811   0.706   5.325 -1.0202  0.4182 -0.3772
 3855SOL    HW223028   1.939   0.747   5.374 -1.1948  2.8008  1.9190
 3856SOL     OW23029   3.627   2.598   1.960 -0.9169  0.6302 -0.0624
 3856SOL    HW123030   3.617   2.549   2.041 -1.5456 -0.3589 -0.7324
 3856SOL    HW223031   3.561   2.667   1.956 -3.1271 -1.4092  1.8448
 3857SOL     OW23032   1.254   1.740   3.025  0.7843 -0.1405  0.2997
 3857SOL    HW123033   1.228   1.768   3.113  0.5067 -0.3068  0.2723
 3857SOL    HW223034   1.312   1.807   2.988 -1.6661  1.5056 -0.5943
 3858SOL     OW23035   0.020   1.887   2.870  0.1929 -0.4407  0.0544
 3858SOL    HW123036   4.687   1.962   2.848 -0.0066 -0.8983 -0.9697
 3858SOL    HW223037   0.051   1.865   2.782  0.7220 -1.4296  0.4931
 3859SOL     OW23038   0.053   0.842  11.298  0.4497  0.0567  0.1166
 3859SOL    HW123039   4.719   0.912  11.330  2.0344  0.3575  2.3008
 3859SOL    HW223040   0.135   0.890  11.288  0.5869 -0.6544 -2.0784
 3860SOL     OW23041   2.097   3.428   6.738  0.1086  0.0498 -0.3683
 3860SOL    HW123042   2.161   3.498   6.744 -0.3500  0.1962  3.0544
 3860SOL    HW223043   2.043   3.435   6.817 -0.3567 -0.2646 -0.6559
 3861SOL     OW23044   2.221   4.247   6.502 -0.2101  0.3204  0.0294
 3861SOL    HW123045   2.247   4.332   6.465  0.1654 -0.2124 -0.9069
 3861SOL    HW223046   2.153   4.226   6.438  0.9002 -0.3284 -0.9217
 3862SOL     OW23047   3.703   4.518   7.778  0.2954  0.5963 -0.4040
 3862SOL    HW123048   3.632   4.555   7.725  0.7016  0.8864 -0.7428
 3862SOL    HW223049   3.727   4.596   7.829  3.1965  0.0238 -0.8976
 3863SOL     OW23050   3.195   3.750   5.647  0.4535  0.0894  0.6878
 3863SOL    HW123051   3.114   3.795   5.672 -0.2284 -1.3293  1.0506
 3863SOL    HW223052   3.166   3.721   5.561 -0.3824  1.7474  0.4165
 3864SOL     OW23053   1.801   3.373   3.274  0.4017 -0.6393  0.5364
 3864SOL    HW123054   1.810   3.281   3.297 -0.7279 -1.2902 -1.6139
 3864SOL    HW223055   1.749   3.405   3.348  0.7415 -0.2297  0.5963
 3865SOL     OW23056   0.688   0.447   7.710 -0.7164 -0.2572  0.1747
 3865SOL    HW123057   0.670   0.523   7.767 -1.0638  0.1026 -0.4120
 3865SOL    HW223058   0.741   0.392   7.767  1.0685  1.0631 -0.2295
 3866SOL     OW23059   2.143   1.029   7.004 -0.1967  0.4828 -0.4701
 3866SOL    HW123060   2.199   1.040   7.081 -1.4082  0.4623  0.4262
 3866SOL    HW223061   2.074   1.094   7.017 -3.4592 -3.0683 -0.0027
 3867SOL     OW23062   3.513   2.804   2.221  0.1862 -0.0868 -0.1115
 3867SOL    HW123063   3.578   2.737   2.243  1.3770  1.2686  0.4734
 3867SOL    HW223064   3.539   2.827   2.132 -0.1466  1.2314  0.1381
 3868SOL     OW23065   4.626   2.468   3.811 -1.0105 -0.0333 -0.5631
 3868SOL    HW123066   4.588   2.386   3.781  0.3700 -1.1521  0.7289
 3868SOL    HW223067   4.703   2.486   3.757 -0.4321 -1.8944 -0.3506
 3869SOL     OW23068   0.979   4.508   5.906  0.0239 -0.1823  0.4126
 3869SOL    HW123069   0.969   4.414   5.922 -0.2139 -0.2229  0.0393
 3869SOL    HW223070   0.999   4.501   5.812 -0.8262  1.3557  0.1187
 3870SOL     OW23071   4.135   4.258  10.276 -0.0753 -0.2962  0.5402
 3870SOL    HW123072   4.121   4.297  10.362  2.1637  0.4286  0.5776
 3870SOL    HW223073   4.207   4.312  10.242  0.5177 -0.6341  1.2574
 3871SOL     OW23074   0.746   1.689   5.910  0.6873 -0.6383 -0.0861
 3871SOL    HW123075   0.774   1.619   5.970  1.0484 -0.1564  0.3044
 3871SOL    HW223076   0.816   1.671   5.847  0.0181  0.7314 -1.2113
 3872SOL     OW23077   1.013   4.616   4.134 -0.2588  0.2034  0.2535
 3872SOL    HW123078   1.102   4.585   4.150  0.1071  1.0334 -0.1420
 3872SOL    HW223079   0.971   4.535   4.105  0.0396  0.8741 -2.1264
 3873SOL     OW23080   3.206   2.535   6.847 -0.4014  0.0785  0.2407
 3873SOL    HW123081   3.131   2.572   6.800 -2.1952 -1.4950  1.8875
 3873SOL    HW223082   3.172   2.557   6.933 -0.2622  0.2111  0.2623
 3874SOL     OW23083   3.698   4.661  11.572  0.2689  0.2334  0.2583
 3874SOL    HW123084   3.652   4.637  11.492  1.7667  0.3923 -0.6548
 3874SOL    HW223085   3.689   4.580  11.621  0.3433  1.3655  2.1455
 3875SOL     OW23086   4.609   2.088   2.147  0.1487 -0.5792  0.3023
 3875SOL    HW123087   4.627   2.038   2.227  1.0792  1.0390  1.0966
 3875SOL    HW223088   4.701   2.091   2.122 -0.4080  0.2948 -1.6613
 3876SOL     OW23089   3.015   1.796   6.526  0.2515  0.0473 -0.1876
 3876SOL    HW123090   2.937   1.812   6.474 -0.4248 -1.4678  0.3555
 3876SOL    HW223091   3.001   1.830   6.615 -0.7448 -2.2199  0.5176
 3877SOL     OW23092   1.415   4.649  10.371 -0.5685  0.0054  0.2164
 3877SOL    HW123093   1.414   4.705  10.448  1.7155  2.2311 -1.3552
 3877SOL    HW223094   1.510   4.641  10.370 -0.7325 -2.1621  0.9694
 3878SOL     OW23095   3.415   0.224   0.071 -0.2696 -0.1885  0.2204
 3878SOL    HW123096   3.397   0.250  17.673 -4.2724 -1.0367  0.7785
 3878SOL    HW223097   3.396   0.130   0.068  0.8540 -0.4070  0.1236
 3879SOL     OW23098   0.356   4.623   3.751  0.8045  0.4887 -0.3359
 3879SOL    HW123099   0.306   4.703   3.735  1.3240  0.6036 -1.3624
 3879SOL    HW223100   0.329   4.580   3.670  0.7854  0.0014 -0.0767
 3880SOL     OW23101   1.661   2.877   6.655 -0.1819  0.2361  0.2897
 3880SOL    HW123102   1.696   2.851   6.740 -0.0213 -0.1363  0.1097
 3880SOL    HW223103   1.735   2.872   6.594  0.3172 -0.0819  0.9137
 3881SOL     OW23104   2.566   1.289   3.127  0.4830 -0.1617 -0.3063
 3881SOL    HW123105   2.579   1.268   3.220 -1.4729  1.2186  0.2897
 3881SOL    HW223106   2.477   1.266   3.100  0.4019  1.2747 -1.2929
 3882SOL     OW23107   3.540   4.203   0.652  0.0686  0.1617 -0.4881
 3882SOL    HW123108   3.468   4.240   0.703 -0.3216 -0.1609 -0.7982
 3882SOL    HW223109   3.491   4.133   0.608  1.9153 -1.1267 -0.4781
 3883SOL     OW23110   4.004   0.538  13.405  0.0131 -0.6258  0.0143
 3883SOL    HW123111   4.007   0.452  13.448  0.5182 -0.7884 -0.3435
 3883SOL    HW223112   3.925   0.532  13.351 -0.9309  1.9488  1.1181
 3884SOL     OW23113   2.679   1.742   0.282  0.3718  0.6034  0.0525
 3884SOL    HW123114   2.696   1.659   0.327 -1.6496  0.5436  0.6859
 3884SOL    HW223115   2.751   1.790   0.324  1.5475 -0.4149 -0.7854
 3885SOL     OW23116   4.336   1.155  13.390 -0.1513  0.1502 -0.5704
 3885SOL    HW123117   4.277   1.090  13.352  1.3182 -1.1940 -0.5366
 3885SOL    HW223118   4.413   1.099  13.390  0.7574  1.3820 -1.2399
 3886SOL     OW23119   1.388   3.078   6.928 -0.6600 -0.4603  0.6384
 3886SOL    HW123120   1.386   3.001   6.871  3.4024 -0.2330  0.2462
 3886SOL    HW223121   1.480   3.070   6.953  0.1371  0.5188 -1.9688
 3887SOL     OW23122   2.064   3.058   2.635 -0.1866  0.3383 -0.6478
 3887SOL    HW123123   2.014   3.094   2.708 -0.0589  0.5599 -0.6702
 3887SOL    HW223124   2.151   3.090   2.656 -0.0532  0.3600 -1.2394
 3888SOL     OW23125   2.221   0.282   8.783  0.4316 -0.0716 -0.1838
 3888SOL    HW123126   2.156   0.248   8.721  1.5615 -0.3742 -1.2068
 3888SOL    HW223127   2.195   0.373   8.795  1.2376  0.1858 -0.4281
 3889SOL     OW23128   3.010   2.004  11.039  0.3303  0.2121 -0.2151
 3889SOL    HW123129   3.078   2.043  10.986  1.0229 -2.3586 -1.2388
 3889SOL    HW223130   3.053   2.015  11.124  1.5733  0.7603 -0.9280
 3890SOL     OW23131   0.113   2.151   2.473 -0.0553 -0.0257 -0.2261
 3890SOL    HW123132   0.163   2.189   2.401  0.4352 -3.6791 -1.7596
 3890SOL    HW223133   0.063   2.227   2.504 -1.9260 -1.2736 -0.2191
 3891SOL     OW23134   1.381   1.033  15.064  0.2298  0.4695 -0.1921
 3891SOL    HW123135   1.472   1.014  15.085  0.6681  1.2461 -1.3588
 3891SOL    HW223136   1.381   1.064  14.973  2.0622 -1.7710 -0.9494
 3892SOL     OW23137   1.926   4.639   0.913  0.3936 -0.4336  0.0436
 3892SOL    HW123138   1.862   4.620   0.981  1.5189  2.1602  1.7982
 3892SOL    HW223139   1.970   4.708   0.963 -0.4086  0.9152 -1.0939
 3893SOL     OW23140   3.960   2.057   3.742 -0.7318 -0.3402  0.2077
 3893SOL    HW123141   4.053   2.072   3.728 -0.7664  0.5517  0.9625
 3893SOL    HW223142   3.967   1.962   3.758  1.9202 -0.1425  0.1628
 3894SOL     OW23143   1.508   2.704   8.992 -0.0617 -0.3044 -0.1558
 3894SOL    HW123144   1.466   2.669   9.070 -0.3088 -0.7002 -0.4666
 3894SOL    HW223145   1.599   2.691   9.020 -0.7437 -0.4817  1.9958
 3895SOL     OW23146   0.409   0.797   4.291 -0.0269  0.7721  0.1637
 3895SOL    HW123147   0.348   0.724   4.297  1.3595 -0.3991  0.0405
 3895SOL    HW223148   0.353   0.864   4.252  0.9930  1.5277 -0.0200
 3896SOL     OW23149   2.306   3.593  13.253  0.3716  0.2755  0.2093
 3896SOL    HW123150   2.326   3.687  13.261  0.0516  0.3841 -0.2450
 3896SOL    HW223151   2.348   3.569  13.170 -2.0412  0.2473 -1.0224
 3897SOL     OW23152   2.953   3.274  13.673 -0.2506  0.3567  0.4830
 3897SOL    HW123153   3.032   3.299  13.721  0.4077 -0.9357  0.0798
 3897SOL    HW223154   2.886   3.315  13.727 -0.8077  0.3633 -0.2258
 3898SOL     OW23155   1.919   2.611   2.438 -0.6144 -0.3726 -0.7980
 3898SOL    HW123156   1.835   2.577   2.410  0.3584 -1.7370 -2.0508
 3898SOL    HW223157   1.925   2.706   2.431  0.1880 -0.2726  1.2245
 3899SOL     OW23158   2.225   1.993   3.262  0.4136  0.4873 -0.1038
 3899SOL    HW123159   2.204   1.988   3.169 -2.6830 -0.3395  0.6465
 3899SOL    HW223160   2.226   1.902   3.291  0.4309  0.6214  0.3163
 3900SOL     OW23161   2.282   2.093   3.554  0.4325 -0.3615 -0.0035
 3900SOL    HW123162   2.244   2.024   3.501  0.7746 -0.8111  0.3290
 3900SOL    HW223163   2.336   2.044   3.617 -0.9462 -0.6583  0.9518
 3901SOL     OW23164   3.078   4.270  14.862 -0.5164 -0.1646 -0.1265
 3901SOL    HW123165   3.078   4.180  14.896 -0.2353 -0.2763 -0.4244
 3901SOL    HW223166   3.144   4.310  14.918  1.2271 -0.8154 -1.7065
 3902SOL     OW23167   0.471   0.215   3.875  0.2093 -0.4281  0.9318
 3902SOL    HW123168   0.405   0.164   3.829 -1.5946  2.1962  0.6098
 3902SOL    HW223169   0.492   0.173   3.958  1.2475  0.1779  0.9845
 3903SOL     OW23170   4.004   2.549   6.887  0.2959  0.1634  0.4273
 3903SOL    HW123171   4.026   2.460   6.860  1.4497  0.8122 -0.7812
 3903SOL    HW223172   3.909   2.539   6.896  0.1587  2.3953  1.5297
 3904SOL     OW23173   0.957   3.415   7.346  0.2059 -0.3468 -0.3359
 3904SOL    HW123174   1.011   3.406   7.267 -3.8163 -1.9428 -2.9141
 3904SOL    HW223175   1.002   3.365   7.414 -1.2750  0.2094  1.0569
 3905SOL     OW23176   2.581   4.075   1.415  0.2657 -0.2641 -0.2401
 3905SOL    HW123177   2.506   4.042   1.364  0.5653  0.8633 -1.4005
 3905SOL    HW223178   2.639   4.001   1.394 -1.2731 -1.4949 -0.1897
 3906SOL     OW23179   3.412   0.696  17.376 -0.8830 -0.0626  0.2118
 3906SOL    HW123180   3.487   0.666  17.426 -0.8111 -0.4364 -0.1175
 3906SOL    HW223181   3.345   0.692  17.445 -2.5945  0.6711 -1.4016
 3907SOL     OW23182   2.577   4.609   2.894 -0.3200  0.2393  0.0722
 3907SOL    HW123183   2.627   4.529   2.881 -0.1498  0.3851 -0.1796
 3907SOL    HW223184   2.567   4.594   2.988 -1.9779  0.2278 -0.1075
 3908SOL     OW23185   1.043   4.354   9.029  0.6359  0.0171  0.0790
 3908SOL    HW123186   1.056   4.399   9.112  0.7559 -0.5012  0.3413
 3908SOL    HW223187   1.131   4.340   8.993  0.1709  0.8916 -1.3620
 3909SOL     OW23188   1.513   3.070  10.804  0.3171  0.0644 -0.2556
 3909SOL    HW123189   1.427   3.101  10.777 -0.8725 -0.0217  3.4337
 3909SOL    HW223190   1.495   2.990  10.854  2.8727  0.7246  1.7406
 3910SOL     OW23191   3.648   0.265  10.518 -0.5189  0.0046 -0.2469
 3910SOL    HW123192   3.558   0.275  10.488  0.3589  2.8487 -1.8741
 3910SOL    HW223193   3.659   0.182  10.472 -2.1647 -0.5098  0.2834
 3911SOL     OW23194   2.895   3.310   1.430 -0.2318  0.1017 -0.2669
 3911SOL    HW123195   2.848   3.317   1.513  0.6611  0.0926  0.2360
 3911SOL    HW223196   2.963   3.243   1.435 -3.0451 -2.8530 -0.9434
 3912SOL     OW23197   2.813   2.889  15.672  0.0096  0.5241  0.0455
 3912SOL    HW123198   2.817   2.842  15.756  0.2231 -0.4414 -0.5046
 3912SOL    HW223199   2.897   2.928  15.650  0.3848 -0.1399  0.3040
 3913SOL     OW23200   2.105   1.808   5.331 -0.1543  0.0897 -0.0899
 3913SOL    HW123201   2.019   1.766   5.341 -0.0489  0.4939  2.4580
 3913SOL    HW223202   2.076   1.898   5.314  0.7687  0.3530 -0.2395
 3914SOL     OW23203   0.206   0.153   5.536 -0.3746 -0.1908  0.2076
 3914SOL    HW123204   0.255   0.204   5.471 -1.5344 -1.4646 -1.6944
 3914SOL    HW223205   0.120   0.183   5.508  0.8888  1.5647 -1.8028
 3915SOL     OW23206   4.416   2.649   6.218 -0.1735  0.5789 -0.1269
 3915SOL    HW123207   4.400   2.743   6.228  1.9820  0.9507 -0.1556
 3915SOL    HW223208   4.495   2.635   6.165  0.3229 -1.4495  1.1643
 3916SOL     OW23209   4.472   0.676   8.100 -0.3396  0.4065  0.1293
 3916SOL    HW123210   4.530   0.635   8.165  0.8767 -2.2891 -2.6445
 3916SOL    HW223211   4.522   0.751   8.067 -0.5911  0.5871  0.1645
 3917SOL     OW23212   1.278   2.061   6.923 -0.0212  0.5644  0.4897
 3917SOL    HW123213   1.191   2.099   6.915  0.7102  2.1980  0.1252
 3917SOL    HW223214   1.256   1.977   6.883  1.2844 -0.2738  1.4978
 3918SOL     OW23215   3.495   3.245  16.669  0.2645 -0.2067 -0.9700
 3918SOL    HW123216   3.456   3.159  16.676  0.8931 -0.4401 -0.3558
 3918SOL    HW223217   3.541   3.262  16.751  2.2987  1.6513 -2.4673
 3919SOL     OW23218   3.526   0.802   8.919 -0.2258  0.5523 -0.0350
 3919SOL    HW123219   3.608   0.778   8.875 -0.3368 -0.9744  0.5954
 3919SOL    HW223220   3.480   0.724   8.949 -2.2595  0.5790 -3.1464
 3920SOL     OW23221   3.086   0.970   7.088  0.3678  0.1033  0.5906
 3920SOL    HW123222   3.074   0.924   7.171  1.5962 -0.9604  0.1942
 3920SOL    HW223223   3.021   1.039   7.098 -0.5989 -0.6680 -0.3614
 3921SOL     OW23224   2.005   1.730  12.010 -0.1246 -0.5137 -0.2753
 3921SOL    HW123225   2.063   1.677  12.065  0.9254  0.1648 -0.7225
 3921SOL    HW223226   2.063   1.805  11.995  0.2349 -1.2845 -2.6295
 3922SOL     OW23227   0.763   3.509   2.089 -0.3434 -0.1603  0.2778
 3922SOL    HW123228   0.706   3.511   2.012 -0.3776  0.1693  0.3101
 3922SOL    HW223229   0.765   3.418   2.117  3.9053 -0.5657 -1.4697
 3923SOL     OW23230   2.281   2.897   5.726  0.1893  0.0601 -0.1967
 3923SOL    HW123231   2.307   2.808   5.702 -0.5915  0.0817 -1.1427
 3923SOL    HW223232   2.337   2.911   5.802  1.6074 -0.2180 -1.2111
 3924SOL     OW23233   4.118   0.731  14.595 -0.0649  0.0517  0.0130
 3924SOL    HW123234   4.086   0.697  14.679  1.2180  0.9116  0.8449
 3924SOL    HW223235   4.167   0.806  14.629 -0.3409  0.5725 -0.7269
 3925SOL     OW23236   4.640   4.087   7.867  0.5024  0.1887 -0.5005
 3925SOL    HW123237   4.604   4.082   7.779  1.0627  1.3437 -0.8015
 3925SOL    HW223238   4.708   4.021   7.852  0.7805 -0.0976  2.0323
 3926SOL     OW23239   1.633   2.616   2.771  0.1276  0.5225  0.0380
 3926SOL    HW123240   1.715   2.619   2.820  0.6032 -0.3014 -0.7224
 3926SOL    HW223241   1.653   2.697   2.723 -0.1858 -0.4734 -1.7775
 3927SOL     OW23242   2.750   2.873   7.215  0.1501  0.0175  0.0671
 3927SOL    HW123243   2.704   2.950   7.183  1.5396  1.2945  1.1509
 3927SOL    HW223244   2.793   2.841   7.136  0.0292  1.3901 -0.5469
 3928SOL     OW23245   3.508   4.700   6.837  0.1723 -0.0983 -0.9045
 3928SOL    HW123246   3.488   0.067   6.864 -1.1204 -0.4345 -0.7484
 3928SOL    HW223247   3.603   4.697   6.828  0.5094 -1.0563  3.0710
 3929SOL     OW23248   0.305   3.073   2.683  0.0248 -0.0056 -0.7619
 3929SOL    HW123249   0.318   3.102   2.593 -2.3290  1.2425 -0.7093
 3929SOL    HW223250   0.224   3.120   2.704  1.2769  0.9627  1.9494
 3930SOL     OW23251   4.435   4.092   6.429  0.6566 -0.3363  0.9083
 3930SOL    HW123252   4.390   4.050   6.355 -2.1533 -1.6918  3.3759
 3930SOL    HW223253   4.494   4.022   6.457 -0.2017 -0.9905  1.0902
 3931SOL     OW23254   0.553   4.637  14.734 -0.3403  0.1069  0.0189
 3931SOL    HW123255   0.645   4.625  14.758 -0.4762  2.7287  1.8657
 3931SOL    HW223256   0.565   4.696  14.659 -0.1251  3.0284  2.3766
 3932SOL     OW23257   1.700   4.520   8.604  0.2125  0.1593  0.0079
 3932SOL    HW123258   1.624   4.575   8.625 -1.5268 -1.6852 -1.4264
 3932SOL    HW223259   1.681   4.457   8.534  0.2076 -1.5268  1.5401
 3933SOL     OW23260   4.564   0.043   7.700  0.1899  1.0585 -0.3701
 3933SOL    HW123261   4.611   0.066   7.619  0.2994  0.4533 -0.4806
 3933SOL    HW223262   4.600   0.114   7.753 -0.3796  1.9545 -1.1879
 3934SOL     OW23263   2.674   3.955   7.447  0.5244  0.0525 -0.1603
 3934SOL    HW123264   2.594   4.003   7.468  0.7445 -0.3189  1.4714
 3934SOL    HW223265   2.720   3.972   7.529  1.0388 -1.4379 -0.1469
 3935SOL     OW23266   1.237   4.486  17.304 -0.1742  0.0416 -0.3414
 3935SOL    HW123267   1.299   4.557  17.320 -0.5376  0.3285 -0.2158
 3935SOL    HW223268   1.281   4.439  17.233  1.0578 -0.3342  0.6757
 3936SOL     OW23269   3.582   4.481   7.247 -0.0695 -0.4029 -0.2083
 3936SOL    HW123270   3.634   4.560   7.256 -0.1320 -0.1217 -2.3200
 3936SOL    HW223271   3.539   4.501   7.165 -1.5871  1.6702  1.1052
 3937SOL     OW23272   4.007   2.993   6.986  0.2455 -0.1326 -0.3185
 3937SOL    HW123273   3.970   3.063   7.041 -2.0524 -2.7804  1.4926
 3937SOL    HW223274   4.092   3.002   7.027  0.7260 -1.1382 -1.1095
 3938SOL     OW23275   0.388   0.420   2.294 -0.2685  0.2953  0.4489
 3938SOL    HW123276   0.348   0.475   2.361 -1.0819  1.0686 -0.6896
 3938SOL    HW223277   0.319   0.373   2.247  1.6535  0.4963 -2.5952
 3939SOL     OW23278   0.423   4.587   5.230 -0.6689  0.8958  0.2905
 3939SOL    HW123279   0.497   4.535   5.262 -0.8232  0.1910 -0.5118
 3939SOL    HW223280   0.467   4.638   5.162  1.3376  1.4995  2.0183
 3940SOL     OW23281   4.598   2.235  16.024  0.7392  0.7711 -0.0324
 3940SOL    HW123282   4.542   2.183  16.082 -1.7110  0.5623 -2.6287
 3940SOL    HW223283   4.619   2.310  16.081 -2.4139  2.3260 -0.9237
 3941SOL     OW23284   1.943   2.238   7.104  0.3494 -0.3608  0.5241
 3941SOL    HW123285   1.943   2.145   7.123 -1.6433 -0.8195 -1.7494
 3941SOL    HW223286   2.001   2.273   7.172 -1.5509 -0.6110  2.2639
 3942SOL     OW23287   4.374   1.030   2.772  1.0318  0.2214 -0.4591
 3942SOL    HW123288   4.395   1.029   2.866 -0.4949 -1.1127 -0.1292
 3942SOL    HW223289   4.423   0.952   2.747  0.1231 -0.8963  1.2122
 3943SOL     OW23290   2.568   4.071   1.682 -0.3448 -0.5444 -0.0147
 3943SOL    HW123291   2.571   3.980   1.711  0.1135  0.4063  2.9368
 3943SOL    HW223292   2.563   4.052   1.588  0.6690  0.3136 -0.2356
 3944SOL     OW23293   0.686   4.617   2.941 -0.2745 -0.2324  0.1210
 3944SOL    HW123294   0.734   4.553   2.994 -0.5810  0.0409  0.7223
 3944SOL    HW223295   0.759   4.665   2.902 -1.7098  1.8975  0.1013
 3945SOL     OW23296   2.699   3.862   8.592  0.7396 -0.0862 -0.5416
 3945SOL    HW123297   2.663   3.950   8.598 -2.6086 -1.4895 -0.3153
 3945SOL    HW223298   2.777   3.885   8.540  1.0958 -0.2338 -0.0696
 3946SOL     OW23299   4.527   0.797   2.711 -0.4045 -0.1248 -0.4446
 3946SOL    HW123300   4.595   0.833   2.768 -0.2600 -0.3595 -0.4672
 3946SOL    HW223301   4.566   0.710   2.719  1.9262  0.9938  0.4669
 3947SOL     OW23302   2.638   3.532   8.140  0.1244 -0.1295 -0.6376
 3947SOL    HW123303   2.715   3.479   8.160 -0.0213  0.1362  0.6016
 3947SOL    HW223304   2.581   3.525   8.216  1.0497 -1.3134 -0.0607
 3948SOL     OW23305   2.034   0.118   6.190  0.2573  0.0204  0.1433
 3948SOL    HW123306   2.063   0.086   6.105  1.7181  2.7984 -0.4112
 3948SOL    HW223307   2.104   0.180   6.211  1.9522 -1.8076 -0.0776
 3949SOL     OW23308   1.055   2.769   4.640  0.1258 -0.4994 -0.7379
 3949SOL    HW123309   0.984   2.775   4.576 -0.6385  0.8905  0.2405
 3949SOL    HW223310   1.087   2.687   4.603  2.0173  0.9371 -2.3003
 3950SOL     OW23311   0.650   2.378   5.350  0.0091 -0.3316  0.7919
 3950SOL    HW123312   0.588   2.447   5.330  0.1093 -0.1292  1.1806
 3950SOL    HW223313   0.662   2.336   5.265  2.2627  3.1014 -0.5796
 3951SOL     OW23314   2.169   1.950   3.990 -0.1585 -0.6503 -0.3313
 3951SOL    HW123315   2.104   1.984   3.928 -0.8436  0.4104  0.9734
 3951SOL    HW223316   2.115   1.935   4.067  0.9179  1.7183  0.8958
 3952SOL     OW23317   2.724   1.481   4.444  0.5789  0.2762  0.2804
 3952SOL    HW123318   2.677   1.414   4.493  0.6418 -0.0912 -0.1642
 3952SOL    HW223319   2.817   1.465   4.458  0.4332  0.1342  1.0914
 3953SOL     OW23320   2.525   4.538   8.082 -0.2006 -0.0095  0.5189
 3953SOL    HW123321   2.597   4.481   8.053  0.2462 -1.0635  3.7826
 3953SOL    HW223322   2.555   4.570   8.167  4.0559  0.1552 -1.0271
 3954SOL     OW23323   2.772   3.134   7.768 -0.2686 -0.2256  0.8441
 3954SOL    HW123324   2.721   3.180   7.701  0.5300 -0.5947 -0.0090
 3954SOL    HW223325   2.847   3.098   7.721  0.1910  0.8741  0.7352
 3955SOL     OW23326   4.432   2.703   8.186 -0.0585 -0.2426 -0.6720
 3955SOL    HW123327   4.358   2.665   8.232  0.1314 -1.1781 -1.1347
 3955SOL    HW223328   4.389   2.717   8.102 -2.6676  2.8722  1.1762
 3956SOL     OW23329   4.660   0.500   3.875 -0.2367  0.5292 -0.2696
 3956SOL    HW123330   4.634   0.494   3.783  0.8217 -0.0041 -0.5382
 3956SOL    HW223331   0.019   0.549   3.874  0.4053 -0.5099  0.6022
 3957SOL     OW23332   3.131   2.009   5.168  0.1019  0.1679  0.2064
 3957SOL    HW123333   3.213   2.053   5.146 -0.6969  0.9354 -1.2885
 3957SOL    HW223334   3.090   2.081   5.217 -1.7711 -0.3880 -0.5750
 3958SOL     OW23335   1.756   0.077  15.195 -0.2915  0.4059 -0.0941
 3958SOL    HW123336   1.731   0.082  15.103  0.8294  1.3399 -0.3405
 3958SOL    HW223337   1.832   0.134  15.205  2.1565 -3.0932  1.3281
 3959SOL     OW23338   3.579   3.278   2.766  0.1770  0.0020  0.0311
 3959SOL    HW123339   3.553   3.366   2.740 -1.3186 -0.0688  1.3034
 3959SOL    HW223340   3.637   3.306   2.838  0.2019 -2.4888  0.9822
 3960SOL     OW23341   3.266   2.902   8.993  0.3712  0.0926 -0.1171
 3960SOL    HW123342   3.217   2.850   8.929 -0.7172 -0.3018  1.0311
 3960SOL    HW223343   3.206   2.973   9.015 -1.4345 -1.9208  1.4237
 3961SOL     OW23344   2.500   2.535   5.831 -0.1769 -0.2927  0.0561
 3961SOL    HW123345   2.472   2.517   5.921 -2.2642  1.8007 -0.1599
 3961SOL    HW223346   2.560   2.462   5.820 -0.6290 -0.6343 -0.1118
 3962SOL     OW23347   4.209   1.179   1.873 -0.0769 -0.4872  0.4290
 3962SOL    HW123348   4.145   1.137   1.930 -0.2804  0.3096  0.7867
 3962SOL    HW223349   4.181   1.156   1.784  2.2445  1.1118 -0.7482
 3963SOL     OW23350   4.539   3.794  15.318  0.2846  0.1861 -0.6092
 3963SOL    HW123351   4.594   3.853  15.266  3.5988 -1.5018  0.9706
 3963SOL    HW223352   4.598   3.781  15.393 -0.1190 -0.4403 -0.4074
 3964SOL     OW23353   0.663   3.369   9.246  0.6738 -0.1435  0.2140
 3964SOL    HW123354   0.617   3.364   9.162  1.6489  0.5410 -0.3528
 3964SOL    HW223355   0.627   3.296   9.297  3.7039 -1.9740 -0.2192
 3965SOL     OW23356   3.870   1.963   6.580 -0.0316 -0.5008  0.2350
 3965SOL    HW123357   3.775   1.971   6.577  0.0505  0.3908  0.2022
 3965SOL    HW223358   3.885   1.884   6.633  2.7941  1.3325  2.1803
 3966SOL     OW23359   0.484   0.921  17.603 -0.2080  0.2122 -0.4340
 3966SOL    HW123360   0.493   0.984  17.530  2.9574  0.9720  0.6100
 3966SOL    HW223361   0.390   0.907  17.593  0.1988 -3.1926  0.5870
 3967SOL     OW23362   2.516   0.516   5.691 -0.3493 -0.1339  0.3885
 3967SOL    HW123363   2.470   0.458   5.751  0.4012 -1.0246  0.1014
 3967SOL    HW223364   2.607   0.508   5.722 -0.6014  1.7675  1.6415
 3968SOL     OW23365   3.615   2.217   8.154 -0.0122 -0.0246 -0.3945
 3968SOL    HW123366   3.668   2.189   8.080 -1.1794 -1.1885 -0.8002
 3968SOL    HW223367   3.624   2.311   8.141  0.4305 -0.0029  0.0720
 3969SOL     OW23368   2.947   0.372   8.318  0.7717 -0.1056  0.5219
 3969SOL    HW123369   3.034   0.338   8.337 -0.0814 -2.5007  0.1416
 3969SOL    HW223370   2.884   0.324   8.371  0.0450 -0.1956 -0.4154
 3970SOL     OW23371   3.782   4.360   6.873  0.4390  0.1083  0.1954
 3970SOL    HW123372   3.782   4.331   6.964  1.1512 -0.9398 -0.1401
 3970SOL    HW223373   3.689   4.352   6.849  0.2052  1.6438  0.5577
 3971SOL     OW23374   0.150   3.977   4.592 -0.0875  0.3072 -0.0845
 3971SOL    HW123375   0.230   4.017   4.627  1.2038 -1.7770 -0.6631
 3971SOL    HW223376   0.183   3.934   4.513 -2.7527  1.0138 -1.5676
 3972SOL     OW23377   0.539   1.029  15.672 -0.2580  0.1975 -0.0634
 3972SOL    HW123378   0.616   1.057  15.721 -0.3827  1.7734 -0.7438
 3972SOL    HW223379   0.468   1.074  15.719 -0.7106 -1.1845  0.5715
 3973SOL     OW23380   3.627   3.309   5.356  0.3310 -0.2465  0.0763
 3973SOL    HW123381   3.610   3.280   5.446  0.3080  0.7686  0.4019
 3973SOL    HW223382   3.618   3.231   5.302 -0.2896 -0.4017  0.4069
 3974SOL     OW23383   0.591   1.032   2.783 -0.0014 -0.6250 -1.0483
 3974SOL    HW123384   0.642   0.952   2.799 -1.4398 -1.4768 -0.6757
 3974SOL    HW223385   0.622   1.080   2.860  1.3860 -2.7054 -0.2994
 3975SOL     OW23386   0.513   2.642   3.521  0.7720 -0.5309  0.0264
 3975SOL    HW123387   0.488   2.734   3.531  0.6105 -0.3860 -1.6232
 3975SOL    HW223388   0.467   2.603   3.446  0.4545 -0.2877  0.0958
 3976SOL     OW23389   2.606   0.498   4.784 -0.6651 -0.0849  0.9120
 3976SOL    HW123390   2.551   0.479   4.708 -0.4859  1.7832  0.3120
 3976SOL    HW223391   2.600   0.424   4.844  0.0980  0.9787  2.3034
 3977SOL     OW23392   2.279   0.067   8.388 -0.2798  0.2527 -0.3838
 3977SOL    HW123393   2.310   0.105   8.470  0.5376 -1.3457  0.0512
 3977SOL    HW223394   2.188   0.055   8.413 -0.3752  0.7891 -0.4845
 3978SOL     OW23395   0.791   3.183   4.145  0.7026 -0.5453 -0.1243
 3978SOL    HW123396   0.804   3.093   4.115  1.3611 -1.3732  2.6554
 3978SOL    HW223397   0.879   3.218   4.136  0.0640  0.9659 -0.3970
 3979SOL     OW23398   1.853   0.805  13.044 -0.2496  0.6944  0.5719
 3979SOL    HW123399   1.886   0.807  13.134  0.3738 -0.1277  0.3556
 3979SOL    HW223400   1.787   0.874  13.052  0.1902  1.3386 -1.3417
 3980SOL     OW23401   3.054   1.534   8.194 -0.1086  0.4088  0.2380
 3980SOL    HW123402   2.985   1.519   8.258 -1.4679 -0.5678 -1.4691
 3980SOL    HW223403   3.009   1.600   8.141 -0.7516 -0.2358 -0.0127
 3981SOL     OW23404   3.332   2.149   6.102 -0.5223  0.2170 -0.2519
 3981SOL    HW123405   3.336   2.059   6.070 -0.2170 -0.1958  0.9420
 3981SOL    HW223406   3.411   2.157   6.155 -2.1213  0.7150  2.0670
 3982SOL     OW23407   4.069   2.292   6.838  0.2319 -0.2028  0.4971
 3982SOL    HW123408   4.025   2.268   6.756  0.5374  0.7112  0.0701
 3982SOL    HW223409   4.155   2.318   6.806  0.0363  0.0344  0.1513
 3983SOL     OW23410   2.666   1.196   4.846  0.5081 -0.0853 -0.2204
 3983SOL    HW123411   2.671   1.117   4.791  0.8653 -0.9932  1.1044
 3983SOL    HW223412   2.737   1.172   4.905 -1.1743 -1.2521  1.3467
 3984SOL     OW23413   3.412   1.480   7.561  0.6412 -0.1339 -0.0691
 3984SOL    HW123414   3.469   1.554   7.540  0.1775  0.1963 -0.1595
 3984SOL    HW223415   3.410   1.488   7.656  1.9812 -2.0946  0.1287
 3985SOL     OW23416   3.603   1.939   8.245 -0.3824 -0.2027  0.5002
 3985SOL    HW123417   3.591   1.953   8.151 -2.4279 -1.9110  0.5101
 3985SOL    HW223418   3.601   2.033   8.264  0.4535  0.1632 -1.2063
 3986SOL     OW23419   0.149   3.580  16.154  0.3641  0.2155  0.2968
 3986SOL    HW123420   0.145   3.568  16.059 -0.9711  3.8732 -0.0921
 3986SOL    HW223421   0.240   3.609  16.163  0.7762 -0.4083 -1.8995
 3987SOL     OW23422   4.495   0.813  12.699  0.0816  0.5625  0.4051
 3987SOL    HW123423   4.404   0.799  12.673  0.6342 -2.0789 -0.0722
 3987SOL    HW223424   4.530   0.726  12.683 -0.2181  0.4107  0.5737
 3988SOL     OW23425   2.416   0.287   1.395  0.0549 -0.6621  0.0420
 3988SOL    HW123426   2.423   0.218   1.330 -0.5449  0.6309 -1.4157
 3988SOL    HW223427   2.432   0.360   1.335  1.2779  0.1101  1.2879
 3989SOL     OW23428   3.312   0.030  12.544 -0.5754 -0.5519  0.4562
 3989SOL    HW123429   3.255   4.676  12.532 -1.8127  0.2064  1.3996
 3989SOL    HW223430   3.306   0.063  12.455  0.5373 -1.0809  0.1902
 3990SOL     OW23431   1.319   4.505   0.695 -0.2470  0.4325 -0.7478
 3990SOL    HW123432   1.381   4.533   0.627  0.5727 -1.1810 -0.6545
 3990SOL    HW223433   1.241   4.475   0.648  0.0494 -0.6591 -0.5232
 3991SOL     OW23434   1.942   4.145   9.816  0.2187 -0.1993 -0.4901
 3991SOL    HW123435   1.860   4.193   9.829  0.5205 -0.0601  0.8937
 3991SOL    HW223436   1.990   4.207   9.761 -1.0521  1.1810 -0.0486
 3992SOL     OW23437   0.408   1.889  15.734 -0.8833  0.1017 -0.4757
 3992SOL    HW123438   0.367   1.960  15.784 -2.7511 -0.7308 -0.8138
 3992SOL    HW223439   0.373   1.911  15.647 -4.2784 -0.4998  0.7116
 3993SOL     OW23440   3.075   3.081   4.392 -0.5890  0.7682 -0.1654
 3993SOL    HW123441   3.074   3.010   4.457  0.5551  1.1509  0.2907
 3993SOL    HW223442   3.069   3.148   4.460  1.1941  0.7120  0.0736
 3994SOL     OW23443   0.778   3.115  16.525  0.3826  0.2208 -0.0970
 3994SOL    HW123444   0.706   3.077  16.575  1.0539 -1.2181 -0.2026
 3994SOL    HW223445   0.730   3.154  16.452 -0.0049 -1.1051 -0.5444
 3995SOL     OW23446   2.194   2.580   5.233 -0.4034 -0.4660 -0.0105
 3995SOL    HW123447   2.240   2.654   5.273 -0.9815 -0.1255  0.0258
 3995SOL    HW223448   2.217   2.524   5.307  2.0196  1.3707  0.6520
 3996SOL     OW23449   0.898   1.118   1.222 -0.1321 -0.7402 -0.3653
 3996SOL    HW123450   0.894   1.162   1.137  2.6308  2.2299  1.0662
 3996SOL    HW223451   0.892   1.024   1.207 -1.2689 -0.7031 -0.1485
 3997SOL     OW23452   3.584   4.281   2.814 -0.1709  0.2932 -0.3578
 3997SOL    HW123453   3.657   4.244   2.865 -1.4164  2.3090  2.8933
 3997SOL    HW223454   3.569   4.369   2.847 -2.7641 -0.4488  0.4884
 3998SOL     OW23455   0.228   2.482   3.953  0.2264 -0.0303 -0.1102
 3998SOL    HW123456   0.288   2.556   3.960 -1.2151  0.9686  1.5845
 3998SOL    HW223457   0.145   2.522   3.927 -0.7169 -2.0981 -0.2623
 3999SOL     OW23458   1.357   0.199   7.817 -0.6377  0.4887  0.1311
 3999SOL    HW123459   1.262   0.208   7.827 -0.3390  2.3266  1.2801
 3999SOL    HW223460   1.374   0.259   7.745  0.4665 -0.1362 -0.1372
 4000SOL     OW23461   3.326   3.801   8.930 -0.8022  0.4342 -0.6199
 4000SOL    HW123462   3.238   3.802   8.967  0.2594 -1.6901  1.9432
 4000SOL    HW223463   3.338   3.706   8.931 -0.2363  0.5192  0.5242
 4001SOL     OW23464   3.708   1.508   1.883 -0.3221  0.6254  0.3435
 4001SOL    HW123465   3.682   1.445   1.815 -1.5351  1.5638 -0.0676
 4001SOL    HW223466   3.803   1.513   1.871 -0.3305  0.5068  0.2264
 4002SOL     OW23467   1.053   0.886  17.047 -0.4615 -0.6668 -0.0899
 4002SOL    HW123468   1.011   0.833  16.979  1.5967 -2.5682  0.1229
 4002SOL    HW223469   1.117   0.939  17.000  1.4502 -1.9512  1.0536
 4003SOL     OW23470   4.611   2.783  11.356  0.0536 -0.1221  0.9711
 4003SOL    HW123471   4.599   2.739  11.439  0.3529 -0.6984  0.7087
 4003SOL    HW223472   4.696   2.748  11.328  1.0127  1.5886  1.7588
 4004SOL     OW23473   2.767   2.199  13.615 -0.3980 -0.7250  0.2566
 4004SOL    HW123474   2.769   2.271  13.678  1.7807 -0.1784 -0.4242
 4004SOL    HW223475   2.742   2.123  13.667  0.6643 -0.2601  1.4377
 4005SOL     OW23476   3.951   2.868   7.551 -0.4605  0.1055  0.3015
 4005SOL    HW123477   3.909   2.843   7.468  0.5446  1.0568 -0.4964
 4005SOL    HW223478   4.039   2.901   7.532 -0.5652 -0.8851 -1.9195
 4006SOL     OW23479   3.708   2.916  10.543 -0.1486  0.2305  0.4633
 4006SOL    HW123480   3.768   2.869  10.486 -0.9495 -0.3689  0.0971
 4006SOL    HW223481   3.622   2.890  10.509  0.1346  0.3178 -0.3120
 4007SOL     OW23482   4.144   3.258   3.372  0.3699  0.5739  0.0598
 4007SOL    HW123483   4.103   3.194   3.431  0.8443  1.4014  1.3080
 4007SOL    HW223484   4.232   3.219   3.368  0.3830  0.6196 -0.0971
 4008SOL     OW23485   0.151   1.543   4.005 -0.4556  0.7664 -0.3606
 4008SOL    HW123486   0.132   1.623   4.055 -2.6892  1.5598 -2.4423
 4008SOL    HW223487   0.197   1.578   3.928  0.4350 -0.4243 -0.3674
 4009SOL     OW23488   3.730   4.409  11.684  0.1993 -0.6365  0.1092
 4009SOL    HW123489   3.639   4.413  11.715  0.1468 -0.3997 -0.0698
 4009SOL    HW223490   3.771   4.389  11.768  2.3100 -1.0976 -1.0356
 4010SOL     OW23491   1.971   3.663   9.723  0.5300  0.5717 -0.9276
 4010SOL    HW123492   1.941   3.585   9.770 -2.0802  0.7001 -2.3593
 4010SOL    HW223493   1.886   3.708   9.723 -0.0165 -0.4871  1.2502
 4011SOL     OW23494   2.273   2.332   4.112 -0.0895  0.8096  0.5904
 4011SOL    HW123495   2.233   2.333   4.025  2.8596  2.3878 -0.7412
 4011SOL    HW223496   2.330   2.407   4.127  1.5392 -0.3428  0.2444
 4012SOL     OW23497   3.118   3.829   3.176  0.0811  0.5445  0.3396
 4012SOL    HW123498   3.024   3.811   3.181  0.1758  0.1682  0.7411
 4012SOL    HW223499   3.141   3.848   3.085  3.4285 -1.6876  0.7331
 4013SOL     OW23500   1.995   0.325  15.409 -0.4820  0.6916 -0.1896
 4013SOL    HW123501   1.974   0.304  15.319 -0.2230  2.7449 -0.7279
 4013SOL    HW223502   2.087   0.349  15.399  0.1216 -1.5131  0.0061
 4014SOL     OW23503   3.751   4.001   4.502 -0.2571 -0.1774 -0.6484
 4014SOL    HW123504   3.674   3.952   4.471 -2.0028  2.6776 -0.7877
 4014SOL    HW223505   3.784   3.935   4.563 -4.0501  0.2622  1.8395
 4015SOL     OW23506   0.149   0.804  17.092 -0.2091  0.2626 -0.0120
 4015SOL    HW123507   0.095   0.848  17.158 -0.8728 -0.1465 -0.2875
 4015SOL    HW223508   0.162   0.719  17.134  0.2720  1.2249  1.8307
 4016SOL     OW23509   4.249   4.718   7.175  0.2512 -0.2550 -0.1497
 4016SOL    HW123510   4.221   4.692   7.263  0.4121 -0.8299 -0.2715
 4016SOL    HW223511   4.343   4.718   7.189  0.7374 -1.8128 -3.4203
 4017SOL     OW23512   1.159   3.363  14.034 -0.0165 -0.2321 -0.3465
 4017SOL    HW123513   1.136   3.277  14.000  0.6534 -0.6767  0.3277
 4017SOL    HW223514   1.254   3.356  14.045 -0.1627 -1.3920  0.1798
 4018SOL     OW23515   1.673   2.504   4.633  0.0585 -0.3319  0.2657
 4018SOL    HW123516   1.723   2.446   4.690  2.2540  1.7095  0.4235
 4018SOL    HW223517   1.733   2.578   4.624 -0.3501 -0.0169  0.1041
 4019SOL     OW23518   3.005   1.678   0.514  0.1372  0.2591 -0.6248
 4019SOL    HW123519   3.088   1.669   0.561  0.7084 -0.8443 -1.8409
 4019SOL    HW223520   2.993   1.592   0.475 -1.5314  0.0556  0.3550
 4020SOL     OW23521   3.572   1.648   5.089  0.7489  0.2364  0.1464
 4020SOL    HW123522   3.571   1.577   5.025 -1.3689  0.2446  0.1516
 4020SOL    HW223523   3.663   1.674   5.087  0.0358  2.6748 -0.3455
 4021SOL     OW23524   0.542   1.333   9.321  0.1957 -0.1312 -0.4545
 4021SOL    HW123525   0.471   1.397   9.320 -0.2672 -0.6806 -1.9639
 4021SOL    HW223526   0.608   1.392   9.285  0.4786 -0.9777 -1.3291
 4022SOL     OW23527   0.635   3.058   3.363  0.0956 -1.0704 -0.0420
 4022SOL    HW123528   0.694   3.123   3.324 -0.5869 -1.7249 -2.1373
 4022SOL    HW223529   0.702   2.993   3.386  0.6985 -0.7255 -0.8325
 4023SOL     OW23530   2.951   2.703   2.130 -0.3143 -0.8273  0.3914
 4023SOL    HW123531   2.933   2.630   2.189 -1.6555  0.5022  1.6055
 4023SOL    HW223532   3.005   2.653   2.068  0.3083  0.2072  0.0861
 4024SOL     OW23533   3.744   1.921  14.955  0.1075  0.1708 -0.2945
 4024SOL    HW123534   3.765   1.998  14.901 -0.0149  0.3591 -0.0707
 4024SOL    HW223535   3.707   1.963  15.032  2.4271  0.9784  0.4039
 4025SOL     OW23536   3.718   2.876   2.844  0.2093  0.1408  0.2606
 4025SOL    HW123537   3.638   2.858   2.894 -0.2162 -0.4199 -0.6134
 4025SOL    HW223538   3.759   2.790   2.854  0.6249  0.3676  0.4593
 4026SOL     OW23539   0.534   1.635  11.547  0.3022 -0.0998 -0.1516
 4026SOL    HW123540   0.510   1.707  11.605  0.8345 -0.7512  0.8598
 4026SOL    HW223541   0.581   1.573  11.602  0.7582  0.1459 -0.2690
 4027SOL     OW23542   4.118   3.869   5.121  0.2852  0.1906 -0.1073
 4027SOL    HW123543   4.163   3.951   5.102 -0.9757  0.9467  0.1463
 4027SOL    HW223544   4.182   3.813   5.165  0.1898 -0.0833 -0.3196
 4028SOL     OW23545   3.728   0.500   5.925 -0.7904 -0.1217 -1.0806
 4028SOL    HW123546   3.686   0.430   5.874 -0.7235  0.1137 -1.4537
 4028SOL    HW223547   3.788   0.443   5.975  0.9439  0.5594 -2.3894
 4029SOL     OW23548   2.499   3.714   0.743 -0.0444 -0.8005 -0.4972
 4029SOL    HW123549   2.520   3.674   0.658  1.2946 -2.2704  0.5264
 4029SOL    HW223550   2.511   3.641   0.804 -0.3934 -1.5264 -1.3046
 4030SOL     OW23551   0.393   0.981  14.590  0.3912  0.0759  0.3964
 4030SOL    HW123552   0.417   1.066  14.628 -0.1210  0.5586 -0.3543
 4030SOL    HW223553   0.300   0.978  14.615  0.2851  1.5002  0.1916
 4031SOL     OW23554   2.641   1.873   0.875  0.2361  0.1023 -0.5509
 4031SOL    HW123555   2.576   1.816   0.833 -0.8025  0.3034  0.7828
 4031SOL    HW223556   2.726   1.847   0.839  0.2413  0.3995 -0.7596
 4032SOL     OW23557   1.649   2.624   6.451 -0.2708 -0.8243 -0.5912
 4032SOL    HW123558   1.646   2.653   6.542  1.9980 -1.4537 -0.3144
 4032SOL    HW223559   1.555   2.616   6.432 -0.0809 -0.8738 -1.5256
 4033SOL     OW23560   2.074   4.355   7.088  0.2415 -0.1772 -0.1465
 4033SOL    HW123561   2.128   4.278   7.074  1.7208  0.9749 -0.7994
 4033SOL    HW223562   2.120   4.402   7.158  1.6654 -1.6216 -0.1093
 4034SOL     OW23563   0.029   2.456   2.112 -0.0417 -0.1905 -0.2797
 4034SOL    HW123564   0.081   2.536   2.105  0.3466 -0.5828 -1.9386
 4034SOL    HW223565   4.714   2.458   2.023 -2.4056  1.3438  0.7266
 4035SOL     OW23566   3.399   3.628   2.293 -0.3901  0.5308  0.2929
 4035SOL    HW123567   3.330   3.668   2.345 -0.1933  1.9373 -0.4996
 4035SOL    HW223568   3.352   3.577   2.227  1.6560 -1.0235  0.0525
 4036SOL     OW23569   3.178   2.712   8.589 -0.3169 -0.1833 -0.0956
 4036SOL    HW123570   3.149   2.632   8.633 -1.2852 -0.1651 -0.6885
 4036SOL    HW223571   3.131   2.700   8.506  1.7927 -0.3523 -1.2587
 4037SOL     OW23572   3.333   3.123   3.308 -0.0639 -0.2229  0.0394
 4037SOL    HW123573   3.375   3.058   3.364  1.7414  1.2216  0.3438
 4037SOL    HW223574   3.256   3.073   3.281 -1.5323  1.9060  0.3210
 4038SOL     OW23575   4.038   1.624   8.624  0.5852  0.0420 -0.3658
 4038SOL    HW123576   4.058   1.709   8.662  0.2004 -0.0182 -0.0206
 4038SOL    HW223577   4.039   1.572   8.705 -0.2424  0.0902 -0.3316
 4039SOL     OW23578   0.710   3.476   7.427 -0.0461  0.2732  0.0733
 4039SOL    HW123579   0.801   3.463   7.398  0.1779 -2.1918  1.8891
 4039SOL    HW223580   0.706   3.432   7.512  2.8532  0.3642  0.2657
 4040SOL     OW23581   0.290   2.128   2.699 -1.0799  0.4590  0.3411
 4040SOL    HW123582   0.372   2.124   2.650 -0.6027 -1.0973  1.2795
 4040SOL    HW223583   0.235   2.127   2.620 -0.5918 -0.6851  0.0192
 4041SOL     OW23584   0.535   0.578   5.475  0.8083  0.3831  0.0570
 4041SOL    HW123585   0.615   0.608   5.517  0.3853  0.1152  1.0465
 4041SOL    HW223586   0.567   0.593   5.385 -0.9021  0.2624 -0.5623
 4042SOL     OW23587   2.013   4.307   2.560 -0.2785 -0.4201  0.1975
 4042SOL    HW123588   2.091   4.345   2.600 -1.2277  0.9406  0.7711
 4042SOL    HW223589   2.052   4.274   2.479  1.3489  0.6765  0.5361
 4043SOL     OW23590   0.557   4.649   0.073 -0.3009 -0.1196  0.3315
 4043SOL    HW123591   0.480   4.685   0.030  1.6325 -0.7827 -3.6814
 4043SOL    HW223592   0.617   4.720   0.052 -0.8870  0.6045  1.1346
 4044SOL     OW23593   3.810   1.464   2.322 -0.3032 -0.1858 -0.0950
 4044SOL    HW123594   3.848   1.408   2.254  0.5126  0.0019  0.2069
 4044SOL    HW223595   3.804   1.545   2.272 -0.6977 -0.1429  0.0212
 4045SOL     OW23596   0.248   2.058   8.002  0.3807  0.4490 -0.4223
 4045SOL    HW123597   0.268   1.971   7.968  2.5020  0.2724  1.2655
 4045SOL    HW223598   0.157   2.072   7.978  0.1938 -0.9243 -0.5127
 4046SOL     OW23599   2.507   3.197   5.301 -0.0855 -1.0257  0.8649
 4046SOL    HW123600   2.520   3.258   5.373  1.2843  0.2742 -0.5070
 4046SOL    HW223601   2.518   3.111   5.342  1.7895 -1.7605 -1.1665
 4047SOL     OW23602   2.665   0.918  16.802 -0.7930  0.5482 -0.2928
 4047SOL    HW123603   2.622   0.900  16.719 -1.3565 -1.3873  0.4066
 4047SOL    HW223604   2.724   0.986  16.771 -0.2282  0.4555  0.5613
 4048SOL     OW23605   4.246   3.422  17.671 -0.0179  0.4780 -0.6241
 4048SOL    HW123606   4.261   3.335   0.016 -1.6249  0.4895  0.0595
 4048SOL    HW223607   4.238   3.479   0.054 -1.1775 -1.0922  0.4544
 4049SOL     OW23608   3.504   1.101  10.757  0.4073 -0.5474 -0.7601
 4049SOL    HW123609   3.546   1.103  10.671 -1.1473  0.6107 -1.4908
 4049SOL    HW223610   3.546   1.031  10.806  1.4324  1.4630  1.2594
 4050SOL     OW23611   3.407   1.764  14.683 -0.3244  0.3040  0.3439
 4050SOL    HW123612   3.312   1.758  14.667  0.3818 -2.6645 -2.6115
 4050SOL    HW223613   3.445   1.692  14.634 -0.8415  0.9589 -1.0132
 4051SOL     OW23614   0.707   3.559   4.060  0.1199 -0.1339  0.3269
 4051SOL    HW123615   0.753   3.548   4.143  0.2889 -0.6328  0.1639
 4051SOL    HW223616   0.700   3.473   4.019  2.8394  0.6300 -1.7752
 4052SOL     OW23617   3.385   2.059   7.348 -0.2285 -0.2937 -0.9290
 4052SOL    HW123618   3.413   2.089   7.435 -1.8961 -0.8325 -0.2015
 4052SOL    HW223619   3.410   2.134   7.294  1.0708  1.2843  1.8603
 4053SOL     OW23620   2.324   2.981   0.775  0.0908  0.4052 -0.6988
 4053SOL    HW123621   2.341   3.075   0.767  2.5336  0.0452  0.2188
 4053SOL    HW223622   2.245   2.958   0.726  1.1117 -0.0820 -2.0888
 4054SOL     OW23623   3.528   1.230   9.413 -0.2359  0.4345 -0.0822
 4054SOL    HW123624   3.588   1.293   9.373 -2.3305  1.6429 -1.3159
 4054SOL    HW223625   3.501   1.272   9.495  3.0133  0.2113  1.1183
 4055SOL     OW23626   3.856   1.194  13.150  0.3836  0.2717 -0.1088
 4055SOL    HW123627   3.788   1.181  13.216 -0.0236 -0.6521 -0.7101
 4055SOL    HW223628   3.818   1.183  13.062 -3.1710 -1.6315  1.6557
 4056SOL     OW23629   1.176   3.790   6.745  0.7017 -0.2607 -0.1608
 4056SOL    HW123630   1.094   3.812   6.700  0.9509 -0.5149 -0.7386
 4056SOL    HW223631   1.165   3.831   6.831  1.6496  0.8252 -0.5558
 4057SOL     OW23632   0.834   4.255  13.587 -0.3749 -0.9093  0.2101
 4057SOL    HW123633   0.861   4.174  13.543  0.5494 -0.3301 -0.2904
 4057SOL    HW223634   0.747   4.261  13.548 -1.0149 -0.7377  1.6777
 4058SOL     OW23635   4.353   4.310   4.430  0.5202  0.0867  0.2396
 4058SOL    HW123636   4.387   4.378   4.489  1.8081 -1.5362  1.3805
 4058SOL    HW223637   4.300   4.258   4.490  0.7582 -1.6898 -1.1213
 4059SOL     OW23638   0.859   0.022  15.889  0.5036 -0.4941  0.6283
 4059SOL    HW123639   0.888   4.662  15.851 -1.7673 -0.8599 -0.3322
 4059SOL    HW223640   0.781   4.719  15.938 -0.0593  0.7835  0.4132
 4060SOL     OW23641   0.408   3.823   2.509  0.0884  0.3847 -0.7165
 4060SOL    HW123642   0.468   3.775   2.452 -0.9962 -0.2167 -1.3679
 4060SOL    HW223643   0.355   3.749   2.540  0.1312 -0.4482 -2.6621
 4061SOL     OW23644   1.529   2.181   6.867 -0.3161  0.4786  0.0222
 4061SOL    HW123645   1.539   2.259   6.921  1.7838 -2.0952  3.3551
 4061SOL    HW223646   1.469   2.127   6.917  0.1802  1.7203  1.9557
 4062SOL     OW23647   2.616   1.993   7.049 -0.0720  0.3304  0.7597
 4062SOL    HW123648   2.627   2.062   6.983 -0.7568  1.2852  1.6467
 4062SOL    HW223649   2.702   1.954   7.065  0.3598  1.1684  0.4914
 4063SOL     OW23650   2.236   4.197   1.481 -0.2634  0.1771 -0.1882
 4063SOL    HW123651   2.217   4.237   1.567  2.6710  0.1297  0.4876
 4063SOL    HW223652   2.255   4.109   1.512  0.9533  0.0255 -1.3574
 4064SOL     OW23653   0.050   3.463   2.270  0.2005  0.7367 -0.0063
 4064SOL    HW123654   0.072   3.556   2.272  1.5064  0.4793 -2.6900
 4064SOL    HW223655   4.678   3.469   2.258  0.3230  1.9822 -0.3377
 4065SOL     OW23656   0.274   4.668   2.032  0.7273  0.9662 -0.0783
 4065SOL    HW123657   0.353   4.621   2.057 -1.2470 -2.4804 -0.2096
 4065SOL    HW223658   0.321   0.010   1.980  0.5150  1.1591 -0.0300
 4066SOL     OW23659   1.307   4.686  14.212 -0.3471 -0.1323 -0.1066
 4066SOL    HW123660   1.299   4.606  14.265  1.5091  0.0437  0.4383
 4066SOL    HW223661   1.216   4.717  14.207 -0.5754 -1.0127 -1.3863
 4067SOL     OW23662   2.352   3.402  16.726 -0.4728 -0.0274  0.1584
 4067SOL    HW123663   2.308   3.404  16.641  0.3656  1.2937 -0.2500
 4067SOL    HW223664   2.331   3.487  16.766 -0.3395  0.6225 -1.1636
 4068SOL     OW23665   3.060   1.177   5.349 -0.2195 -0.2421  0.2968
 4068SOL    HW123666   3.013   1.253   5.383 -1.6055  0.0945 -2.3009
 4068SOL    HW223667   3.077   1.217   5.263 -0.7632 -1.0508 -0.1911
 4069SOL     OW23668   0.699   3.518   4.773  0.4334 -0.1081  0.0728
 4069SOL    HW123669   0.757   3.554   4.705 -1.1095  0.3453 -0.9989
 4069SOL    HW223670   0.659   3.599   4.804  1.1967  0.5567 -0.6454
 4070SOL     OW23671   3.171   4.680  16.289 -0.4277 -0.0846 -0.4314
 4070SOL    HW123672   3.092   4.644  16.329  0.8027 -2.4484 -0.1097
 4070SOL    HW223673   3.150   0.045  16.259 -1.3785 -0.1961 -0.0750
 4071SOL     OW23674   1.083   0.240  14.594  0.0753  0.5606 -0.6911
 4071SOL    HW123675   1.016   0.174  14.613  0.3934 -0.0639 -1.7730
 4071SOL    HW223676   1.036   0.305  14.542 -1.4563 -0.3096 -0.4017
 4072SOL     OW23677   2.292   1.414   3.469 -0.6140  0.4755  0.1447
 4072SOL    HW123678   2.255   1.326   3.456 -1.6355  1.0172 -0.5955
 4072SOL    HW223679   2.287   1.442   3.377 -0.5003 -1.0826 -0.3400
 4073SOL     OW23680   1.760   0.063   0.477  0.0915  0.4762  0.1353
 4073SOL    HW123681   1.822   0.042   0.547  0.0100 -1.9654 -0.5354
 4073SOL    HW223682   1.785   0.148   0.439 -0.1119 -0.4832 -2.1417
 4074SOL     OW23683   3.363   0.030   3.839 -0.1756 -0.6420 -0.7789
 4074SOL    HW123684   3.410   4.674   3.864  1.6096  0.8704  0.6533
 4074SOL    HW223685   3.276   0.033   3.881 -0.3691 -0.6807 -1.1788
 4075SOL     OW23686   3.730   0.404   0.764 -0.0765  0.1029  0.1584
 4075SOL    HW123687   3.800   0.342   0.746  1.6236  2.1239 -0.2333
 4075SOL    HW223688   3.692   0.401   0.676 -0.9007  1.1003  0.4833
 4076SOL     OW23689   2.443   2.110   1.910 -0.0823  0.2100  0.8716
 4076SOL    HW123690   2.501   2.152   1.974  0.4962  1.1974 -0.3127
 4076SOL    HW223691   2.367   2.169   1.916 -1.4316 -1.5267  1.1563
 4077SOL     OW23692   4.695   1.396   3.303  0.1272 -0.1909  0.2951
 4077SOL    HW123693   4.712   1.428   3.215 -1.2809  2.1081  0.8867
 4077SOL    HW223694   4.707   1.471   3.362 -0.2426  0.5266 -0.5507
 4078SOL     OW23695   0.121   1.030  13.031 -0.7664 -0.0579  0.3499
 4078SOL    HW123696   0.090   0.995  12.948 -1.7064  0.4715  0.4691
 4078SOL    HW223697   0.171   0.954  13.061  2.1177  1.8276  0.2155
 4079SOL     OW23698   4.411   3.407   9.665 -0.3614 -0.0782  0.5372
 4079SOL    HW123699   4.405   3.501   9.648 -0.0709  0.0556  1.1984
 4079SOL    HW223700   4.489   3.390   9.612 -1.4632 -1.3464 -0.6813
 4080SOL     OW23701   3.832   2.455  10.954 -0.0829  0.3203 -0.1935
 4080SOL    HW123702   3.801   2.495  11.035  0.7625  1.0345 -0.2234
 4080SOL    HW223703   3.754   2.432  10.903  0.0945 -0.7412  0.0306
 4081SOL     OW23704   3.692   1.844   9.713  0.2718 -0.3604  0.5447
 4081SOL    HW123705   3.701   1.750   9.698  0.1718 -0.0730 -1.2155
 4081SOL    HW223706   3.641   1.867   9.635  1.1482 -1.2572 -0.2876
 4082SOL     OW23707   0.458   4.293   6.363  0.5119 -0.5094  0.1401
 4082SOL    HW123708   0.412   4.306   6.446 -1.1373 -0.3330 -0.7851
 4082SOL    HW223709   0.478   4.385   6.349  0.8819 -0.5534  0.3954
 4083SOL     OW23710   4.454   0.570  14.357 -0.0141  0.8074  0.1043
 4083SOL    HW123711   4.463   0.497  14.418 -0.9884 -0.3495 -1.1222
 4083SOL    HW223712   4.361   0.595  14.365 -0.9110 -1.9611 -1.5918
 4084SOL     OW23713   1.056   0.198   8.818  0.1991 -0.1486  0.3297
 4084SOL    HW123714   1.108   0.169   8.743 -1.2020 -0.2966 -0.5744
 4084SOL    HW223715   1.135   0.211   8.871  1.7000 -4.3666 -0.8166
 4085SOL     OW23716   0.189   0.159   8.337  0.2860 -0.1160 -0.0534
 4085SOL    HW123717   0.170   0.065   8.349 -1.0379  0.2350  0.6521
 4085SOL    HW223718   0.205   0.182   8.428 -0.2900  1.0572 -0.2506
 4086SOL     OW23719   4.058   3.618  10.405 -0.1780 -0.2386  0.3495
 4086SOL    HW123720   4.003   3.561  10.352 -0.8084  0.1051  0.6278
 4086SOL    HW223721   4.140   3.625  10.357 -0.7360  0.9430 -0.4276
 4087SOL     OW23722   3.578   2.227   6.285 -0.1511  0.0128  0.5399
 4087SOL    HW123723   3.554   2.149   6.334  2.7668 -1.0772  0.2760
 4087SOL    HW223724   3.611   2.286   6.353  2.0837 -1.4019  0.7111
 4088SOL     OW23725   4.553   1.134   7.888  0.0067  0.4468 -0.2793
 4088SOL    HW123726   4.473   1.113   7.841 -0.6690 -0.0629  1.1054
 4088SOL    HW223727   4.518   1.160   7.972  0.3851  0.3738 -0.0975
 4089SOL     OW23728   3.047   1.165   0.288 -0.1749 -0.6201 -0.3945
 4089SOL    HW123729   3.058   1.104   0.361  1.9403 -0.4169 -0.5473
 4089SOL    HW223730   3.139   1.169   0.261  0.1743 -1.4228  0.6893
 4090SOL     OW23731   1.382   2.135   5.652  0.5658  0.6083 -0.0852
 4090SOL    HW123732   1.415   2.183   5.576 -1.2171  0.1263 -1.1621
 4090SOL    HW223733   1.470   2.106   5.677  0.6518 -1.1865 -2.4867
 4091SOL     OW23734   2.283   1.523   6.490  0.3558  0.3616 -0.5793
 4091SOL    HW123735   2.377   1.540   6.498  1.1412 -2.9803 -2.8799
 4091SOL    HW223736   2.270   1.541   6.397 -1.0084 -0.5046 -0.5519
 4092SOL     OW23737   4.272   2.554   3.557 -0.6692  0.0195 -0.3453
 4092SOL    HW123738   4.290   2.580   3.467  1.2030 -1.0812 -0.3037
 4092SOL    HW223739   4.328   2.615   3.605  0.4828 -3.6714  3.0296
 4093SOL     OW23740   1.627   2.038  12.530  0.5023  0.3677 -0.0351
 4093SOL    HW123741   1.644   1.960  12.582 -1.2761  0.7531  1.1297
 4093SOL    HW223742   1.628   2.108  12.595  0.5134  0.8122 -0.5170
 4094SOL     OW23743   3.832   4.132   7.945 -0.1596  0.0084  0.0748
 4094SOL    HW123744   3.901   4.185   7.986 -0.3100  0.4779 -0.2770
 4094SOL    HW223745   3.822   4.176   7.861 -0.6509 -0.6507 -0.2116
 4095SOL     OW23746   0.071   2.872   8.737  0.6325 -0.0923 -0.9603
 4095SOL    HW123747   0.037   2.865   8.648  1.7094 -1.6233 -1.2580
 4095SOL    HW223748   0.042   2.961   8.754 -0.2272 -0.5571  0.0301
 4096SOL     OW23749   1.826   3.511   1.896 -0.3254  0.2549 -0.8021
 4096SOL    HW123750   1.876   3.563   1.833 -0.3628  1.7673  0.4210
 4096SOL    HW223751   1.790   3.453   1.829 -2.8219  0.3125  0.4844
 4097SOL     OW23752   4.307   1.012   7.474 -0.5115  0.3430  0.5447
 4097SOL    HW123753   4.324   1.033   7.566 -2.0890 -1.6615  1.3117
 4097SOL    HW223754   4.392   0.974   7.450 -0.1949 -0.7833  3.4167
 4098SOL     OW23755   1.462   1.883  15.035  0.1352  0.1396  0.1908
 4098SOL    HW123756   1.497   1.962  14.995 -2.1066  1.2422  0.3716
 4098SOL    HW223757   1.518   1.862  15.109 -0.8143 -0.3437  0.7829
 4099SOL     OW23758   2.960   1.355   3.707  0.7092  0.1233 -0.1384
 4099SOL    HW123759   3.011   1.426   3.745  0.7882  1.3386 -2.4978
 4099SOL    HW223760   2.920   1.402   3.633 -0.1989  0.8007  0.7900
 4100SOL     OW23761   3.303   4.340   5.585  0.3907 -0.2306 -0.1160
 4100SOL    HW123762   3.252   4.419   5.607  1.0879  0.0636  0.4268
 4100SOL    HW223763   3.391   4.375   5.575  0.0111  0.6298 -0.5031
 4101SOL     OW23764   2.229   4.030   8.213 -0.0659 -0.1410 -0.2128
 4101SOL    HW123765   2.272   3.945   8.225  1.9229  0.8673 -0.2470
 4101SOL    HW223766   2.306   4.084   8.228 -0.3492 -0.0696  0.9794
 4102SOL     OW23767   0.675   3.159   5.769  0.0624 -0.0615  0.0238
 4102SOL    HW123768   0.583   3.185   5.772  0.4189  0.7880  3.2062
 4102SOL    HW223769   0.684   3.091   5.836  1.6225  0.4833  0.3567
 4103SOL     OW23770   4.558   0.498   6.487 -0.0603 -0.0024 -0.6804
 4103SOL    HW123771   4.579   0.491   6.394 -2.3873  0.2696 -1.2373
 4103SOL    HW223772   4.553   0.592   6.501  2.8907 -0.0037  0.3002
 4104SOL     OW23773   2.459   2.130   4.289  0.1556 -0.3548  0.2262
 4104SOL    HW123774   2.383   2.171   4.329  0.5863  0.7834 -0.1406
 4104SOL    HW223775   2.527   2.197   4.301 -0.2245  0.0367  0.1719
 4105SOL     OW23776   0.808   1.268  11.885 -0.1177  0.4612 -0.4211
 4105SOL    HW123777   0.810   1.183  11.840  1.4555 -0.2437  0.9425
 4105SOL    HW223778   0.894   1.275  11.928  0.9368  0.4760 -2.5246
 4106SOL     OW23779   3.463   2.978  11.403 -0.2970 -0.0069 -0.5311
 4106SOL    HW123780   3.488   2.966  11.495 -1.3422  0.3721 -0.1897
 4106SOL    HW223781   3.375   3.006  11.431 -0.5291  1.1754 -2.4849
 4107SOL     OW23782   0.695   3.806   2.667  0.3864 -0.2241 -1.2052
 4107SOL    HW123783   0.607   3.815   2.701  1.4538  0.3747  1.3933
 4107SOL    HW223784   0.708   3.885   2.613 -0.5138 -0.7539 -2.1932
 4108SOL     OW23785   4.671   4.221  15.093 -0.5212  0.6900  0.4461
 4108SOL    HW123786   4.581   4.224  15.127  0.1537  0.4115  2.2018
 4108SOL    HW223787   4.698   4.303  15.134 -1.4287  1.1483  0.1317
 4109SOL     OW23788   3.298   1.712  11.526 -0.3341 -0.7123  0.5319
 4109SOL    HW123789   3.290   1.764  11.447  0.4477 -3.1595 -1.1749
 4109SOL    HW223790   3.334   1.635  11.481  1.2396  0.4613 -0.2013
 4110SOL     OW23791   2.282   1.646  10.882 -0.7088 -0.8695  0.1344
 4110SOL    HW123792   2.375   1.635  10.863 -0.9371  1.1219 -2.1068
 4110SOL    HW223793   2.284   1.716  10.946  0.7574 -0.5089 -0.3116
 4111SOL     OW23794   3.976   3.475   1.293  0.1161 -0.0672  0.5115
 4111SOL    HW123795   4.015   3.541   1.351  0.4922  0.5133 -0.3885
 4111SOL    HW223796   4.047   3.410   1.298 -0.3271 -0.5259  0.7684
 4112SOL     OW23797   4.444   0.987  10.116 -0.0843  0.3731  0.4896
 4112SOL    HW123798   4.527   1.008  10.073 -0.1815 -0.2887 -0.0267
 4112SOL    HW223799   4.382   0.979  10.043  0.3330  2.0373 -0.0532
 4113SOL     OW23800   4.075   3.215   7.781 -0.0348 -0.6150 -0.1097
 4113SOL    HW123801   4.095   3.123   7.762  0.7812  0.0443 -2.4690
 4113SOL    HW223802   3.983   3.212   7.753  0.3219  1.0901 -1.4433
 4114SOL     OW23803   4.600   2.168   5.284 -0.0472 -0.2132  0.2765
 4114SOL    HW123804   4.688   2.141   5.258 -0.0075 -0.5537  0.7547
 4114SOL    HW223805   4.556   2.105   5.227 -0.5351  1.1180 -0.7833
 4115SOL     OW23806   4.360   0.517   2.582 -0.2814  0.0342 -0.4717
 4115SOL    HW123807   4.330   0.471   2.660 -0.4140  3.2467  1.3471
 4115SOL    HW223808   4.445   0.473   2.572 -0.5625 -0.5191 -0.4387
 4116SOL     OW23809   4.701   3.256   5.213 -0.4631 -0.3384 -0.0220
 4116SOL    HW123810   0.058   3.309   5.207 -1.7500  1.1555 -3.4638
 4116SOL    HW223811   0.017   3.168   5.214 -1.8974 -0.9810 -0.7501
 4117SOL     OW23812   4.148   1.275   4.542 -0.0557 -0.1797 -0.3824
 4117SOL    HW123813   4.166   1.212   4.612 -0.0683  1.8879  1.5051
 4117SOL    HW223814   4.203   1.238   4.473 -0.4794 -2.0843  0.3153
 4118SOL     OW23815   1.637   0.609   7.791  0.0548 -0.0103 -0.5200
 4118SOL    HW123816   1.712   0.559   7.823  0.3894 -0.0661 -1.3932
 4118SOL    HW223817   1.581   0.551   7.739 -0.4140  2.0308 -2.3230
 4119SOL     OW23818   3.986   2.560   9.158 -0.0173 -0.6282 -0.0645
 4119SOL    HW123819   3.927   2.557   9.234 -1.2642  1.2025 -0.9874
 4119SOL    HW223820   3.974   2.652   9.134 -1.1414 -0.9542 -0.7896
 4120SOL     OW23821   2.076   3.485  13.904 -0.0577  0.4235  0.1541
 4120SOL    HW123822   1.994   3.534  13.906 -0.8142 -0.8485  0.2325
 4120SOL    HW223823   2.144   3.552  13.911  1.1684 -0.9865  1.4988
 4121SOL     OW23824   1.244   2.318   6.689  0.4827  0.0011  0.2208
 4121SOL    HW123825   1.336   2.311   6.716  1.1101  2.0710 -1.4391
 4121SOL    HW223826   1.234   2.403   6.648 -0.7782  0.0691  0.6825
 4122SOL     OW23827   2.602   1.340  13.647  0.2768 -0.4536 -0.1174
 4122SOL    HW123828   2.599   1.302  13.559 -3.0882 -1.0800  0.2751
 4122SOL    HW223829   2.512   1.356  13.674  0.9840 -0.5226  2.2953
 4123SOL     OW23830   1.896   2.893   1.628 -0.1840 -0.2855  1.1858
 4123SOL    HW123831   1.921   2.876   1.719  2.2182 -0.4173  0.5028
 4123SOL    HW223832   1.976   2.895   1.576  0.1802 -1.0673  1.7141
 4124SOL     OW23833   0.496   0.613   1.120  0.3567  0.4131 -0.2489
 4124SOL    HW123834   0.415   0.624   1.169 -0.0560 -0.1041 -0.8199
 4124SOL    HW223835   0.477   0.520   1.107  1.2634 -0.0132  1.4516
 4125SOL     OW23836   1.435   2.016  13.730 -0.2915 -0.0635  0.4755
 4125SOL    HW123837   1.518   1.969  13.717 -0.1128  0.2435  0.5112
 4125SOL    HW223838   1.463   2.107  13.717  0.2494 -0.4059 -0.8428
 4126SOL     OW23839   1.874   3.520   0.322  0.2146 -0.0976  0.0284
 4126SOL    HW123840   1.943   3.561   0.374 -0.0811 -0.9018  1.0339
 4126SOL    HW223841   1.798   3.576   0.335 -0.6774 -1.4598  0.6101
 4127SOL     OW23842   0.253   0.634   1.211  0.0049  0.6757  0.2794
 4127SOL    HW123843   0.189   0.564   1.198  1.0348 -0.2447  0.1548
 4127SOL    HW223844   0.193   0.709   1.210 -2.0175 -0.9684  1.3492
 4128SOL     OW23845   3.751   1.366   7.685 -0.2501 -0.0690 -0.3053
 4128SOL    HW123846   3.725   1.400   7.599  0.0558 -0.1427 -0.4250
 4128SOL    HW223847   3.750   1.453   7.724  0.1412  0.3951 -1.3259
 4129SOL     OW23848   0.653   3.323   8.443 -0.0122  0.3413  0.0695
 4129SOL    HW123849   0.722   3.257   8.442 -0.8535 -0.5454  0.4669
 4129SOL    HW223850   0.632   3.309   8.535 -3.3965 -1.7581 -1.0295
 4130SOL     OW23851   2.892   3.039   7.551  0.4751  0.3226  0.1933
 4130SOL    HW123852   2.961   2.998   7.499 -0.3757 -0.2564 -0.4732
 4130SOL    HW223853   2.813   2.995   7.519  0.3063 -0.0194  1.0938
 4131SOL     OW23854   0.840   1.472   3.724  0.0521  0.1420  0.2602
 4131SOL    HW123855   0.757   1.450   3.682  1.2133 -1.2735 -1.2832
 4131SOL    HW223856   0.883   1.387   3.731 -1.8586 -0.9676 -1.5556
 4132SOL     OW23857   0.983   2.363   9.844  0.3625 -0.3711  0.0347
 4132SOL    HW123858   0.946   2.443   9.882 -0.9856 -1.2592  0.5741
 4132SOL    HW223859   1.042   2.324   9.909  1.9129 -0.5476 -1.4870
 4133SOL     OW23860   0.126   4.631   8.320  0.4708 -0.2514  0.1934
 4133SOL    HW123861   0.152   4.593   8.404  0.0187  2.4850  1.5657
 4133SOL    HW223862   0.047   4.583   8.293 -1.1800  3.2851 -1.3068
 4134SOL     OW23863   0.314   2.183  11.051 -0.3753 -0.1000  0.1175
 4134SOL    HW123864   0.366   2.119  11.099 -2.3890 -1.3376  0.6131
 4134SOL    HW223865   0.242   2.206  11.109 -0.6699 -1.7028  0.3673
 4135SOL     OW23866   3.702   1.958  16.408  0.4001 -0.0805 -0.1631
 4135SOL    HW123867   3.664   1.889  16.354 -0.6899  0.2908  0.1163
 4135SOL    HW223868   3.796   1.956  16.391  0.2713  2.6934 -1.2028
 4136SOL     OW23869   4.493   2.509  10.816 -0.1713  0.2126 -0.1413
 4136SOL    HW123870   4.441   2.545  10.888  0.8590  3.0768 -0.7989
 4136SOL    HW223871   4.584   2.522  10.843  0.4722 -1.5312 -1.4379
 4137SOL     OW23872   3.246   1.417   5.628 -0.7754  0.4867  0.0614
 4137SOL    HW123873   3.282   1.474   5.695  4.8043 -1.9009 -0.8928
 4137SOL    HW223874   3.217   1.341   5.678 -0.5775  0.7428  0.5658
 4138SOL     OW23875   2.148   1.111   9.792 -0.1666 -0.4583  0.2836
 4138SOL    HW123876   2.193   1.170   9.731  0.7631 -2.0837 -0.5826
 4138SOL    HW223877   2.228   1.084   9.836  0.6739  1.5225 -0.0236
 4139SOL     OW23878   0.193   1.868   5.850  0.2001 -0.4760 -0.0977
 4139SOL    HW123879   0.259   1.800   5.864 -0.2641 -0.4783  2.0361
 4139SOL    HW223880   0.144   1.822   5.781 -0.7072 -0.1924  0.3536
 4140SOL     OW23881   0.054   0.333  11.709  0.3039  0.4996  0.4443
 4140SOL    HW123882   0.139   0.374  11.727  1.4391 -1.2286 -0.8499
 4140SOL    HW223883   0.012   0.356  11.792  0.6020  1.8872  0.2082
 4141SOL     OW23884   4.027   0.733   9.037 -0.4818 -0.2869 -0.6732
 4141SOL    HW123885   4.090   0.744   9.108 -1.2411  0.0916 -0.0516
 4141SOL    HW223886   4.085   0.726   8.962  0.4009 -1.5126  0.1322
 4142SOL     OW23887   2.600   2.950   3.002 -0.5428 -0.0003  0.2328
 4142SOL    HW123888   2.597   2.945   3.098  2.2778  2.8362  0.4639
 4142SOL    HW223889   2.689   2.984   2.991 -0.2403 -0.6411  0.7207
 4143SOL     OW23890   4.279   2.353   6.458 -0.5527 -0.2708 -1.0833
 4143SOL    HW123891   4.274   2.375   6.551 -0.2774 -1.0769 -0.8810
 4143SOL    HW223892   4.208   2.409   6.427  1.1580  2.2027 -0.4607
 4144SOL     OW23893   2.301   2.743   9.712 -0.1372  0.2500 -0.0555
 4144SOL    HW123894   2.353   2.693   9.649  0.8256  2.2921 -0.8726
 4144SOL    HW223895   2.369   2.790   9.760  0.0564  0.4420 -0.5206
 4145SOL     OW23896   0.049   0.869   0.136 -0.2503  0.2030  0.0217
 4145SOL    HW123897   0.000   0.931   0.191  0.6462  0.2899  0.7176
 4145SOL    HW223898   0.088   0.918   0.063  0.1162 -1.2113 -0.7378
 4146SOL     OW23899   1.569   1.471   2.384  0.7114 -0.0081  0.2355
 4146SOL    HW123900   1.576   1.554   2.336 -0.6477 -1.6582 -2.8261
 4146SOL    HW223901   1.549   1.420   2.306  0.1998  0.3872  0.1098
 4147SOL     OW23902   3.646   0.493  13.385  0.6089  0.7303 -0.5576
 4147SOL    HW123903   3.700   0.418  13.408 -0.7349 -0.0934 -0.1019
 4147SOL    HW223904   3.691   0.514  13.304 -1.9545  1.2519 -1.8572
 4148SOL     OW23905   4.536   1.437   7.052  0.4397  0.1336  0.0525
 4148SOL    HW123906   4.506   1.347   7.064  1.9611 -0.1411  1.8975
 4148SOL    HW223907   4.460   1.460   6.999 -1.1150 -0.4245  2.0271
 4149SOL     OW23908   3.469   3.779   5.358  0.2040  0.3449 -0.1171
 4149SOL    HW123909   3.432   3.746   5.276 -0.3372  1.5264 -0.3588
 4149SOL    HW223910   3.531   3.708   5.373  1.7477  1.6066 -0.4700
 4150SOL     OW23911   2.237   1.303  10.381  0.4800  0.1059 -0.3029
 4150SOL    HW123912   2.226   1.364  10.307 -0.5251 -1.6938 -1.6112
 4150SOL    HW223913   2.175   1.240  10.347 -0.4270  0.8352  0.0084
 4151SOL     OW23914   4.620   0.838   2.275 -0.5171 -0.0531  0.1971
 4151SOL    HW123915   4.543   0.822   2.220 -1.3121 -1.0632  1.6135
 4151SOL    HW223916   4.637   0.931   2.267 -0.1397 -0.1696 -0.3607
 4152SOL     OW23917   1.901   0.927   4.306 -0.2403  0.0299 -0.3966
 4152SOL    HW123918   1.986   0.884   4.303  0.9823  2.4010  0.0856
 4152SOL    HW223919   1.886   0.925   4.211 -2.0332  1.3557 -0.1570
 4153SOL     OW23920   3.219   2.783   7.369  0.7898  0.1610  0.5339
 4153SOL    HW123921   3.125   2.800   7.365  0.8733  1.3411  3.4792
 4153SOL    HW223922   3.225   2.709   7.430  1.3668  0.0951  0.3943
 4154SOL     OW23923   3.341   1.551   5.201  0.2688 -0.0516  0.1859
 4154SOL    HW123924   3.422   1.585   5.163 -1.2275  2.1940 -1.0188
 4154SOL    HW223925   3.278   1.568   5.131 -1.7614 -2.0039  1.5465
 4155SOL     OW23926   1.024   4.144   4.467  0.0041  0.0973 -0.7341
 4155SOL    HW123927   1.047   4.234   4.441 -0.5417  1.6553  4.1470
 4155SOL    HW223928   0.942   4.142   4.418 -0.5170  1.7146  0.0700
 4156SOL     OW23929   0.050   4.418   3.492  0.3173  0.9755  0.3282
 4156SOL    HW123930   4.701   4.407   3.554 -1.4070  2.6512 -1.3873
 4156SOL    HW223931   0.060   4.326   3.466 -2.3523  1.5917 -2.7073
 4157SOL     OW23932   1.692   1.811   2.640  0.1193 -0.2277 -0.1088
 4157SOL    HW123933   1.604   1.776   2.626 -0.4521  1.5436 -0.9294
 4157SOL    HW223934   1.739   1.801   2.557 -0.6382  1.1651 -0.6900
 4158SOL     OW23935   2.993   4.441   6.849  0.0855  0.5693 -0.0952
 4158SOL    HW123936   3.030   4.527   6.829  0.7505 -0.0026 -1.3136
 4158SOL    HW223937   2.910   4.463   6.806 -0.3898  1.3431  1.2197
 4159SOL     OW23938   4.629   1.234   1.759  0.2327 -0.2693  0.0438
 4159SOL    HW123939   4.630   1.248   1.664 -0.3337 -4.9071 -0.6571
 4159SOL    HW223940   4.586   1.149   1.771 -1.0147  0.3827  0.1292
 4160SOL     OW23941   1.755   2.220   6.713  0.3531 -0.1873  0.2003
 4160SOL    HW123942   1.810   2.270   6.774 -0.5120  1.9939 -0.7998
 4160SOL    HW223943   1.679   2.198   6.767  0.7652 -0.0118  0.8511
 4161SOL     OW23944   4.521   4.086   9.922  0.5090 -0.4723 -0.7578
 4161SOL    HW123945   4.466   4.064   9.997  0.0589 -0.1338 -0.9821
 4161SOL    HW223946   4.582   4.143   9.968 -1.4604  1.9129 -1.0907
 4162SOL     OW23947   3.886   1.040   6.873 -0.8067 -0.5741  0.2197
 4162SOL    HW123948   3.919   1.127   6.894  2.4627 -1.6482 -0.4574
 4162SOL    HW223949   3.802   1.037   6.920 -1.0869  2.4057 -0.1190
 4163SOL     OW23950   0.581   1.688   3.960 -1.0768  0.1568 -0.2600
 4163SOL    HW123951   0.554   1.598   3.975 -0.1822  0.1826  1.4288
 4163SOL    HW223952   0.587   1.690   3.864  0.3941 -0.1234 -0.1703
 4164SOL     OW23953   2.293   2.200   8.898  0.0102 -0.0502 -0.8626
 4164SOL    HW123954   2.217   2.156   8.861  0.1210 -1.3546  0.4929
 4164SOL    HW223955   2.366   2.141   8.878 -0.0279 -0.7094  0.9448
 4165SOL     OW23956   2.818   1.416   1.858  0.2728  0.1869  0.2424
 4165SOL    HW123957   2.742   1.467   1.884 -1.2470 -1.8600 -0.1379
 4165SOL    HW223958   2.878   1.446   1.926 -0.4093  1.6072  0.2260
 4166SOL     OW23959   1.330   0.992   3.828  0.6198 -0.0271  0.0712
 4166SOL    HW123960   1.398   1.048   3.866  0.1637  0.2842  0.4270
 4166SOL    HW223961   1.254   1.016   3.881  0.1760 -0.1213 -0.5389
 4167SOL     OW23962   2.969   4.428   2.377 -0.4266  0.3289 -0.5276
 4167SOL    HW123963   3.048   4.432   2.323  0.8585 -0.5182  1.2844
 4167SOL    HW223964   2.925   4.355   2.333 -0.2092 -0.7737  1.1099
 4168SOL     OW23965   3.694   0.707   2.970  0.3882  0.2086  0.5483
 4168SOL    HW123966   3.600   0.711   2.950  0.5784 -1.2729 -0.6010
 4168SOL    HW223967   3.721   0.682   2.882  0.4150  1.9720  0.0571
 4169SOL     OW23968   3.614   0.847  11.911  0.6437 -0.2766  0.5077
 4169SOL    HW123969   3.579   0.930  11.880 -1.2164 -1.3662 -0.2770
 4169SOL    HW223970   3.709   0.857  11.904  0.6471 -0.7290 -0.1077
 4170SOL     OW23971   2.052   4.639   6.518  0.5004  0.1339  0.2886
 4170SOL    HW123972   1.988   4.589   6.569 -0.7755 -0.5919 -2.0319
 4170SOL    HW223973   1.999   4.703   6.472  0.2979  0.4792  1.0021
 4171SOL     OW23974   4.678   1.469   5.147  0.2677 -0.2763  0.2238
 4171SOL    HW123975   4.695   1.493   5.056 -1.3184 -1.5181 -0.3985
 4171SOL    HW223976   4.705   1.378   5.164 -1.1052 -0.4327  1.5216
 4172SOL     OW23977   0.387   2.959   6.370 -0.3050 -0.0081  0.2142
 4172SOL    HW123978   0.369   2.903   6.446 -1.2600  1.0731  0.7741
 4172SOL    HW223979   0.300   2.981   6.336 -0.0994 -2.6369 -2.0123
 4173SOL     OW23980   0.590   3.957   7.662 -1.0642  0.1846  0.3839
 4173SOL    HW123981   0.552   3.872   7.640 -1.1104  0.2807  0.0989
 4173SOL    HW223982   0.600   3.993   7.574  0.6138 -3.2775 -0.8510
 4174SOL     OW23983   2.288   0.969   6.180  0.0523  0.1718  0.5280
 4174SOL    HW123984   2.257   0.894   6.130 -1.2698 -0.6120  2.5017
 4174SOL    HW223985   2.377   0.935   6.188  0.6843  1.2206 -2.2409
 4175SOL     OW23986   1.125   2.003   5.143 -0.2490 -0.3847 -0.6304
 4175SOL    HW123987   1.170   1.918   5.146 -2.2467 -1.4453 -0.8503
 4175SOL    HW223988   1.038   1.979   5.173  0.1880 -1.4345 -0.1843
 4176SOL     OW23989   0.672   1.519   6.572  0.2611 -0.0602  0.0027
 4176SOL    HW123990   0.641   1.580   6.640  2.5804 -0.5212  1.4602
 4176SOL    HW223991   0.604   1.452   6.583 -0.6986  0.8959 -0.0425
 4177SOL     OW23992   2.366   1.551   1.170 -0.3696  0.0449 -0.0375
 4177SOL    HW123993   2.297   1.484   1.170 -0.5122  0.1752  3.6805
 4177SOL    HW223994   2.441   1.501   1.202  1.3744  2.3423 -0.6094
 4178SOL     OW23995   3.097   2.724   5.463 -0.8872  0.0878  0.1195
 4178SOL    HW123996   3.135   2.811   5.479  2.2479 -0.6614 -3.2361
 4178SOL    HW223997   3.003   2.738   5.462 -1.2745 -2.7597 -0.9939
 4179SOL     OW23998   4.131   1.711   1.146  0.5045 -0.4900 -0.0678
 4179SOL    HW123999   4.156   1.803   1.151  4.2308 -1.4455 -1.3697
 4179SOL    HW224000   4.083   1.705   1.064  0.4576 -2.3511  0.0981
 4180SOL     OW24001   3.097   4.253   6.642 -0.1000 -0.2429  0.0293
 4180SOL    HW124002   3.019   4.288   6.599  0.3407  0.1734 -0.4242
 4180SOL    HW224003   3.102   4.296   6.728  0.4889  1.0314 -0.6480
 4181SOL     OW24004   2.169   2.337   8.491 -0.1690 -0.0545  0.0924
 4181SOL    HW124005   2.127   2.261   8.532  1.5503 -2.1942 -2.1934
 4181SOL    HW224006   2.209   2.288   8.419 -1.1133 -0.7450  0.0383
 4182SOL     OW24007   3.607   2.822   5.863  0.6553 -0.3508  0.1989
 4182SOL    HW124008   3.545   2.763   5.819  0.3190  0.2196 -0.0882
 4182SOL    HW224009   3.577   2.811   5.953 -1.5410  0.4357 -0.4519
 4183SOL     OW24010   1.456   2.587  16.154 -0.7062 -0.4035 -0.1300
 4183SOL    HW124011   1.425   2.583  16.063  0.7125 -2.3931 -0.5234
 4183SOL    HW224012   1.517   2.660  16.154  0.6059 -1.5428  4.3367
 4184SOL     OW24013   1.669   2.190   4.992 -0.1252 -0.2721  0.0571
 4184SOL    HW124014   1.728   2.126   4.952 -2.4109 -0.2349 -3.2760
 4184SOL    HW224015   1.589   2.158   4.951 -1.9760  1.5284  2.2362
 4185SOL     OW24016   3.801   1.112   5.783 -0.3414  0.3056  0.4788
 4185SOL    HW124017   3.831   1.041   5.839 -1.6029 -1.6063 -1.2470
 4185SOL    HW224018   3.709   1.120   5.805  0.0870  0.7660  2.0786
 4186SOL     OW24019   1.835   2.401   8.809  0.2452  0.0885  0.3194
 4186SOL    HW124020   1.911   2.415   8.865 -2.1532  0.5672  3.4587
 4186SOL    HW224021   1.832   2.307   8.822 -1.8075  0.3493  1.7022
 4187SOL     OW24022   0.853   0.802   9.700 -0.4242 -0.4608 -0.3710
 4187SOL    HW124023   0.830   0.713   9.727  0.6602 -0.3934  0.7398
 4187SOL    HW224024   0.925   0.814   9.762 -1.3408  0.5666  0.5014
 4188SOL     OW24025   0.641   3.032   6.432 -0.1182  0.1030 -0.3406
 4188SOL    HW124026   0.635   2.981   6.351 -0.1767  1.3842 -1.1420
 4188SOL    HW224027   0.549   3.031   6.459  0.1494  0.7217  0.5960
 4189SOL     OW24028   1.047   3.565   9.569 -0.7051  0.9025 -0.2175
 4189SOL    HW124029   0.969   3.567   9.625 -1.6173  1.0470 -1.5120
 4189SOL    HW224030   1.110   3.520   9.625 -1.3664 -1.7446 -1.5989
 4190SOL     OW24031   1.164   4.058   7.399  0.1914  0.3509  0.3723
 4190SOL    HW124032   1.249   4.015   7.395  0.5556  0.9765  1.4031
 4190SOL    HW224033   1.140   4.060   7.492  2.6953  0.3242  1.0066
 4191SOL     OW24034   0.525   0.141   7.770 -0.4100  0.4538  0.0147
 4191SOL    HW124035   0.524   0.072   7.703 -0.4121 -1.0567  1.5603
 4191SOL    HW224036   0.613   0.132   7.806 -0.3940  0.7828  0.0525
 4192SOL     OW24037   0.158   1.862  12.999  0.3090  0.5922  0.6224
 4192SOL    HW124038   0.093   1.818  13.053  1.5721 -0.3701  1.3650
 4192SOL    HW224039   0.170   1.794  12.932  1.0003  1.5569 -0.2280
 4193SOL     OW24040   3.936   3.764  11.018 -0.0567 -0.3473  0.8703
 4193SOL    HW124041   3.878   3.704  11.066  0.1404 -0.6749  0.7032
 4193SOL    HW224042   3.930   3.846  11.065  1.3973  0.7890 -0.9310
 4194SOL     OW24043   0.784   2.381   5.955  0.1637 -0.2845  0.2073
 4194SOL    HW124044   0.713   2.352   5.897  0.5038 -1.9973  0.6529
 4194SOL    HW224045   0.732   2.413   6.028 -0.8810 -1.0710 -0.1921
 4195SOL     OW24046   3.022   0.962   9.606  0.4833  0.4400 -0.0814
 4195SOL    HW124047   3.040   1.003   9.521  2.5664 -0.3121  0.0087
 4195SOL    HW224048   3.001   1.039   9.659  2.8887  1.7740 -1.0504
 4196SOL     OW24049   1.065   1.232   3.402  0.2350  0.0935 -0.3505
 4196SOL    HW124050   1.151   1.190   3.398  0.2472  0.0180  0.7763
 4196SOL    HW224051   1.030   1.208   3.316 -1.0636 -0.0679  0.2333
 4197SOL     OW24052   4.401   2.370   9.480 -0.8301 -0.6295 -0.0822
 4197SOL    HW124053   4.411   2.407   9.392 -2.6054  1.5800  0.6666
 4197SOL    HW224054   4.326   2.315   9.460  0.4651 -1.5846 -2.3479
 4198SOL     OW24055   2.780   2.538   7.089 -0.2262 -0.1011 -0.4751
 4198SOL    HW124056   2.845   2.468   7.085 -0.6760 -0.7152  2.9448
 4198SOL    HW224057   2.830   2.619   7.095 -0.6341 -0.0903  2.9954
 4199SOL     OW24058   0.593   1.301   0.246  0.2010 -0.4055  0.2224
 4199SOL    HW124059   0.571   1.340   0.331  1.2836  1.8979 -0.5599
 4199SOL    HW224060   0.504   1.283   0.215  0.1407  0.4392 -0.0983
 4200SOL     OW24061   0.902   0.408  14.492 -0.0562  0.5212  0.0461
 4200SOL    HW124062   0.900   0.491  14.443 -2.8519 -0.4057 -1.4422
 4200SOL    HW224063   0.820   0.422  14.540  0.6463 -0.5235  1.5402
 4201SOL     OW24064   4.588   3.626   9.580  0.4024  0.5523  0.0405
 4201SOL    HW124065   4.553   3.703   9.626  2.2721  2.0037 -0.9563
 4201SOL    HW224066   4.647   3.581   9.641 -1.5943 -0.7146  1.0578
 4202SOL     OW24067   1.258   3.776  14.662  0.6341 -0.3063  0.4072
 4202SOL    HW124068   1.240   3.869  14.669  2.9069  0.1292  0.5339
 4202SOL    HW224069   1.270   3.770  14.567 -1.1740  0.5638  0.1469
 4203SOL     OW24070   3.622   1.892   8.892 -0.9580  0.1117 -0.5065
 4203SOL    HW124071   3.609   1.834   8.817 -1.4584  1.3258 -1.3534
 4203SOL    HW224072   3.619   1.979   8.852  0.9335 -0.7249 -2.4551
 4204SOL     OW24073   4.363   0.941   4.758  0.3791  0.2745 -0.2619
 4204SOL    HW124074   4.282   0.991   4.750  0.8718  1.1947  0.6331
 4204SOL    HW224075   4.331   0.851   4.746  0.7436  0.3287 -1.6910
 4205SOL     OW24076   3.017   4.124   0.531  0.0801  0.4415 -0.3243
 4205SOL    HW124077   2.950   4.074   0.483 -1.4980  2.5654 -0.3203
 4205SOL    HW224078   3.030   4.075   0.612 -0.2412  0.0853 -0.4884
 4206SOL     OW24079   2.292   2.566   3.680  0.2594 -0.3189 -0.1694
 4206SOL    HW124080   2.244   2.487   3.653  1.1549 -1.6900  2.2539
 4206SOL    HW224081   2.360   2.521   3.730 -0.3340 -0.5396  0.4383
 4207SOL     OW24082   1.043   3.218   0.077 -0.5341  0.3419  0.4517
 4207SOL    HW124083   1.082   3.247   0.159  1.6342  0.1681 -0.5041
 4207SOL    HW224084   1.018   3.306   0.049 -0.3866  0.5634  1.0323
 4208SOL     OW24085   2.816   1.439   3.487  0.2987 -0.3316  0.1039
 4208SOL    HW124086   2.827   1.387   3.408 -0.7917  1.4124 -1.2039
 4208SOL    HW224087   2.728   1.406   3.506  0.5175 -0.8166  0.2732
 4209SOL     OW24088   2.636   0.226   2.397 -0.0189 -0.1807  0.4393
 4209SOL    HW124089   2.595   0.150   2.356 -2.1634  0.9976  0.4222
 4209SOL    HW224090   2.640   0.196   2.488 -1.3783  1.2127  0.9485
 4210SOL     OW24091   3.003   3.956   6.782  0.4392 -0.7696  0.1551
 4210SOL    HW124092   3.003   3.938   6.876 -1.6605  2.3575  0.7600
 4210SOL    HW224093   3.056   4.036   6.780 -0.2073 -0.3270  0.6664
 4211SOL     OW24094   3.402   1.811   3.204 -0.0311  0.4753  0.0039
 4211SOL    HW124095   3.409   1.716   3.194  0.5025  0.5118  0.0539
 4211SOL    HW224096   3.330   1.835   3.146  0.5336 -0.3844 -1.0506
 4212SOL     OW24097   2.979   0.308   0.414 -0.3110  0.4218  0.0038
 4212SOL    HW124098   2.893   0.289   0.376 -1.4615  2.1880  1.6996
 4212SOL    HW224099   2.961   0.308   0.508 -3.0648  0.4502 -0.5150
 4213SOL     OW24100   0.931   1.873  16.877  0.8792  0.1861 -0.1611
 4213SOL    HW124101   0.851   1.833  16.911  1.2025 -2.3245 -2.3823
 4213SOL    HW224102   0.897   1.957  16.846 -1.2698 -1.5358 -2.5231
 4214SOL     OW24103   0.604   4.416   7.572  0.1403  0.2756 -0.2831
 4214SOL    HW124104   0.674   4.361   7.607  0.7282  0.1118 -1.7566
 4214SOL    HW224105   0.564   4.369   7.500  0.7330 -0.2378 -0.2748
 4215SOL     OW24106   0.339   0.604  11.278 -0.6024  0.8898  0.6307
 4215SOL    HW124107   0.267   0.609  11.215 -0.9567  4.8529  1.3755
 4215SOL    HW224108   0.412   0.627  11.220 -0.5958  0.2981  0.4052
 4216SOL     OW24109   1.320   2.473   7.605 -0.3985  0.3506 -0.2021
 4216SOL    HW124110   1.245   2.479   7.664  0.6086  0.6556  1.0651
 4216SOL    HW224111   1.334   2.379   7.593 -0.3536  0.3008  0.2327
 4217SOL     OW24112   4.275   4.297   6.008 -0.3683  0.1486 -0.1540
 4217SOL    HW124113   4.348   4.270   5.952  0.9472  0.7273  1.2978
 4217SOL    HW224114   4.209   4.263   5.948 -1.1066 -0.1638  0.8368
 4218SOL     OW24115   2.671   1.132  16.595  0.5027  0.2002  0.2520
 4218SOL    HW124116   2.653   1.141  16.502 -0.2788  1.2619  0.4944
 4218SOL    HW224117   2.765   1.116  16.585  0.6720 -0.5680  3.1218
 4219SOL     OW24118   0.557   2.033   9.079  0.1814 -0.1771 -0.2433
 4219SOL    HW124119   0.518   2.114   9.112  0.9579 -0.7150  2.0170
 4219SOL    HW224120   0.584   1.985   9.157  0.5824 -0.0849 -0.3247
 4220SOL     OW24121   3.383   3.330   4.872  0.0945 -0.1688 -0.0446
 4220SOL    HW124122   3.454   3.369   4.923  0.7196 -1.1593 -0.1656
 4220SOL    HW224123   3.401   3.376   4.790 -1.4055  1.5979  0.6049
 4221SOL     OW24124   3.061   3.816   4.105  0.3769 -0.8258  0.4162
 4221SOL    HW124125   3.129   3.854   4.049 -1.9524  2.1750 -0.3436
 4221SOL    HW224126   3.080   3.722   4.113  0.4018 -1.0960 -2.9946
 4222SOL     OW24127   0.882   3.341   4.898  0.5837  0.1739  0.0724
 4222SOL    HW124128   0.854   3.430   4.876  0.8195  0.0959 -0.5341
 4222SOL    HW224129   0.975   3.346   4.876  0.4367 -1.1769 -0.8359
 4223SOL     OW24130   1.671   4.237   9.264 -0.0611  0.4348  0.0069
 4223SOL    HW124131   1.670   4.157   9.316 -2.4337 -0.1651 -0.9604
 4223SOL    HW224132   1.582   4.268   9.282 -0.1663  0.6317 -0.8242
 4224SOL     OW24133   4.562   2.317   8.904 -0.8052 -0.0961 -0.4033
 4224SOL    HW124134   4.630   2.261   8.940 -1.1123  0.9936  1.8504
 4224SOL    HW224135   4.484   2.262   8.909 -1.5618  0.7660 -2.3326
 4225SOL     OW24136   2.499   3.022  17.587  0.1794 -0.7261 -0.6376
 4225SOL    HW124137   2.505   3.070  17.670 -1.3581 -2.0536  0.2479
 4225SOL    HW224138   2.560   3.070  17.530 -0.0069  0.1605 -0.0829
 4226SOL     OW24139   0.801   2.763  11.982 -0.0731  0.4726 -0.3872
 4226SOL    HW124140   0.771   2.770  12.073  1.4724 -2.4919  0.3208
 4226SOL    HW224141   0.827   2.672  11.977 -0.4506  0.3583 -0.3030
 4227SOL     OW24142   2.334   1.440   8.097  0.1476  0.6498  0.3809
 4227SOL    HW124143   2.244   1.418   8.123  0.2204  0.8166  0.7776
 4227SOL    HW224144   2.325   1.534   8.110  0.7382  0.6794  0.5890
 4228SOL     OW24145   0.678   1.530  15.764  0.3044  0.3287  0.3997
 4228SOL    HW124146   0.635   1.594  15.820  0.7220  2.3233 -1.5575
 4228SOL    HW224147   0.747   1.583  15.722  0.7220 -1.2253 -0.9067
 4229SOL     OW24148   1.600   3.006   2.367 -0.2364 -0.3281  0.7120
 4229SOL    HW124149   1.625   3.079   2.311  2.2938 -1.4830  0.3208
 4229SOL    HW224150   1.585   2.950   2.291 -0.2674  0.3218  0.2354
 4230SOL     OW24151   1.075   1.823   7.235  0.0839 -0.1642 -0.3770
 4230SOL    HW124152   1.041   1.911   7.221  1.6495 -0.0707 -3.6486
 4230SOL    HW224153   1.000   1.765   7.249 -0.0812  0.3083  0.7163
 4231SOL     OW24154   0.690   0.670  16.129 -0.6672 -0.5090 -0.1944
 4231SOL    HW124155   0.664   0.757  16.097 -0.4393 -0.3444  0.0662
 4231SOL    HW224156   0.703   0.637  16.040 -0.7280 -0.1917 -0.3224
 4232SOL     OW24157   3.743   4.437   4.681 -0.4229  0.2952  0.5256
 4232SOL    HW124158   3.709   4.527   4.684  1.5015  1.0057  1.3496
 4232SOL    HW224159   3.795   4.440   4.601 -0.3868  1.4497  0.5940
 4233SOL     OW24160   1.241   4.722   2.694  1.0941 -0.4139 -0.0299
 4233SOL    HW124161   1.216   0.085   2.658 -1.7938  0.4835  4.1534
 4233SOL    HW224162   1.257   4.672   2.613 -1.3318 -0.0774 -0.7168
 4234SOL     OW24163   2.188   0.610  17.664 -0.1036 -0.0191 -0.1042
 4234SOL    HW124164   2.200   0.573   0.059  1.9045  0.5213 -0.1693
 4234SOL    HW224165   2.205   0.534  17.608  0.8487  1.0440 -1.2602
 4235SOL     OW24166   3.832   1.884   2.804  0.2977  0.4583  0.3804
 4235SOL    HW124167   3.830   1.788   2.809  0.4887  0.4506  0.3122
 4235SOL    HW224168   3.917   1.903   2.765 -1.1818  0.8883 -2.6141
 4236SOL     OW24169   2.498   4.291   3.077 -0.4920 -0.6704 -0.2043
 4236SOL    HW124170   2.489   4.322   3.167 -0.1000 -0.8492 -0.1062
 4236SOL    HW224171   2.483   4.365   3.019  1.1865  1.2012  1.7687
 4237SOL     OW24172   4.580   4.102   3.152 -0.2290 -0.3334 -0.0360
 4237SOL    HW124173   4.638   4.061   3.089  1.7916  1.3429  0.7362
 4237SOL    HW224174   4.550   4.182   3.109  1.5365  1.1726  1.5677
 4238SOL     OW24175   4.106   0.884   8.161 -1.1905  0.1424 -0.5874
 4238SOL    HW124176   4.037   0.909   8.223 -0.2365 -0.2397  0.6393
 4238SOL    HW224177   4.162   0.961   8.166 -1.5831  0.3992 -0.1411
 4239SOL     OW24178   2.919   1.848   8.837  0.2542 -0.1195 -0.0018
 4239SOL    HW124179   2.946   1.847   8.929 -0.3805 -1.1821  0.1748
 4239SOL    HW224180   2.895   1.755   8.833 -0.4269  0.0742 -0.3188
 4240SOL     OW24181   0.262   4.305   7.184  0.0718  0.1779  0.1391
 4240SOL    HW124182   0.224   4.223   7.150 -0.0474  0.5823 -0.7010
 4240SOL    HW224183   0.239   4.362   7.110  0.4493 -2.4154 -1.9815
 4241SOL     OW24184   4.713   4.557   3.278 -0.1518 -0.5713  0.2939
 4241SOL    HW124185   4.699   4.634   3.334  1.3251 -0.2088  0.1630
 4241SOL    HW224186   4.718   4.493   3.349 -2.2952 -2.2528 -1.0677
 4242SOL     OW24187   3.498   0.337   3.319  0.0765 -0.2298 -0.1724
 4242SOL    HW124188   3.569   0.346   3.256  0.5885  1.0346  0.5773
 4242SOL    HW224189   3.432   0.325   3.251 -1.5947  0.8979  1.2352
 4243SOL     OW24190   2.851   3.262   3.604  0.8672 -0.3395  0.1977
 4243SOL    HW124191   2.824   3.172   3.585 -0.6433  0.3097 -0.6966
 4243SOL    HW224192   2.781   3.292   3.662  1.3824  0.1373  0.5655
 4244SOL     OW24193   4.663   0.749   0.796 -0.5760 -0.2140  0.1219
 4244SOL    HW124194   4.608   0.793   0.861 -1.5749 -2.0760  0.5501
 4244SOL    HW224195   4.642   0.657   0.813 -0.7476 -0.3706 -0.8764
 4245SOL     OW24196   4.382   3.401   7.664  0.0707 -0.7012 -0.0973
 4245SOL    HW124197   4.287   3.405   7.673  0.4209  3.0983  1.9076
 4245SOL    HW224198   4.406   3.336   7.730 -0.0717  0.1941  0.8344
 4246SOL     OW24199   3.917   2.788   3.890  0.2192 -0.3397  0.1212
 4246SOL    HW124200   3.881   2.700   3.886  0.7721 -0.6200  1.2378
 4246SOL    HW224201   3.960   2.792   3.805 -0.8006  1.0940 -0.3192
 4247SOL     OW24202   4.601   1.681   7.808 -0.0652  0.0769  0.2556
 4247SOL    HW124203   4.635   1.672   7.719 -0.3496  0.8475  0.0750
 4247SOL    HW224204   4.670   1.658   7.870  1.3044  1.4270 -0.7872
 4248SOL     OW24205   1.397   0.604   6.511 -0.3642  0.0516 -0.1503
 4248SOL    HW124206   1.379   0.515   6.479 -0.0335 -0.2687  0.5376
 4248SOL    HW224207   1.378   0.653   6.431 -0.7246 -0.5150 -0.4142
 4249SOL     OW24208   1.725   1.820   8.426  0.0930 -0.0134  1.1642
 4249SOL    HW124209   1.710   1.900   8.476  0.7666  0.0523  1.2577
 4249SOL    HW224210   1.643   1.777   8.448 -0.6051  0.8116  0.1547
 4250SOL     OW24211   3.714   1.535   4.541  0.2017 -0.1999 -0.1052
 4250SOL    HW124212   3.663   1.455   4.554  0.4719 -0.0333  2.0422
 4250SOL    HW224213   3.731   1.532   4.447 -0.8008 -3.4565 -0.2024
 4251SOL     OW24214   0.875   4.318   8.070 -0.4726 -0.3608  0.1791
 4251SOL    HW124215   0.786   4.344   8.045 -0.4173  0.8408  1.1949
 4251SOL    HW224216   0.853   4.287   8.158  0.7878 -0.8929  0.3038
 4252SOL     OW24217   3.566   4.403   5.544  0.1277  0.1205  0.1391
 4252SOL    HW124218   3.582   4.418   5.451 -1.7284  0.7954 -0.0837
 4252SOL    HW224219   3.646   4.356   5.566 -0.6824 -1.6569 -0.6944
 4253SOL     OW24220   0.308   1.536  12.634  0.1246 -0.1230  0.0379
 4253SOL    HW124221   0.300   1.503  12.544  2.4568 -0.0934 -0.1665
 4253SOL    HW224222   0.345   1.623  12.623 -1.1639  0.2948 -0.9854
 4254SOL     OW24223   4.585   4.671   2.367  0.3634  0.0930 -0.0743
 4254SOL    HW124224   4.621   4.714   2.289 -0.2189 -2.9224 -2.0151
 4254SOL    HW224225   4.494   4.682   2.340 -0.1439 -0.0295  1.6064
 4255SOL     OW24226   0.812   3.737   3.351 -0.0945  0.5880  0.0156
 4255SOL    HW124227   0.799   3.790   3.430  1.2203  2.9224 -1.3137
 4255SOL    HW224228   0.898   3.704   3.375 -0.0815  1.6386  1.3980
 4256SOL     OW24229   3.717   0.723   6.373  0.2908  0.5405 -0.2472
 4256SOL    HW124230   3.806   0.687   6.375 -0.0658 -0.3363 -0.1320
 4256SOL    HW224231   3.683   0.681   6.294 -0.3898 -1.0088  0.8642
 4257SOL     OW24232   1.029   2.912  16.896  0.0968  0.9548 -0.5325
 4257SOL    HW124233   0.972   2.962  16.837 -2.5037  0.7014  1.7874
 4257SOL    HW224234   1.099   2.883  16.837  1.1088  0.9647  0.6688
 4258SOL     OW24235   2.694   1.032   8.158  0.1566 -0.3218 -0.1815
 4258SOL    HW124236   2.769   1.075   8.118 -0.7627  0.8749 -0.6215
 4258SOL    HW224237   2.696   0.944   8.120  0.4753 -0.7086  0.7232
 4259SOL     OW24238   4.053   3.013   6.228 -0.3097  0.5490  0.4181
 4259SOL    HW124239   4.011   3.092   6.262  1.1080  0.6574  1.8899
 4259SOL    HW224240   4.110   2.986   6.300  2.3741  0.5504 -1.7239
 4260SOL     OW24241   1.685   1.353   5.027 -0.1937 -0.6513  0.0630
 4260SOL    HW124242   1.605   1.301   5.019 -0.5510 -0.1161  0.1830
 4260SOL    HW224243   1.685   1.410   4.951  2.4895 -0.3001  0.3008
 4261SOL     OW24244   3.478   1.533   7.828  0.2385 -0.0884  0.5109
 4261SOL    HW124245   3.516   1.468   7.886 -1.4874 -2.5026 -1.0510
 4261SOL    HW224246   3.417   1.571   7.891 -2.4570 -0.0787 -2.0781
 4262SOL     OW24247   1.914   3.766  11.647 -0.5354 -0.2786 -0.3328
 4262SOL    HW124248   1.824   3.732  11.639 -0.3509 -0.2444 -2.3482
 4262SOL    HW224249   1.888   3.847  11.691 -0.6567 -0.0067 -0.9059
 4263SOL     OW24250   2.132   1.404  12.681 -0.0094  0.7285  0.0704
 4263SOL    HW124251   2.214   1.391  12.728  0.6599  0.6688 -1.1267
 4263SOL    HW224252   2.156   1.415  12.589  0.7047  0.4138  0.2206
 4264SOL     OW24253   3.248   0.201   2.268 -0.3268  0.6168 -0.0514
 4264SOL    HW124254   3.337   0.185   2.301 -0.6127  1.4156  1.1359
 4264SOL    HW224255   3.234   0.285   2.312  3.8821  0.8169  0.8869
 4265SOL     OW24256   3.596   1.019   4.685 -0.1283  0.0741  0.2721
 4265SOL    HW124257   3.655   0.945   4.675 -1.2888 -0.9063  0.6698
 4265SOL    HW224258   3.618   1.060   4.768 -1.7664  0.6954  0.4058
 4266SOL     OW24259   1.122   1.221   0.764 -0.4043 -0.1612  0.2593
 4266SOL    HW124260   1.172   1.139   0.768 -2.7398 -1.5409  1.0876
 4266SOL    HW224261   1.089   1.216   0.854 -0.3388  1.1221  0.3487
 4267SOL     OW24262   3.746   0.230   6.866 -0.6945  0.1869  0.5087
 4267SOL    HW124263   3.836   0.253   6.889 -0.8275 -0.1738  1.3766
 4267SOL    HW224264   3.738   0.165   6.935 -3.0758  1.2304  1.2178
 4268SOL     OW24265   2.941   2.465   5.769  0.0924 -0.0830 -0.3290
 4268SOL    HW124266   3.021   2.517   5.761  0.8399 -0.9022  1.9732
 4268SOL    HW224267   2.891   2.540   5.738 -1.7576 -1.3071 -0.2624
 4269SOL     OW24268   3.268   4.534   5.951 -0.6555  0.1135  0.0170
 4269SOL    HW124269   3.181   4.513   5.985 -0.7041  0.5303  0.1638
 4269SOL    HW224270   3.253   4.531   5.857 -2.0223 -1.1173  0.2920
 4270SOL     OW24271   1.995   0.021   3.576  0.4064 -0.1353 -0.1722
 4270SOL    HW124272   1.906   0.048   3.554  0.5090  0.3536 -0.0061
 4270SOL    HW224273   2.034   0.109   3.575 -0.0409  0.0652  1.1227
 4271SOL     OW24274   1.707   1.494   5.575 -0.0372  0.2039  0.2963
 4271SOL    HW124275   1.782   1.445   5.606  0.4415  1.0580  0.4866
 4271SOL    HW224276   1.680   1.432   5.508 -1.1376 -0.7147  1.5696
 4272SOL     OW24277   3.696   0.443   3.824 -0.9828 -0.0540 -0.1533
 4272SOL    HW124278   3.616   0.494   3.810  0.1981  1.6632 -0.6423
 4272SOL    HW224279   3.649   0.366   3.856 -3.1143  2.3568  2.5409
 4273SOL     OW24280   3.412   3.686   5.086 -0.4891 -0.7003  0.2212
 4273SOL    HW124281   3.386   3.773   5.056  1.7473  0.5410  1.8393
 4273SOL    HW224282   3.483   3.662   5.026 -1.3362 -2.0322 -0.2484
 4274SOL     OW24283   0.188   1.309  10.546 -0.1421  0.2491  0.4526
 4274SOL    HW124284   0.247   1.384  10.555 -1.2213  1.4551 -2.4823
 4274SOL    HW224285   0.253   1.239  10.554 -1.0474 -0.9920 -2.8056
 4275SOL     OW24286   3.845   3.966   0.589  0.3498  0.2289 -0.0833
 4275SOL    HW124287   3.792   3.999   0.516  0.4750  0.7454  0.0590
 4275SOL    HW224288   3.775   3.921   0.636  1.0731 -2.7962 -1.9275
 4276SOL     OW24289   3.384   2.225   4.554 -0.5615 -0.3126  0.2577
 4276SOL    HW124290   3.447   2.258   4.491 -0.1867 -0.0996  0.7469
 4276SOL    HW224291   3.326   2.300   4.566 -0.5830  0.0284 -2.0036
 4277SOL     OW24292   0.658   0.824   6.021 -0.4435 -0.1444  0.0179
 4277SOL    HW124293   0.645   0.824   6.115  3.5532 -0.8371  0.5728
 4277SOL    HW224294   0.682   0.916   6.006  1.0005 -0.4209  0.5871
 4278SOL     OW24295   0.167   1.612  12.879  0.5491  0.3587  0.2233
 4278SOL    HW124296   0.227   1.590  12.807 -1.2224  1.1974 -1.4805
 4278SOL    HW224297   0.188   1.545  12.944 -1.1652 -0.8619 -0.4864
 4279SOL     OW24298   0.290   0.560   8.131 -0.1117 -0.6003 -0.3486
 4279SOL    HW124299   0.305   0.465   8.124  0.8877 -0.4559 -0.2406
 4279SOL    HW224300   0.363   0.593   8.183 -0.5148 -2.2775  1.3150
 4280SOL     OW24301   4.054   0.337  13.598 -0.2845  0.0762  0.5823
 4280SOL    HW124302   4.004   0.268  13.643 -1.1358  0.1610 -0.2260
 4280SOL    HW224303   4.121   0.355  13.664  1.9813 -0.2956 -1.6209
 4281SOL     OW24304   2.277   1.352   2.546 -0.5781 -0.2805 -0.2026
 4281SOL    HW124305   2.222   1.403   2.605 -0.3366  1.4338 -1.4418
 4281SOL    HW224306   2.209   1.346   2.479 -2.5205 -0.6206  1.7925
 4282SOL     OW24307   3.387   0.249   4.596 -0.0517  0.0037 -0.2353
 4282SOL    HW124308   3.482   0.263   4.596  0.3861 -2.9166 -1.4252
 4282SOL    HW224309   3.356   0.296   4.673  0.2020 -0.8892  0.4155
 4283SOL     OW24310   2.056   2.245   4.685  0.1768  0.1551 -0.3443
 4283SOL    HW124311   2.117   2.315   4.662 -0.8018 -0.1184 -3.7348
 4283SOL    HW224312   2.005   2.231   4.605  1.2800  0.7679 -1.1531
 4284SOL     OW24313   0.550   3.864   3.347  0.4861  0.1530 -0.2737
 4284SOL    HW124314   0.615   3.826   3.407  1.9224  2.8138 -0.1361
 4284SOL    HW224315   0.602   3.843   3.270 -0.2669 -0.2178 -0.6754
 4285SOL     OW24316   3.975   1.193   2.340  0.0953 -0.4728 -0.2833
 4285SOL    HW124317   3.881   1.177   2.334  0.1837 -1.5292  1.1628
 4285SOL    HW224318   4.005   1.115   2.387 -0.9883 -1.5391 -1.3679
 4286SOL     OW24319   3.188   3.056   2.441  0.4291 -0.1009  0.2683
 4286SOL    HW124320   3.143   3.018   2.365  3.1220 -1.6717 -0.5683
 4286SOL    HW224321   3.217   3.137   2.399 -1.0091 -0.1325 -0.7871
 4287SOL     OW24322   0.308   2.220   4.487  0.0111 -0.0271  0.6175
 4287SOL    HW124323   0.300   2.291   4.551  0.0109  0.8604 -0.3720
 4287SOL    HW224324   0.365   2.150   4.519  0.1207 -0.3221 -0.2260
 4288SOL     OW24325   4.061   4.600   1.033 -0.0626 -0.2696 -0.3346
 4288SOL    HW124326   3.978   4.553   1.025  0.5439 -1.1146 -1.5396
 4288SOL    HW224327   4.119   4.529   1.008 -0.6593 -0.7623 -0.3170
 4289SOL     OW24328   1.839   1.958  10.787  0.2232  0.0115  0.6388
 4289SOL    HW124329   1.792   1.980  10.868 -2.8065  0.7727 -1.3492
 4289SOL    HW224330   1.772   1.905  10.744  0.6733  1.3007 -1.6582
 4290SOL     OW24331   0.004   1.893   1.232 -0.5111  0.5950  0.0932
 4290SOL    HW124332   0.060   1.942   1.173  1.5455  0.7343  2.1590
 4290SOL    HW224333   0.064   1.820   1.247  1.3468  1.8712 -1.0507
 4291SOL     OW24334   3.400   1.846   9.684  0.3679 -0.8950  0.0018
 4291SOL    HW124335   3.414   1.808   9.770  1.5843 -1.4058 -0.4281
 4291SOL    HW224336   3.398   1.942   9.692  0.7449 -0.6789 -2.3107
 4292SOL     OW24337   4.669   4.555   2.655 -0.4111 -0.1293  0.2059
 4292SOL    HW124338   4.606   4.536   2.724 -1.9022 -1.2910 -1.4600
 4292SOL    HW224339   4.611   4.555   2.579  0.5789 -0.1417 -0.5567
 4293SOL     OW24340   4.190   0.744   0.901  0.1700  0.1683  0.0568
 4293SOL    HW124341   4.193   0.812   0.969  1.2698  1.4780 -1.3254
 4293SOL    HW224342   4.280   0.733   0.872 -0.6552 -1.2761 -1.9644
 4294SOL     OW24343   4.062   1.494  13.027 -0.1710 -0.3663 -0.4491
 4294SOL    HW124344   4.149   1.463  13.001  0.5398 -0.5255  2.0449
 4294SOL    HW224345   4.023   1.464  12.945  0.5401  0.8293 -1.2158
 4295SOL     OW24346   3.433   3.322  13.374 -0.1959 -0.4806  0.1444
 4295SOL    HW124347   3.368   3.294  13.309 -0.2195 -1.1391  0.4545
 4295SOL    HW224348   3.376   3.357  13.442 -1.9174  0.4076 -1.7603
 4296SOL     OW24349   4.451   3.262   6.198  0.0126  0.4624  0.4215
 4296SOL    HW124350   4.371   3.262   6.145  0.7133  2.0344 -0.6210
 4296SOL    HW224351   4.422   3.303   6.280 -0.1153  1.5244 -0.1504
 4297SOL     OW24352   1.422   2.279   5.427 -0.5242  0.2677 -0.1431
 4297SOL    HW124353   1.358   2.333   5.381 -1.1453  0.4292  0.9125
 4297SOL    HW224354   1.502   2.331   5.423 -1.3976  1.6154  0.1543
 4298SOL     OW24355   3.645   1.095   5.425 -0.1258 -0.2733  0.0791
 4298SOL    HW124356   3.681   1.175   5.386 -0.8187 -0.1139 -0.2426
 4298SOL    HW224357   3.561   1.126   5.459  0.1418  1.5874 -0.9233
 4299SOL     OW24358   4.662   4.562   4.966  0.1538  0.0327  0.1264
 4299SOL    HW124359   4.636   4.647   5.002 -0.6930  1.1905 -3.2603
 4299SOL    HW224360   0.025   4.545   5.006  1.2020 -0.4242 -2.3294
 4300SOL     OW24361   2.430   4.216   8.360 -0.4774 -0.1987  0.7316
 4300SOL    HW124362   2.391   4.193   8.444  0.4249  0.0331  1.2091
 4300SOL    HW224363   2.468   4.304   8.370 -1.4625  0.1245  1.5958
 4301SOL     OW24364   0.806   0.006   7.471 -0.3970 -0.7632  0.6674
 4301SOL    HW124365   0.846   0.093   7.476 -1.7386  0.0013 -2.4530
 4301SOL    HW224366   0.865   4.670   7.518 -0.5667 -1.0681  0.4954
 4302SOL     OW24367   2.268   1.064  11.030 -0.2434  0.4620  0.2247
 4302SOL    HW124368   2.257   0.999  10.960 -1.8864  0.8601  0.1163
 4302SOL    HW224369   2.333   1.016  11.082  2.0603 -0.0281 -3.0834
 4303SOL     OW24370   3.009   3.365   3.367 -0.2240 -0.3571 -0.1161
 4303SOL    HW124371   2.954   3.337   3.440 -1.6659 -0.8921 -1.3783
 4303SOL    HW224372   2.979   3.455   3.353  1.5348  0.5434  2.0484
 4304SOL     OW24373   2.120   2.774   9.935 -0.0699 -0.0772 -0.3980
 4304SOL    HW124374   2.191   2.795   9.875  1.4067  2.3746  2.1845
 4304SOL    HW224375   2.126   2.678   9.928  2.2227  0.2961 -3.2015
 4305SOL     OW24376   0.280   0.934   4.895 -0.1656 -0.3864  0.4496
 4305SOL    HW124377   0.193   0.896   4.883  0.1325 -1.1822  0.8070
 4305SOL    HW224378   0.339   0.859   4.897  0.1561 -0.1394  0.2954
 4306SOL     OW24379   0.211   3.270  13.455 -0.0397 -0.0563 -0.3806
 4306SOL    HW124380   0.135   3.243  13.403 -2.4917 -0.1930  3.2155
 4306SOL    HW224381   0.278   3.272  13.387 -0.6782  0.9887 -0.9761
 4307SOL     OW24382   1.034   0.450   5.778 -0.2783  0.4559  0.1254
 4307SOL    HW124383   0.978   0.425   5.852 -0.4457  0.8833  0.1376
 4307SOL    HW224384   1.111   0.397   5.800 -2.0920 -1.1774  2.5330
 4308SOL     OW24385   1.762   0.617   5.484 -0.5420 -0.3593  0.1701
 4308SOL    HW124386   1.683   0.568   5.459  0.1660  0.7823 -4.3535
 4308SOL    HW224387   1.820   0.543   5.501  0.1492 -0.2831 -1.8133
 4309SOL     OW24388   0.802   4.512   5.303  0.2353  0.2287  0.2142
 4309SOL    HW124389   0.871   4.453   5.274  1.2531  0.4086  2.2452
 4309SOL    HW224390   0.732   4.492   5.241  1.2378 -0.6093 -0.6476
 4310SOL     OW24391   2.888   3.023   3.049  0.2177 -0.3137  0.6560
 4310SOL    HW124392   2.920   2.979   2.970  0.2785 -0.1395  0.5832
 4310SOL    HW224393   2.955   3.091   3.058  0.5448 -0.2916 -1.7020
 4311SOL     OW24394   3.006   0.039   5.993  0.0743 -0.2422  0.3703
 4311SOL    HW124395   2.988   4.690   6.054  1.1235 -2.1243 -1.5171
 4311SOL    HW224396   3.100   0.039   6.009  0.1317 -1.0759  0.0392
 4312SOL     OW24397   2.704   2.638   7.518 -0.3231  0.2346 -0.4547
 4312SOL    HW124398   2.611   2.659   7.507 -0.2012  0.9997 -0.0241
 4312SOL    HW224399   2.719   2.571   7.451 -3.0834 -0.0497 -0.8008
 4313SOL     OW24400   1.887   0.640  16.228  0.4004  0.3743  0.3907
 4313SOL    HW124401   1.882   0.605  16.139 -1.2077  0.7838  0.3202
 4313SOL    HW224402   1.855   0.729  16.214  1.1131  0.4258 -0.8751
 4314SOL     OW24403   0.683   0.523  17.209  0.1408  0.3826  0.0818
 4314SOL    HW124404   0.663   0.562  17.294  0.4871  1.4740 -0.3499
 4314SOL    HW224405   0.749   0.579  17.171  1.1199  0.7263  2.2894
 4315SOL     OW24406   2.438   3.495  12.925 -0.3763  0.3447  0.2243
 4315SOL    HW124407   2.444   3.509  12.830  0.2986  1.5496  0.4414
 4315SOL    HW224408   2.352   3.455  12.941 -1.3548  1.3545 -2.4196
 4316SOL     OW24409   0.709   1.463   9.152 -0.2634  0.1128  0.2722
 4316SOL    HW124410   0.766   1.401   9.105 -0.4641  1.1623 -1.3784
 4316SOL    HW224411   0.688   1.533   9.090 -0.9385  0.4943  0.9465
 4317SOL     OW24412   0.285   1.274  13.593  0.3626  0.4887 -0.0860
 4317SOL    HW124413   0.210   1.269  13.533  0.5024  1.5010 -0.3384
 4317SOL    HW224414   0.305   1.181  13.600 -0.2463  0.4215  0.7992
 4318SOL     OW24415   0.703   2.345   2.255  0.0909 -0.4559  0.4008
 4318SOL    HW124416   0.698   2.364   2.161  0.1953  2.6415  1.0483
 4318SOL    HW224417   0.656   2.417   2.296 -0.2798  1.4123 -3.2312
 4319SOL     OW24418   3.276   3.198   7.955 -0.7642  0.2386 -0.3769
 4319SOL    HW124419   3.182   3.220   7.955 -0.7554  0.1960  3.1192
 4319SOL    HW224420   3.310   3.268   7.898 -1.9278  2.4501  1.6469
 4320SOL     OW24421   3.962   4.548   4.286 -0.9702 -0.0690  0.0269
 4320SOL    HW124422   3.989   4.476   4.343 -2.6312 -0.2590  0.5897
 4320SOL    HW224423   3.979   4.622   4.344  2.2708  0.5757 -1.7330
 4321SOL     OW24424   4.649   0.286  15.478  0.4614  0.3274  0.2573
 4321SOL    HW124425   4.607   0.330  15.552  0.3177  1.8287 -0.7242
 4321SOL    HW224426   4.717   0.239  15.527  0.0021 -0.5048  0.0920
 4322SOL     OW24427   1.122   0.474   9.185 -0.1036  0.4792 -0.0648
 4322SOL    HW124428   1.036   0.497   9.150 -0.6220 -2.1326 -0.5297
 4322SOL    HW224429   1.131   0.379   9.172 -0.9677  0.4358 -0.3429
 4323SOL     OW24430   0.860   2.180  12.304 -0.1588 -0.1069 -0.1160
 4323SOL    HW124431   0.775   2.201  12.264 -0.5916 -0.4137  0.6381
 4323SOL    HW224432   0.899   2.123  12.238 -0.6357 -0.2078 -0.3123
 4324SOL     OW24433   4.058   1.481   7.101 -0.4787 -0.2204  0.3352
 4324SOL    HW124434   3.964   1.494   7.089 -0.3694  1.1189  0.9913
 4324SOL    HW224435   4.071   1.407   7.161 -2.4726 -0.8330  0.0090
 4325SOL     OW24436   0.734   3.528   2.697  0.3886 -0.1660 -0.3370
 4325SOL    HW124437   0.743   3.619   2.668 -0.7814 -0.1990 -0.8170
 4325SOL    HW224438   0.742   3.479   2.615 -0.6704 -0.8113 -0.0618
 4326SOL     OW24439   0.296   3.898   5.412  0.1309  0.3976  0.4019
 4326SOL    HW124440   0.277   3.874   5.502 -0.4473 -1.8616 -0.3430
 4326SOL    HW224441   0.364   3.832   5.398  1.9131  2.4652 -0.7638
 4327SOL     OW24442   3.081   1.324   7.931 -0.3105 -0.1152 -0.4494
 4327SOL    HW124443   3.055   1.310   7.840 -3.7988  1.1987  0.3693
 4327SOL    HW224444   3.029   1.404   7.935  0.6173  0.4603  0.1730
 4328SOL     OW24445   2.273   3.511   8.068  0.0535  0.2125  0.2185
 4328SOL    HW124446   2.297   3.600   8.043  0.3919 -0.3227 -1.3241
 4328SOL    HW224447   2.360   3.494   8.105  0.6154  1.8788 -0.3448
 4329SOL     OW24448   0.759   1.888   3.347 -0.5488 -0.2335 -0.1704
 4329SOL    HW124449   0.810   1.877   3.267 -0.3490 -0.3937 -0.0217
 4329SOL    HW224450   0.683   1.928   3.307 -0.3982  0.4158  0.2008
 4330SOL     OW24451   0.403   3.766   6.867 -0.5046 -0.4629 -0.2363
 4330SOL    HW124452   0.431   3.850   6.904 -2.8617  0.3804 -0.3560
 4330SOL    HW224453   0.448   3.784   6.784  0.3501  1.1685  0.5909
 4331SOL     OW24454   1.813   0.529   8.120  0.2553 -0.0366 -0.2994
 4331SOL    HW124455   1.874   0.470   8.164 -0.1466  0.1861  0.5684
 4331SOL    HW224456   1.734   0.477   8.106 -0.3664  0.6910  0.4659
 4332SOL     OW24457   1.707   1.220  15.066 -0.3860  0.1878 -0.3100
 4332SOL    HW124458   1.784   1.248  15.116 -0.5591  0.6952 -0.3267
 4332SOL    HW224459   1.716   1.127  15.086  3.2921  0.5532 -0.3564
 4333SOL     OW24460   2.890   4.377   6.536  0.1846 -0.2807 -0.1426
 4333SOL    HW124461   2.828   4.407   6.603 -0.0872  0.9565 -0.9343
 4333SOL    HW224462   2.922   4.458   6.496 -0.6227  0.6516  1.0718
 4334SOL     OW24463   4.179   0.486  14.044 -0.1907  0.1393  0.4333
 4334SOL    HW124464   4.244   0.539  14.090  0.5455  1.2027 -1.8372
 4334SOL    HW224465   4.239   0.441  13.984 -0.7835  0.6599 -0.5597
 4335SOL     OW24466   3.477   0.104  15.602 -0.5054  0.1701  0.3187
 4335SOL    HW124467   3.393   0.140  15.630 -1.5043 -0.5926 -1.6975
 4335SOL    HW224468   3.525   0.184  15.622 -0.2420 -0.5138  2.4133
 4336SOL     OW24469   2.250   1.839   9.021 -0.0283  0.4832  0.1437
 4336SOL    HW124470   2.314   1.768   9.034  1.2399  2.0047  2.3221
 4336SOL    HW224471   2.246   1.825   8.927 -0.9127  1.8589 -0.0032
 4337SOL     OW24472   3.629   4.047   7.485 -0.3358 -0.0933 -0.1689
 4337SOL    HW124473   3.723   4.037   7.472 -0.2064  0.2259  0.4816
 4337SOL    HW224474   3.619   4.132   7.442 -1.3814 -0.5929 -0.9088
 4338SOL     OW24475   3.441   3.576   3.371  0.0956  0.1358  0.2915
 4338SOL    HW124476   3.393   3.494   3.357  0.3162  0.5224 -2.8313
 4338SOL    HW224477   3.419   3.622   3.290 -0.8372  1.3575  1.2420
 4339SOL     OW24478   0.716   1.029  15.303 -0.7597  0.2682  0.2287
 4339SOL    HW124479   0.748   0.940  15.292 -0.8330  0.0285  1.9976
 4339SOL    HW224480   0.781   1.078  15.252  0.0294 -1.2869 -0.2531
 4340SOL     OW24481   3.362   1.919  17.557 -1.0725 -0.3437 -0.0806
 4340SOL    HW124482   3.316   1.984  17.609 -0.4951  1.6686 -2.0889
 4340SOL    HW224483   3.448   1.960  17.547 -0.7643 -0.6959  1.1227
 4341SOL     OW24484   0.991   4.422   2.623  0.1869 -0.3173  0.4610
 4341SOL    HW124485   0.943   4.505   2.619  1.4798  0.5146  2.2735
 4341SOL    HW224486   0.975   4.400   2.715  0.8210 -1.0568  0.3908
 4342SOL     OW24487   4.652   4.248  17.587  0.2396 -0.5761  0.0449
 4342SOL    HW124488   4.571   4.298  17.586 -0.0809 -1.0926  0.9213
 4342SOL    HW224489   4.633   4.197  17.508 -2.7823 -0.6376  0.8066
 4343SOL     OW24490   4.301   4.318   8.394  0.7822  0.5397 -0.5676
 4343SOL    HW124491   4.394   4.340   8.405  0.0461  3.6723 -0.8333
 4343SOL    HW224492   4.261   4.401   8.419  1.2139  0.2594  1.1044
 4344SOL     OW24493   2.859   3.845   2.069  0.3633 -0.1003  0.7346
 4344SOL    HW124494   2.925   3.912   2.051 -1.3225  1.9015  2.0141
 4344SOL    HW224495   2.887   3.772   2.014  1.0224  1.7355 -1.3749
 4345SOL     OW24496   0.816   1.799  15.096 -0.2127  0.4225  0.5480
 4345SOL    HW124497   0.859   1.714  15.093  1.8022  1.4062  2.1472
 4345SOL    HW224498   0.895   1.851  15.083 -0.5282  0.2678 -2.0977
 4346SOL     OW24499   0.819   2.797   1.931 -0.0837 -0.1298 -0.0946
 4346SOL    HW124500   0.830   2.718   1.878 -0.4491  0.6370 -1.3095
 4346SOL    HW224501   0.907   2.836   1.926  0.8855 -2.4593 -1.8413
 4347SOL     OW24502   4.377   0.688   1.561 -0.3239 -0.3716 -0.4553
 4347SOL    HW124503   4.378   0.742   1.640  0.2551  0.8058 -1.2545
 4347SOL    HW224504   4.384   0.599   1.595  0.7696 -1.1891 -2.8724
 4348SOL     OW24505   0.159   1.705   5.178  0.2117  0.5341 -0.0760
 4348SOL    HW124506   0.102   1.629   5.193  1.4075  0.0197  1.8746
 4348SOL    HW224507   0.104   1.770   5.133 -0.2179 -1.0483 -1.8380
 4349SOL     OW24508   0.004   2.587  10.093  0.9493 -0.3206  0.2743
 4349SOL    HW124509   0.025   2.672  10.130 -0.6285  0.0048  0.3973
 4349SOL    HW224510   4.653   2.569  10.151 -0.0133  1.6071 -0.3360
 4350SOL     OW24511   3.188   2.183   7.889 -0.4977 -0.8143 -0.2065
 4350SOL    HW124512   3.099   2.192   7.921 -0.2078  1.3330 -0.0314
 4350SOL    HW224513   3.235   2.252   7.936  0.1377  0.8093 -3.2718
 4351SOL     OW24514   1.057   2.839  17.142 -0.6857 -0.4163  0.2492
 4351SOL    HW124515   1.038   2.897  17.068  0.6873  1.0268  1.0301
 4351SOL    HW224516   1.114   2.772  17.104  1.0276 -0.3276  2.6189
 4352SOL     OW24517   4.211   1.599  15.074  0.0223  0.8665  0.2556
 4352SOL    HW124518   4.273   1.658  15.116 -1.1365  2.1037  0.2195
 4352SOL    HW224519   4.248   1.514  15.100  0.9432  1.1957  0.0048
 4353SOL     OW24520   3.747   1.307   5.309 -0.0490 -0.0849 -0.1651
 4353SOL    HW124521   3.811   1.269   5.249 -0.5831 -0.5448 -0.4433
 4353SOL    HW224522   3.771   1.398   5.289 -1.2797  0.1966 -0.4017
 4354SOL     OW24523   4.284   1.712   7.661  0.5567 -0.3376  0.0323
 4354SOL    HW124524   4.333   1.631   7.654 -0.1853 -0.8022  0.1781
 4354SOL    HW224525   4.226   1.701   7.586 -0.4582 -0.5349  0.8388
 4355SOL     OW24526   0.550   1.718   8.391  0.9189  0.0177 -0.4602
 4355SOL    HW124527   0.572   1.810   8.400 -1.5722  0.4555  0.9745
 4355SOL    HW224528   0.620   1.697   8.328  1.1607  0.1110 -0.2195
 4356SOL     OW24529   3.875   1.261  15.588  0.7490  0.1499 -0.1633
 4356SOL    HW124530   3.885   1.303  15.673  1.4479  2.3685 -1.3391
 4356SOL    HW224531   3.906   1.175  15.614  1.6793  0.8467  1.0425
 4357SOL     OW24532   4.518   3.234   4.989  0.1199 -0.0953  0.9974
 4357SOL    HW124533   4.439   3.206   5.036 -0.5082  0.4964  0.2872
 4357SOL    HW224534   4.585   3.235   5.058  1.1477 -0.7490  0.0108
 4358SOL     OW24535   3.621   2.441   4.925 -0.2242 -0.1665  0.0435
 4358SOL    HW124536   3.567   2.371   4.887 -1.2425  1.1876 -0.9976
 4358SOL    HW224537   3.576   2.443   5.009 -2.1010  4.0305 -1.0759
 4359SOL     OW24538   1.471   1.086   7.259 -0.1151 -0.1907 -0.0200
 4359SOL    HW124539   1.380   1.056   7.249 -0.1311 -0.8489  2.1063
 4359SOL    HW224540   1.517   1.015   7.304  0.4661 -0.7117 -1.4609
 4360SOL     OW24541   0.016   0.314   2.881  0.5764  0.2840  0.1447
 4360SOL    HW124542   0.096   0.312   2.828  3.3905  0.4834  4.4037
 4360SOL    HW224543   0.054   0.334   2.967  0.1714 -1.3904  0.7140
 4361SOL     OW24544   0.845   2.566  16.888 -0.0576  0.2768  0.0832
 4361SOL    HW124545   0.913   2.517  16.842  0.1867  0.9942 -0.3294
 4361SOL    HW224546   0.771   2.536  16.837 -0.4374  1.3392  0.0008
 4362SOL     OW24547   1.439   1.816   0.537 -0.2271 -0.5425  0.6288
 4362SOL    HW124548   1.464   1.906   0.561  0.2126 -0.7024  0.7586
 4362SOL    HW224549   1.399   1.818   0.450  1.6379  0.7615 -0.2049
 4363SOL     OW24550   3.940   2.565   8.820  0.6412 -0.5677  0.1525
 4363SOL    HW124551   3.858   2.549   8.867 -0.3317  1.7173 -0.7580
 4363SOL    HW224552   3.931   2.660   8.817 -0.3289 -0.6832 -0.7985
 4364SOL     OW24553   4.225   3.297   1.057  0.3821 -0.2136  0.1262
 4364SOL    HW124554   4.250   3.260   0.973 -0.1793  0.9757 -0.5554
 4364SOL    HW224555   4.248   3.223   1.113 -1.8100  0.9810  2.6761
 4365SOL     OW24556   4.550   0.265   6.609 -0.2148  0.3924 -0.7568
 4365SOL    HW124557   4.628   0.278   6.663  0.9921  0.9824 -2.6166
 4365SOL    HW224558   4.555   0.346   6.558  1.4628  0.6102 -0.2453
 4366SOL     OW24559   1.034   4.470   6.488 -0.0069  0.0199 -0.1219
 4366SOL    HW124560   1.122   4.506   6.480 -0.5288  1.3283 -0.0055
 4366SOL    HW224561   0.995   4.534   6.549 -0.5762  0.2463 -0.7197
 4367SOL     OW24562   0.212   2.662   6.583 -0.4116 -0.2876  0.2591
 4367SOL    HW124563   0.242   2.730   6.643 -1.4906 -1.1649  1.7914
 4367SOL    HW224564   0.201   2.593   6.649 -3.7547 -0.9087 -0.9156
 4368SOL     OW24565   2.007   2.769   0.517  0.1780 -0.4895 -0.6156
 4368SOL    HW124566   2.043   2.756   0.429  0.7847  3.6457 -0.9712
 4368SOL    HW224567   1.940   2.832   0.492  0.8271  0.6781  0.5944
 4369SOL     OW24568   1.291   1.587   2.222 -0.3603 -0.6433 -0.4421
 4369SOL    HW124569   1.222   1.523   2.207 -0.1184 -0.7441 -1.1392
 4369SOL    HW224570   1.358   1.536   2.268  0.7212  0.0216 -1.2719
 4370SOL     OW24571   0.940   3.073   6.856  0.0059  0.2778  0.4290
 4370SOL    HW124572   0.929   3.163   6.885  3.2453  0.8401 -0.0574
 4370SOL    HW224573   0.846   3.053   6.862  0.2457 -1.9795 -2.8842
 4371SOL     OW24574   0.101   3.369  15.572 -0.4308 -0.0518 -0.4670
 4371SOL    HW124575   0.084   3.322  15.653 -2.1976  2.5127  0.6596
 4371SOL    HW224576   0.195   3.388  15.577 -0.5195  0.3674 -0.3920
 4372SOL     OW24577   0.429   0.193  10.452 -0.0990 -0.1093 -0.1078
 4372SOL    HW124578   0.516   0.201  10.412 -1.1158 -0.7536 -2.4952
 4372SOL    HW224579   0.389   0.129  10.393  1.9423  0.0491 -1.6458
 4373SOL     OW24580   2.902   1.131   8.003 -0.3706 -0.1198  0.2203
 4373SOL    HW124581   2.978   1.184   7.980  0.1373 -1.0883 -0.3409
 4373SOL    HW224582   2.882   1.095   7.917 -0.0315 -1.1622  0.5828
 4374SOL     OW24583   3.628   0.375   8.123 -0.1069 -0.8404 -0.3088
 4374SOL    HW124584   3.671   0.448   8.168  1.8282 -2.6768  0.8501
 4374SOL    HW224585   3.689   0.354   8.053 -2.1430  1.3734 -2.7392
 4375SOL     OW24586   1.013   0.683  16.830 -0.0142  0.0173 -0.7576
 4375SOL    HW124587   1.041   0.606  16.879 -1.2121  0.3347  0.4125
 4375SOL    HW224588   1.001   0.648  16.742  0.6447  0.6418 -1.1033
 4376SOL     OW24589   0.611   3.328  11.741 -0.2398  0.2285 -0.3684
 4376SOL    HW124590   0.570   3.411  11.718  1.5186  0.2907 -3.2758
 4376SOL    HW224591   0.540   3.268  11.716  0.1645  0.3319 -1.7464
 4377SOL     OW24592   4.241   2.073   3.725 -0.0971  0.0148  0.0537
 4377SOL    HW124593   4.300   2.044   3.794 -1.4576  0.1512  1.2888
 4377SOL    HW224594   4.292   2.129   3.667 -1.5693 -0.8943 -2.1243
 4378SOL     OW24595   2.580   2.213   8.084  0.3500  0.2393 -0.4543
 4378SOL    HW124596   2.641   2.279   8.051 -0.5384  1.7402  0.9151
 4378SOL    HW224597   2.644   2.142   8.091  0.8760  0.8781  1.0958
 4379SOL     OW24598   2.546   1.406   3.544  0.2745 -0.0165  0.0965
 4379SOL    HW124599   2.455   1.401   3.513 -0.0404 -1.8028  1.3664
 4379SOL    HW224600   2.533   1.433   3.635  2.9841 -0.6434  0.6417
 4380SOL     OW24601   4.084   2.720  16.976  0.0298  0.2501  0.1343
 4380SOL    HW124602   4.054   2.711  17.067  0.3293  0.6453  0.2691
 4380SOL    HW224603   3.996   2.733  16.942 -0.5523 -2.5931  0.5135
 4381SOL     OW24604   0.416   2.682   4.307  0.1842 -0.7133 -0.3762
 4381SOL    HW124605   0.458   2.596   4.311  1.7971  0.0617 -0.4123
 4381SOL    HW224606   0.321   2.672   4.300 -0.0776  0.0774  2.0008
 4382SOL     OW24607   0.743   3.586   8.175 -0.1728 -0.1608  0.5260
 4382SOL    HW124608   0.750   3.612   8.267  0.8295 -0.2307  0.4724
 4382SOL    HW224609   0.671   3.524   8.174 -0.6423  0.4330 -1.0963
 4383SOL     OW24610   0.032   3.678   1.497 -0.4653  0.2562  0.5597
 4383SOL    HW124611   0.098   3.747   1.504 -1.3606  1.0539  1.1454
 4383SOL    HW224612   0.068   3.629   1.423  0.4092  0.1583  1.0498
 4384SOL     OW24613   1.721   3.470   5.566  0.1402  0.5740 -0.2954
 4384SOL    HW124614   1.753   3.458   5.477 -0.0413  4.2976 -0.8520
 4384SOL    HW224615   1.686   3.383   5.585 -0.9525  1.5907  2.2794
 4385SOL     OW24616   1.288   2.977   9.463 -0.0053  0.5740 -0.3719
 4385SOL    HW124617   1.358   3.032   9.429 -0.8573  2.4480  0.9560
 4385SOL    HW224618   1.276   3.031   9.541  1.5842 -0.4872  0.6216
 4386SOL     OW24619   3.959   4.152   6.567 -0.3760  0.1323 -0.3646
 4386SOL    HW124620   3.973   4.164   6.473  2.1630 -0.9772 -0.1247
 4386SOL    HW224621   3.944   4.243   6.592  0.5667  0.3052 -0.4396
 4387SOL     OW24622   3.056   2.536   4.835  0.4487  0.5437 -0.1677
 4387SOL    HW124623   2.968   2.509   4.861  0.6445 -1.3665 -1.5330
 4387SOL    HW224624   3.100   2.468   4.885  2.6834  0.7859 -1.8196
 4388SOL     OW24625   2.013   2.912   5.833 -0.5521 -0.0033 -0.1114
 4388SOL    HW124626   2.008   2.823   5.868  0.7051  0.2850  0.8141
 4388SOL    HW224627   2.090   2.915   5.777  0.5266 -1.1324  1.3104
 4389SOL     OW24628   0.538   1.637   2.313 -0.0494 -0.5444  0.1933
 4389SOL    HW124629   0.551   1.565   2.374 -0.4865 -0.6093  0.2157
 4389SOL    HW224630   0.600   1.615   2.244  0.8782  0.2917  0.7618
 4390SOL     OW24631   4.108   1.489   7.858 -0.2982  0.1598  0.4060
 4390SOL    HW124632   4.020   1.503   7.892 -1.1280  1.8189 -2.3940
 4390SOL    HW224633   4.117   1.583   7.841 -0.1228  0.0970  0.1434
 4391SOL     OW24634   3.576   3.471   6.484  0.1149 -0.4952 -0.5850
 4391SOL    HW124635   3.578   3.463   6.579  3.1731 -3.2723 -0.9163
 4391SOL    HW224636   3.514   3.544   6.472  0.4384 -0.0235  0.6279
 4392SOL     OW24637   3.930   4.106   8.324  0.3778 -0.0404 -0.3265
 4392SOL    HW124638   3.894   4.131   8.409  0.1129 -0.4227 -0.3268
 4392SOL    HW224639   3.890   4.175   8.271 -0.3832 -0.4200 -0.2452
 4393SOL     OW24640   0.309   1.264   3.768 -0.5292 -0.9055  0.0693
 4393SOL    HW124641   0.346   1.186   3.810  0.3675 -0.9485 -0.7881
 4393SOL    HW224642   0.228   1.219   3.743 -0.5009  0.0947 -1.8694
 4394SOL     OW24643   4.524   1.844  12.190  0.1282  0.1676 -0.0707
 4394SOL    HW124644   4.439   1.806  12.212  1.1244 -1.4112  1.0939
 4394SOL    HW224645   4.584   1.777  12.223 -0.8399  0.1446  1.6034
 4395SOL     OW24646   4.292   1.910   3.483  0.0388 -0.2568  0.7481
 4395SOL    HW124647   4.277   1.902   3.578  2.3536 -2.3291  0.9516
 4395SOL    HW224648   4.208   1.880   3.448  0.6168  0.3616 -1.1497
 4396SOL     OW24649   3.645   0.607   5.232  0.2156 -0.4921 -0.2014
 4396SOL    HW124650   3.669   0.570   5.316  0.2481  0.5483  0.2430
 4396SOL    HW224651   3.628   0.523   5.189  2.2308 -0.7682 -0.4512
 4397SOL     OW24652   4.440   3.607   4.346  0.8679  0.4140 -0.0696
 4397SOL    HW124653   4.505   3.557   4.298  1.4171 -1.7291  2.9068
 4397SOL    HW224654   4.460   3.581   4.436 -2.1367 -1.2719  0.1177
 4398SOL     OW24655   1.189   2.847   6.420 -0.1789 -0.4903  0.1262
 4398SOL    HW124656   1.212   2.902   6.495 -1.1077  1.3295 -0.9376
 4398SOL    HW224657   1.094   2.859   6.415  0.0817  2.1237  1.6286
 4399SOL     OW24658   0.158   0.857   4.566 -0.3220  0.5328  0.1656
 4399SOL    HW124659   0.195   0.941   4.540 -0.8311  0.7170  0.0359
 4399SOL    HW224660   0.090   0.851   4.499 -0.9720  1.9843  0.6856
 4400SOL     OW24661   2.915   1.355   4.754  0.5861  0.3563  0.2271
 4400SOL    HW124662   2.938   1.446   4.776  2.0821 -0.2560  1.1726
 4400SOL    HW224663   2.922   1.356   4.658 -2.4538 -0.9307 -0.0041
 4401SOL     OW24664   4.228   0.092   1.028 -0.0220  0.5285  0.2756
 4401SOL    HW124665   4.179   0.013   1.053  1.8981 -0.3755  1.1776
 4401SOL    HW224666   4.312   0.087   1.073  0.1369 -0.4010 -0.1058
 4402SOL     OW24667   0.638   1.111   6.075 -0.0182 -0.4378  0.7081
 4402SOL    HW124668   0.676   1.167   6.008 -2.4870  0.1700 -0.1698
 4402SOL    HW224669   0.557   1.080   6.035 -0.6409  1.1952  0.7040
 4403SOL     OW24670   4.225   0.590   6.636 -0.0719  0.2881 -0.2649
 4403SOL    HW124671   4.219   0.610   6.543  2.5937 -0.9972 -0.7196
 4403SOL    HW224672   4.149   0.532   6.637 -0.8124  1.2793  1.9600
 4404SOL     OW24673   2.852   4.121   8.001  0.1727  0.0298 -0.2221
 4404SOL    HW124674   2.834   4.053   8.066  0.2584  0.0228 -0.2058
 4404SOL    HW224675   2.897   4.063   7.939 -1.4193 -1.3561 -0.0884
 4405SOL     OW24676   0.795   3.823   1.755 -0.2046 -0.0205 -0.1532
 4405SOL    HW124677   0.877   3.872   1.749 -1.0067  1.2570 -0.5283
 4405SOL    HW224678   0.764   3.824   1.665 -1.8315  0.2803  0.4114
 4406SOL     OW24679   3.710   3.667   7.152 -0.3728 -0.1452 -0.2019
 4406SOL    HW124680   3.726   3.620   7.070  1.1574  0.5285 -0.2945
 4406SOL    HW224681   3.625   3.626   7.170  0.0623 -0.1529  1.8092
 4407SOL     OW24682   0.456   2.083  12.001 -0.2559 -0.4955  0.2662
 4407SOL    HW124683   0.364   2.078  11.974 -0.3925 -0.6085  0.7681
 4407SOL    HW224684   0.482   1.991  12.007 -2.0531 -1.1350 -1.6765
 4408SOL     OW24685   1.981   4.046   1.621 -0.2699  0.0425 -0.0691
 4408SOL    HW124686   2.014   4.123   1.667  0.0110  0.8599 -1.6304
 4408SOL    HW224687   1.886   4.041   1.636 -0.0297 -0.0864  1.3926
 4409SOL     OW24688   2.186   4.381   8.158  0.3574  0.0489 -0.1521
 4409SOL    HW124689   2.271   4.397   8.198 -1.0598  1.9339  2.1709
 4409SOL    HW224690   2.134   4.440   8.212 -2.1412 -0.6785 -1.7410
 4410SOL     OW24691   1.121   4.184   6.918  0.4143 -0.1658  0.9931
 4410SOL    HW124692   1.179   4.125   6.966 -2.3990 -0.3131  4.1608
 4410SOL    HW224693   1.094   4.234   6.994 -0.0449  0.1346  0.6314
 4411SOL     OW24694   1.053   1.634  15.787 -0.1556  0.3843  0.7249
 4411SOL    HW124695   1.091   1.609  15.703 -2.8460 -0.5416 -0.2241
 4411SOL    HW224696   1.035   1.546  15.821 -1.0755  0.2073 -0.2251
 4412SOL     OW24697   3.757   4.158   1.230 -0.0891  0.2915 -0.0041
 4412SOL    HW124698   3.846   4.192   1.232 -0.2003  0.3987  2.8825
 4412SOL    HW224699   3.765   4.069   1.193 -0.6654  0.4789 -0.5906
 4413SOL     OW24700   2.334   0.055   8.926  0.1476 -0.6445 -0.3812
 4413SOL    HW124701   2.304   0.133   8.878 -3.0157 -1.7170 -0.1648
 4413SOL    HW224702   2.275   0.069   9.000 -1.9222  3.1804 -2.7241
 4414SOL     OW24703   2.307   3.922   3.887  0.4762  0.2638 -0.0547
 4414SOL    HW124704   2.276   3.843   3.931  1.5511  2.0982  3.9572
 4414SOL    HW224705   2.282   3.909   3.796 -0.4322  0.4260  0.1732
 4415SOL     OW24706   3.515   2.457   2.185 -0.3626  0.0405 -0.1228
 4415SOL    HW124707   3.518   2.365   2.159  1.0576  0.5615 -1.8579
 4415SOL    HW224708   3.451   2.453   2.256 -2.7777 -0.3139 -2.3322
 4416SOL     OW24709   2.687   0.034   6.581 -0.6109 -0.3525 -0.2320
 4416SOL    HW124710   2.737   0.115   6.593  0.5130 -1.2896  1.4800
 4416SOL    HW224711   2.609   0.071   6.540  0.7926 -0.1145 -2.7079
 4417SOL     OW24712   4.684   3.656  17.511 -0.1509 -0.2046 -0.0087
 4417SOL    HW124713   4.602   3.651  17.560 -1.5250  1.8530 -2.1033
 4417SOL    HW224714   4.674   3.748  17.487 -1.5995 -0.0297  1.2497
 4418SOL     OW24715   2.847   2.667  16.505 -0.2653 -0.4861 -0.4762
 4418SOL    HW124716   2.791   2.674  16.428  0.0290 -0.4535 -0.6893
 4418SOL    HW224717   2.940   2.683  16.488 -0.2305  0.6134  0.7522
 4419SOL     OW24718   2.138   4.109   4.986  0.1991 -0.3737  0.4236
 4419SOL    HW124719   2.194   4.088   5.062  2.9641 -0.0680 -1.5388
 4419SOL    HW224720   2.200   4.168   4.943  0.0714 -1.9242 -1.8761
 4420SOL     OW24721   1.126   4.152   2.646 -0.3548  0.0375 -0.1464
 4420SOL    HW124722   1.047   4.158   2.699 -0.9815 -0.8141 -0.9977
 4420SOL    HW224723   1.121   4.228   2.589  3.2416  1.1191  0.9736
 4421SOL     OW24724   4.416   2.222   1.514 -0.1721 -0.1517 -0.8065
 4421SOL    HW124725   4.397   2.133   1.543  1.3108  0.4109  1.9413
 4421SOL    HW224726   4.489   2.209   1.453 -0.5958  1.1227 -1.5753
 4422SOL     OW24727   2.232   3.257   3.903  0.4944 -0.8872  0.5688
 4422SOL    HW124728   2.146   3.285   3.935  0.6656  1.3744 -0.9002
 4422SOL    HW224729   2.210   3.215   3.820 -2.2076  1.0764  0.2885
 4423SOL     OW24730   2.822   1.521   7.058 -0.0175 -0.1485 -0.3888
 4423SOL    HW124731   2.756   1.553   6.997  0.9074  0.9737 -0.8052
 4423SOL    HW224732   2.906   1.518   7.011  0.5682  1.0926  0.5932
 4424SOL     OW24733   0.769   1.347   4.327 -0.3134 -0.0224  0.5693
 4424SOL    HW124734   0.697   1.391   4.372  1.5026  1.2019  2.3024
 4424SOL    HW224735   0.776   1.393   4.243  0.7639 -0.8720  0.1979
 4425SOL     OW24736   1.631   3.124   2.079 -0.2149  0.0382  0.1564
 4425SOL    HW124737   1.604   3.176   2.004 -1.8850  0.3470  0.9817
 4425SOL    HW224738   1.650   3.040   2.038 -0.7649  0.7134 -1.4678
 4426SOL     OW24739   3.794   2.839  13.456 -0.4434  0.4110  0.0354
 4426SOL    HW124740   3.706   2.857  13.489 -0.3170 -0.2324  0.7137
 4426SOL    HW224741   3.784   2.848  13.361  1.0183  1.0333 -0.0593
 4427SOL     OW24742   4.686   0.494   2.574  0.3680  0.5561 -0.0651
 4427SOL    HW124743   0.059   0.492   2.584  0.1224 -2.2843  1.6080
 4427SOL    HW224744   4.661   0.503   2.666  1.8579  2.2599  0.1861
 4428SOL     OW24745   1.350   4.547   1.798 -0.2126 -0.2925 -0.2021
 4428SOL    HW124746   1.293   4.564   1.722 -0.4725  0.9651  0.2734
 4428SOL    HW224747   1.398   4.628   1.814  1.8336 -1.2027 -1.6639
 4429SOL     OW24748   1.272   3.700   0.091  0.0714 -0.4033 -0.1626
 4429SOL    HW124749   1.324   3.690   0.011 -0.5867 -1.4706 -0.4692
 4429SOL    HW224750   1.330   3.676   0.163  1.9312  0.3220 -1.4239
 4430SOL     OW24751   3.553   4.593  13.249 -0.5112 -0.3997  0.2077
 4430SOL    HW124752   3.470   4.625  13.282  0.4408  0.8253  1.4257
 4430SOL    HW224753   3.528   4.502  13.233  2.4127 -0.9680 -1.1620
 4431SOL     OW24754   1.392   0.989  17.328  0.4459 -0.2679 -0.7102
 4431SOL    HW124755   1.296   0.987  17.335  0.5668  0.1112  1.0794
 4431SOL    HW224756   1.410   0.899  17.302 -1.5706 -0.8377 -0.0984
 4432SOL     OW24757   4.256   0.500  14.619  0.6897 -0.7138  0.5415
 4432SOL    HW124758   4.278   0.534  14.705  0.5964  1.1264 -0.1466
 4432SOL    HW224759   4.216   0.583  14.591 -1.7309 -1.5381  1.6324
 4433SOL     OW24760   1.598   4.665   5.807  0.0484  0.3648  0.1002
 4433SOL    HW124761   1.601   4.657   5.712 -1.1566 -2.7932  0.3409
 4433SOL    HW224762   1.537   4.593   5.825  3.0665 -2.4364 -0.7693
 4434SOL     OW24763   4.681   2.762  15.662  0.1923  0.8890  1.0582
 4434SOL    HW124764   4.683   2.815  15.741 -1.5219  0.6883  1.2418
 4434SOL    HW224765   4.589   2.734  15.667 -0.5034  2.9851  0.3695
 4435SOL     OW24766   0.036   2.049  12.429 -0.1318  0.5471 -0.2613
 4435SOL    HW124767   0.011   2.131  12.472 -0.3032  0.7140 -0.6732
 4435SOL    HW224768   0.002   1.978  12.483  1.5907  1.3177  1.8159
 4436SOL     OW24769   4.370   4.058   5.629 -0.2138 -0.2049  0.5599
 4436SOL    HW124770   4.275   4.045   5.630 -0.2185 -0.2076  0.3060
 4436SOL    HW224771   4.371   4.072   5.534 -0.3344 -1.3275  0.3916
 4437SOL     OW24772   0.436   1.293   2.472 -0.3161 -0.4912  0.1930
 4437SOL    HW124773   0.522   1.308   2.433  0.1197 -0.2620  1.2428
 4437SOL    HW224774   0.399   1.262   2.389  0.0266  2.8455 -1.2163
 4438SOL     OW24775   3.236   3.911  10.643  0.0346 -0.1786  0.5732
 4438SOL    HW124776   3.307   3.891  10.704  0.5884 -4.3753 -1.3871
 4438SOL    HW224777   3.254   3.994  10.598  0.7160  0.5179  2.1506
 4439SOL     OW24778   2.449   1.045   2.606  0.3035 -0.4210 -0.3128
 4439SOL    HW124779   2.406   1.043   2.521  0.0697 -0.6931 -0.1898
 4439SOL    HW224780   2.533   1.017   2.568  0.0165 -0.3739 -0.9913
 4440SOL     OW24781   1.740   4.583  14.436  0.0567 -0.7766 -0.1386
 4440SOL    HW124782   1.673   4.645  14.407  0.2296 -0.6212 -0.2050
 4440SOL    HW224783   1.798   4.639  14.488 -2.2474 -0.7290  2.4080
 4441SOL     OW24784   3.599   3.370   7.401  0.0559  0.1426  0.3414
 4441SOL    HW124785   3.564   3.404   7.319 -0.9798 -0.0715  0.6935
 4441SOL    HW224786   3.595   3.275   7.391 -0.1858  0.0076  1.7110
 4442SOL     OW24787   0.367   2.060   0.595 -0.6017 -0.0084  0.6261
 4442SOL    HW124788   0.298   2.035   0.657 -2.1696 -1.5051 -1.7637
 4442SOL    HW224789   0.395   1.977   0.558 -0.4542  1.1237 -1.8182
 4443SOL     OW24790   2.355   3.448   5.445 -0.1525  0.0896 -0.6476
 4443SOL    HW124791   2.291   3.463   5.514  1.3867  0.4281  0.7032
 4443SOL    HW224792   2.415   3.392   5.494 -2.2975 -2.7286 -1.2469
 4444SOL     OW24793   1.040   3.910   5.240  0.2983  0.2825  0.2409
 4444SOL    HW124794   1.013   3.854   5.167  3.4613  0.6839 -1.2311
 4444SOL    HW224795   1.129   3.926   5.211  1.6138 -0.7852  3.7054
 4445SOL     OW24796   1.175   0.293   6.368  0.3760 -0.5629  0.5649
 4445SOL    HW124797   1.149   0.229   6.302  1.0634  0.2455 -0.5012
 4445SOL    HW224798   1.091   0.335   6.385  0.4598  0.2523 -1.0176
 4446SOL     OW24799   4.173   2.466   5.336  0.5441  0.0492 -0.2047
 4446SOL    HW124800   4.214   2.547   5.306 -0.1093  0.5020  0.1174
 4446SOL    HW224801   4.170   2.480   5.431 -0.6746 -1.2300 -0.0531
 4447SOL     OW24802   0.395   3.018   7.693  0.2718  0.3211 -0.2426
 4447SOL    HW124803   0.342   2.939   7.707 -0.6580  0.5804 -2.2640
 4447SOL    HW224804   0.425   3.015   7.602  0.9466 -1.1677  0.0329
 4448SOL     OW24805   0.628   3.972  12.471  0.0460 -0.2717 -0.0821
 4448SOL    HW124806   0.657   3.882  12.479  1.0522  0.3554  3.4033
 4448SOL    HW224807   0.587   3.973  12.385  1.8314 -1.0293 -0.9320
 4449SOL     OW24808   0.560   3.086   4.495  0.2560 -0.3142 -0.4415
 4449SOL    HW124809   0.606   3.008   4.464  0.8417 -0.0895 -0.1489
 4449SOL    HW224810   0.559   3.079   4.591  1.1938 -0.5799 -0.4484
 4450SOL     OW24811   1.766   4.498   3.643 -0.1346  0.4575 -0.4591
 4450SOL    HW124812   1.728   4.411   3.652 -1.1649  0.8767 -0.7406
 4450SOL    HW224813   1.802   4.506   3.731 -1.0680 -2.5400  0.2029
 4451SOL     OW24814   1.933   0.807  12.194  0.4411  0.0161  0.0607
 4451SOL    HW124815   1.949   0.725  12.241 -0.1081 -0.1958 -0.1288
 4451SOL    HW224816   1.844   0.821  12.227 -0.0228 -3.4374  0.3028
 4452SOL     OW24817   2.879   2.997   4.709  0.4691  0.1813 -0.4951
 4452SOL    HW124818   2.937   2.939   4.759  0.6393  0.1325 -0.7485
 4452SOL    HW224819   2.816   2.935   4.671  1.9287 -1.4339 -0.3189
 4453SOL     OW24820   3.955   2.215   6.607 -0.2598  0.3028 -0.0939
 4453SOL    HW124821   3.959   2.125   6.575 -1.6194 -0.1897  1.1269
 4453SOL    HW224822   3.930   2.256   6.524 -1.0544  1.3745  0.6746
 4454SOL     OW24823   2.224   2.385   8.009 -0.0712  0.3837 -0.2196
 4454SOL    HW124824   2.259   2.409   7.923  2.7720 -1.7153  0.3474
 4454SOL    HW224825   2.144   2.437   8.009 -1.5038 -1.8622 -2.4828
 4455SOL     OW24826   3.367   0.189  10.005 -0.2111 -0.0047  0.0347
 4455SOL    HW124827   3.436   0.189   9.939  1.1325  1.0735  1.4613
 4455SOL    HW224828   3.353   0.094  10.005 -0.5295  0.0361 -0.6886
 4456SOL     OW24829   1.841   0.524  14.732 -0.2289 -0.0616 -0.5851
 4456SOL    HW124830   1.844   0.568  14.648 -1.2791 -2.1180 -1.7039
 4456SOL    HW224831   1.791   0.446  14.710  1.5146 -2.0070  2.2900
 4457SOL     OW24832   0.832   1.697   8.295 -0.5905  0.1010 -0.3285
 4457SOL    HW124833   0.863   1.731   8.379  0.4743 -0.3316 -0.5463
 4457SOL    HW224834   0.867   1.608   8.300 -2.6002 -0.7818 -2.0928
 4458SOL     OW24835   2.241   4.226   3.259 -0.2558 -0.5574  0.2445
 4458SOL    HW124836   2.325   4.269   3.275  0.1909 -1.5249  0.4750
 4458SOL    HW224837   2.211   4.197   3.345 -1.7029  2.1418  0.6426
 4459SOL     OW24838   1.086   0.321   4.887  0.2976 -0.1861 -0.2827
 4459SOL    HW124839   1.124   0.397   4.843  0.4726 -0.9596 -1.4751
 4459SOL    HW224840   1.093   0.255   4.818 -1.0091  1.8852 -2.3806
 4460SOL     OW24841   0.300   3.764  15.528 -0.0925 -0.1520  0.4073
 4460SOL    HW124842   0.252   3.721  15.457  0.2988  0.3719 -0.1837
 4460SOL    HW224843   0.246   3.748  15.605  0.1279 -0.9931  0.3879
 4461SOL     OW24844   4.417   3.914   2.906 -0.3596  1.0401  0.4129
 4461SOL    HW124845   4.395   3.879   2.992  0.8472 -2.7462 -0.8339
 4461SOL    HW224846   4.497   3.869   2.881 -1.1720  0.0551 -0.4200
 4462SOL     OW24847   3.581   2.603   9.228  0.1114 -0.2016 -0.2320
 4462SOL    HW124848   3.664   2.568   9.260 -0.5643  0.6302  2.4281
 4462SOL    HW224849   3.523   2.574   9.298  1.9333  2.0580  2.1996
 4463SOL     OW24850   0.856   0.107   8.418 -0.4371 -0.1830  0.1840
 4463SOL    HW124851   0.942   0.069   8.437  1.0688  1.9041 -2.3092
 4463SOL    HW224852   0.858   0.174   8.486  2.3575  0.0505 -0.1325
 4464SOL     OW24853   1.096   2.581   6.759 -0.0419  0.3793 -0.3426
 4464SOL    HW124854   1.161   2.622   6.815  2.2374 -1.7714 -1.4021
 4464SOL    HW224855   1.014   2.594   6.807 -0.6850 -3.4284 -0.4683
 4465SOL     OW24856   0.563   2.537   3.808 -1.1341 -0.0734 -0.9024
 4465SOL    HW124857   0.558   2.572   3.719  0.1399  1.3702 -0.4062
 4465SOL    HW224858   0.627   2.467   3.800 -0.4279  0.3679  0.9097
 4466SOL     OW24859   1.467   0.337   4.231 -0.1460  0.1646 -0.3719
 4466SOL    HW124860   1.491   0.379   4.149  0.3564 -0.0823 -0.3473
 4466SOL    HW224861   1.496   0.400   4.298 -0.4311 -2.3127  2.0644
 4467SOL     OW24862   3.834   2.585   7.499  0.1619  0.1406 -0.2392
 4467SOL    HW124863   3.821   2.491   7.484  1.8956  0.1297 -1.7085
 4467SOL    HW224864   3.884   2.578   7.581 -0.2406 -0.9852 -0.0884
 4468SOL     OW24865   3.151   0.595   6.360  0.0569 -0.5650  1.4507
 4468SOL    HW124866   3.224   0.637   6.406 -0.9330  0.1785  2.3683
 4468SOL    HW224867   3.127   0.524   6.420 -0.0881 -0.5111  1.4577
 4469SOL     OW24868   3.616   2.487   3.500  0.4464  0.0546 -0.1459
 4469SOL    HW124869   3.577   2.419   3.554  0.8426 -0.6504 -0.7464
 4469SOL    HW224870   3.653   2.437   3.426  0.9085 -2.2278  1.6409
 4470SOL     OW24871   4.048   3.124   3.590 -0.3753 -0.0611 -0.0145
 4470SOL    HW124872   4.073   3.041   3.630  1.6033 -0.9457 -3.0250
 4470SOL    HW224873   4.051   3.188   3.660  2.4572  0.9255 -1.0322
 4471SOL     OW24874   2.888   0.575   6.472  0.1799  0.1920 -0.4043
 4471SOL    HW124875   2.939   0.651   6.441  0.5591  0.1327  0.0714
 4471SOL    HW224876   2.806   0.575   6.422 -0.7404 -1.3104  1.1366
 4472SOL     OW24877   2.322   0.643   7.310 -0.5975 -0.2875 -0.1509
 4472SOL    HW124878   2.353   0.555   7.330 -0.4241 -0.1388  0.2309
 4472SOL    HW224879   2.361   0.650   7.223  0.8098  2.2678  0.6835
 4473SOL     OW24880   4.394   1.920   5.143  0.0495 -0.6707 -0.4542
 4473SOL    HW124881   4.318   1.906   5.199 -1.2098 -1.3949 -2.3485
 4473SOL    HW224882   4.351   1.965   5.070  0.6362  1.1255  0.2986
 4474SOL     OW24883   0.810   0.551   8.412  0.2338 -1.2924 -0.3996
 4474SOL    HW124884   0.866   0.475   8.432 -0.2256 -1.5371 -0.0503
 4474SOL    HW224885   0.825   0.571   8.320 -2.1744  0.0723 -0.4714
 4475SOL     OW24886   0.127   4.038  16.562  0.0954 -0.1893  0.0704
 4475SOL    HW124887   0.161   4.023  16.473 -1.2405 -1.3610 -0.2431
 4475SOL    HW224888   0.034   4.015  16.556 -0.3543  1.3184  1.3915
 4476SOL     OW24889   3.589   1.838   1.621 -0.1131  0.1515  0.5428
 4476SOL    HW124890   3.594   1.891   1.701 -0.2035  1.4766 -0.3325
 4476SOL    HW224891   3.628   1.754   1.647 -0.6034 -0.6048 -1.1588
 4477SOL     OW24892   4.109   2.825   5.901  0.0534 -0.0079 -0.2944
 4477SOL    HW124893   4.074   2.897   5.953 -0.8527 -2.1224  2.0286
 4477SOL    HW224894   4.091   2.864   5.815 -1.5995  0.6190  0.3308
 4478SOL     OW24895   0.197   3.148  16.827 -0.1419 -0.4868  0.2350
 4478SOL    HW124896   0.230   3.186  16.746 -0.1045 -0.0861  0.4424
 4478SOL    HW224897   0.103   3.140  16.810 -0.2242 -1.0887  0.9676
 4479SOL     OW24898   0.962   3.459   8.110  0.2004  0.3257 -0.6952
 4479SOL    HW124899   1.008   3.526   8.058 -0.7617  0.1151 -1.8088
 4479SOL    HW224900   0.880   3.507   8.119  0.6597  0.9401  0.1501
 4480SOL     OW24901   0.629   1.353  10.321  0.2655  0.4932 -0.4727
 4480SOL    HW124902   0.547   1.303  10.326  0.4836  0.1675 -0.1029
 4480SOL    HW224903   0.600   1.431  10.273 -0.4672  0.3429 -0.2702
 4481SOL     OW24904   3.411   4.717   7.936 -0.2061  0.0016  0.2684
 4481SOL    HW124905   3.389   4.692   8.026 -1.7037 -0.6631 -0.2768
 4481SOL    HW224906   3.331   0.002   7.884 -0.6628  0.1286  0.9743
 4482SOL     OW24907   1.614   4.710  16.496  0.1077  0.4921 -0.2546
 4482SOL    HW124908   1.605   4.645  16.426  1.6177  0.6325 -0.5767
 4482SOL    HW224909   1.702   4.700  16.533  0.7406 -0.1518 -1.9418
 4483SOL     OW24910   2.909   3.485   8.410 -0.9782 -0.2557  0.2575
 4483SOL    HW124911   2.975   3.544   8.446 -1.5506  0.0607  0.7850
 4483SOL    HW224912   2.845   3.509   8.477 -2.2264 -1.6576 -0.4219
 4484SOL     OW24913   4.155   2.286   4.855  0.1738 -0.0163 -0.1437
 4484SOL    HW124914   4.096   2.236   4.798 -0.8951 -0.3723  1.2960
 4484SOL    HW224915   4.220   2.219   4.878  0.2256  0.1824  0.2889
 4485SOL     OW24916   4.392   4.364   2.496  0.3347 -0.0163  0.1917
 4485SOL    HW124917   4.335   4.439   2.514  1.0808  0.8067 -0.9024
 4485SOL    HW224918   4.336   4.292   2.527  0.6484 -0.0257  0.7299
 4486SOL     OW24919   3.481   4.244   7.827 -0.0980 -0.5069 -0.4644
 4486SOL    HW124920   3.555   4.292   7.791  0.1475  0.4630  1.3368
 4486SOL    HW224921   3.438   4.295   7.895  1.6150  0.1148  0.1417
 4487SOL     OW24922   2.167   2.377   6.458 -0.3305  0.0226 -0.4821
 4487SOL    HW124923   2.234   2.341   6.400 -0.1349  0.8202 -0.7415
 4487SOL    HW224924   2.129   2.295   6.490  2.8491 -1.6436 -1.0095
 4488SOL     OW24925   2.558   3.095  11.794  0.4819 -0.5047  0.0170
 4488SOL    HW124926   2.511   3.063  11.870  0.7224 -2.0044 -0.4608
 4488SOL    HW224927   2.620   3.159  11.828 -0.7756  1.0388 -0.5655
 4489SOL     OW24928   3.485   3.430   6.744 -0.1182 -0.5670  0.1846
 4489SOL    HW124929   3.395   3.447   6.716  0.3409 -0.4914 -1.2551
 4489SOL    HW224930   3.483   3.341   6.778  2.0266 -0.8977 -0.5525
 4490SOL     OW24931   0.351   1.307   6.160  0.5379 -0.6130  0.2173
 4490SOL    HW124932   0.411   1.244   6.201  0.4084  0.2997  1.8448
 4490SOL    HW224933   0.394   1.391   6.179 -2.4837  1.2130 -1.1638
 4491SOL     OW24934   2.561   0.896   5.356  0.0546  0.2611  0.0454
 4491SOL    HW124935   2.515   0.972   5.392  0.3179  0.7174 -0.5901
 4491SOL    HW224936   2.643   0.910   5.402  0.4266 -2.7824  0.3666
 4492SOL     OW24937   3.574   0.803   6.586  0.3510  0.1966  0.3202
 4492SOL    HW124938   3.630   0.761   6.520 -2.6480  1.1713 -2.8539
 4492SOL    HW224939   3.635   0.801   6.660 -0.0758  2.4945  0.7392
 4493SOL     OW24940   3.991   4.035   6.819 -0.1187 -0.7720  0.6153
 4493SOL    HW124941   4.030   3.950   6.798 -2.2286 -1.2328 -1.4894
 4493SOL    HW224942   3.966   4.068   6.732  0.9474  0.5560  0.8201
 4494SOL     OW24943   4.315   3.767   4.615 -0.2301 -0.0480 -0.7483
 4494SOL    HW124944   4.308   3.687   4.667 -0.1202  0.2597 -0.2585
 4494SOL    HW224945   4.400   3.784   4.656 -0.3770 -0.8487 -0.1235
 4495SOL     OW24946   4.158   2.012   2.964 -0.4346 -0.5019  0.3857
 4495SOL    HW124947   4.108   2.087   2.997 -0.1075 -0.2766  0.3743
 4495SOL    HW224948   4.223   2.052   2.906  1.4920 -3.1080  0.7692
 4496SOL     OW24949   0.402   3.618  10.165 -0.5934  0.3448 -0.0206
 4496SOL    HW124950   0.411   3.543  10.106 -0.7092  2.0726 -2.2514
 4496SOL    HW224951   0.373   3.583  10.249 -1.0858 -1.2820 -0.8649
 4497SOL     OW24952   2.100   3.465   3.158 -0.6438 -0.0431 -0.0706
 4497SOL    HW124953   2.169   3.480   3.094  0.5009  1.4096  1.5014
 4497SOL    HW224954   2.032   3.521   3.122 -0.6450  0.8591  1.3229
 4498SOL     OW24955   0.870   4.025   7.781  0.1253  0.0582 -0.4460
 4498SOL    HW124956   0.879   3.969   7.858  0.1793  1.2474  0.4089
 4498SOL    HW224957   0.776   4.027   7.764 -0.1447 -0.8734  0.9157
 4499SOL     OW24958   3.655   2.605   8.229 -0.1265 -0.2011  0.1512
 4499SOL    HW124959   3.717   2.667   8.192  1.8880 -1.3880  1.5044
 4499SOL    HW224960   3.631   2.551   8.154  1.5126 -0.8262  0.0663
 4500SOL     OW24961   4.591   0.515   0.842  0.1935 -0.1801  0.1293
 4500SOL    HW124962   4.626   0.431   0.813  0.9560  0.7233 -1.5392
 4500SOL    HW224963   4.523   0.483   0.902  0.8207  1.0511  1.4888
 4501SOL     OW24964   4.491   0.020   7.281  0.1897 -0.2953 -0.0209
 4501SOL    HW124965   4.504   0.095   7.340  0.1180  0.6566 -1.2075
 4501SOL    HW224966   4.578   4.707   7.267  0.6644  0.2522  1.5971
 4502SOL     OW24967   1.785   1.789   3.188  0.3016  0.7028 -0.5692
 4502SOL    HW124968   1.750   1.754   3.271 -0.1067  0.8176 -0.6917
 4502SOL    HW224969   1.782   1.883   3.203 -0.2820  0.7823 -1.1932
 4503SOL     OW24970   1.734   2.829   6.298 -0.5372  0.1496 -0.4378
 4503SOL    HW124971   1.802   2.841   6.364 -1.1467 -0.5760  0.3346
 4503SOL    HW224972   1.694   2.745   6.323 -0.4902 -0.0266 -0.9581
 4504SOL     OW24973   2.723   3.986   7.185  0.7249  0.2469  0.0023
 4504SOL    HW124974   2.723   3.959   7.277  1.5468  0.0320 -0.0702
 4504SOL    HW224975   2.627   3.986   7.177  0.5205  0.7506  2.2528
 4505SOL     OW24976   3.981   0.914   4.327 -0.0874  0.1515 -0.1159
 4505SOL    HW124977   3.928   0.979   4.281  0.0532  0.9527  0.8584
 4505SOL    HW224978   4.057   0.918   4.268 -0.3457 -2.0848 -0.6012
 4506SOL     OW24979   4.200   3.457   6.750  0.2960  0.1501 -0.1585
 4506SOL    HW124980   4.150   3.513   6.810 -0.6951 -0.1806 -0.6656
 4506SOL    HW224981   4.130   3.411   6.703  2.3110 -1.4378 -1.5684
 4507SOL     OW24982   3.384   0.855  12.999  0.0091 -0.1021  0.0219
 4507SOL    HW124983   3.378   0.764  13.029  1.8591 -0.6409 -1.2755
 4507SOL    HW224984   3.468   0.868  13.042  0.4046  1.0141 -1.1173
 4508SOL     OW24985   2.221   1.899  11.931 -0.2922 -0.6024  0.2930
 4508SOL    HW124986   2.175   1.979  11.908 -1.7146 -1.7708 -0.9210
 4508SOL    HW224987   2.251   1.922  12.019  0.9926 -2.8410  0.4579
 4509SOL     OW24988   0.300   1.701   2.858  0.3877  0.3337 -0.4014
 4509SOL    HW124989   0.235   1.655   2.805  2.3456 -2.6356 -0.2318
 4509SOL    HW224990   0.323   1.784   2.817 -2.2766  1.0781 -0.3658
 4510SOL     OW24991   3.645   4.099   8.839  1.1541 -0.1644 -0.4495
 4510SOL    HW124992   3.675   4.147   8.917  1.5887  0.3564 -0.9296
 4510SOL    HW224993   3.561   4.141   8.823  1.3714  0.4153 -0.0911
 4511SOL     OW24994   3.063   3.360   4.545 -0.0563  0.1828 -0.0382
 4511SOL    HW124995   3.019   3.366   4.460 -1.7249  1.2350  0.8917
 4511SOL    HW224996   3.091   3.449   4.568  1.4962 -0.4683  0.5635
 4512SOL     OW24997   4.479   1.381  10.622 -0.4291  0.1636  0.3972
 4512SOL    HW124998   4.396   1.377  10.574 -0.0700  1.1730 -0.3025
 4512SOL    HW224999   4.438   1.406  10.704 -0.3061  0.5714  0.3330
 4513SOL     OW25000   2.176   0.567  10.120 -1.0569  0.0795  0.1170
 4513SOL    HW125001   2.086   0.542  10.095 -0.9210 -1.3541  1.0608
 4513SOL    HW225002   2.167   0.606  10.207 -1.6741  2.0284 -0.8016
 4514SOL     OW25003   2.767   3.396  13.345  0.0993 -0.7849 -0.1051
 4514SOL    HW125004   2.734   3.483  13.322  3.2669  0.4311 -0.1411
 4514SOL    HW225005   2.707   3.336  13.302  1.3314 -1.0096 -1.5202
 4515SOL     OW25006   0.240   2.366   4.712  0.4491 -0.1447  0.3220
 4515SOL    HW125007   0.172   2.392   4.650  1.4538  0.7340 -0.4215
 4515SOL    HW225008   0.257   2.444   4.764  1.6860 -1.7891  2.3948
 4516SOL     OW25009   2.864   2.324   3.450 -0.4492  0.1139 -0.2159
 4516SOL    HW125010   2.905   2.370   3.376  3.2052  1.0209  2.3695
 4516SOL    HW225011   2.794   2.387   3.468 -0.1597  0.3067  0.2548
 4517SOL     OW25012   0.221   0.903  15.553 -0.4336 -0.1404  0.1453
 4517SOL    HW125013   0.150   0.887  15.614 -0.7624  0.2436 -0.1335
 4517SOL    HW225014   0.212   0.998  15.565 -1.3913 -0.0292 -1.5316
 4518SOL     OW25015   1.983   1.820   7.995 -0.4308  0.1040 -0.0421
 4518SOL    HW125016   1.922   1.787   8.060  0.5725 -3.7181 -1.0278
 4518SOL    HW225017   1.984   1.910   8.029  0.8961 -0.4382  1.3275
 4519SOL     OW25018   4.510   4.557   4.239  0.2539 -0.0204  0.0559
 4519SOL    HW125019   4.600   4.542   4.270 -0.0069 -1.5761  0.0567
 4519SOL    HW225020   4.504   4.651   4.220  0.3638 -0.0143  0.0515
 4520SOL     OW25021   4.082   1.207   7.175  0.1662 -0.6274 -0.3680
 4520SOL    HW125022   4.137   1.130   7.189  0.0379 -0.4437  1.1402
 4520SOL    HW225023   4.047   1.218   7.264  1.5704 -0.6848  0.1943
 4521SOL     OW25024   3.074   3.510   1.599 -0.5233  0.0763 -0.0155
 4521SOL    HW125025   3.154   3.462   1.618  0.2156  1.6959  1.0172
 4521SOL    HW225026   3.009   3.442   1.584 -0.0498  0.0454 -1.9301
 4522SOL     OW25027   3.762   3.059  16.654 -0.9851 -0.3462 -0.3585
 4522SOL    HW125028   3.726   3.123  16.592  0.0394  1.2377  0.6666
 4522SOL    HW225029   3.793   3.115  16.726  1.3924 -2.7916  0.5194
 4523SOL     OW25030   0.989   1.230   3.754 -0.4781  0.0103 -0.2629
 4523SOL    HW125031   1.081   1.229   3.729 -0.0432  0.7696  1.2802
 4523SOL    HW225032   1.007   1.177   3.831 -0.5923  1.5227  0.8075
 4524SOL     OW25033   3.208   1.056   6.188 -0.1009  0.1732  0.2798
 4524SOL    HW125034   3.117   1.081   6.173 -0.0292 -0.9701 -2.2257
 4524SOL    HW225035   3.209   0.964   6.162 -2.2230 -0.0719  1.0620
 4525SOL     OW25036   4.462   0.579   3.341  0.2820  0.0054 -0.2402
 4525SOL    HW125037   4.526   0.644   3.370  1.5775 -1.0514 -0.7083
 4525SOL    HW225038   4.380   0.628   3.345  1.9258  2.6620  0.9744
 4526SOL     OW25039   0.884   2.941  11.692  0.6154  0.5032 -0.4153
 4526SOL    HW125040   0.947   2.878  11.656 -0.5976 -0.6875 -0.4737
 4526SOL    HW225041   0.914   3.024  11.656 -1.2767  1.5940  0.5557
 4527SOL     OW25042   1.171   4.045   0.244 -0.6781 -0.7455 -0.2432
 4527SOL    HW125043   1.158   3.986   0.169 -0.7797 -2.6168  1.2721
 4527SOL    HW225044   1.257   4.021   0.276 -0.4955  0.4350  0.1677
 4528SOL     OW25045   3.766   1.106   3.053  0.2384  0.5954 -0.3770
 4528SOL    HW125046   3.673   1.089   3.038  0.7063 -2.3740  0.1167
 4528SOL    HW225047   3.798   1.016   3.055  0.8327  0.8000 -0.5828
 4529SOL     OW25048   0.693   0.595   2.546  0.3419  0.1826  0.0404
 4529SOL    HW125049   0.772   0.569   2.593  1.2870  2.4009 -0.3404
 4529SOL    HW225050   0.740   0.622   2.467 -0.8537  0.6239 -0.5233
 4530SOL     OW25051   4.448   3.375  16.677  0.4875  0.1988 -1.2589
 4530SOL    HW125052   4.416   3.292  16.641 -0.5276  0.7665 -1.6604
 4530SOL    HW225053   4.393   3.433  16.623 -1.7368 -1.5191 -0.8190
 4531SOL     OW25054   1.513   2.770   7.215  0.5409  0.7461 -0.2466
 4531SOL    HW125055   1.431   2.814   7.237  0.9478  0.9728  0.8219
 4531SOL    HW225056   1.576   2.841   7.232  0.6286  0.6226 -0.0601
 4532SOL     OW25057   2.322   0.954   8.749 -0.3444  0.9809  0.4783
 4532SOL    HW125058   2.400   0.991   8.708  1.1191 -2.5268  0.1254
 4532SOL    HW225059   2.253   0.999   8.701  0.4468  0.0539 -1.5417
 4533SOL     OW25060   3.553   0.188   4.886  0.3192 -0.3460 -0.3983
 4533SOL    HW125061   3.497   0.139   4.826  0.6991 -0.3718 -0.7339
 4533SOL    HW225062   3.484   0.236   4.932  0.1368 -0.4370 -0.5777
 4534SOL     OW25063   4.017   2.990   9.603 -0.3305 -0.1284  0.3290
 4534SOL    HW125064   4.107   3.018   9.588  0.5485 -2.9614  0.2815
 4534SOL    HW225065   3.962   3.024   9.533  0.4337  2.4691  1.0144
 4535SOL     OW25066   1.693   1.127   9.368 -0.2350  0.4968 -0.1854
 4535SOL    HW125067   1.651   1.095   9.448 -1.5988 -1.0324 -1.5192
 4535SOL    HW225068   1.756   1.185   9.411 -0.6517  0.2549  0.7414
 4536SOL     OW25069   3.737   4.298  16.239  0.2856  0.0801  0.6747
 4536SOL    HW125070   3.663   4.239  16.222  0.6108 -0.4926  1.2184
 4536SOL    HW225071   3.721   4.370  16.179 -0.2229  0.0367  0.7588
 4537SOL     OW25072   1.005   0.963   2.942  0.2764 -0.6310  0.4444
 4537SOL    HW125073   1.087   0.957   2.893 -0.4348  4.0875 -1.3453
 4537SOL    HW225074   0.950   0.923   2.874 -0.3532  1.0698 -0.0469
 4538SOL     OW25075   1.063   3.726   3.163 -0.4454  0.0270 -0.3122
 4538SOL    HW125076   1.071   3.821   3.154  0.7126  0.1577  2.0062
 4538SOL    HW225077   1.071   3.711   3.257  0.9309  0.9156 -0.2869
 4539SOL     OW25078   0.589   2.865   4.322 -0.1251  0.4640  0.2782
 4539SOL    HW125079   0.562   2.931   4.258  1.7684 -1.2742 -2.2918
 4539SOL    HW225080   0.525   2.798   4.299  0.9954 -0.6620  0.4271
 4540SOL     OW25081   4.229   0.868   8.583  0.4991  0.3742 -0.3526
 4540SOL    HW125082   4.185   0.938   8.630 -1.0420  0.5058 -1.9968
 4540SOL    HW225083   4.304   0.913   8.544  0.6535  1.7451  1.5332
 4541SOL     OW25084   2.550   4.216   6.328  0.0390 -0.2664  0.2456
 4541SOL    HW125085   2.623   4.165   6.362 -0.4646 -0.1779  1.4989
 4541SOL    HW225086   2.549   4.297   6.378 -1.3641  1.1862 -2.1781
 4542SOL     OW25087   3.916   4.436  15.208 -0.7130 -0.2820  0.1032
 4542SOL    HW125088   3.889   4.371  15.273  0.6093 -1.0084 -0.0797
 4542SOL    HW225089   3.839   4.493  15.204 -0.7939 -0.3476  0.7411
 4543SOL     OW25090   0.823   3.445  14.736  0.3362 -0.0785 -0.6637
 4543SOL    HW125091   0.733   3.472  14.754  1.0056  2.2044 -0.7319
 4543SOL    HW225092   0.847   3.536  14.714  0.2975  0.2585  0.7019
 4544SOL     OW25093   0.258   1.056   5.128  0.5149  0.4904 -1.0137
 4544SOL    HW125094   0.276   0.991   5.061  0.1335  1.8195 -2.3925
 4544SOL    HW225095   0.268   1.009   5.211 -0.5319  0.7128 -0.7600
 4545SOL     OW25096   2.547   2.579   6.493  0.2981 -0.4077  0.0558
 4545SOL    HW125097   2.500   2.595   6.575 -1.8783  1.9158 -1.6653
 4545SOL    HW225098   2.633   2.617   6.513 -0.2495  0.3740  0.9124
 4546SOL     OW25099   1.877   2.404   9.234  0.2039 -0.2281  0.6039
 4546SOL    HW125100   1.814   2.339   9.203  0.0150 -1.1044  2.8210
 4546SOL    HW225101   1.840   2.439   9.314  1.6156  2.8079 -0.0991
 4547SOL     OW25102   2.883   2.953   9.355 -0.3300  0.2178  0.0254
 4547SOL    HW125103   2.908   2.919   9.269  0.1709 -0.3672  0.4017
 4547SOL    HW225104   2.965   2.986   9.393 -0.6208 -0.9463  1.6903
 4548SOL     OW25105   4.146   2.543   6.256  0.2359  0.0466 -0.4679
 4548SOL    HW125106   4.154   2.496   6.173 -0.5329  0.9923 -1.0753
 4548SOL    HW225107   4.237   2.572   6.262  0.7308 -1.6275 -0.1138
 4549SOL     OW25108   2.574   1.849   3.228  0.7174  0.0860  0.3972
 4549SOL    HW125109   2.617   1.934   3.221  0.7533  0.1083  0.9188
 4549SOL    HW225110   2.525   1.861   3.309  0.6776  1.4029  0.1709
 4550SOL     OW25111   0.281   0.254   2.785 -0.7724  0.5736  0.0652
 4550SOL    HW125112   0.292   0.268   2.691  3.1744 -2.0410  0.1510
 4550SOL    HW225113   0.260   0.160   2.791  0.5472  0.2569 -0.1717
 4551SOL     OW25114   1.369   2.537   5.653  0.2096 -0.1319  0.0617
 4551SOL    HW125115   1.348   2.566   5.742  2.4772  0.6222  0.3417
 4551SOL    HW225116   1.289   2.493   5.624 -0.7697  0.1017  2.4008
 4552SOL     OW25117   1.087   0.072  12.745 -0.0540 -0.0018  0.7927
 4552SOL    HW125118   1.122   0.110  12.826  0.9280  0.3126  0.2159
 4552SOL    HW225119   1.058   4.711  12.782 -0.7551  0.3160  0.9832
 4553SOL     OW25120   3.260   0.336  11.135 -0.3466 -0.3253  0.6560
 4553SOL    HW125121   3.226   0.249  11.114 -0.8426 -0.4098  1.8214
 4553SOL    HW225122   3.348   0.310  11.162  0.1561  1.9851  1.2336
 4554SOL     OW25123   1.362   2.643   6.432  0.1122  0.7426  0.5693
 4554SOL    HW125124   1.341   2.616   6.521  2.5366 -0.2722  0.8346
 4554SOL    HW225125   1.301   2.716   6.425 -1.0255  0.0570  3.3424
 4555SOL     OW25126   2.281   1.600   3.988  0.1191  0.3728 -0.4266
 4555SOL    HW125127   2.364   1.554   3.986 -0.6471 -0.9922 -0.6163
 4555SOL    HW225128   2.283   1.649   4.070 -0.2837  0.7295 -0.6268
 4556SOL     OW25129   2.008   3.618  15.078 -0.5898  0.3693 -0.4455
 4556SOL    HW125130   2.090   3.644  15.036  0.9642 -0.2805  2.1890
 4556SOL    HW225131   1.999   3.529  15.042 -0.6383 -0.0049  0.4979
 4557SOL     OW25132   1.846   2.961   3.959 -0.0572  0.0757 -0.0771
 4557SOL    HW125133   1.936   2.985   3.984  0.3091  0.7928 -2.0741
 4557SOL    HW225134   1.854   2.933   3.868 -1.6319 -1.0187  0.1236
 4558SOL     OW25135   0.016   3.879   2.973 -0.3427 -0.0380  0.7151
 4558SOL    HW125136   4.700   3.820   2.909  1.1442 -0.5955  0.3276
 4558SOL    HW225137   0.073   3.814   3.015 -1.0990  0.0481  1.8960
 4559SOL     OW25138   0.104   3.637  11.670 -0.5595 -0.0612  0.2397
 4559SOL    HW125139   0.158   3.565  11.635  0.0406 -0.0978  1.2639
 4559SOL    HW225140   0.113   3.608  11.760  0.0600 -0.6282 -0.0038
 4560SOL     OW25141   3.805   3.169   1.634  0.0662  0.6673  0.2827
 4560SOL    HW125142   3.788   3.217   1.715  0.0062  1.3250 -0.1188
 4560SOL    HW225143   3.886   3.123   1.656 -0.1286 -0.5956 -1.6171
 4561SOL     OW25144   4.155   0.909   5.590  0.1067  0.1608 -0.5631
 4561SOL    HW125145   4.239   0.878   5.558 -0.0624  0.9292 -1.7481
 4561SOL    HW225146   4.174   0.949   5.675  1.9488 -0.6620 -0.6114
 4562SOL     OW25147   0.285   3.214   1.753 -0.0242  0.0322 -0.2722
 4562SOL    HW125148   0.238   3.131   1.761 -0.2294  0.3821  2.3149
 4562SOL    HW225149   0.286   3.243   1.844 -0.7853  0.3898 -0.3780
 4563SOL     OW25150   4.567   2.414   6.343  0.2750 -0.0712 -0.0120
 4563SOL    HW125151   4.475   2.391   6.332 -0.5190  2.8310  0.7110
 4563SOL    HW225152   4.559   2.478   6.414  0.6903 -0.2972  0.2399
 4564SOL     OW25153   2.483   1.779   4.933 -0.1783 -0.2650 -0.4702
 4564SOL    HW125154   2.456   1.709   4.873  0.2501 -0.3000 -0.6247
 4564SOL    HW225155   2.402   1.806   4.976  0.4771 -0.0682  0.6174
 4565SOL     OW25156   1.693   1.344   4.577 -0.4429  0.3838 -0.6997
 4565SOL    HW125157   1.743   1.357   4.496  2.3270 -0.4522  0.8889
 4565SOL    HW225158   1.602   1.357   4.550 -0.2655  0.3523 -1.3275
 4566SOL     OW25159   2.198   1.991   6.445  0.3504 -0.0469 -0.3382
 4566SOL    HW125160   2.211   1.938   6.366 -0.4669  1.7883 -1.6977
 4566SOL    HW225161   2.158   2.073   6.415 -2.2471 -0.9539  0.6402
 4567SOL     OW25162   1.293   1.615   0.678  0.8512 -0.1267  0.3261
 4567SOL    HW125163   1.345   1.638   0.755  1.1682  1.8174 -0.4782
 4567SOL    HW225164   1.317   1.698   0.637  1.1023 -0.5683 -0.4219
 4568SOL     OW25165   2.931   1.079  16.622  0.1369  0.1934 -0.0061
 4568SOL    HW125166   2.991   1.014  16.658 -2.9141 -2.0416  1.1032
 4568SOL    HW225167   2.981   1.158  16.642  2.3197 -1.2348  0.1358
 4569SOL     OW25168   4.359   3.732   8.732  0.7035 -0.1021  0.3647
 4569SOL    HW125169   4.454   3.728   8.738  0.8240 -1.8284 -2.9476
 4569SOL    HW225170   4.341   3.824   8.710  0.8284 -0.0744  0.3807
 4570SOL     OW25171   2.803   1.425   2.253 -0.0887  0.2737  0.3143
 4570SOL    HW125172   2.762   1.372   2.184 -0.5766 -0.6039  1.2875
 4570SOL    HW225173   2.725   1.476   2.275 -0.0117  1.1256 -1.3373
 4571SOL     OW25174   1.017   2.700   3.432 -0.2831 -0.7168  0.0340
 4571SOL    HW125175   0.923   2.699   3.451 -0.2737  2.7945  0.2472
 4571SOL    HW225176   1.019   2.681   3.338 -1.7314  2.4414 -0.6471
 4572SOL     OW25177   1.444   3.356  14.039  0.1017 -0.1691 -0.2769
 4572SOL    HW125178   1.510   3.406  14.087 -1.3027  0.5539  0.8831
 4572SOL    HW225179   1.497   3.280  14.017 -2.6376 -1.6514 -1.7923
 4573SOL     OW25180   4.115   3.482   5.126 -0.3331  1.1552  0.0708
 4573SOL    HW125181   4.167   3.559   5.104 -0.9753  1.4771 -0.3398
 4573SOL    HW225182   4.067   3.503   5.205  0.4318  2.7877  0.0997
 4574SOL     OW25183   0.502   2.637   1.864  0.0088 -0.5859 -0.0794
 4574SOL    HW125184   0.482   2.584   1.786 -3.0519  0.4963 -0.0297
 4574SOL    HW225185   0.574   2.589   1.906 -0.1003  0.6583  1.4877
 4575SOL     OW25186   2.586   3.283   6.537  0.0363  0.8038  0.1980
 4575SOL    HW125187   2.544   3.266   6.621 -1.9749  2.1852 -0.5176
 4575SOL    HW225188   2.511   3.272   6.478 -1.6665  3.2184  1.9063
 4576SOL     OW25189   3.141   0.953   8.512 -0.2343  0.0102  0.0103
 4576SOL    HW125190   3.123   1.043   8.541 -1.6652 -0.2126 -0.1828
 4576SOL    HW225191   3.179   0.922   8.594  0.6246 -0.8853 -0.7304
 4577SOL     OW25192   4.477   3.916   5.305 -0.1823  0.3818  0.1409
 4577SOL    HW125193   4.408   3.982   5.311  0.5263  1.0384  1.0737
 4577SOL    HW225194   4.559   3.965   5.315 -0.2106  0.5985 -0.6742
 4578SOL     OW25195   1.484   0.678  17.533  0.4679 -0.5614  0.0464
 4578SOL    HW125196   1.397   0.716  17.544  0.3527 -1.1602  1.1966
 4578SOL    HW225197   1.537   0.726  17.597  2.8276 -0.5473 -1.9284
 4579SOL     OW25198   4.176   1.255   8.986  0.4039  0.1022  0.2577
 4579SOL    HW125199   4.101   1.197   8.996 -0.0058  0.5521 -0.2129
 4579SOL    HW225200   4.189   1.282   9.077  0.3281 -0.9651  0.5834
 4580SOL     OW25201   3.590   1.883   4.434 -0.7915  0.1633 -0.1164
 4580SOL    HW125202   3.657   1.837   4.383 -0.6256 -0.8097  0.9968
 4580SOL    HW225203   3.592   1.843   4.521  0.6163 -2.5087 -1.3851
 4581SOL     OW25204   3.582   2.866  16.948  0.1867  0.0359 -0.6547
 4581SOL    HW125205   3.569   2.798  16.882 -0.7576 -0.1423 -0.2834
 4581SOL    HW225206   3.495   2.887  16.983  0.2076  1.5185 -1.5008
 4582SOL     OW25207   2.588   3.241   9.007 -0.4421 -0.5063  0.5570
 4582SOL    HW125208   2.609   3.287   8.925  0.9415 -1.7685  0.2167
 4582SOL    HW225209   2.524   3.305   9.040 -2.7334 -2.3703 -0.2723
 4583SOL     OW25210   3.813   4.516  13.085  0.7063 -0.1198 -0.3616
 4583SOL    HW125211   3.735   4.513  13.141 -0.5976 -1.2189 -2.2509
 4583SOL    HW225212   3.878   4.548  13.148 -1.6839  0.2273  1.9417
 4584SOL     OW25213   4.558   4.222   5.139 -0.4864  0.2611  0.1236
 4584SOL    HW125214   4.514   4.250   5.058 -1.2321  1.8159  1.0649
 4584SOL    HW225215   4.565   4.128   5.126  1.5971  0.4891 -0.3873
 4585SOL     OW25216   0.241   4.350   4.851 -0.3137  0.1082 -0.0191
 4585SOL    HW125217   0.222   4.416   4.918 -1.3459  1.1474 -1.3337
 4585SOL    HW225218   0.310   4.303   4.898 -0.7905 -1.5343 -0.9550
 4586SOL     OW25219   2.789   0.329  10.954  0.0929  0.6690 -0.7163
 4586SOL    HW125220   2.733   0.404  10.971 -0.9232 -0.5626  1.3175
 4586SOL    HW225221   2.870   0.374  10.978  0.2133  0.1186 -0.0902
 4587SOL     OW25222   2.783   0.181  15.226 -0.0464 -0.1679  0.5495
 4587SOL    HW125223   2.696   0.148  15.201 -0.4763  1.1980  0.2595
 4587SOL    HW225224   2.760   0.274  15.228 -1.9327 -0.5999 -0.2099
 4588SOL     OW25225   1.520   0.336   4.857  0.1629  0.1864 -0.5638
 4588SOL    HW125226   1.465   0.373   4.788 -1.2881  1.6753  1.3820
 4588SOL    HW225227   1.486   0.388   4.930 -0.9229 -0.0829 -0.8769
 4589SOL     OW25228   0.416   0.285   9.002  0.2165 -0.4144 -0.5424
 4589SOL    HW125229   0.334   0.275   9.051  0.7759  0.3548  0.5445
 4589SOL    HW225230   0.387   0.354   8.942 -2.6816 -0.3808  0.8594
 4590SOL     OW25231   1.978   2.835   5.509 -0.3064  0.1721 -0.0817
 4590SOL    HW125232   1.934   2.766   5.459 -0.2970  1.4032 -1.7983
 4590SOL    HW225233   1.983   2.794   5.595  0.3477  0.7993  0.1789
 4591SOL     OW25234   3.669   0.149  16.504  0.2674 -0.7381  0.0870
 4591SOL    HW125235   3.601   0.187  16.449 -0.7410 -0.3373  1.6020
 4591SOL    HW225236   3.668   0.060  16.469 -1.1048 -0.7086  0.0497
 4592SOL     OW25237   0.421   0.744   1.676  0.2737 -0.0907  0.6781
 4592SOL    HW125238   0.375   0.827   1.662  1.5913  0.2693 -1.5018
 4592SOL    HW225239   0.500   0.771   1.723  1.1463  0.9029 -1.3233
 4593SOL     OW25240   3.163   0.946  16.733 -0.2131 -0.7647  0.2932
 4593SOL    HW125241   3.161   0.863  16.781  2.3980 -0.0615  1.6189
 4593SOL    HW225242   3.225   1.003  16.778 -0.9180 -0.6046  1.0501
 4594SOL     OW25243   0.983   1.563  14.814  0.4155  0.0306 -0.1321
 4594SOL    HW125244   1.016   1.551  14.725 -2.5177  0.5230 -1.2965
 4594SOL    HW225245   0.893   1.591  14.793 -0.4798 -2.0854  0.8522
 4595SOL     OW25246   0.864   2.405   2.807 -0.1438  0.3273  0.1684
 4595SOL    HW125247   0.857   2.374   2.717 -0.9131 -2.8205  1.3164
 4595SOL    HW225248   0.958   2.388   2.816 -0.2125  0.5115  1.2200
 4596SOL     OW25249   4.562   0.561  16.522  0.0148  0.3094 -0.3960
 4596SOL    HW125250   4.564   0.475  16.481 -2.9648 -0.0717  0.2761
 4596SOL    HW225251   4.639   0.553  16.579 -1.5197 -1.0146  1.4926
 4597SOL     OW25252   1.725   1.572  13.300  0.0480  0.2039 -0.0264
 4597SOL    HW125253   1.805   1.520  13.307 -0.3906 -0.6661 -1.4662
 4597SOL    HW225254   1.674   1.514  13.356  0.0937 -2.2754 -2.5885
 4598SOL     OW25255   2.935   2.290  13.419  0.6421 -0.4734 -0.5801
 4598SOL    HW125256   2.976   2.371  13.448 -1.8203  0.5180  0.1169
 4598SOL    HW225257   2.896   2.258  13.500 -1.4963 -1.7953 -2.1151
 4599SOL     OW25258   2.086   1.712  10.242  0.2368  0.0054 -0.0273
 4599SOL    HW125259   2.048   1.749  10.321 -1.5067 -1.5322 -0.1588
 4599SOL    HW225260   2.059   1.778  10.178 -0.0993 -1.0513 -0.9817
 4600SOL     OW25261   0.903   2.647   7.385 -0.5046 -0.0822  0.1362
 4600SOL    HW125262   0.851   2.712   7.339 -0.3784 -0.1588 -0.1155
 4600SOL    HW225263   0.966   2.699   7.435  2.7808 -3.8607 -0.1011
 4601SOL     OW25264   0.995   1.217  15.456 -0.0629 -0.4019 -0.0648
 4601SOL    HW125265   0.981   1.309  15.476  2.6911  0.3007 -1.3957
 4601SOL    HW225266   0.918   1.198  15.402 -0.0244 -0.0072 -0.2549
 4602SOL     OW25267   1.911   0.326   7.278 -0.1988 -0.1444 -0.2741
 4602SOL    HW125268   1.821   0.294   7.270 -0.5803  1.6113 -3.0178
 4602SOL    HW225269   1.912   0.347   7.371 -2.2462  0.9160 -0.5013
 4603SOL     OW25270   3.264   2.868  12.097  0.1168 -0.5792 -0.3880
 4603SOL    HW125271   3.218   2.862  12.013  1.3199 -0.4413 -1.0540
 4603SOL    HW225272   3.194   2.905  12.151 -0.3638 -0.0616 -1.3583
 4604SOL     OW25273   0.768   4.147   9.342  0.0497  0.1412 -0.4457
 4604SOL    HW125274   0.683   4.156   9.300  0.7704  2.0341 -1.5394
 4604SOL    HW225275   0.787   4.053   9.343  1.5714  0.4195 -2.3816
 4605SOL     OW25276   2.698   4.517   4.121  0.1068 -0.2306  0.6876
 4605SOL    HW125277   2.634   4.451   4.093  1.8222 -1.6622  0.1705
 4605SOL    HW225278   2.758   4.463   4.173  0.9663 -0.2938 -0.3809
 4606SOL     OW25279   1.977   0.622   6.886  0.2421 -0.2973  0.1738
 4606SOL    HW125280   1.898   0.568   6.893  0.4376 -0.5197  0.6547
 4606SOL    HW225281   1.953   0.681   6.957 -1.4582 -0.2315 -0.4566
 4607SOL     OW25282   1.194   1.657   2.516  0.1398  0.8479 -0.7390
 4607SOL    HW125283   1.194   1.707   2.598 -1.5437 -0.5499  0.1386
 4607SOL    HW225284   1.108   1.687   2.485 -0.1578  0.7632 -0.0076
 4608SOL     OW25285   0.893   2.768   6.940 -0.4215 -0.7781  0.4508
 4608SOL    HW125286   0.826   2.837   6.941 -0.4267 -0.7547 -1.0984
 4608SOL    HW225287   0.972   2.812   6.971 -1.3828  0.0937  1.6751
 4609SOL     OW25288   4.610   4.289   6.955 -0.5774 -0.1572 -0.1315
 4609SOL    HW125289   4.534   4.340   6.985 -1.1318  0.7181 -3.0185
 4609SOL    HW225290   4.567   4.244   6.882 -1.0570  2.6730 -1.5835
 4610SOL     OW25291   2.181   2.004   3.000  0.6891 -0.2065  0.5788
 4610SOL    HW125292   2.100   1.956   2.986  0.6017 -0.4180  1.8755
 4610SOL    HW225293   2.192   2.046   2.915  0.3034  1.7232  1.4907
 4611SOL     OW25294   0.628   0.904   2.529 -0.5359  0.2020 -0.1683
 4611SOL    HW125295   0.626   0.815   2.563 -2.4724  0.5482  0.6118
 4611SOL    HW225296   0.583   0.953   2.598  0.2899 -1.4966  1.5718
 4612SOL     OW25297   4.288   1.892   9.123 -0.7601  0.6539 -0.2716
 4612SOL    HW125298   4.250   1.941   9.196  2.4480  2.0202  0.4974
 4612SOL    HW225299   4.223   1.884   9.054 -0.2160 -1.1222 -0.5895
 4613SOL     OW25300   1.187   2.241   0.325 -0.0001  0.7305 -0.3838
 4613SOL    HW125301   1.098   2.213   0.342  0.3741 -1.4054 -1.9090
 4613SOL    HW225302   1.222   2.275   0.407 -0.4440  1.8555 -0.6678
 4614SOL     OW25303   3.076   1.979  10.728 -0.1443 -0.1524 -0.2936
 4614SOL    HW125304   3.118   2.029  10.797  0.4352 -3.3015  1.6414
 4614SOL    HW225305   2.984   2.006  10.735 -0.0284  0.9462 -2.9579
 4615SOL     OW25306   4.451   4.488   8.015 -0.1185  0.2060 -0.3101
 4615SOL    HW125307   4.389   4.416   8.008 -0.8220  0.9915 -2.1083
 4615SOL    HW225308   4.514   4.457   7.950 -1.7316 -3.6997  0.0212
 4616SOL     OW25309   4.036   0.428   0.842 -0.0393  0.0404 -0.0339
 4616SOL    HW125310   4.045   0.428   0.937  1.9376 -0.6625 -0.2211
 4616SOL    HW225311   3.974   0.499   0.828  0.9766  1.1441  1.0920
 4617SOL     OW25312   1.914   0.415   9.182  0.0526 -0.0084  0.2358
 4617SOL    HW125313   1.955   0.480   9.124  1.2588 -1.0834 -0.1301
 4617SOL    HW225314   1.876   0.463   9.255 -0.6613  1.1047 -0.8464
 4618SOL     OW25315   0.364   4.543  15.935 -0.1469  0.4051 -0.0056
 4618SOL    HW125316   0.411   4.587  16.006  0.7068 -0.1925 -0.1960
 4618SOL    HW225317   0.422   4.565  15.862 -0.3306 -1.1925 -0.6495
 4619SOL     OW25318   0.912   4.720   7.073 -0.0559  0.2762 -0.1397
 4619SOL    HW125319   0.985   4.722   7.134 -1.9449  1.8969  2.0830
 4619SOL    HW225320   0.879   0.088   7.073  0.2590  0.3893  0.7112
 4620SOL     OW25321   0.408   3.926   1.559 -0.1256 -0.1128 -0.0291
 4620SOL    HW125322   0.333   3.906   1.503  0.4752  2.0377 -1.6158
 4620SOL    HW225323   0.432   4.014   1.532  1.3252 -0.4061  0.2706
 4621SOL     OW25324   1.262   4.292   7.184  0.1042 -0.2960 -0.0596
 4621SOL    HW125325   1.174   4.263   7.207 -0.8299  1.7681 -1.0691
 4621SOL    HW225326   1.315   4.214   7.200 -0.3573 -1.3068 -3.4710
 4622SOL     OW25327   0.966   4.012   3.474 -0.3684  0.0684  0.5032
 4622SOL    HW125328   1.047   4.047   3.511 -0.6099  2.2276 -0.9741
 4622SOL    HW225329   0.904   4.085   3.470 -1.5581 -0.9510  0.3295
 4623SOL     OW25330   4.681   2.176   3.880 -0.5610 -0.2422  0.4656
 4623SOL    HW125331   4.632   2.183   3.798  2.2736 -1.2981 -1.3252
 4623SOL    HW225332   0.038   2.131   3.852 -0.4309 -0.8449  1.7853
 4624SOL     OW25333   4.259   0.231   2.405  0.6136 -0.0385  0.3723
 4624SOL    HW125334   4.293   0.223   2.494  1.4870  1.3382  0.1608
 4624SOL    HW225335   4.262   0.325   2.388 -0.5372  0.2280  1.5937
 4625SOL     OW25336   2.638   1.046  12.814  0.1385  0.0220  0.0548
 4625SOL    HW125337   2.682   1.070  12.896  0.8642  3.4605 -1.3555
 4625SOL    HW225338   2.712   0.997  12.778  0.5255  0.8559 -0.2882
 4626SOL     OW25339   4.179   3.062  17.422  0.8249 -0.2063  0.0025
 4626SOL    HW125340   4.095   3.028  17.390 -0.6537  2.7569  0.7762
 4626SOL    HW225341   4.208   3.079  17.332  0.3215  2.4602  0.3537
 4627SOL     OW25342   2.570   1.860   2.927 -0.1814 -0.2657 -0.7083
 4627SOL    HW125343   2.480   1.839   2.903 -0.4784 -0.0789  0.2396
 4627SOL    HW225344   2.577   1.861   3.023  0.7123  2.9407 -0.8028
 4628SOL     OW25345   4.333   2.920   5.476  0.1154  0.2198  0.0591
 4628SOL    HW125346   4.361   3.012   5.476  0.9106 -0.0247  1.5008
 4628SOL    HW225347   4.401   2.888   5.417  0.2091  0.2196  0.1674
 4629SOL     OW25348   1.131   3.150   5.591 -0.3997  0.4301 -0.6067
 4629SOL    HW125349   1.198   3.214   5.617 -1.6086  1.2483  0.5289
 4629SOL    HW225350   1.073   3.131   5.665 -0.1134  1.6805 -0.0620
 4630SOL     OW25351   1.474   3.253  12.140  0.0267  0.2385 -0.1607
 4630SOL    HW125352   1.396   3.307  12.131  1.3929  2.3487  0.5110
 4630SOL    HW225353   1.497   3.268  12.232 -1.0398  1.0518 -0.0217
 4631SOL     OW25354   1.008   4.127   3.786 -0.4049 -0.1042  0.5317
 4631SOL    HW125355   0.957   4.149   3.709  1.5865 -1.1241 -1.0862
 4631SOL    HW225356   1.014   4.032   3.785  2.9664  0.1072  0.3646
 4632SOL     OW25357   1.641   4.292   4.150  0.1895 -0.1554 -0.2006
 4632SOL    HW125358   1.652   4.381   4.117 -1.7035  0.0670 -0.2505
 4632SOL    HW225359   1.697   4.291   4.228  1.1899 -0.6074 -0.9363
 4633SOL     OW25360   1.094   2.683   4.903  0.1344  0.0072 -0.4688
 4633SOL    HW125361   1.088   2.723   4.816 -0.8218 -0.0353 -0.4326
 4633SOL    HW225362   1.067   2.593   4.882  1.1125 -0.2402 -0.6492
 4634SOL     OW25363   1.991   2.492   7.866  0.2198  0.2924  0.1118
 4634SOL    HW125364   1.943   2.571   7.891  1.2456  0.6293  1.0333
 4634SOL    HW225365   1.951   2.468   7.782  1.8313  0.7720 -0.8074
 4635SOL     OW25366   1.900   0.748   2.533  0.5000  0.1750 -0.0631
 4635SOL    HW125367   1.896   0.802   2.454 -0.8387 -0.2952 -0.3177
 4635SOL    HW225368   1.980   0.776   2.578 -0.1975  1.0589  0.6253
 4636SOL     OW25369   3.449   3.210   8.165 -0.1645  0.1421  0.0400
 4636SOL    HW125370   3.388   3.231   8.094 -0.4741 -1.1700 -0.0857
 4636SOL    HW225371   3.389   3.155   8.215 -0.3645  0.4621  0.1488
 4637SOL     OW25372   1.158   4.308   8.219 -0.1528 -0.7564  0.5875
 4637SOL    HW125373   1.106   4.324   8.140  0.4950 -0.0253  0.3110
 4637SOL    HW225374   1.203   4.228   8.191 -0.9569 -1.1769  0.4774
 4638SOL     OW25375   4.314   1.494   3.411  0.0247 -0.4192  0.3990
 4638SOL    HW125376   4.322   1.480   3.317 -4.1310  0.2551 -0.0376
 4638SOL    HW225377   4.229   1.450   3.419 -0.6473  0.6863 -0.6652
 4639SOL     OW25378   1.137   0.814  13.151  0.7379  0.0950 -0.2473
 4639SOL    HW125379   1.150   0.872  13.077 -2.0515  3.0535  1.6021
 4639SOL    HW225380   1.087   0.876  13.204  2.2234  1.0333  0.0796
 4640SOL     OW25381   1.603   0.803   0.064  0.0965 -0.0418 -0.2117
 4640SOL    HW125382   1.537   0.823   0.130 -1.0515 -0.7100 -1.1568
 4640SOL    HW225383   1.680   0.782   0.117 -1.6204 -1.8652  1.5579
 4641SOL     OW25384   1.816   4.448   8.827 -0.2735 -0.6002  0.5312
 4641SOL    HW125385   1.888   4.505   8.855  0.2415  0.1748 -2.3720
 4641SOL    HW225386   1.782   4.491   8.749  2.8032  0.6751 -0.0983
 4642SOL     OW25387   1.339   4.712   6.661  0.7710 -0.3712  0.1487
 4642SOL    HW125388   1.281   0.065   6.650 -1.6239 -2.4578 -1.6906
 4642SOL    HW225389   1.406   0.024   6.721 -0.1938  0.1805  0.9169
 4643SOL     OW25390   1.850   4.310   6.091 -0.3349  0.3364  0.6747
 4643SOL    HW125391   1.781   4.361   6.134 -0.7988  1.3121 -1.2273
 4643SOL    HW225392   1.895   4.366   6.027 -0.4453 -1.7684 -1.2205
 4644SOL     OW25393   2.704   3.579  12.500 -0.5085 -0.4832 -0.2989
 4644SOL    HW125394   2.768   3.639  12.539  0.5606 -0.9059 -1.4056
 4644SOL    HW225395   2.732   3.579  12.409 -3.2801 -1.5556 -1.1595
 4645SOL     OW25396   1.366   2.468   4.727  0.1936 -0.0412  0.1827
 4645SOL    HW125397   1.452   2.450   4.689 -0.4207 -0.6758 -0.9080
 4645SOL    HW225398   1.373   2.426   4.812  0.1103 -0.0275  0.1956
 4646SOL     OW25399   4.444   0.224   6.004  0.4081 -0.0633  0.6125
 4646SOL    HW125400   4.408   0.313   6.006  1.3529  0.3291  0.4026
 4646SOL    HW225401   4.509   0.234   5.934 -1.9170  0.4715 -1.4788
 4647SOL     OW25402   2.240   3.743  12.912 -0.0895  0.2345 -0.2549
 4647SOL    HW125403   2.329   3.757  12.880  0.1369 -2.6601 -0.8911
 4647SOL    HW225404   2.237   3.648  12.912 -1.8636  0.2893 -0.1268
 4648SOL     OW25405   2.931   0.296   7.080  0.5724  0.5745  0.1670
 4648SOL    HW125406   2.973   0.281   6.995 -0.6154 -1.5370 -0.0423
 4648SOL    HW225407   2.928   0.205   7.112 -3.3920 -0.8165 -4.0913
 4649SOL     OW25408   1.227   0.727   9.166  0.0770 -0.8093  0.2266
 4649SOL    HW125409   1.161   0.661   9.192 -2.0376  1.4871  0.7030
 4649SOL    HW225410   1.293   0.722   9.235  1.3664  0.7913 -0.8872
 4650SOL     OW25411   2.070   0.352  12.473  0.3564 -0.1980 -0.3217
 4650SOL    HW125412   2.160   0.366  12.501  0.7249 -0.5353 -1.3464
 4650SOL    HW225413   2.028   0.347  12.559  2.1018 -0.6108  0.5050
 4651SOL     OW25414   2.874   2.719   5.679  0.2753  0.0059  0.0495
 4651SOL    HW125415   2.845   2.748   5.592  2.8788  1.5055 -0.2896
 4651SOL    HW225416   2.815   2.769   5.734  0.8479  1.2143 -0.4388
 4652SOL     OW25417   0.371   3.648   1.707 -0.4941  0.1515  0.3404
 4652SOL    HW125418   0.372   3.709   1.633 -0.8042  0.1602  0.3396
 4652SOL    HW225419   0.432   3.577   1.694  1.0241  1.9540 -2.2692
 4653SOL     OW25420   2.885   4.235  16.089  0.2232 -0.1233  0.3884
 4653SOL    HW125421   2.945   4.307  16.067 -1.3558  1.8267  2.4371
 4653SOL    HW225422   2.806   4.289  16.095 -0.1809 -0.6773  0.0041
 4654SOL     OW25423   3.902   1.674   5.628  0.3891 -0.3611  0.3923
 4654SOL    HW125424   3.874   1.585   5.649 -1.0779 -0.4251 -1.8287
 4654SOL    HW225425   3.823   1.729   5.624 -0.7019 -2.0006 -0.7965
 4655SOL     OW25426   2.355   4.183   4.718 -0.1884  0.2692  0.2142
 4655SOL    HW125427   2.387   4.222   4.637  1.1102  2.2090  1.6686
 4655SOL    HW225428   2.319   4.262   4.760 -1.3030  0.4990 -1.1646
 4656SOL     OW25429   0.542   4.023   7.381 -0.1648 -0.2102  0.0504
 4656SOL    HW125430   0.511   4.113   7.379  1.0564  0.2090 -0.0373
 4656SOL    HW225431   0.458   3.978   7.374 -0.7008  0.5875  1.3691
 4657SOL     OW25432   1.693   0.618  15.922 -0.5750  0.2760  0.2199
 4657SOL    HW125433   1.618   0.592  15.868 -1.3602  0.3367  1.2852
 4657SOL    HW225434   1.727   0.682  15.859 -1.8882  2.1470  1.4238
 4658SOL     OW25435   1.156   1.163   4.272  0.4797  0.1538  0.1946
 4658SOL    HW125436   1.135   1.158   4.365 -3.3724 -1.0855 -0.7343
 4658SOL    HW225437   1.068   1.149   4.236  1.3634 -1.0808 -1.4973
 4659SOL     OW25438   3.934   3.432  10.969  0.0742  0.6570  0.1919
 4659SOL    HW125439   3.885   3.356  10.999 -2.3580  2.8398  1.6763
 4659SOL    HW225440   4.011   3.414  11.023 -0.4468 -2.4443 -0.0735
 4660SOL     OW25441   0.004   0.285   6.820 -0.7988 -0.1917  0.0728
 4660SOL    HW125442   4.660   0.223   6.849  0.3699 -0.6414  1.7853
 4660SOL    HW225443   0.005   0.361   6.879 -0.4372  0.3318 -0.6023
 4661SOL     OW25444   4.021   2.550  12.165 -0.2081  0.1837 -1.0143
 4661SOL    HW125445   4.017   2.470  12.219 -2.2845  1.0386  0.0755
 4661SOL    HW225446   4.116   2.556  12.153  0.2018 -0.2752  1.8079
 4662SOL     OW25447   3.573   2.247  10.491  0.3387 -0.0906  0.1048
 4662SOL    HW125448   3.514   2.209  10.556  0.3492  1.5946  1.0798
 4662SOL    HW225449   3.658   2.213  10.518 -0.2921 -1.3177  0.5768
 4663SOL     OW25450   0.565   4.692   2.528 -0.0393  0.0391  0.6717
 4663SOL    HW125451   0.481   4.659   2.562  1.6679 -0.9281  3.9369
 4663SOL    HW225452   0.539   0.059   2.512 -0.9332 -0.0069  1.8610
 4664SOL     OW25453   2.199   4.475  16.239 -0.5946  0.1753 -0.3584
 4664SOL    HW125454   2.214   4.434  16.154  0.8676 -3.3409  1.6160
 4664SOL    HW225455   2.132   4.416  16.273 -1.6259  0.9294 -1.0990
 4665SOL     OW25456   4.657   4.644   8.636 -0.5122  0.3719 -0.6840
 4665SOL    HW125457   4.691   0.000   8.678  0.7989 -0.8473  0.5455
 4665SOL    HW225458   0.018   4.599   8.630  0.7057  2.5048  0.1933
 4666SOL     OW25459   3.673   1.053  14.022 -0.1358 -0.2573  0.3770
 4666SOL    HW125460   3.649   1.145  14.012 -1.6534 -0.7709 -0.7224
 4666SOL    HW225461   3.649   1.041  14.114 -0.4521  0.2158  0.3589
 4667SOL     OW25462   2.076   3.800   7.110  0.5623 -0.3699 -0.5546
 4667SOL    HW125463   2.050   3.888   7.081  2.6979  0.1411 -0.9041
 4667SOL    HW225464   2.021   3.780   7.186  0.9761 -1.7911 -0.6469
 4668SOL     OW25465   3.920   3.763   2.918 -0.5487 -0.3792  0.1454
 4668SOL    HW125466   3.896   3.702   2.988  0.8994 -0.0812  0.8994
 4668SOL    HW225467   3.963   3.827   2.973  1.8734 -1.8187 -0.0783
 4669SOL     OW25468   0.445   0.443   1.771 -0.6920 -0.6177  0.1587
 4669SOL    HW125469   0.440   0.531   1.733  0.0064 -1.1882 -1.2784
 4669SOL    HW225470   0.458   0.391   1.691  4.3883  0.3357  0.3405
 4670SOL     OW25471   2.275   1.560   8.782 -0.1554 -0.0675 -0.2037
 4670SOL    HW125472   2.225   1.499   8.835 -0.1096 -0.6039 -0.7853
 4670SOL    HW225473   2.342   1.501   8.747  0.6693  1.0782 -0.5690
 4671SOL     OW25474   3.234   4.122  12.635 -0.2134 -0.2978  0.4556
 4671SOL    HW125475   3.286   4.070  12.573  0.5919  1.1807 -0.1226
 4671SOL    HW225476   3.235   4.066  12.712  0.9504 -2.0276 -0.7941
 4672SOL     OW25477   1.506   0.439   3.979  0.1413  0.2558 -0.4322
 4672SOL    HW125478   1.499   0.478   3.892  0.1010 -1.1471 -1.0716
 4672SOL    HW225479   1.510   0.348   3.947  0.2608 -0.1225  0.6467
 4673SOL     OW25480   4.316   0.761   7.818  0.2814  0.3896 -0.1224
 4673SOL    HW125481   4.403   0.776   7.857 -0.5915  0.7481  1.6606
 4673SOL    HW225482   4.351   0.718   7.740  0.6012  0.0385  0.2163
 4674SOL     OW25483   4.467   3.665   1.350 -0.0542 -0.4520  0.4663
 4674SOL    HW125484   4.402   3.604   1.314 -2.8552  1.1020  2.9417
 4674SOL    HW225485   4.506   3.609   1.417 -0.6692 -1.2059  0.2043
 4675SOL     OW25486   3.399   0.404  13.262 -0.1139  0.2998  0.3112
 4675SOL    HW125487   3.352   0.487  13.263  0.1884  0.4982 -1.3394
 4675SOL    HW225488   3.484   0.420  13.302  1.0472 -0.9102 -1.6645
 4676SOL     OW25489   0.152   1.526   4.828 -0.0289 -0.1096  0.5154
 4676SOL    HW125490   0.122   1.473   4.755 -0.6289 -0.0115  0.6904
 4676SOL    HW225491   0.208   1.593   4.788 -0.2257 -0.7663 -0.8568
 4677SOL     OW25492   1.214   3.031   3.357 -0.2353  0.4156  0.3594
 4677SOL    HW125493   1.214   3.107   3.298  0.1005 -1.2185 -1.7260
 4677SOL    HW225494   1.271   2.983   3.296  1.8202  1.3016  1.5912
 4678SOL     OW25495   4.149   2.376  15.868 -0.3927  0.4471 -0.0434
 4678SOL    HW125496   4.220   2.338  15.816 -1.2906 -1.0258 -0.1839
 4678SOL    HW225497   4.193   2.453  15.902 -0.6371  0.6770 -0.2537
 4679SOL     OW25498   4.617   4.375   7.493  0.3469 -0.3486  0.1893
 4679SOL    HW125499   4.686   4.419   7.443  1.6041 -1.7661  0.6719
 4679SOL    HW225500   4.656   4.290   7.512  1.4484 -0.2862 -1.7009
 4680SOL     OW25501   1.744   3.814   4.047  0.2854  0.0087  0.8003
 4680SOL    HW125502   1.832   3.817   4.084  1.1344 -0.5030 -1.2023
 4680SOL    HW225503   1.737   3.720   4.033  2.2013 -0.0217  0.0419
 4681SOL     OW25504   3.405   1.841  11.740 -0.5093  0.1209  0.0981
 4681SOL    HW125505   3.432   1.766  11.792 -0.9197  1.0380  1.6321
 4681SOL    HW225506   3.356   1.810  11.664 -2.3651  0.5959  1.1101
 4682SOL     OW25507   0.783   3.395  12.751  0.0030 -0.0644 -0.4061
 4682SOL    HW125508   0.873   3.423  12.766  0.3791 -0.4990 -1.8567
 4682SOL    HW225509   0.732   3.475  12.763 -0.6745 -0.5887  0.2149
 4683SOL     OW25510   3.139   3.041   8.789  0.1924 -0.0956 -0.1916
 4683SOL    HW125511   3.107   3.071   8.704  1.4857  0.0711 -0.6098
 4683SOL    HW225512   3.083   2.966   8.810 -0.2427  0.4091  0.4413
 4684SOL     OW25513   1.432   2.068   4.966 -0.2735  0.3855 -0.1733
 4684SOL    HW125514   1.404   2.124   4.893  0.5893  0.9533 -0.0746
 4684SOL    HW225515   1.355   2.048   5.019  0.3554 -0.0475  0.5770
 4685SOL     OW25516   3.871   0.752   2.687 -0.3830  0.2684  0.2027
 4685SOL    HW125517   3.798   0.810   2.663 -1.4504 -1.5462 -0.8951
 4685SOL    HW225518   3.943   0.801   2.648 -1.3096  0.0645 -1.7780
 4686SOL     OW25519   0.228   2.805   5.743 -0.0628  0.2534 -0.3388
 4686SOL    HW125520   0.136   2.811   5.718 -0.4339 -0.2128  0.9406
 4686SOL    HW225521   0.274   2.863   5.681  1.5839 -0.5765  0.1201
 4687SOL     OW25522   2.518   0.956   7.930  0.0291  0.1380  0.4513
 4687SOL    HW125523   2.506   1.051   7.931  0.1814  0.1624 -0.1679
 4687SOL    HW225524   2.561   0.948   7.845  1.0373 -0.0064  0.9696
 4688SOL     OW25525   2.720   2.090   3.200 -0.2888 -0.9382 -0.0168
 4688SOL    HW125526   2.690   2.123   3.285 -1.8191 -0.6134 -0.6731
 4688SOL    HW225527   2.688   2.167   3.152 -0.2926 -0.9309 -0.0028
 4689SOL     OW25528   0.309   3.728   7.210  0.1629 -0.1800  0.2705
 4689SOL    HW125529   0.245   3.664   7.181 -0.1847  0.3353 -0.0959
 4689SOL    HW225530   0.384   3.668   7.212 -1.9923 -2.8565 -0.1361
 4690SOL     OW25531   1.200   0.253  13.979 -0.0340  0.4415  0.2710
 4690SOL    HW125532   1.189   0.294  14.065  0.2601  1.8087 -0.3381
 4690SOL    HW225533   1.112   0.253  13.942  0.1741  1.9952 -0.2462
 4691SOL     OW25534   2.988   4.591   7.383 -0.4934  0.2483 -0.6618
 4691SOL    HW125535   2.964   4.545   7.302  0.0674  2.3593 -2.0488
 4691SOL    HW225536   2.926   4.548   7.441  1.3845 -1.1697  0.2764
 4692SOL     OW25537   0.393   1.026   3.917 -0.0579 -0.2899  0.6396
 4692SOL    HW125538   0.346   0.999   3.996  0.2503  1.6087  1.4533
 4692SOL    HW225539   0.416   0.938   3.887  1.3269  1.1628 -2.5261
 4693SOL     OW25540   4.314   0.454   1.191 -0.0068  0.3649 -0.2045
 4693SOL    HW125541   4.333   0.547   1.204  0.1672  0.0620  1.7092
 4693SOL    HW225542   4.379   0.412   1.248  1.8471  2.0604 -1.0846
 4694SOL     OW25543   2.428   1.520  15.951  0.5379 -0.1354 -1.0549
 4694SOL    HW125544   2.493   1.590  15.951  0.1477  0.2219  0.2251
 4694SOL    HW225545   2.350   1.564  15.918 -1.2027 -3.0173 -0.8021
 4695SOL     OW25546   0.258   1.326   5.914  0.0661  0.1784 -0.3416
 4695SOL    HW125547   0.300   1.361   5.992  0.7846  0.6183 -0.9181
 4695SOL    HW225548   0.328   1.261   5.911  0.0327  0.0943  1.1417
 4696SOL     OW25549   1.064   1.019   3.910  0.3001 -0.3801  0.7344
 4696SOL    HW125550   1.020   0.934   3.907 -1.9407  0.7005  3.8842
 4696SOL    HW225551   1.022   1.063   3.983  1.6349 -1.0425  1.8883
 4697SOL     OW25552   4.287   0.439   2.849 -0.2564  0.7856  0.2334
 4697SOL    HW125553   4.320   0.482   2.928 -1.6128  0.8258  0.7896
 4697SOL    HW225554   4.286   0.349   2.882  1.4672  0.9152  0.6452
 4698SOL     OW25555   1.359   2.844   0.830  0.5424  0.0924  0.0106
 4698SOL    HW125556   1.313   2.878   0.907  1.5345 -0.4748  0.8575
 4698SOL    HW225557   1.413   2.920   0.807 -1.7021  0.5965 -3.6099
 4699SOL     OW25558   1.800   0.426  15.021  0.2947 -0.2586 -0.0792
 4699SOL    HW125559   1.782   0.420  14.927 -3.4510  2.6127  0.4175
 4699SOL    HW225560   1.861   0.499  15.013 -1.1314  0.9452  0.0482
 4700SOL     OW25561   1.327   4.126   4.857 -0.7918 -0.3369  0.2451
 4700SOL    HW125562   1.370   4.158   4.778 -0.6416  2.1642  1.3672
 4700SOL    HW225563   1.245   4.104   4.813  1.1620 -1.0173 -3.0560
 4701SOL     OW25564   1.202   2.064  13.890 -0.2802  0.4918  0.0929
 4701SOL    HW125565   1.272   2.031  13.834 -0.1315  1.5727 -0.3671
 4701SOL    HW225566   1.215   1.999  13.959  3.7183  0.1506 -0.9773
 4702SOL     OW25567   0.287   3.948   9.343 -0.4616 -0.1484 -0.5448
 4702SOL    HW125568   0.234   3.897   9.403  0.5746  1.5207  1.8044
 4702SOL    HW225569   0.223   4.008   9.304  0.8075  1.4078 -0.2723
 4703SOL     OW25570   0.126   4.483  10.391  1.1864  0.2027  0.2255
 4703SOL    HW125571   0.064   4.452  10.325  1.1547  2.7202 -0.9291
 4703SOL    HW225572   0.067   4.493  10.466  0.6203  0.0823 -0.2087
 4704SOL     OW25573   0.253   2.922  11.229  0.2849  0.1671  0.0563
 4704SOL    HW125574   0.288   2.989  11.289 -0.4384  1.4369 -0.9370
 4704SOL    HW225575   0.251   2.955  11.140 -0.2263  0.8590  0.3220
 4705SOL     OW25576   2.451   3.489   4.675  0.0343  0.0815  0.2400
 4705SOL    HW125577   2.518   3.471   4.742 -0.6863 -1.8109  0.4611
 4705SOL    HW225578   2.462   3.583   4.686 -1.1951  0.4580 -1.8396
 4706SOL     OW25579   0.934   0.995  14.138  0.5542 -0.0563 -0.6288
 4706SOL    HW125580   0.933   0.941  14.217 -0.1272  1.0162  0.0898
 4706SOL    HW225581   0.845   1.030  14.142  0.8111  0.0370  3.4672
 4707SOL     OW25582   1.395   2.735   4.771  0.4894 -0.5918 -0.7253
 4707SOL    HW125583   1.379   2.641   4.762  1.6090 -0.2587 -6.0489
 4707SOL    HW225584   1.485   2.736   4.738  1.4928  1.5518  2.0822
 4708SOL     OW25585   0.679   2.312   4.006 -0.1730  0.4338  0.0762
 4708SOL    HW125586   0.743   2.277   4.068 -0.1813 -0.9496 -0.7157
 4708SOL    HW225587   0.605   2.263   4.043 -0.1619  0.2262 -0.1799
 4709SOL     OW25588   3.061   1.929   5.909  0.5248  0.3380 -0.1133
 4709SOL    HW125589   3.109   1.888   5.836  2.4195 -0.7081  1.7124
 4709SOL    HW225590   3.134   1.934   5.971  0.0183  0.3997  0.4755
 4710SOL     OW25591   1.735   4.106   5.847  0.0837 -0.5068  0.1062
 4710SOL    HW125592   1.698   4.129   5.932  1.8528  2.2537  0.1309
 4710SOL    HW225593   1.669   4.042   5.823  0.5277  0.1241 -2.7474
 4711SOL     OW25594   4.379   0.176   1.503  0.0378 -0.6180 -0.0756
 4711SOL    HW125595   4.303   0.139   1.548 -0.8537 -0.1732 -1.2062
 4711SOL    HW225596   4.424   0.098   1.471 -1.3234 -2.6971  3.1264
 4712SOL     OW25597   4.506   0.846  10.766  0.2896 -0.1130 -0.2846
 4712SOL    HW125598   4.495   0.771  10.708 -2.4391  1.1085 -1.3427
 4712SOL    HW225599   4.482   0.929  10.724  0.9464 -0.9115 -2.2282
 4713SOL     OW25600   1.914   2.066   5.185 -0.2664 -0.0720 -0.7090
 4713SOL    HW125601   1.926   2.159   5.202  0.6145 -0.5373  1.2058
 4713SOL    HW225602   1.919   2.072   5.090 -1.7057  0.4201 -0.7548
 4714SOL     OW25603   0.835   3.576   1.070 -0.0659 -0.2650  1.2736
 4714SOL    HW125604   0.743   3.579   1.043  0.7505  1.3866 -1.2496
 4714SOL    HW225605   0.859   3.514   1.002 -0.3132 -1.0691  1.9202
 4715SOL     OW25606   2.054   4.394   1.386  0.2612 -0.3669 -0.2861
 4715SOL    HW125607   2.086   4.304   1.373  2.0786  0.2702 -0.1771
 4715SOL    HW225608   1.963   4.380   1.362  0.5114  0.2753 -1.6071
 4716SOL     OW25609   0.797   2.894  11.386  0.0397  0.4211 -0.4902
 4716SOL    HW125610   0.761   2.981  11.368 -0.4887 -0.1380 -2.1640
 4716SOL    HW225611   0.762   2.886  11.474  0.5741 -1.2457 -0.4360
 4717SOL     OW25612   1.575   0.358  11.116  0.4469 -0.2394 -0.3468
 4717SOL    HW125613   1.640   0.365  11.047 -2.5404 -0.0211 -3.1412
 4717SOL    HW225614   1.534   0.275  11.091 -0.4182 -0.3375  1.3295
 4718SOL     OW25615   0.639   1.498   5.507 -0.2442 -0.1361 -0.4881
 4718SOL    HW125616   0.705   1.564   5.488  0.1537  0.1998  1.9713
 4718SOL    HW225617   0.656   1.426   5.447 -1.3687  2.2913 -3.6970
 4719SOL     OW25618   3.593   3.667   4.881 -0.2274  0.4152 -0.2870
 4719SOL    HW125619   3.531   3.695   4.814  0.1133  0.3894 -0.6129
 4719SOL    HW225620   3.661   3.734   4.887 -0.9398  1.1273 -0.1691
 4720SOL     OW25621   3.816   2.127   9.359  0.3500 -0.1171 -0.9063
 4720SOL    HW125622   3.768   2.066   9.303 -1.4638  0.5217 -0.0744
 4720SOL    HW225623   3.879   2.065   9.394  0.6329  0.1028 -1.0305
 4721SOL     OW25624   2.376   2.770   5.275  0.2245  0.3370 -0.7226
 4721SOL    HW125625   2.388   2.710   5.201 -2.2946  1.3365 -1.9374
 4721SOL    HW225626   2.316   2.833   5.234 -0.7178  0.1873  0.4175
 4722SOL     OW25627   2.574   1.885  15.257 -0.2711  0.1819 -0.4527
 4722SOL    HW125628   2.639   1.874  15.187  1.3996 -0.2617  1.1850
 4722SOL    HW225629   2.488   1.865  15.221  0.2803  0.4541 -1.9222
 4723SOL     OW25630   4.234   1.907   4.230  0.7355  0.0003 -0.8868
 4723SOL    HW125631   4.190   1.979   4.276  0.6237  0.9491 -2.4443
 4723SOL    HW225632   4.325   1.910   4.260  0.5691 -1.4086 -0.2773
 4724SOL     OW25633   4.209   4.553   6.093  0.5080  0.0311  0.3256
 4724SOL    HW125634   4.206   4.579   6.185  1.7881  2.0104 -0.1856
 4724SOL    HW225635   4.246   4.465   6.096  1.2827  0.2835 -1.7929
 4725SOL     OW25636   3.166   1.944   2.728 -0.0535  0.1387  0.1255
 4725SOL    HW125637   3.221   1.887   2.674 -0.9554  1.0687 -1.7848
 4725SOL    HW225638   3.228   1.987   2.786  1.0403  0.9002 -1.6124
 4726SOL     OW25639   1.292   0.277   8.597  0.1044 -0.1223 -0.3720
 4726SOL    HW125640   1.225   0.332   8.636  0.3747 -1.0187  1.3793
 4726SOL    HW225641   1.348   0.249   8.670 -2.2023  1.7686  2.1406
 4727SOL     OW25642   0.841   3.178   5.097  0.5058 -0.0242 -0.1322
 4727SOL    HW125643   0.828   3.227   5.015  0.7023 -0.9107 -0.6925
 4727SOL    HW225644   0.933   3.205   5.104  0.5060 -0.6676  2.1482
 4728SOL     OW25645   2.285   3.073   8.374  0.0559 -0.0253  0.1913
 4728SOL    HW125646   2.253   3.052   8.462 -3.6475 -1.6780 -1.5467
 4728SOL    HW225647   2.222   3.142   8.351 -0.1086 -0.0088  0.6826
 4729SOL     OW25648   4.571   3.910   6.733  0.6415  0.1366 -0.0265
 4729SOL    HW125649   4.639   3.887   6.796  0.4637  0.7788  0.4070
 4729SOL    HW225650   4.598   3.887   6.645 -1.3990 -0.6673 -0.4564
 4730SOL     OW25651   1.356   2.848   5.527  0.7644  0.2169  0.2827
 4730SOL    HW125652   1.433   2.793   5.514 -0.4587 -0.9880 -1.8818
 4730SOL    HW225653   1.388   2.935   5.552  0.3394  0.1296  1.1483
 4731SOL     OW25654   3.353   1.796  11.252  0.3900  0.1687  0.0159
 4731SOL    HW125655   3.436   1.820  11.293  0.3916 -2.7650  1.7932
 4731SOL    HW225656   3.379   1.712  11.213 -3.6007  0.0239 -2.3223
 4732SOL     OW25657   3.617   0.236   5.826 -0.1539  0.1069 -0.4597
 4732SOL    HW125658   3.691   0.205   5.774  1.9066  0.5949  2.2132
 4732SOL    HW225659   3.548   0.201   5.769 -0.7066  2.4969 -1.2859
 4733SOL     OW25660   4.231   3.930  10.318 -0.1388  0.2136 -0.1637
 4733SOL    HW125661   4.218   3.840  10.286 -0.9133  0.4176 -0.4256
 4733SOL    HW225662   4.215   3.915  10.411 -0.7865  1.4677 -0.0808
 4734SOL     OW25663   0.377   0.590  10.598 -0.1874  0.2639 -0.3952
 4734SOL    HW125664   0.305   0.649  10.577  0.0665  0.3322 -1.1036
 4734SOL    HW225665   0.387   0.590  10.693 -2.5589  2.5258 -0.1515
 4735SOL     OW25666   4.717   4.528   2.074  0.1740 -0.1265  0.2573
 4735SOL    HW125667   4.691   4.544   2.165 -0.3384 -0.6541  0.2026
 4735SOL    HW225668   0.041   4.610   2.058 -0.2887 -0.4750 -2.9107
 4736SOL     OW25669   1.771   4.045   6.390  0.1621  0.4540  0.7039
 4736SOL    HW125670   1.714   3.972   6.413 -0.7764  0.3634 -1.9037
 4736SOL    HW225671   1.855   3.999   6.392  0.2951  0.5852 -2.3001
 4737SOL     OW25672   1.769   2.265   3.708 -0.2315 -0.1484  0.6769
 4737SOL    HW125673   1.747   2.357   3.695  1.5567  0.4013  1.4964
 4737SOL    HW225674   1.728   2.260   3.795 -0.2399  1.4578  0.7600
 4738SOL     OW25675   3.593   0.210   7.798 -0.0082 -0.0456  0.3226
 4738SOL    HW125676   3.680   0.211   7.837 -0.6533 -0.5429  1.7842
 4738SOL    HW225677   3.559   0.134   7.846  1.5624 -1.1680 -0.3176
 4739SOL     OW25678   1.066   1.530   5.845 -0.5601 -0.5082  0.5235
 4739SOL    HW125679   1.038   1.598   5.783 -1.8964 -1.1135  0.4503
 4739SOL    HW225680   1.129   1.579   5.898 -0.6308 -0.5293  0.6273
 4740SOL     OW25681   1.380   4.129   6.738  0.2488  0.2564  0.5704
 4740SOL    HW125682   1.328   4.207   6.759 -2.5105 -2.0648  2.2911
 4740SOL    HW225683   1.349   4.107   6.650  3.4974  1.3744 -0.8541
 4741SOL     OW25684   3.549   0.049  12.692 -0.2280  0.0996 -0.3920
 4741SOL    HW125685   3.549   0.046  12.788  0.7828 -3.2510 -0.4887
 4741SOL    HW225686   3.460   0.026  12.666 -1.2188  2.5703  0.8572
 4742SOL     OW25687   2.869   1.467   8.355  0.1772 -0.0333 -0.6847
 4742SOL    HW125688   2.870   1.447   8.448 -0.4331  1.6905 -0.2947
 4742SOL    HW225689   2.775   1.485   8.349 -0.2349 -1.6906  1.0889
 4743SOL     OW25690   4.327   4.658   6.858 -0.3386  0.0607 -0.6429
 4743SOL    HW125691   4.345   4.616   6.774 -0.1100  0.5605 -0.8405
 4743SOL    HW225692   4.298   0.022   6.831  3.6756  2.1399  1.6134
 4744SOL     OW25693   3.676   2.909   7.168 -0.3619 -0.2960  0.3281
 4744SOL    HW125694   3.734   2.875   7.236  0.3619  0.3375  0.0297
 4744SOL    HW225695   3.694   2.854   7.091  1.2688  1.2255 -0.3731
 4745SOL     OW25696   0.847   4.261   4.266 -0.2472 -1.0334  0.2579
 4745SOL    HW125697   0.800   4.313   4.200  1.8458  0.5895  0.0554
 4745SOL    HW225698   0.934   4.299   4.254 -1.7584  1.7676 -1.8856
 4746SOL     OW25699   1.633   4.628   5.329 -0.0955 -0.6517  0.1369
 4746SOL    HW125700   1.714   4.583   5.349  0.0428  0.1780  1.3989
 4746SOL    HW225701   1.591   4.607   5.412 -1.2969  0.8003 -0.0882
 4747SOL     OW25702   3.322   2.645   7.885 -0.3211  0.3046  0.1510
 4747SOL    HW125703   3.331   2.737   7.910  3.9287 -0.1895  0.4687
 4747SOL    HW225704   3.258   2.618   7.950 -0.4473  0.6766  0.1818
 4748SOL     OW25705   3.696   3.697   3.893 -0.1430 -0.5460 -0.2954
 4748SOL    HW125706   3.601   3.701   3.888 -0.0307  1.8151 -0.1336
 4748SOL    HW225707   3.720   3.747   3.816 -2.1010 -1.1804 -1.2986
 4749SOL     OW25708   0.257   4.299   2.527 -0.0558 -0.4581  0.1961
 4749SOL    HW125709   0.267   4.205   2.518  0.0187 -0.5772  1.4707
 4749SOL    HW225710   0.193   4.297   2.598 -1.7212  1.7683 -1.2361
 4750SOL     OW25711   1.780   1.904   7.331  0.4505  0.4371  0.5652
 4750SOL    HW125712   1.780   1.860   7.416 -1.8984 -0.7545 -0.0407
 4750SOL    HW225713   1.703   1.961   7.325  1.5444  1.5887 -2.5668
 4751SOL     OW25714   1.142   3.157  17.515 -0.4116  0.1923 -0.0378
 4751SOL    HW125715   1.121   3.156  17.608  0.2109 -1.8889  0.0820
 4751SOL    HW225716   1.129   3.068  17.483  0.4359 -0.9497  2.7426
 4752SOL     OW25717   3.984   0.046  13.584 -0.2244 -0.2275 -0.4181
 4752SOL    HW125718   3.903   0.059  13.633 -0.7167 -2.7524 -0.5402
 4752SOL    HW225719   3.962   4.689  13.535 -0.3918 -0.0878 -0.5723
 4753SOL     OW25720   1.905   1.023   4.856  0.0308 -0.8457  0.2810
 4753SOL    HW125721   1.930   0.943   4.811 -3.4623 -0.9479 -1.4304
 4753SOL    HW225722   1.876   0.971   4.931 -2.6188  1.5434  0.9292
 4754SOL     OW25723   1.786   1.775   8.163 -0.0658 -0.5701 -0.0069
 4754SOL    HW125724   1.779   1.682   8.185  0.5702 -0.2750  1.4033
 4754SOL    HW225725   1.798   1.809   8.251  2.4604  0.8575 -0.9047
 4755SOL     OW25726   3.388   0.419   5.750  0.1768  0.3029  0.1480
 4755SOL    HW125727   3.440   0.388   5.676 -3.2098  0.6681 -2.3499
 4755SOL    HW225728   3.386   0.512   5.727  0.5685  0.4525  0.7072
 4756SOL     OW25729   0.752   3.013  17.144 -0.1724  0.3057  0.4909
 4756SOL    HW125730   0.735   3.073  17.217 -0.4730 -0.3817  0.9772
 4756SOL    HW225731   0.730   2.930  17.186 -1.1844  0.7726  0.8681
 4757SOL     OW25732   4.423   1.837   1.915 -0.0115  0.6729  0.4202
 4757SOL    HW125733   4.368   1.760   1.926 -0.1459  0.5700 -1.0331
 4757SOL    HW225734   4.391   1.877   1.834  0.7843 -0.1408 -0.2937
 4758SOL     OW25735   2.548   2.737   6.919 -0.1387 -0.2267 -0.5373
 4758SOL    HW125736   2.633   2.715   6.955 -0.8487 -2.0287  0.0435
 4758SOL    HW225737   2.550   2.832   6.932  0.2060 -0.1306 -1.3004
 4759SOL     OW25738   0.400   3.188   7.191  0.3814  0.5755  0.5330
 4759SOL    HW125739   0.477   3.181   7.135  0.8111  0.3490  1.1501
 4759SOL    HW225740   0.333   3.198   7.125  1.4755 -0.9709 -0.8138
 4760SOL     OW25741   2.330   3.313   7.566 -0.0745  0.4622  0.1354
 4760SOL    HW125742   2.274   3.283   7.637 -0.8450  0.5497 -0.4407
 4760SOL    HW225743   2.270   3.366   7.514 -1.4274 -1.4659 -0.2540
 4761SOL     OW25744   3.709   1.852   9.397  0.2690  0.1329  0.1766
 4761SOL    HW125745   3.780   1.878   9.456  0.6443 -1.1049  0.2516
 4761SOL    HW225746   3.734   1.761   9.385  1.6452  0.3786  1.1199
 4762SOL     OW25747   1.889   3.445  15.697  0.7360  0.3064  0.4064
 4762SOL    HW125748   1.904   3.461  15.604 -0.0985  1.4482  0.4587
 4762SOL    HW225749   1.827   3.372  15.692  1.8726 -0.5385 -1.0034
 4763SOL     OW25750   0.793   0.159   1.212  0.2787  0.0382 -0.5343
 4763SOL    HW125751   0.886   0.148   1.192  0.4503  0.1159  0.2208
 4763SOL    HW225752   0.800   0.245   1.255 -1.3943  0.0157 -0.2110
 4764SOL     OW25753   2.533   3.720   5.865  0.3770  0.2315  0.2462
 4764SOL    HW125754   2.565   3.649   5.921  2.8254  0.6601 -0.6171
 4764SOL    HW225755   2.439   3.737   5.876 -0.0149  0.9263 -4.1592
 4765SOL     OW25756   3.074   2.745   8.888  0.8184 -0.3629 -0.0181
 4765SOL    HW125757   3.036   2.674   8.939 -0.9423 -0.0288 -0.8565
 4765SOL    HW225758   3.072   2.713   8.797  0.8013 -1.1480  0.2595
 4766SOL     OW25759   0.380   4.105   4.659 -0.2537 -0.3709 -0.5293
 4766SOL    HW125760   0.415   4.154   4.584 -0.4914  0.9921  0.2608
 4766SOL    HW225761   0.378   4.165   4.733 -0.1200 -0.6761 -0.2742
 4767SOL     OW25762   2.257   0.203   4.826  0.0382  0.3090 -0.0694
 4767SOL    HW125763   2.219   0.168   4.906 -0.5143 -0.2236 -0.5652
 4767SOL    HW225764   2.181   0.251   4.793 -1.0331 -1.7431 -0.5817
 4768SOL     OW25765   0.482   2.295   6.751  0.4793  0.0258  0.2774
 4768SOL    HW125766   0.452   2.349   6.678 -0.4422 -2.5041 -1.2195
 4768SOL    HW225767   0.560   2.255   6.711 -0.6804 -0.5677 -1.3786
 4769SOL     OW25768   3.839   1.291   3.606 -0.3010  0.6086 -0.4518
 4769SOL    HW125769   3.918   1.311   3.556 -0.3703 -0.2574 -0.9104
 4769SOL    HW225770   3.788   1.231   3.551 -2.6919  1.4572  0.8103
 4770SOL     OW25771   1.311   3.964   5.221 -0.0704  0.7943 -0.0240
 4770SOL    HW125772   1.317   3.871   5.199  0.0200  0.7103  0.3515
 4770SOL    HW225773   1.405   3.982   5.230 -0.0205  1.3085 -1.4724
 4771SOL     OW25774   4.197   2.075  10.165  0.2226 -0.1443 -0.0231
 4771SOL    HW125775   4.282   2.073  10.209  0.3244  3.5792 -0.0198
 4771SOL    HW225776   4.184   2.167  10.140 -1.8339 -0.1915  0.8167
 4772SOL     OW25777   3.241   1.537   0.606  0.3041  0.3876  0.2437
 4772SOL    HW125778   3.335   1.522   0.598  0.4149 -0.4890  3.1501
 4772SOL    HW225779   3.209   1.456   0.647  0.1939 -0.7738 -2.1443
 4773SOL     OW25780   1.290   0.490   3.115  0.2573  0.1491  0.0770
 4773SOL    HW125781   1.359   0.539   3.071  0.4256 -0.4967 -0.3727
 4773SOL    HW225782   1.314   0.500   3.207  0.5894 -0.4345  0.0583
 4774SOL     OW25783   1.769   2.056   4.608  0.0107 -0.1845 -0.0729
 4774SOL    HW125784   1.838   2.020   4.665 -1.0638 -0.0401  1.3308
 4774SOL    HW225785   1.699   2.006   4.650  0.5730 -1.5204 -0.7418
 4775SOL     OW25786   3.589   4.677   8.673  0.0844 -0.0284 -0.2541
 4775SOL    HW125787   3.544   4.609   8.722  0.4267  0.0508  0.1769
 4775SOL    HW225788   3.623   4.622   8.603 -0.7661  0.1191 -0.7793
 4776SOL     OW25789   0.714   0.240   2.518  0.2474 -1.1106 -0.6397
 4776SOL    HW125790   0.618   0.242   2.513  0.2490 -2.6931 -1.3287
 4776SOL    HW225791   0.742   0.300   2.449  0.2921  0.1983  0.5234
 4777SOL     OW25792   2.796   4.681   5.828  0.3610 -0.9184 -0.3431
 4777SOL    HW125793   2.780   4.681   5.734 -1.6016  1.4171  0.0026
 4777SOL    HW225794   2.892   4.681   5.830  0.3212 -1.9852  1.5658
 4778SOL     OW25795   0.397   1.544  13.670  0.0246  0.0845  0.2177
 4778SOL    HW125796   0.366   1.463  13.629  0.2709 -0.7505  1.6836
 4778SOL    HW225797   0.447   1.510  13.744  2.8967  2.3587 -0.6712
 4779SOL     OW25798   2.676   1.008   5.613 -0.0927 -0.1514 -0.3601
 4779SOL    HW125799   2.661   0.999   5.707  2.2500 -2.2976 -0.2138
 4779SOL    HW225800   2.608   1.072   5.592 -1.1582 -1.6579 -1.5088
 4780SOL     OW25801   0.055   1.361  10.155 -0.0125  0.1938  0.6188
 4780SOL    HW125802   0.015   1.438  10.116 -0.1963 -1.6982 -2.8919
 4780SOL    HW225803   0.146   1.369  10.124  1.2159 -4.1813  3.0916
 4781SOL     OW25804   2.034   3.533  11.534 -0.0778  0.1616  0.2903
 4781SOL    HW125805   1.999   3.613  11.574 -0.2966 -0.5116  1.4474
 4781SOL    HW225806   2.088   3.508  11.609 -0.0099  0.4276  0.3302
 4782SOL     OW25807   1.480   1.830   2.254 -0.3219  0.2310  0.1184
 4782SOL    HW125808   1.503   1.748   2.210  1.6737  0.1478  1.2975
 4782SOL    HW225809   1.466   1.899   2.189  1.2626 -0.4283 -0.9362
 4783SOL     OW25810   0.096   4.269  12.653  0.0455 -0.2259 -0.2932
 4783SOL    HW125811   0.148   4.202  12.610 -3.2777 -3.2411  0.4005
 4783SOL    HW225812   0.016   4.217  12.664  0.0756  0.0880  1.4692
 4784SOL     OW25813   3.815   1.814  10.962 -0.1543 -0.2751 -0.0574
 4784SOL    HW125814   3.874   1.801  10.888 -0.7263  0.0225 -0.5595
 4784SOL    HW225815   3.733   1.848  10.928  1.2154 -0.3268 -3.3690
 4785SOL     OW25816   2.731   0.352   8.775 -0.3417 -0.0600 -0.5957
 4785SOL    HW125817   2.687   0.429   8.740 -0.8061 -1.7255 -3.6927
 4785SOL    HW225818   2.712   0.370   8.867  0.3102 -1.7252 -0.1320
 4786SOL     OW25819   3.564   0.831   7.717 -0.2358  0.2868  0.0242
 4786SOL    HW125820   3.576   0.775   7.794 -2.0261 -0.3074 -0.1446
 4786SOL    HW225821   3.568   0.913   7.767  0.9605  0.3141 -0.1157
 4787SOL     OW25822   3.838   2.583  17.252 -0.0358 -0.3632 -0.1197
 4787SOL    HW125823   3.907   2.639  17.288 -1.1547 -0.7366  2.6133
 4787SOL    HW225824   3.773   2.654  17.251  1.1207  0.6941  0.3612
 4788SOL     OW25825   2.829   2.372  14.819  0.2668  0.5648  0.1990
 4788SOL    HW125826   2.909   2.369  14.765 -1.1467  0.7862 -1.9158
 4788SOL    HW225827   2.819   2.289  14.866 -1.8540 -1.1092 -3.2002
 4789SOL     OW25828   0.513   3.335   4.836  0.0975  0.1504  0.0753
 4789SOL    HW125829   0.567   3.406   4.800 -0.6396 -0.9296 -3.1552
 4789SOL    HW225830   0.565   3.264   4.798  1.6306  1.3156 -0.0153
 4790SOL     OW25831   4.469   2.228  10.727  0.5413 -0.0278 -0.1224
 4790SOL    HW125832   4.489   2.322  10.730  1.6653 -0.2846  0.1725
 4790SOL    HW225833   4.486   2.202  10.817  0.5836  0.9642  0.1545
 4791SOL     OW25834   1.479   3.881   2.213  0.2452 -0.0849 -0.5618
 4791SOL    HW125835   1.491   3.786   2.213  0.5038 -0.0519 -1.7543
 4791SOL    HW225836   1.550   3.898   2.275 -0.7593  0.4456  0.4367
 4792SOL     OW25837   3.305   0.995  14.763 -0.2434 -0.2375  0.3219
 4792SOL    HW125838   3.333   1.016  14.674 -0.5554 -0.2786  0.2114
 4792SOL    HW225839   3.211   1.016  14.761 -0.5621 -1.9068 -1.7386
 4793SOL     OW25840   4.217   2.279   1.151  0.5617 -0.0035 -0.2126
 4793SOL    HW125841   4.207   2.374   1.161  1.8304  0.2222 -1.0999
 4793SOL    HW225842   4.299   2.267   1.103 -0.0888 -1.4601 -0.9369
 4794SOL     OW25843   1.472   1.035  15.382  0.6067 -0.1349 -0.0005
 4794SOL    HW125844   1.391   1.054  15.429  0.2519 -1.3826 -0.0964
 4794SOL    HW225845   1.457   0.947  15.346  0.8031  0.2621 -1.0373
 4795SOL     OW25846   0.517   3.837   2.158 -0.5478 -0.1545 -0.2773
 4795SOL    HW125847   0.560   3.781   2.223 -0.7692 -0.4302 -0.3676
 4795SOL    HW225848   0.549   3.797   2.078  3.1415  0.2508  0.9788
 4796SOL     OW25849   4.114   1.159   0.267  0.6227 -0.1714 -0.2737
 4796SOL    HW125850   4.041   1.220   0.255 -0.8109 -2.6076 -3.5409
 4796SOL    HW225851   4.063   1.082   0.293  0.3877  0.8388  2.3329
 4797SOL     OW25852   0.095   0.075  11.684 -0.3384  0.2247  0.5847
 4797SOL    HW125853   0.087   0.171  11.686 -0.2285  0.2489 -0.2166
 4797SOL    HW225854   0.003   0.046  11.687  0.5843 -2.8572 -0.8127
 4798SOL     OW25855   4.545   1.070   9.762  0.2288  0.5226  0.2267
 4798SOL    HW125856   4.600   1.104   9.833 -0.3669 -0.5249  1.1904
 4798SOL    HW225857   4.459   1.051   9.798 -0.3348  0.4444 -1.1888
 4799SOL     OW25858   1.702   0.453   3.569  0.2299 -0.0093 -0.4996
 4799SOL    HW125859   1.763   0.480   3.501  1.2555 -1.0439  0.0055
 4799SOL    HW225860   1.679   0.367   3.534 -0.8038  0.2851 -0.5332
 4800SOL     OW25861   2.551   3.200  17.288 -0.3797  0.6138 -0.2973
 4800SOL    HW125862   2.539   3.264  17.218  1.4593  0.1788 -1.0220
 4800SOL    HW225863   2.604   3.258  17.343  0.7314  0.2127 -0.9556
 4801SOL     OW25864   1.245   0.119  14.927  0.1468  0.4294  0.4755
 4801SOL    HW125865   1.329   0.137  14.969  0.7554 -3.3686  0.8746
 4801SOL    HW225866   1.251   0.194  14.867  0.4043 -0.0088 -0.0438
 4802SOL     OW25867   0.423   1.508   5.659  0.2684  0.0818 -0.0198
 4802SOL    HW125868   0.380   1.581   5.615 -1.6138 -0.7186  0.5249
 4802SOL    HW225869   0.492   1.503   5.593  2.8196  0.3742  2.6002
 4803SOL     OW25870   3.933   3.362   9.467 -0.1819  0.2071 -0.0359
 4803SOL    HW125871   3.935   3.372   9.563 -1.2722 -2.6505  0.2920
 4803SOL    HW225872   3.843   3.335   9.449  0.3116  0.1896 -2.3698
 4804SOL     OW25873   3.236   0.270   4.109 -0.0016 -0.2033 -0.5084
 4804SOL    HW125874   3.263   0.325   4.183  1.3685 -0.9951 -0.4310
 4804SOL    HW225875   3.281   0.325   4.044  2.4878  0.3362  1.6642
 4805SOL     OW25876   0.279   1.670   5.507  0.7142 -0.0970 -0.4009
 4805SOL    HW125877   0.340   1.737   5.477  0.9488  0.1786  0.6679
 4805SOL    HW225878   0.250   1.636   5.423  0.3586 -0.8760  0.0333
 4806SOL     OW25879   2.895   2.668   3.050 -0.0053 -0.0171  0.0357
 4806SOL    HW125880   2.936   2.637   2.969 -1.6628  0.4720 -1.0063
 4806SOL    HW225881   2.921   2.760   3.058 -2.2323  0.6787 -0.6185
 4807SOL     OW25882   2.982   0.234   8.804  0.1005 -0.1247  0.8275
 4807SOL    HW125883   2.956   0.149   8.768  0.1955  0.3540 -0.3511
 4807SOL    HW225884   2.894   0.269   8.793 -0.3046 -0.2577  3.5759
 4808SOL     OW25885   4.427   1.735   2.902  0.3034  0.9700  0.1506
 4808SOL    HW125886   4.415   1.640   2.896  0.0709  1.0099 -0.0159
 4808SOL    HW225887   4.384   1.770   2.824  2.6627  0.2262 -1.4671
 4809SOL     OW25888   3.935   2.461  17.030  0.3953  0.7215  0.3506
 4809SOL    HW125889   3.902   2.492  17.114  0.8043 -1.0963  1.1907
 4809SOL    HW225890   3.921   2.529  16.964  0.4331 -0.7260 -1.1564
 4810SOL     OW25891   4.559   1.894  12.573  0.9187 -0.1914 -0.0109
 4810SOL    HW125892   4.579   1.818  12.629  0.4795  1.0461  1.8165
 4810SOL    HW225893   4.590   1.965  12.629  0.2955  0.3221 -0.3237
 4811SOL     OW25894   0.589   0.860   4.501 -0.3261  0.4230 -0.6487
 4811SOL    HW125895   0.519   0.813   4.456 -1.1527 -0.1355  1.2544
 4811SOL    HW225896   0.613   0.926   4.435  1.0342  1.6997  1.1369
 4812SOL     OW25897   4.177   2.924   5.036  0.1228 -0.2876 -0.0747
 4812SOL    HW125898   4.267   2.896   5.018  0.0066 -0.6816 -0.0383
 4812SOL    HW225899   4.200   3.017   5.041 -1.2419  0.0382 -0.0243
 4813SOL     OW25900   1.829   2.982   0.439  0.5966  0.0022 -0.4403
 4813SOL    HW125901   1.754   3.012   0.491  1.6075  2.2499 -0.2643
 4813SOL    HW225902   1.886   3.058   0.427  1.3255 -0.2337  1.5313
 4814SOL     OW25903   1.246   1.937   4.449  0.5754 -0.6101  0.0498
 4814SOL    HW125904   1.333   1.949   4.410  0.1602 -1.5879 -1.1390
 4814SOL    HW225905   1.227   1.849   4.418 -0.5247 -1.0401  1.9685
 4815SOL     OW25906   2.013   4.161   2.832  0.2819 -0.2044  0.1680
 4815SOL    HW125907   2.086   4.208   2.872  0.9117 -2.6210  1.8872
 4815SOL    HW225908   2.020   4.197   2.743 -0.1918  1.8657  0.9838
 4816SOL     OW25909   1.308   2.857  17.598  0.0184  0.2287  0.8785
 4816SOL    HW125910   1.245   2.892  17.535  0.1955 -0.7231  0.1834
 4816SOL    HW225911   1.264   2.775  17.618 -0.6335  0.3289 -0.1673
 4817SOL     OW25912   3.418   3.208   4.293 -0.2015  0.6058  0.1811
 4817SOL    HW125913   3.484   3.142   4.274  1.2246  2.1073 -0.1034
 4817SOL    HW225914   3.339   3.176   4.251  1.1806 -1.9508 -0.4352
 4818SOL     OW25915   2.938   3.194   5.036 -0.3312 -0.8036 -0.6532
 4818SOL    HW125916   2.886   3.232   4.966 -0.9336  0.2361  0.3443
 4818SOL    HW225917   3.022   3.172   4.995 -1.0176 -2.7227 -1.0140
 4819SOL     OW25918   1.552   4.517   7.889  0.1431 -0.0754  0.1296
 4819SOL    HW125919   1.485   4.455   7.919  1.0663 -0.5417  1.2492
 4819SOL    HW225920   1.563   4.581   7.959 -1.6647  0.9146 -0.4984
 4820SOL     OW25921   4.586   0.303   5.775 -0.3442  0.0390 -0.0332
 4820SOL    HW125922   4.675   0.299   5.811 -0.5751  2.3109  0.8228
 4820SOL    HW225923   4.586   0.267   5.686  0.8059  0.5730 -0.2511
 4821SOL     OW25924   1.188   2.656   2.044  0.3523 -0.6943  0.3882
 4821SOL    HW125925   1.221   2.658   2.134 -0.6696  4.1445  0.6557
 4821SOL    HW225926   1.249   2.601   1.996  1.8864  0.7083  0.7418
 4822SOL     OW25927   0.886   1.682   4.174 -0.7905 -0.1423 -0.0651
 4822SOL    HW125928   0.795   1.665   4.148 -0.4051 -1.9005 -0.2648
 4822SOL    HW225929   0.924   1.656   4.091 -1.3469 -0.0858 -0.3410
 4823SOL     OW25930   2.174   0.282   9.127 -0.1563  0.2941 -0.3113
 4823SOL    HW125931   2.171   0.374   9.102 -1.1624  0.1684 -0.6678
 4823SOL    HW225932   2.086   0.258   9.158  0.7809  1.5380  3.2952
 4824SOL     OW25933   0.764   1.049   9.711  0.7002  0.5892 -0.1584
 4824SOL    HW125934   0.802   0.964   9.688  0.2428  0.1402  0.7490
 4824SOL    HW225935   0.680   1.041   9.666  0.6508 -0.3671  0.1110
 4825SOL     OW25936   2.203   4.306   5.341 -0.2533  0.3533 -0.1949
 4825SOL    HW125937   2.144   4.236   5.368  0.9226 -1.5481 -2.5419
 4825SOL    HW225938   2.146   4.347   5.277 -0.5014 -0.5652 -0.5658
 4826SOL     OW25939   0.711   2.301   4.316 -0.2554  0.1272  0.3728
 4826SOL    HW125940   0.729   2.213   4.283  1.8894  0.4819  0.5748
 4826SOL    HW225941   0.789   2.324   4.367  1.3459  0.2107 -2.0859
 4827SOL     OW25942   4.493   3.402   2.777 -0.5299  0.3990 -0.6920
 4827SOL    HW125943   4.444   3.328   2.815 -1.4758  1.1973 -0.3373
 4827SOL    HW225944   4.471   3.465   2.846 -0.8016 -1.9073  1.3504
 4828SOL     OW25945   4.661   0.131   4.335  0.4207  0.4129 -0.2841
 4828SOL    HW125946   4.597   0.105   4.270 -0.4258  1.1335  0.2532
 4828SOL    HW225947   4.649   0.226   4.338 -1.4780  0.1459  0.7982
 4829SOL     OW25948   4.354   4.009   7.873 -0.1125 -0.5427 -0.1571
 4829SOL    HW125949   4.268   4.016   7.829 -0.4002  1.4077  0.7158
 4829SOL    HW225950   4.413   4.073   7.833  0.6382 -0.5121  1.0171
 4830SOL     OW25951   2.563   2.360   8.780  0.1212  0.2698 -0.0766
 4830SOL    HW125952   2.586   2.278   8.736 -0.7824 -0.8678  1.5595
 4830SOL    HW225953   2.509   2.408   8.717  0.7424  1.0483 -0.0042
 4831SOL     OW25954   3.038   1.499   2.011 -0.7530  0.7363  0.0409
 4831SOL    HW125955   3.110   1.503   2.074 -1.5731  0.5694  0.9841
 4831SOL    HW225956   3.084   1.473   1.931 -0.3605  1.5929 -0.0114
 4832SOL     OW25957   0.754   2.892   2.378  0.5586 -0.0375  0.0352
 4832SOL    HW125958   0.676   2.837   2.379  0.8840 -0.4996 -0.0928
 4832SOL    HW225959   0.722   2.968   2.329  0.9844  1.3397  1.8712
 4833SOL     OW25960   0.275   0.206   8.621  0.0663  0.9141 -0.2740
 4833SOL    HW125961   0.242   0.278   8.674 -2.1441  0.0988 -0.5323
 4833SOL    HW225962   0.359   0.196   8.665  1.8329  2.0565 -3.4535
 4834SOL     OW25963   4.718   1.394   5.480  0.1809 -0.0830 -0.1491
 4834SOL    HW125964   0.054   1.355   5.415 -0.4383  1.6297 -1.7232
 4834SOL    HW225965   0.054   1.384   5.555 -0.7230  0.5817  0.6406
 4835SOL     OW25966   4.207   3.197   8.291  0.0127 -0.2448 -0.1148
 4835SOL    HW125967   4.177   3.242   8.212 -1.2811  0.1003  0.5697
 4835SOL    HW225968   4.166   3.244   8.364  1.9400  0.7478  0.3571
 4836SOL     OW25969   4.129   2.405   6.002 -0.0971 -0.1502  0.0402
 4836SOL    HW125970   4.044   2.447   6.011 -0.0514  0.0485 -0.4510
 4836SOL    HW225971   4.110   2.316   5.972  2.1764 -0.6677  0.1502
 4837SOL     OW25972   4.526   0.035   6.470  0.5527  0.1208  0.5456
 4837SOL    HW125973   4.530   0.111   6.528 -1.4390  1.3133 -0.8566
 4837SOL    HW225974   4.579   0.061   6.395 -0.5299  1.6588  0.2996
 4838SOL     OW25975   3.780   3.234   6.365 -0.4567 -0.0954 -0.1246
 4838SOL    HW125976   3.730   3.185   6.300  0.2075  0.8237 -1.3177
 4838SOL    HW225977   3.702   3.280   6.398 -1.8414 -1.5981 -1.3148
 4839SOL     OW25978   1.395   1.665  14.790  0.1331 -0.4450  0.4994
 4839SOL    HW125979   1.330   1.595  14.792 -0.5031  0.1744  1.2810
 4839SOL    HW225980   1.385   1.703  14.877 -0.4831  0.2644  0.1078
 4840SOL     OW25981   3.579   2.980   3.111  0.2503 -0.3345  0.4724
 4840SOL    HW125982   3.587   3.066   3.153  0.8626  0.6979 -1.7074
 4840SOL    HW225983   3.664   2.944   3.136 -0.3555 -0.5730  2.1456
 4841SOL     OW25984   4.216   1.452   6.471  0.3632 -1.0842  0.2794
 4841SOL    HW125985   4.272   1.376   6.459 -1.0901 -1.8810 -1.5364
 4841SOL    HW225986   4.145   1.428   6.411  0.0386 -1.0638  0.6538
 4842SOL     OW25987   2.750   1.545   0.467  0.7394 -0.1419 -0.3950
 4842SOL    HW125988   2.814   1.502   0.524  0.2409  1.9891  1.7691
 4842SOL    HW225989   2.678   1.528   0.527  0.1123 -0.9024 -1.3614
 4843SOL     OW25990   0.306   2.442   8.952 -0.0066 -0.2350  0.0207
 4843SOL    HW125991   0.349   2.479   8.875  0.9882 -0.4233  0.4863
 4843SOL    HW225992   0.244   2.511   8.975 -0.9836 -1.4523  1.0175
 4844SOL     OW25993   4.700   2.555  10.489 -0.2363 -0.0668 -0.6771
 4844SOL    HW125994   0.035   2.496  10.441  0.3751 -0.3598  0.4262
 4844SOL    HW225995   0.040   2.615  10.531 -1.5427  1.0424 -0.2914
 4845SOL     OW25996   0.403   1.676  10.795  0.3367 -0.0119  0.1296
 4845SOL    HW125997   0.334   1.729  10.834  1.0627  2.2177 -1.6665
 4845SOL    HW225998   0.474   1.740  10.792 -0.6529  1.1029  0.5953
 4846SOL     OW25999   4.211   2.715   3.046 -0.1781 -0.0840 -0.1117
 4846SOL    HW126000   4.116   2.721   3.034  0.0021  0.4649 -1.2239
 4846SOL    HW226001   4.229   2.621   3.037 -0.0094 -0.4058  3.2904
 4847SOL     OW26002   2.482   2.941  17.184  0.4389 -0.1629  0.2629
 4847SOL    HW126003   2.512   3.026  17.217  0.1710 -0.0864  0.3063
 4847SOL    HW226004   2.516   2.941  17.095 -0.0500 -3.0415  0.0662
 4848SOL     OW26005   1.125   1.137   1.351  0.3655 -0.4269 -0.1558
 4848SOL    HW126006   1.032   1.126   1.333  0.2730  1.4724 -0.8641
 4848SOL    HW226007   1.158   1.180   1.272 -3.2118  2.4194 -0.1188
 4849SOL     OW26008   1.824   0.475   3.814  0.3473  0.6741 -0.2099
 4849SOL    HW126009   1.805   0.385   3.840 -0.6098  1.4628  1.8152
 4849SOL    HW226010   1.807   0.468   3.720  1.3103  1.0670 -0.4141
 4850SOL     OW26011   0.804   4.451   9.333  0.4420 -0.5000  0.1948
 4850SOL    HW126012   0.791   4.357   9.325 -2.0455 -0.2435  1.2522
 4850SOL    HW226013   0.742   4.483   9.398  0.0294 -1.1266  0.1049
 4851SOL     OW26014   1.691   0.996  13.167  0.0482 -0.8091 -0.6950
 4851SOL    HW126015   1.595   0.994  13.165 -0.0096  1.5656 -0.7707
 4851SOL    HW226016   1.706   0.939  13.242 -1.0190 -0.3904 -0.1568
 4852SOL     OW26017   0.988   4.475   3.309  0.1358 -1.0293  0.1966
 4852SOL    HW126018   1.045   4.404   3.339 -1.3452 -1.9660  0.7651
 4852SOL    HW226019   1.042   4.554   3.316 -0.3000 -0.7040 -0.1324
 4853SOL     OW26020   0.801   1.111   2.487 -0.7827 -0.4621 -0.0125
 4853SOL    HW126021   0.872   1.047   2.498 -0.8347 -0.4713  0.2535
 4853SOL    HW226022   0.735   1.042   2.496 -0.2986 -1.1478 -1.6472
 4854SOL     OW26023   0.909   1.556   5.447 -0.3641  0.3206  0.3562
 4854SOL    HW126024   0.969   1.510   5.388 -4.1132 -0.5856 -2.7166
 4854SOL    HW226025   0.875   1.618   5.383 -0.3001 -1.3330 -1.2685
 4855SOL     OW26026   1.282   4.427   0.377  0.1660 -0.4384  0.0136
 4855SOL    HW126027   1.331   4.487   0.322  0.1655  1.1206  1.7258
 4855SOL    HW226028   1.341   4.358   0.406  0.1425 -0.1842  0.6688
 4856SOL     OW26029   0.515   1.287   6.589  0.0420  0.1884  0.6040
 4856SOL    HW126030   0.567   1.227   6.641  1.2789  0.3938 -0.3979
 4856SOL    HW226031   0.493   1.230   6.514  1.1632 -1.4011  1.4958
 4857SOL     OW26032   0.075   0.654   6.969  0.1250  0.0653 -0.1731
 4857SOL    HW126033   0.030   0.614   7.043 -0.2963  0.8267 -0.0217
 4857SOL    HW226034   0.168   0.645   6.989 -0.1817 -0.5154  0.9710
 4858SOL     OW26035   4.058   3.989   8.787  0.2521  0.2389  0.0381
 4858SOL    HW126036   4.074   3.983   8.881  0.4888 -0.5715 -0.0512
 4858SOL    HW226037   4.147   4.005   8.757 -0.0332  5.3435  2.0612
 4859SOL     OW26038   0.950   3.797   1.384  0.0065 -0.6489  0.1406
 4859SOL    HW126039   0.867   3.785   1.431 -0.8269 -3.6114 -2.1451
 4859SOL    HW226040   1.000   3.859   1.438 -0.5951  0.5226 -0.6649
 4860SOL     OW26041   3.696   4.038   7.134  0.2773  0.2508 -0.5023
 4860SOL    HW126042   3.645   4.103   7.182  3.3031  1.9740  0.3551
 4860SOL    HW226043   3.626   3.978   7.110  3.4411 -3.4108 -0.4894
 4861SOL     OW26044   4.086   4.022  12.926  0.4190 -0.3197 -0.1926
 4861SOL    HW126045   4.101   4.116  12.925  1.4921 -0.4805  0.4132
 4861SOL    HW226046   4.174   3.984  12.930  0.7188  0.3752 -0.3350
 4862SOL     OW26047   3.356   3.424  13.926 -0.2023 -0.0910 -0.4693
 4862SOL    HW126048   3.421   3.459  13.864 -1.8343 -0.9524 -2.6718
 4862SOL    HW226049   3.412   3.364  13.974  0.3186 -1.0204 -2.2361
 4863SOL     OW26050   3.549   1.344   8.009  0.4801 -0.2715 -0.1614
 4863SOL    HW126051   3.457   1.329   8.032  0.5201 -2.0460 -1.1885
 4863SOL    HW226052   3.587   1.266   8.050 -2.1723 -0.5936  1.7388
 4864SOL     OW26053   1.043   3.809   0.107 -0.4126  0.3038  0.1446
 4864SOL    HW126054   1.127   3.764   0.114  0.5005  1.7122 -1.8170
 4864SOL    HW226055   0.995   3.750   0.165  1.6200 -0.3823  1.1110
 4865SOL     OW26056   2.530   4.120   4.194 -0.1876  0.2469  0.1750
 4865SOL    HW126057   2.453   4.084   4.239 -0.0362  1.6813  1.5699
 4865SOL    HW226058   2.596   4.122   4.264 -0.9224  0.6740  0.8580
 4866SOL     OW26059   1.424   0.096  11.081 -0.3786  0.6414  0.0207
 4866SOL    HW126060   1.436   0.090  11.175  0.3738  0.0855 -0.1035
 4866SOL    HW226061   1.468   0.016  11.051 -2.5254 -1.6771  3.1588
 4867SOL     OW26062   2.866   0.767   4.188 -0.1862  0.2567 -0.2002
 4867SOL    HW126063   2.780   0.763   4.145 -0.1159 -0.4796 -0.2581
 4867SOL    HW226064   2.852   0.701   4.255  1.0610  1.0080  0.7968
 4868SOL     OW26065   0.615   0.908   8.997  0.0953 -0.3906 -0.7261
 4868SOL    HW126066   0.628   0.984   8.940 -0.0557  0.3540  0.2323
 4868SOL    HW226067   0.646   0.941   9.081 -1.4934 -1.2423  0.2012
 4869SOL     OW26068   0.652   0.818   4.777  0.5842  0.5579  0.1575
 4869SOL    HW126069   0.747   0.824   4.775  0.6408 -1.2377 -2.0384
 4869SOL    HW226070   0.628   0.823   4.685 -0.5475  2.0925  0.5289
 4870SOL     OW26071   3.513   2.978   5.431  0.2678 -0.0694 -0.2987
 4870SOL    HW126072   3.592   2.924   5.434 -1.0483 -2.0315 -1.0724
 4870SOL    HW226073   3.544   3.037   5.500  1.4003  0.1768 -1.0094
 4871SOL     OW26074   1.846   0.422  14.355  0.8448  0.0921  0.0372
 4871SOL    HW126075   1.760   0.380  14.354  0.4941  0.8067 -0.1530
 4871SOL    HW226076   1.893   0.348  14.393  0.1143  0.4979  1.7223
 4872SOL     OW26077   4.109   4.000   9.058  0.6339  0.1737  0.2232
 4872SOL    HW126078   4.167   3.976   9.129  3.7549  2.7115 -1.4686
 4872SOL    HW226079   4.037   4.034   9.111 -0.8291 -0.2691 -1.4737
 4873SOL     OW26080   4.236   4.569   6.407 -0.6211  0.6393  1.0284
 4873SOL    HW126081   4.269   4.574   6.497  3.9479  0.9225 -0.6617
 4873SOL    HW226082   4.237   4.474   6.394 -1.5635  0.4609  2.2506
 4874SOL     OW26083   0.298   3.829   5.696 -0.8123 -0.5077  0.0182
 4874SOL    HW126084   0.329   3.739   5.693  2.9964  0.7469  1.5629
 4874SOL    HW226085   0.342   3.868   5.772 -1.4914 -0.3941  0.3547
 4875SOL     OW26086   4.561   3.015   3.645 -0.1830  0.2657  0.1446
 4875SOL    HW126087   4.524   3.102   3.630 -1.5790 -0.3276  0.1423
 4875SOL    HW226088   4.606   3.027   3.729 -1.3704  0.9013  0.6867
 4876SOL     OW26089   1.018   4.553   3.674 -0.4309 -0.3209 -0.4082
 4876SOL    HW126090   1.103   4.552   3.632 -0.4432 -2.7275 -0.3631
 4876SOL    HW226091   1.028   4.641   3.712 -1.5474 -1.1848  1.9121
 4877SOL     OW26092   2.427   0.253  11.093 -0.0492 -0.2808  0.2404
 4877SOL    HW126093   2.489   0.182  11.077  1.0122  0.6974  0.0327
 4877SOL    HW226094   2.344   0.206  11.092  0.7467 -1.6555 -1.6002
 4878SOL     OW26095   1.686   1.876   6.327 -0.0051 -0.1371  0.7555
 4878SOL    HW126096   1.709   1.943   6.262 -3.1092 -1.0514 -1.2817
 4878SOL    HW226097   1.598   1.913   6.326  0.0663 -0.0113 -0.5302
 4879SOL     OW26098   2.811   0.774   9.598  0.3918  0.1610 -0.1105
 4879SOL    HW126099   2.889   0.802   9.551  1.2519  1.3167  1.9835
 4879SOL    HW226100   2.751   0.746   9.529  1.6248 -1.8972 -0.3535
 4880SOL     OW26101   0.076   3.711   1.102 -0.5438 -0.8694 -0.3522
 4880SOL    HW126102   0.046   3.647   1.038 -2.7440 -1.1545  0.9454
 4880SOL    HW226103   0.113   3.648   1.164 -0.2824  0.1537  0.5374
 4881SOL     OW26104   4.231   0.205   3.638  0.0906  0.1647  0.9931
 4881SOL    HW126105   4.195   0.153   3.710  1.4743 -0.5858  1.1439
 4881SOL    HW226106   4.250   0.288   3.682 -0.4960  1.8082 -1.8050
 4882SOL     OW26107   2.967   1.757  11.385 -0.1291  0.1734 -0.1660
 4882SOL    HW126108   2.895   1.736  11.444 -0.3349 -1.8191 -1.1375
 4882SOL    HW226109   2.971   1.852  11.398 -2.4538 -0.0011  1.8900
 4883SOL     OW26110   3.287   2.349   0.751 -0.5979  0.7505 -0.3772
 4883SOL    HW126111   3.371   2.331   0.794 -0.2382 -0.8070 -1.7309
 4883SOL    HW226112   3.226   2.323   0.820  2.4466 -2.7242  0.9996
 4884SOL     OW26113   1.931   2.506   1.929 -0.4352  0.1775 -0.0372
 4884SOL    HW126114   1.950   2.537   2.018 -0.3503  0.1149 -0.0333
 4884SOL    HW226115   1.969   2.418   1.935 -2.3508 -0.5603  1.2670
 4885SOL     OW26116   0.519   1.660   7.197 -0.7755  0.1369 -0.1637
 4885SOL    HW126117   0.515   1.690   7.106 -0.9180 -2.1598 -0.9098
 4885SOL    HW226118   0.454   1.591   7.188 -0.3017 -0.4640  1.1035
 4886SOL     OW26119   4.309   0.975   9.880 -0.0674 -0.0037 -0.4020
 4886SOL    HW126120   4.218   1.002   9.868 -0.1318  0.2459  0.6564
 4886SOL    HW226121   4.312   0.889   9.838  0.5839  0.5504 -1.4987
 4887SOL     OW26122   1.665   4.124  15.479  0.1967  0.2353  0.7829
 4887SOL    HW126123   1.697   4.204  15.438 -1.3633 -1.3386 -3.5296
 4887SOL    HW226124   1.592   4.157  15.532 -1.5682 -1.0632 -0.8090
 4888SOL     OW26125   0.621   4.129  10.756 -0.2469 -0.6188  0.0254
 4888SOL    HW126126   0.629   4.210  10.705 -0.4701 -0.8173 -0.3201
 4888SOL    HW226127   0.575   4.068  10.699 -1.0893  0.9617 -0.9812
 4889SOL     OW26128   4.187   1.172  12.005  0.9034  0.8842  0.5882
 4889SOL    HW126129   4.137   1.253  12.010  0.9566  0.9706 -0.2427
 4889SOL    HW226130   4.275   1.209  12.002 -0.4735  3.8964 -2.5128
 4890SOL     OW26131   4.205   2.987   7.549 -0.4990 -0.2321  0.2550
 4890SOL    HW126132   4.285   2.967   7.500 -0.2657  3.4711 -0.8719
 4890SOL    HW226133   4.231   2.957   7.636 -0.9338  0.2547  0.5511
 4891SOL     OW26134   3.608   2.335  10.817  0.6974  0.6011  0.8348
 4891SOL    HW126135   3.640   2.257  10.771 -4.7150 -2.1968  1.8861
 4891SOL    HW226136   3.523   2.304  10.846  1.2530  0.2121  2.0540
 4892SOL     OW26137   0.407   1.790   0.540 -0.3983  0.2530 -0.4899
 4892SOL    HW126138   0.444   1.733   0.607  0.7749  1.6323  0.0499
 4892SOL    HW226139   0.315   1.766   0.549 -0.0100 -0.3562  1.7908
 4893SOL     OW26140   4.003   0.206   1.377 -0.6369  0.1891  0.0750
 4893SOL    HW126141   4.047   0.163   1.450  0.4825 -2.1442 -1.9638
 4893SOL    HW226142   4.047   0.291   1.378  1.0656 -0.6857 -0.9780
 4894SOL     OW26143   2.284   0.668   6.821 -0.0624 -0.7715  0.6172
 4894SOL    HW126144   2.192   0.657   6.848 -1.0338 -0.3126 -2.4616
 4894SOL    HW226145   2.277   0.730   6.749 -0.6762 -1.8021 -0.2289
 4895SOL     OW26146   2.657   0.966   4.725  0.6128 -1.2212 -0.0732
 4895SOL    HW126147   2.619   0.898   4.781 -1.5799  2.5357  3.1023
 4895SOL    HW226148   2.709   0.912   4.667  0.3237 -1.1883 -0.3633
 4896SOL     OW26149   1.339   3.383  14.911 -0.1424 -0.4333  0.7872
 4896SOL    HW126150   1.246   3.377  14.930 -0.2339  1.8336  0.9517
 4896SOL    HW226151   1.344   3.476  14.932  0.5225 -0.7989  2.2539
 4897SOL     OW26152   0.065   4.673   5.759 -0.1243 -0.2522  0.2950
 4897SOL    HW126153   0.062   4.638   5.848  0.1126  0.1457  0.4566
 4897SOL    HW226154   0.093   0.035   5.793 -0.7944  0.0234  0.1531
 4898SOL     OW26155   1.825   3.625   9.034  0.2349  0.1020  0.7693
 4898SOL    HW126156   1.864   3.712   9.032 -1.0730  0.6781 -0.0511
 4898SOL    HW226157   1.787   3.629   8.946  2.2198  0.5508 -0.0605
 4899SOL     OW26158   4.016   2.567  13.877 -0.0452  0.1550  0.1164
 4899SOL    HW126159   4.041   2.626  13.806 -0.9085  2.3606  1.6614
 4899SOL    HW226160   4.036   2.480  13.843  1.9390  1.7699 -2.8476
 4900SOL     OW26161   2.060   1.279   4.283 -0.3374 -0.3438  0.2378
 4900SOL    HW126162   2.122   1.207   4.294  0.1308  0.2016  1.2142
 4900SOL    HW226163   1.990   1.236   4.234  0.1945  1.1850 -1.8329
 4901SOL     OW26164   1.216   3.804   6.256 -0.0444  0.2142  0.1247
 4901SOL    HW126165   1.254   3.761   6.333 -0.0301 -1.4708 -0.8250
 4901SOL    HW226166   1.275   3.879   6.251 -0.5426  0.5845 -0.1387
 4902SOL     OW26167   3.377   3.928   5.594  0.1778 -0.1617  0.2477
 4902SOL    HW126168   3.311   3.870   5.631 -1.0582 -0.4293 -2.3497
 4902SOL    HW226169   3.397   3.887   5.510 -1.5281 -2.1127  0.7834
 4903SOL     OW26170   2.772   2.774  11.973  0.2441  0.1081  0.1570
 4903SOL    HW126171   2.796   2.685  11.998 -2.9830 -1.0968 -0.9822
 4903SOL    HW226172   2.677   2.765  11.970  0.1237  1.1633  1.0148
 4904SOL     OW26173   4.426   4.464   4.641  0.4513  0.2047  0.4467
 4904SOL    HW126174   4.434   4.403   4.714  2.1557  0.4093  0.4204
 4904SOL    HW226175   4.509   4.512   4.646  0.4130  0.2657  0.4973
 4905SOL     OW26176   0.702   4.298   1.950 -0.2580  0.6722  0.0664
 4905SOL    HW126177   0.702   4.255   2.035 -0.0352  0.9259  0.1949
 4905SOL    HW226178   0.758   4.236   1.902  0.1631  1.9036 -1.0369
 4906SOL     OW26179   0.779   0.588   8.107  0.8677  0.0457 -0.4142
 4906SOL    HW126180   0.716   0.525   8.070  2.2165 -1.3213 -0.3879
 4906SOL    HW226181   0.780   0.651   8.034 -1.2252  0.2080 -0.2886
 4907SOL     OW26182   2.243   3.831   5.878 -0.3477 -0.7064  0.2229
 4907SOL    HW126183   2.158   3.874   5.891 -1.2853 -2.2472 -0.6601
 4907SOL    HW226184   2.213   3.742   5.857 -1.4338  0.0278 -1.3133
 4908SOL     OW26185   1.309   0.939   6.866  0.2839  0.2309  0.1752
 4908SOL    HW126186   1.375   0.987   6.815 -0.6119  1.7570  0.4471
 4908SOL    HW226187   1.371   0.892   6.921 -0.2956  0.3143  0.8928
 4909SOL     OW26188   2.135   2.609   4.396  0.2127  0.6580  0.0379
 4909SOL    HW126189   2.050   2.570   4.376 -0.9786  3.5252 -0.3877
 4909SOL    HW226190   2.177   2.603   4.310 -1.2186  0.6373 -0.6688
 4910SOL     OW26191   2.352   1.855   0.765  0.2367  0.2088  0.5088
 4910SOL    HW126192   2.333   1.787   0.830  3.4711 -0.6031  0.6027
 4910SOL    HW226193   2.317   1.817   0.685  1.0506  0.1682  0.1823
 4911SOL     OW26194   0.904   4.167   1.834 -0.8507  0.0804 -0.0219
 4911SOL    HW126195   0.917   4.117   1.753 -0.4328 -2.2767  1.5272
 4911SOL    HW226196   0.968   4.235   1.815  0.8236 -1.6534 -0.5586
 4912SOL     OW26197   3.487   3.975   1.268  0.3375  0.0871 -0.2179
 4912SOL    HW126198   3.562   3.955   1.324 -0.4701 -0.1737  0.7717
 4912SOL    HW226199   3.407   3.947   1.312  0.9359 -0.0214  0.8043
 4913SOL     OW26200   2.940   1.820   7.805  0.1208 -0.2780  0.1824
 4913SOL    HW126201   2.998   1.814   7.729 -0.9735  0.0281 -0.6755
 4913SOL    HW226202   2.853   1.808   7.768 -0.8011  1.1069  1.8799
 4914SOL     OW26203   2.974   3.005  15.346 -0.0068  0.3232  0.7988
 4914SOL    HW126204   2.934   2.918  15.338  0.6585  0.0511  0.4726
 4914SOL    HW226205   3.028   2.991  15.423  1.2803 -1.0917 -0.3393
 4915SOL     OW26206   3.777   2.816   3.129  1.0105  0.0725 -0.6661
 4915SOL    HW126207   3.714   2.762   3.080 -0.3868  0.6189  0.5100
 4915SOL    HW226208   3.789   2.753   3.200 -0.3501 -0.1024 -0.5899
 4916SOL     OW26209   2.345   2.010   6.666 -0.4698 -0.6644 -0.1551
 4916SOL    HW126210   2.403   1.935   6.672 -1.2087 -1.0915  1.5511
 4916SOL    HW226211   2.290   1.982   6.593  0.1668 -1.3184 -0.3788
 4917SOL     OW26212   0.521   3.377   2.787 -0.0042  0.4549  0.1771
 4917SOL    HW126213   0.609   3.414   2.793 -0.1659  0.3773  2.9320
 4917SOL    HW226214   0.467   3.452   2.764 -0.3855  0.2741  0.4859
 4918SOL     OW26215   2.750   1.326   7.269 -0.0703 -0.1749  0.1801
 4918SOL    HW126216   2.788   1.395   7.214  1.4300 -0.2604  1.1198
 4918SOL    HW226217   2.754   1.364   7.357  1.6737  1.1295 -0.4570
 4919SOL     OW26218   0.961   4.419   2.340 -0.6985  0.6019 -0.2481
 4919SOL    HW126219   0.874   4.454   2.362 -1.6674 -0.6231 -2.0904
 4919SOL    HW226220   0.993   4.414   2.429 -0.4005  1.1805 -0.3291
 4920SOL     OW26221   2.137   3.751   7.635 -0.1715 -0.2313 -0.4140
 4920SOL    HW126222   2.106   3.665   7.664  0.4455 -0.8901 -1.7387
 4920SOL    HW226223   2.151   3.798   7.717  0.4273 -1.7045  0.3184
 4921SOL     OW26224   3.040   1.053   9.320  0.5126 -0.3974  0.5563
 4921SOL    HW126225   2.969   1.098   9.274  0.8541 -0.8518 -0.4125
 4921SOL    HW226226   3.092   1.132   9.336 -2.2627  1.4441  0.4587
 4922SOL     OW26227   1.058   0.477   2.662 -0.3450  0.1731 -0.1217
 4922SOL    HW126228   1.040   0.451   2.572 -1.3138  0.3226  0.0297
 4922SOL    HW226229   1.151   0.461   2.679 -0.6396  0.1174  1.4301
 4923SOL     OW26230   3.590   2.086  15.122 -0.4470  0.2004 -0.2307
 4923SOL    HW126231   3.503   2.083  15.083 -0.9816 -0.1342  0.9852
 4923SOL    HW226232   3.590   2.178  15.149 -0.5930  0.7476 -2.1194
 4924SOL     OW26233   3.983   4.717   9.772  0.0307 -0.3010  0.1303
 4924SOL    HW126234   3.926   0.010   9.847 -0.2721  2.8249 -0.7612
 4924SOL    HW226235   4.032   0.076   9.769 -2.0957  1.1072  4.8089
 4925SOL     OW26236   2.159   2.864   8.168  0.4660 -0.6215 -0.1481
 4925SOL    HW126237   2.095   2.803   8.131  0.9238 -1.0133 -0.2995
 4925SOL    HW226238   2.188   2.816   8.245 -2.9910 -0.3254  1.3588
 4926SOL     OW26239   1.485   1.078   2.404 -0.4995 -0.3193  0.1455
 4926SOL    HW126240   1.487   1.004   2.343 -0.2003 -0.6610  0.5729
 4926SOL    HW226241   1.567   1.123   2.384  0.4279 -2.0125  0.2269
 4927SOL     OW26242   4.496   3.411   6.859  0.1755  0.1964 -0.6936
 4927SOL    HW126243   4.410   3.378   6.835  0.3157  1.4946 -2.9980
 4927SOL    HW226244   4.465   3.495   6.893  0.4386  0.2526 -0.5898
 4928SOL     OW26245   4.478   2.981  12.472  0.1074 -0.2573  0.1825
 4928SOL    HW126246   4.523   2.897  12.485  0.0192 -0.0427  1.9529
 4928SOL    HW226247   4.440   2.996  12.559  1.6496  1.3771  0.5812
 4929SOL     OW26248   3.613   0.727   4.451 -0.1175  0.3956  0.0529
 4929SOL    HW126249   3.531   0.734   4.501  1.4001  3.0739  2.1144
 4929SOL    HW226250   3.618   0.817   4.421  0.7948  0.2526 -0.2301
 4930SOL     OW26251   4.050   1.231  15.785 -0.8097  0.0927  0.8335
 4930SOL    HW126252   4.104   1.289  15.839 -1.6268  0.8032  0.8995
 4930SOL    HW226253   4.106   1.205  15.712  0.2704  3.2142  0.5185
 4931SOL     OW26254   0.689   1.024   7.877 -0.5942 -0.2325 -0.5008
 4931SOL    HW126255   0.700   1.119   7.873 -1.1698 -0.0910  1.5966
 4931SOL    HW226256   0.729   0.998   7.960 -2.3165 -0.4281  0.2616
 4932SOL     OW26257   0.333   3.543   3.027 -0.0856 -0.0046 -0.6985
 4932SOL    HW126258   0.318   3.471   3.089  1.4740 -0.2833 -0.6468
 4932SOL    HW226259   0.401   3.494   2.981 -0.1607  0.0363 -0.8540
 4933SOL     OW26260   3.735   4.152  16.724  0.0003 -0.2588  0.1167
 4933SOL    HW126261   3.756   4.192  16.640  0.5603 -1.5735 -0.3584
 4933SOL    HW226262   3.661   4.097  16.699  1.0574 -1.8621  0.5142
 4934SOL     OW26263   2.287   3.389  14.957  0.3479 -0.9615  0.2991
 4934SOL    HW126264   2.194   3.374  14.940  0.2026  1.1085 -0.6684
 4934SOL    HW226265   2.309   3.313  15.011  2.6709  0.0302  0.7265
 4935SOL     OW26266   2.191   3.407   4.676 -0.3544  0.3535 -0.2467
 4935SOL    HW126267   2.272   3.457   4.688 -1.3223  1.7830  0.3826
 4935SOL    HW226268   2.161   3.387   4.765 -1.0031 -2.3436 -1.1022
 4936SOL     OW26269   0.573   0.587  16.371 -0.2870 -0.0839  0.3180
 4936SOL    HW126270   0.657   0.584  16.416  0.5896  0.5805 -1.2694
 4936SOL    HW226271   0.602   0.626  16.288 -0.0586 -0.5474  0.1789
 4937SOL     OW26272   2.267   2.359   7.616 -0.0256 -0.2071  0.1057
 4937SOL    HW126273   2.293   2.403   7.535 -2.8546  0.7985 -0.2415
 4937SOL    HW226274   2.309   2.414   7.682 -1.9924 -0.4553  1.5358
 4938SOL     OW26275   1.986   3.532   4.173  0.2770 -0.0630  0.4286
 4938SOL    HW126276   1.926   3.594   4.216 -0.8156 -0.5018 -0.4771
 4938SOL    HW226277   2.050   3.525   4.244  1.3827  0.3879 -0.5224
 4939SOL     OW26278   1.771   1.407   3.277  0.6707 -0.1661 -0.1378
 4939SOL    HW126279   1.851   1.363   3.307  0.4435 -0.3808  0.1589
 4939SOL    HW226280   1.717   1.332   3.300  1.6246 -0.8342 -0.0848
 4940SOL     OW26281   3.798   4.307   5.644  0.4835 -0.0281 -0.6713
 4940SOL    HW126282   3.738   4.233   5.654  1.1435 -0.4712  0.0406
 4940SOL    HW226283   3.818   4.337   5.733  1.5479 -1.9017 -0.2925
 4941SOL     OW26284   1.529   3.437   9.920  0.0925 -0.2325  0.4710
 4941SOL    HW126285   1.493   3.403  10.002 -0.5312 -0.1776  0.2260
 4941SOL    HW226286   1.518   3.364   9.859 -0.1401  2.8315 -3.1079
 4942SOL     OW26287   1.048   1.497   4.818  0.3155 -0.0535  0.3519
 4942SOL    HW126288   0.971   1.440   4.807  0.5448  0.1447 -2.2477
 4942SOL    HW226289   1.012   1.570   4.769 -2.4632 -1.1544  0.7548
 4943SOL     OW26290   1.435   0.512  13.981 -0.0716 -0.0621  0.8763
 4943SOL    HW126291   1.504   0.470  14.032 -0.2270 -1.3184  0.0567
 4943SOL    HW226292   1.359   0.499  14.037  0.1198 -1.0087  0.9260
 4944SOL     OW26293   0.454   1.201   0.565 -0.5575  0.5543 -0.0257
 4944SOL    HW126294   0.476   1.283   0.521 -0.8223  0.4486 -0.3543
 4944SOL    HW226295   0.458   1.237   0.654 -0.9971  0.5968 -0.0221
 4945SOL     OW26296   1.363   2.542   8.736  0.2393 -0.3004  0.1762
 4945SOL    HW126297   1.371   2.628   8.777 -0.9270 -0.0363 -0.1389
 4945SOL    HW226298   1.425   2.490   8.787 -0.2588 -2.2849 -1.2572
 4946SOL     OW26299   3.900   2.512   3.863 -0.1477 -0.2526 -0.0127
 4946SOL    HW126300   3.882   2.448   3.932 -2.1033  0.6207  0.3119
 4946SOL    HW226301   3.879   2.457   3.788  1.4965 -1.4474  0.4201
 4947SOL     OW26302   3.848   0.132   3.530 -0.0887  0.0560  0.6433
 4947SOL    HW126303   3.857   0.037   3.529 -1.2313 -0.0472 -0.2219
 4947SOL    HW226304   3.872   0.151   3.440 -1.9351  1.3500  0.4261
 4948SOL     OW26305   4.142   0.054   0.431 -0.1904  0.5643  0.4513
 4948SOL    HW126306   4.182   4.711   0.487  1.4819  0.9700 -0.2615
 4948SOL    HW226307   4.219   0.106   0.406 -2.3186  2.5628 -2.0636
 4949SOL     OW26308   2.429   2.648   0.795  0.1825 -0.0905  0.1200
 4949SOL    HW126309   2.431   2.560   0.834 -1.1663 -1.1510 -2.2269
 4949SOL    HW226310   2.499   2.653   0.730 -0.0136  0.1278 -0.0694
 4950SOL     OW26311   3.813   3.094   2.193  0.7533 -0.2056  0.1503
 4950SOL    HW126312   3.876   3.135   2.135  2.8237 -0.5259  2.1883
 4950SOL    HW226313   3.740   3.157   2.196  0.5935 -0.2901 -2.2567
 4951SOL     OW26314   2.648   0.543   9.969  0.1497 -0.2459 -0.2254
 4951SOL    HW126315   2.710   0.554  10.041  0.9136  0.0025 -0.9233
 4951SOL    HW226316   2.574   0.495  10.006 -0.6465  1.5664  0.5605
 4952SOL     OW26317   4.396   0.550  14.887  0.0488 -0.2443 -0.0626
 4952SOL    HW126318   4.430   0.589  14.968 -1.1057 -1.6430  1.1053
 4952SOL    HW226319   4.468   0.490  14.870 -0.1172 -0.8685  1.4428
 4953SOL     OW26320   1.618   4.322   3.368 -0.1539 -0.1974 -0.1109
 4953SOL    HW126321   1.660   4.397   3.411 -1.6458  0.2237  0.6133
 4953SOL    HW226322   1.692   4.280   3.326 -0.0181 -0.2490  0.1760
 4954SOL     OW26323   1.188   1.554   5.069  0.4605 -0.2683 -0.2697
 4954SOL    HW126324   1.270   1.579   5.027  1.3421  1.1374  2.2668
 4954SOL    HW226325   1.132   1.547   4.991 -0.5220 -0.6881  0.4696
 4955SOL     OW26326   3.476   2.736  16.536  1.3591  0.7554 -0.5879
 4955SOL    HW126327   3.491   2.673  16.466  0.4669  0.0720 -0.1598
 4955SOL    HW226328   3.567   2.763  16.553  1.5363  0.0006 -0.3305
 4956SOL     OW26329   3.626   3.041   4.200  0.2448  0.1340 -0.0791
 4956SOL    HW126330   3.692   3.015   4.135 -0.2534  2.5825 -1.5644
 4956SOL    HW226331   3.692   3.055   4.268 -0.8531 -0.4203  1.0871
 4957SOL     OW26332   3.501   2.357  14.265 -0.1594 -0.0218 -0.0676
 4957SOL    HW126333   3.421   2.403  14.291 -0.5718 -1.7273  1.6718
 4957SOL    HW226334   3.476   2.304  14.190  0.7824  0.7192 -0.9051
 4958SOL     OW26335   3.395   4.558   7.036 -0.3194 -0.1600  0.1148
 4958SOL    HW126336   3.360   4.640   7.072  3.3446  0.9583  1.2122
 4958SOL    HW226337   3.441   4.591   6.959 -0.4721 -1.6173 -0.5793
 4959SOL     OW26338   0.456   2.530   4.982 -0.3991 -0.1079 -0.0891
 4959SOL    HW126339   0.395   2.462   5.011  0.7849 -1.8711 -1.7488
 4959SOL    HW226340   0.408   2.571   4.910 -1.2013  3.0473  2.2508
 4960SOL     OW26341   0.789   0.608   1.127 -0.5551 -0.3157  0.2329
 4960SOL    HW126342   0.694   0.611   1.117 -0.4455  0.1688 -0.6868
 4960SOL    HW226343   0.806   0.521   1.162 -0.0127 -0.4755 -0.4214
 4961SOL     OW26344   4.560   2.085   7.198 -0.3128  0.4002  0.2244
 4961SOL    HW126345   4.652   2.081   7.170  0.2002 -1.1207  2.1681
 4961SOL    HW226346   4.565   2.096   7.293 -3.7493  0.6428  0.3902
 4962SOL     OW26347   2.964   2.843   6.064  0.1731 -0.7902  0.3767
 4962SOL    HW126348   2.899   2.831   6.133 -2.5290  0.1052 -2.0262
 4962SOL    HW226349   2.912   2.828   5.985  1.6052  0.6538 -0.8246
 4963SOL     OW26350   1.705   2.610   8.016 -0.1654 -0.0874  0.2280
 4963SOL    HW126351   1.688   2.676   7.949 -0.6736 -2.1629 -1.7056
 4963SOL    HW226352   1.694   2.530   7.964  2.3404 -0.3566  0.1414
 4964SOL     OW26353   0.698   0.004  12.453  0.8179 -0.1489  0.3756
 4964SOL    HW126354   0.773   0.051  12.489 -0.9718  1.2030  2.3435
 4964SOL    HW226355   0.713   4.638  12.486 -1.1156 -0.1969  1.1579
 4965SOL     OW26356   1.636   4.183   6.815 -0.0292 -0.1716 -0.7124
 4965SOL    HW126357   1.651   4.090   6.834  1.4832  0.4981  1.3231
 4965SOL    HW226358   1.544   4.171   6.791 -0.9444  0.6161  2.4044
 4966SOL     OW26359   0.519   2.500  11.606  0.2726  0.2119 -0.2783
 4966SOL    HW126360   0.591   2.556  11.637  0.1624 -0.5009  1.2694
 4966SOL    HW226361   0.485   2.461  11.686 -0.4402  2.0355  0.3269
 4967SOL     OW26362   0.177   1.958  13.942  0.4660 -0.8783 -0.1447
 4967SOL    HW126363   0.127   2.027  13.900  2.3612  1.4637  1.4186
 4967SOL    HW226364   0.267   1.990  13.953  0.4637 -0.8882 -0.0943
 4968SOL     OW26365   3.259   3.011  15.158 -0.5851 -0.1061  0.0906
 4968SOL    HW126366   3.179   3.019  15.106 -2.0176 -0.9420  2.1512
 4968SOL    HW226367   3.330   2.990  15.097 -0.4323  2.0582 -0.4626
 4969SOL     OW26368   1.277   1.576   6.589 -0.3689  0.1421  0.3477
 4969SOL    HW126369   1.340   1.509   6.563  0.5589  0.7285  1.1231
 4969SOL    HW226370   1.273   1.652   6.530  3.5568  1.2104  1.4673
 4970SOL     OW26371   2.337   0.221   4.010 -0.2001  0.2694 -0.6623
 4970SOL    HW126372   2.349   0.292   4.073  0.2907 -0.5953  0.2115
 4970SOL    HW226373   2.411   0.168   4.039 -0.7049  0.8904  1.6925
 4971SOL     OW26374   0.657   2.957  10.271  0.2199 -0.1967  0.7312
 4971SOL    HW126375   0.578   2.984  10.318  0.1560 -1.0493  1.1034
 4971SOL    HW226376   0.648   3.000  10.185  1.7645 -0.0469  0.6419
 4972SOL     OW26377   2.875   2.144   5.610 -0.6881  0.2018  0.7163
 4972SOL    HW126378   2.820   2.076   5.572  1.5721  0.4997 -3.1101
 4972SOL    HW226379   2.956   2.094   5.607 -1.0678 -0.4682  1.6194
 4973SOL     OW26380   4.198   0.316   3.373 -0.7002 -0.2888  0.3391
 4973SOL    HW126381   4.193   0.304   3.467  1.2163  1.4464  0.6613
 4973SOL    HW226382   4.215   0.225   3.350 -0.0041  0.6396 -2.8988
 4974SOL     OW26383   0.147   1.414   5.690 -0.0686  0.0809 -0.0335
 4974SOL    HW126384   0.176   1.404   5.781  0.6361 -0.0100 -0.2721
 4974SOL    HW226385   0.235   1.407   5.653 -0.9352 -0.6865 -1.9240
 4975SOL     OW26386   1.128   1.734   3.270  0.3020  0.1330 -0.0862
 4975SOL    HW126387   1.099   1.644   3.252 -0.2494  0.3543 -0.3247
 4975SOL    HW226388   1.040   1.773   3.270  1.2562  2.2635  0.9081
 4976SOL     OW26389   1.024   3.992   3.172  0.2139 -0.1407 -0.2259
 4976SOL    HW126390   0.989   3.975   3.259 -0.9461 -2.5403 -1.1591
 4976SOL    HW226391   0.952   4.043   3.136 -0.6604 -1.4337 -0.2943
 4977SOL     OW26392   2.062   0.037   7.749 -0.0489  0.6378  0.1676
 4977SOL    HW126393   2.125   4.694   7.720  1.6877  2.3482  0.1043
 4977SOL    HW226394   2.005   0.055   7.674  0.2856  1.3630  0.0892
 4978SOL     OW26395   2.037   1.525   8.997  0.7951 -0.3547  0.2488
 4978SOL    HW126396   1.988   1.587   8.943  1.1761  0.9974  1.4689
 4978SOL    HW226397   2.051   1.576   9.076  1.0067 -2.1143  1.3597
 4979SOL     OW26398   1.056   1.577  10.103 -0.2859 -0.0961  0.2067
 4979SOL    HW126399   1.057   1.532  10.188 -1.6370 -0.9442 -0.2322
 4979SOL    HW226400   1.101   1.660  10.117  0.7171 -0.8543  1.5772
 4980SOL     OW26401   0.477   2.975   1.881  0.3682 -0.3750  0.5443
 4980SOL    HW126402   0.444   2.887   1.896 -1.4818  0.2757  0.3863
 4980SOL    HW226403   0.501   2.963   1.790 -0.9017 -1.7189  0.3918
 4981SOL     OW26404   2.828   1.221  10.481  0.3282  0.4517  0.4571
 4981SOL    HW126405   2.920   1.223  10.505  0.4422 -0.8139  0.1230
 4981SOL    HW226406   2.822   1.233  10.387 -0.1759 -3.0393  0.0283
 4982SOL     OW26407   2.419   1.802   6.909  0.4948  0.4101 -0.1561
 4982SOL    HW126408   2.471   1.867   6.957  0.5170 -0.2149  0.6682
 4982SOL    HW226409   2.340   1.853   6.892  0.8752  1.0713  0.0532
 4983SOL     OW26410   2.117   4.664   0.230  0.1793  0.4012  0.1189
 4983SOL    HW126411   2.139   4.720   0.305  2.0478  1.2847 -1.0950
 4983SOL    HW226412   2.023   4.664   0.250  0.1234 -0.7879 -0.1807
 4984SOL     OW26413   1.950   0.812   7.803 -0.3095  0.0101  0.2940
 4984SOL    HW126414   1.899   0.890   7.779  1.2516  0.7400 -0.6715
 4984SOL    HW226415   1.909   0.795   7.887 -1.6042  2.2719  0.1010
 4985SOL     OW26416   1.318   2.255   9.085  0.0468  0.4119  0.8044
 4985SOL    HW126417   1.257   2.318   9.124 -3.7435 -1.3438 -2.3043
 4985SOL    HW226418   1.394   2.309   9.065  0.3234 -1.3880 -3.0199
 4986SOL     OW26419   0.881   4.572   9.868  0.5622 -0.0481 -0.5379
 4986SOL    HW126420   0.848   4.483   9.877  1.2255 -0.2154  0.2720
 4986SOL    HW226421   0.937   4.577   9.946  0.4516  1.9085 -0.5705
 4987SOL     OW26422   2.175   2.652  14.686  0.7906  0.0105  0.4815
 4987SOL    HW126423   2.171   2.634  14.592  1.1968 -0.2669  0.5172
 4987SOL    HW226424   2.089   2.686  14.713 -0.3579 -1.5737 -1.1539
 4988SOL     OW26425   3.917   3.814   8.043 -0.4474 -0.1533  0.0708
 4988SOL    HW126426   3.977   3.746   8.075  1.5539  0.8412 -1.5618
 4988SOL    HW226427   3.902   3.787   7.953  0.7383  0.4490 -0.3060
 4989SOL     OW26428   1.600   4.266  17.283 -0.5897 -0.8741 -0.0084
 4989SOL    HW126429   1.674   4.274  17.344 -1.9224  0.2797  1.4781
 4989SOL    HW226430   1.570   4.176  17.296  1.6810 -1.6697 -0.2767
 4990SOL     OW26431   2.085   3.621   3.392  0.7703 -0.1101  0.5118
 4990SOL    HW126432   2.123   3.537   3.363  1.3784  0.4390 -0.3026
 4990SOL    HW226433   2.067   3.668   3.310  0.1851 -2.0736 -0.4963
 4991SOL     OW26434   3.908   1.647   9.098 -0.0837  0.2805  0.2798
 4991SOL    HW126435   3.823   1.625   9.059  0.3819 -0.5388 -0.2951
 4991SOL    HW226436   3.966   1.658   9.023 -0.9235  1.7724 -0.1504
 4992SOL     OW26437   4.611   3.631  16.034  0.1438 -0.2084  0.1235
 4992SOL    HW126438   4.645   3.627  16.124  1.8884  0.3593 -0.5158
 4992SOL    HW226439   4.516   3.625  16.041  0.1241  0.1590  0.1731
 4993SOL     OW26440   1.423   0.905  16.714  0.2573  0.2150 -0.4238
 4993SOL    HW126441   1.461   0.818  16.701  1.2828  0.5312  0.4401
 4993SOL    HW226442   1.455   0.959  16.641  1.2646  0.1346 -0.0316
 4994SOL     OW26443   2.515   2.065   8.856  0.0912 -0.3962  0.1278
 4994SOL    HW126444   2.543   1.974   8.864  0.3308 -0.1825  1.7224
 4994SOL    HW226445   2.539   2.076   8.764  0.2928 -0.6488  0.1519
 4995SOL     OW26446   3.923   2.602   2.376 -0.6719  0.1368  0.1059
 4995SOL    HW126447   3.949   2.581   2.286 -1.8808  0.1446 -0.2438
 4995SOL    HW226448   3.829   2.587   2.381 -1.0332  2.7729  1.3177
 4996SOL     OW26449   1.751   3.374  10.129 -0.0379 -0.1139 -0.2929
 4996SOL    HW126450   1.711   3.339  10.049  2.5467  0.2101 -1.7258
 4996SOL    HW226451   1.830   3.320  10.133  0.4058  0.4445 -1.3908
 4997SOL     OW26452   0.879   4.319   0.260  0.7938  0.0650  0.2767
 4997SOL    HW126453   0.964   4.334   0.219  0.4316 -4.2979 -1.9847
 4997SOL    HW226454   0.913   4.271   0.336  1.0882  1.9125  1.3166
 4998SOL     OW26455   2.558   1.206   6.581  0.9353  0.8332  0.4114
 4998SOL    HW126456   2.618   1.132   6.568 -0.3721 -0.1239 -0.2717
 4998SOL    HW226457   2.484   1.165   6.536 -1.1908  0.2878  4.4273
 4999SOL     OW26458   3.330   2.909   2.993  0.0912 -0.6296  0.2966
 4999SOL    HW126459   3.406   2.940   3.041 -0.8060  2.7869 -0.5205
 4999SOL    HW226460   3.362   2.942   2.909  0.3733  1.0996  1.1079
 5000SOL     OW26461   4.096   3.993   0.988 -0.0858  0.1614  0.4253
 5000SOL    HW126462   4.093   4.040   0.905  0.6097  0.7739  0.7473
 5000SOL    HW226463   4.178   3.945   0.973 -0.2679 -0.0901  0.2386
 5001SOL     OW26464   4.053   1.393   3.416 -0.1009  0.2124  0.0159
 5001SOL    HW126465   4.019   1.362   3.332 -1.0488  1.0787  0.0948
 5001SOL    HW226466   4.108   1.320   3.444 -0.5261 -0.9675 -2.1717
 5002SOL     OW26467   0.260   4.201  11.386  0.0424  0.3217  0.0657
 5002SOL    HW126468   0.267   4.109  11.412 -0.2013  0.6565  1.3393
 5002SOL    HW226469   0.164   4.204  11.392 -0.2145  0.5969 -3.9991
 5003SOL     OW26470   0.346   3.812  10.579  0.0373 -0.1996 -0.7899
 5003SOL    HW126471   0.384   3.900  10.575 -2.6228  0.8495 -2.5415
 5003SOL    HW226472   0.295   3.808  10.660 -0.7631  0.4159 -1.2673
 5004SOL     OW26473   4.297   3.140   4.405  0.3910 -0.3799  0.1252
 5004SOL    HW126474   4.242   3.182   4.471  2.4390  0.6628  1.1611
 5004SOL    HW226475   4.246   3.163   4.327  0.9862  1.2543  0.2133
 5005SOL     OW26476   1.209   1.102  10.563  0.3099 -0.2209  0.3046
 5005SOL    HW126477   1.171   1.188  10.544 -0.4151 -0.3793  1.0460
 5005SOL    HW226478   1.300   1.127  10.578  0.0363 -0.3378  2.1447
 5006SOL     OW26479   1.890   0.182  14.487 -0.1714  0.1932  0.1607
 5006SOL    HW126480   1.914   0.105  14.540 -0.1003  1.5513  2.1244
 5006SOL    HW226481   1.795   0.182  14.488 -0.1742  1.4557  0.2068
 5007SOL     OW26482   3.242   1.831   5.734  0.1476  0.0930 -0.1029
 5007SOL    HW126483   3.219   1.796   5.648 -0.6983 -3.4415  1.5390
 5007SOL    HW226484   3.249   1.924   5.713 -2.5040  0.3365  0.1046
 5008SOL     OW26485   0.635   0.632   1.515  0.4970 -0.0892  0.4454
 5008SOL    HW126486   0.600   0.643   1.603  0.3727  0.3587  0.3404
 5008SOL    HW226487   0.729   0.645   1.525  0.6586 -1.2550  0.4945
 5009SOL     OW26488   2.805   2.008   2.549 -0.3258  0.5368  0.4931
 5009SOL    HW126489   2.844   2.028   2.463  0.1038  0.5004  0.6786
 5009SOL    HW226490   2.858   1.933   2.577 -0.6740  0.9756  2.3340
 5010SOL     OW26491   2.806   0.444   5.797 -0.5193 -0.0748 -0.1260
 5010SOL    HW126492   2.896   0.474   5.784 -0.4370 -0.7169 -1.0365
 5010SOL    HW226493   2.799   0.368   5.739 -0.7556  0.1003 -0.3308
 5011SOL     OW26494   3.825   2.124   7.992 -0.0528 -0.7285  0.7307
 5011SOL    HW126495   3.823   2.080   7.907 -0.7168  0.0059  0.3672
 5011SOL    HW226496   3.910   2.105   8.032  0.2323 -0.1126  0.4129
 5012SOL     OW26497   4.051   3.455   4.125  0.2043  0.7179  0.7174
 5012SOL    HW126498   4.062   3.503   4.043  0.8837 -0.7042 -0.0230
 5012SOL    HW226499   3.960   3.478   4.142  0.2569  0.6183  1.1378
 5013SOL     OW26500   3.423   0.355  11.874 -0.0031 -0.3207 -0.3415
 5013SOL    HW126501   3.397   0.331  11.785 -0.9351 -0.9341  0.0965
 5013SOL    HW226502   3.450   0.445  11.856 -0.5508 -0.0828  0.0209
 5014SOL     OW26503   0.568   2.895   8.367 -0.6143 -0.2597 -0.1199
 5014SOL    HW126504   0.603   2.938   8.445  1.1320 -0.5037 -0.7702
 5014SOL    HW226505   0.488   2.947   8.364 -0.4188  0.0534  0.0788
 5015SOL     OW26506   4.458   0.975   8.546 -0.2982  0.2732 -0.3654
 5015SOL    HW126507   4.527   0.916   8.515 -0.0195  0.9606 -1.0440
 5015SOL    HW226508   4.501   1.042   8.599 -0.4116  0.6962 -0.8019
 5016SOL     OW26509   1.934   0.826   2.235 -0.1283  0.0417  0.3422
 5016SOL    HW126510   1.931   0.896   2.170 -0.4461 -1.0744 -0.8595
 5016SOL    HW226511   1.845   0.793   2.217  0.6846 -1.9810  0.0477
 5017SOL     OW26512   0.949   1.179  14.556 -0.0283 -0.3785  0.1500
 5017SOL    HW126513   1.006   1.256  14.561 -1.4830  0.7414 -0.4944
 5017SOL    HW226514   1.003   1.108  14.589 -1.6208 -1.8638 -0.4358
 5018SOL     OW26515   1.419   0.935  13.111 -0.2269 -0.0714  0.2813
 5018SOL    HW126516   1.373   0.914  13.192 -1.7259  1.5590 -0.1490
 5018SOL    HW226517   1.344   0.961  13.057 -1.4954 -1.0550  1.5588
 5019SOL     OW26518   1.673   2.405   7.815 -0.1781  0.0226 -0.3376
 5019SOL    HW126519   1.730   2.421   7.740 -0.0059  0.8493 -0.0350
 5019SOL    HW226520   1.594   2.368   7.776  0.6522 -0.8981 -1.1500
 5020SOL     OW26521   3.236   4.515   7.800 -0.1086 -0.3679 -0.1451
 5020SOL    HW126522   3.318   4.542   7.758  0.8984  1.1819  2.7731
 5020SOL    HW226523   3.273   4.475   7.879  0.0763  0.4010  0.1588
 5021SOL     OW26524   3.052   4.710   7.788  0.2844 -1.0430 -0.0056
 5021SOL    HW126525   3.050   0.036   7.870 -0.3060  2.3056 -2.0134
 5021SOL    HW226526   3.116   4.643   7.813  1.6215  0.1901 -0.1211
 5022SOL     OW26527   3.789   3.026   5.757 -0.0616 -0.1382  0.6002
 5022SOL    HW126528   3.733   2.952   5.782 -1.4281 -0.3861 -3.1725
 5022SOL    HW226529   3.857   2.975   5.711  0.8000  0.8384  0.8031
 5023SOL     OW26530   0.175   3.372   1.560 -0.1199 -0.2339  0.5519
 5023SOL    HW126531   0.161   3.459   1.596  1.2606 -0.2609  1.1503
 5023SOL    HW226532   0.246   3.333   1.611  1.8044  1.8795 -0.5429
 5024SOL     OW26533   3.447   4.246   9.353 -0.0811  0.2939  0.0686
 5024SOL    HW126534   3.362   4.288   9.337 -0.1345 -0.2641 -1.0717
 5024SOL    HW226535   3.429   4.190   9.428  0.6337  1.7359  1.3111
 5025SOL     OW26536   0.787   3.701   3.835  0.1218 -0.1081  0.2193
 5025SOL    HW126537   0.763   3.644   3.908 -1.0333 -1.8283 -1.4889
 5025SOL    HW226538   0.732   3.657   3.770 -1.1749  2.2030 -0.2674
 5026SOL     OW26539   4.376   0.557   7.313 -0.0992 -0.3001 -0.3455
 5026SOL    HW126540   4.284   0.584   7.323 -0.1372 -0.9277  0.9292
 5026SOL    HW226541   4.367   0.463   7.295  3.3197 -0.7500  0.4181
 5027SOL     OW26542   0.117   3.048  15.932 -0.7759 -0.3607 -0.3514
 5027SOL    HW126543   0.032   3.011  15.910 -1.0784 -1.4111  2.6351
 5027SOL    HW226544   0.141   3.015  16.019 -0.7383  0.6280  0.0243
 5028SOL     OW26545   0.000   1.148   8.939  0.1499 -0.1729  0.0462
 5028SOL    HW126546   4.708   1.054   8.930 -0.8369  0.0126 -0.2327
 5028SOL    HW226547   4.646   1.180   8.986  0.7486 -1.9851  2.3107
 5029SOL     OW26548   1.881   3.121   8.490  0.0119  0.7079 -0.1009
 5029SOL    HW126549   1.850   3.058   8.425  1.2907  0.5313 -0.5418
 5029SOL    HW226550   1.955   3.162   8.444  0.6675 -0.5388 -0.1509
 5030SOL     OW26551   4.006   1.693  10.473 -0.4256  0.5569 -0.3948
 5030SOL    HW126552   4.083   1.637  10.485  0.1962  1.3925 -0.5359
 5030SOL    HW226553   4.038   1.754  10.406  0.5903 -0.9216 -1.2592
 5031SOL     OW26554   2.946   0.531   2.901  0.6492  0.0620 -0.1060
 5031SOL    HW126555   3.036   0.498   2.910  0.8277  1.0261  1.5726
 5031SOL    HW226556   2.920   0.480   2.824 -1.4847  0.3971  0.4047
 5032SOL     OW26557   1.830   0.225   6.925  0.5199  0.2547 -0.6586
 5032SOL    HW126558   1.897   0.182   6.979  1.1666  1.5829 -0.3926
 5032SOL    HW226559   1.809   0.153   6.866 -0.9186 -0.5276  0.8162
 5033SOL     OW26560   3.474   4.021   8.297  0.0459  0.1687  0.4841
 5033SOL    HW126561   3.542   3.994   8.236  0.4370 -1.6784  1.7299
 5033SOL    HW226562   3.420   4.070   8.235  1.3853 -0.7591 -1.4116
 5034SOL     OW26563   0.454   2.231  15.969  0.4086 -0.4733  0.0333
 5034SOL    HW126564   0.541   2.204  15.940  0.9021  0.3805  0.7294
 5034SOL    HW226565   0.402   2.177  15.910  0.3894  1.9767 -2.2162
 5035SOL     OW26566   4.285   0.873   1.756  0.4394 -0.2833 -0.0251
 5035SOL    HW126567   4.241   0.888   1.840 -1.3678  0.2385 -1.0676
 5035SOL    HW226568   4.208   0.880   1.701  0.0165 -0.6533  0.5206
 5036SOL     OW26569   4.297   4.541   3.868  0.1100 -0.2047 -0.2107
 5036SOL    HW126570   4.306   4.582   3.955  1.9851 -0.8999 -0.0805
 5036SOL    HW226571   4.263   4.457   3.898  1.9053 -0.9017 -0.1146
 5037SOL     OW26572   2.986   4.207   5.569  0.1811  0.2302 -0.2081
 5037SOL    HW126573   2.919   4.202   5.637  1.7361 -0.7380  1.2715
 5037SOL    HW226574   2.934   4.260   5.510 -1.8180 -0.2482  1.1269
 5038SOL     OW26575   2.047   2.573   5.644  0.6281  0.4968 -0.3922
 5038SOL    HW126576   2.052   2.491   5.694 -0.4438 -0.3140 -1.6302
 5038SOL    HW226577   2.130   2.613   5.669  0.7739 -0.1372  0.1366
 5039SOL     OW26578   4.704   3.464   3.839  0.2802 -0.2370 -0.2281
 5039SOL    HW126579   0.014   3.425   3.758  1.7026 -0.3461  0.3996
 5039SOL    HW226580   0.027   3.405   3.899  3.3940  0.0839 -2.2884
 5040SOL     OW26581   1.636   0.096   8.788 -0.0329 -1.0250  0.0168
 5040SOL    HW126582   1.599   0.023   8.738 -0.8630  0.6017 -1.7344
 5040SOL    HW226583   1.690   0.043   8.846  1.2367 -0.5401 -0.7152
 5041SOL     OW26584   3.047   2.009   0.586  0.3703 -0.3816 -0.4269
 5041SOL    HW126585   3.135   1.971   0.575  0.6139 -1.0423  4.0972
 5041SOL    HW226586   3.077   2.080   0.642  1.5420 -1.1660 -0.0594
 5042SOL     OW26587   1.988   4.367   6.766 -0.3942 -0.1246  0.7520
 5042SOL    HW126588   1.973   4.358   6.860  1.7516  0.2138  1.1373
 5042SOL    HW226589   2.074   4.408   6.772  0.2714 -1.4862  0.5336
 5043SOL     OW26590   2.571   0.452  11.233 -0.6323  0.0877 -0.2426
 5043SOL    HW126591   2.525   0.417  11.309  0.0535  2.5012  1.2898
 5043SOL    HW226592   2.533   0.390  11.172 -1.3664 -0.4365  0.7367
 5044SOL     OW26593   2.587   2.273   4.756 -0.1946  0.2160 -0.1835
 5044SOL    HW126594   2.517   2.327   4.791 -0.2848 -0.7673  1.1603
 5044SOL    HW226595   2.548   2.186   4.747 -1.9570  1.0142 -0.3272
 5045SOL     OW26596   0.703   2.524   5.650  0.4506 -0.0888 -0.2352
 5045SOL    HW126597   0.613   2.553   5.666  0.2233 -1.0293  0.1471
 5045SOL    HW226598   0.691   2.432   5.669  0.1107 -0.2675 -1.2957
 5046SOL     OW26599   1.350   1.929  14.085 -0.0915 -0.3151  0.4520
 5046SOL    HW126600   1.345   1.980  14.166  1.8189 -0.6337  0.7769
 5046SOL    HW226601   1.421   1.868  14.108 -1.7341 -1.7285  1.7023
 5047SOL     OW26602   2.797   4.023   6.242  0.0025 -0.4062  0.6469
 5047SOL    HW126603   2.791   4.054   6.332  1.1333  1.6209  0.0186
 5047SOL    HW226604   2.885   3.985   6.240  0.1148 -0.0615 -1.3180
 5048SOL     OW26605   1.274   4.488   4.648 -0.0962 -0.4534  0.1637
 5048SOL    HW126606   1.310   4.552   4.709  0.2070 -0.3601 -0.1148
 5048SOL    HW226607   1.187   4.521   4.625 -1.1277 -0.8250  3.6205
 5049SOL     OW26608   0.464   1.127   8.352  0.2504 -0.2803 -0.3783
 5049SOL    HW126609   0.386   1.086   8.391  0.5692 -2.4814 -2.0313
 5049SOL    HW226610   0.432   1.200   8.299 -0.5344 -0.2384  0.1532
 5050SOL     OW26611   4.643   0.206   8.249  0.7486 -0.5714 -0.1739
 5050SOL    HW126612   0.012   0.225   8.267  0.0524  1.2636  1.4044
 5050SOL    HW226613   4.613   0.236   8.335  0.1650 -0.0593 -0.5626
 5051SOL     OW26614   4.586   3.839   6.464 -0.4748  0.1134  0.2113
 5051SOL    HW126615   4.660   3.851   6.406 -1.1244 -1.7382 -1.0137
 5051SOL    HW226616   4.568   3.749   6.438  1.2473  0.5157 -2.3248
 5052SOL     OW26617   0.574   4.407   3.321  0.0174  0.0779  0.2735
 5052SOL    HW126618   0.582   4.312   3.330 -0.7774  0.0618  0.7979
 5052SOL    HW226619   0.499   4.425   3.378  0.1803  0.6946  0.2918
 5053SOL     OW26620   1.346   1.722   7.776  0.4833 -0.3374  0.8835
 5053SOL    HW126621   1.365   1.719   7.870 -1.2532  0.1688  1.2541
 5053SOL    HW226622   1.312   1.633   7.772 -0.5274  0.0448  0.9114
 5054SOL     OW26623   3.063   4.429  16.144  0.3991 -0.1377  0.1916
 5054SOL    HW126624   3.050   4.513  16.188 -1.7797  0.6928 -2.0233
 5054SOL    HW226625   3.097   4.464  16.062  0.0430  1.0062  0.5392
 5055SOL     OW26626   2.481   0.039   3.805  0.1071  0.3405 -0.4792
 5055SOL    HW126627   2.413   0.104   3.823  0.0763 -0.0187  0.6972
 5055SOL    HW226628   2.448   4.722   3.724  0.0186  0.8691 -0.7076
 5056SOL     OW26629   0.835   0.533   4.465  0.4678 -0.3271  0.5075
 5056SOL    HW126630   0.927   0.525   4.442 -0.3681 -3.0668 -1.8949
 5056SOL    HW226631   0.791   0.572   4.389 -0.3919  0.9053  1.6235
 5057SOL     OW26632   1.140   3.562   3.740  0.0376 -0.0198 -0.2934
 5057SOL    HW126633   1.158   3.614   3.818 -0.5897  1.0929 -0.8670
 5057SOL    HW226634   1.222   3.531   3.703  0.1785 -0.0066  0.0107
 5058SOL     OW26635   3.708   3.526   6.897 -0.3952  0.0843  0.4817
 5058SOL    HW126636   3.625   3.508   6.851  0.8555 -1.0269 -1.3563
 5058SOL    HW226637   3.745   3.440   6.915  0.2555  0.0028 -1.2108
 5059SOL     OW26638   1.930   1.893   2.976 -0.0312  0.5545 -0.5066
 5059SOL    HW126639   1.892   1.862   3.058 -2.2312  0.0502 -1.7146
 5059SOL    HW226640   1.918   1.823   2.911  2.3865  0.7742 -1.1974
 5060SOL     OW26641   3.305   4.465   6.359  0.4565  0.4333 -0.2306
 5060SOL    HW126642   3.279   4.373   6.361 -0.5962  0.7709  1.5212
 5060SOL    HW226643   3.376   4.461   6.294  1.2622  0.2121  0.6704
 5061SOL     OW26644   0.643   3.210   6.163 -0.2842 -0.2003  0.6390
 5061SOL    HW126645   0.688   3.147   6.107  0.1205  2.0459 -1.5811
 5061SOL    HW226646   0.649   3.165   6.247 -0.8769  1.5932  1.6438
 5062SOL     OW26647   0.836   4.451   5.576  0.0302 -0.1092  0.0196
 5062SOL    HW126648   0.845   4.355   5.578 -1.3466 -0.2763 -1.7191
 5062SOL    HW226649   0.810   4.460   5.484  0.6904 -1.8234 -0.3378
 5063SOL     OW26650   3.602   3.950   0.055 -0.0143 -0.2991 -0.1749
 5063SOL    HW126651   3.532   3.884   0.051  0.7423 -1.1925  1.4069
 5063SOL    HW226652   3.655   3.920  17.674  0.9619 -0.8230  0.7306
 5064SOL     OW26653   4.199   1.892   6.988 -0.6477 -0.2306 -0.7077
 5064SOL    HW126654   4.256   1.968   7.002 -0.5142 -0.6802  1.2296
 5064SOL    HW226655   4.240   1.853   6.911  0.2237  0.4508 -0.5864
 5065SOL     OW26656   0.944   3.809  13.083  0.2676 -0.4041  0.1758
 5065SOL    HW126657   0.868   3.866  13.081 -0.9868 -2.0734  1.0982
 5065SOL    HW226658   1.015   3.859  13.041  2.1425 -0.1547  3.6636
 5066SOL     OW26659   1.537   0.443  16.186 -0.3471 -0.0983  0.1867
 5066SOL    HW126660   1.510   0.458  16.277 -2.3745 -0.7949 -0.2910
 5066SOL    HW226661   1.578   0.525  16.161 -1.6232  0.2539 -0.7855
 5067SOL     OW26662   0.336   1.667   4.405  0.4353  0.7178 -0.2030
 5067SOL    HW126663   0.293   1.601   4.350  0.7937 -0.1390  0.5538
 5067SOL    HW226664   0.330   1.748   4.354  1.4013 -0.1468 -1.6714
 5068SOL     OW26665   1.840   0.106   2.385  0.1148  0.0486 -0.2840
 5068SOL    HW126666   1.922   0.143   2.351 -0.2019  2.3061  1.3458
 5068SOL    HW226667   1.799   0.182   2.427  2.0016  1.2316 -0.5683
 5069SOL     OW26668   4.174   3.781   9.719 -0.2422  0.0051  0.5508
 5069SOL    HW126669   4.112   3.714   9.747  1.1600 -0.3083  2.9143
 5069SOL    HW226670   4.204   3.814   9.804  0.1956 -0.5361  0.6034
 5070SOL     OW26671   4.133   0.874   1.983  0.3642 -0.2834  0.3237
 5070SOL    HW126672   4.083   0.953   2.002  2.8885  1.0910  1.2044
 5070SOL    HW226673   4.076   0.802   2.010  1.0587 -0.6991  0.6779
 5071SOL     OW26674   1.748   0.940  12.629 -0.4583  0.1630 -0.1309
 5071SOL    HW126675   1.801   1.013  12.661  0.5013 -0.1800 -0.9429
 5071SOL    HW226676   1.803   0.875  12.674 -2.5337 -1.2698  0.3128
 5072SOL     OW26677   4.290   1.154   1.480  0.0615  0.1988 -0.1724
 5072SOL    HW126678   4.354   1.085   1.496 -1.3844 -0.9263  0.7710
 5072SOL    HW226679   4.349   1.224   1.453 -0.9966  0.1607 -2.5680
 5073SOL     OW26680   0.639   3.345   2.303  0.0561 -0.3301  0.6607
 5073SOL    HW126681   0.604   3.316   2.387 -0.6846 -2.1665 -0.2971
 5073SOL    HW226682   0.559   3.387   2.271  0.0084 -0.4856  0.5751
 5074SOL     OW26683   0.095   0.709   8.009  0.0828  0.1029  0.0143
 5074SOL    HW126684   0.082   0.716   7.915 -0.4253 -0.4692  0.0333
 5074SOL    HW226685   0.189   0.694   8.009  0.1357  0.5384 -2.9210
 5075SOL     OW26686   1.657   2.148   7.503  0.0546  0.0176 -0.2823
 5075SOL    HW126687   1.687   2.154   7.412 -0.7600 -2.6511 -0.7239
 5075SOL    HW226688   1.677   2.234   7.539  0.3074  0.6693 -1.9681
 5076SOL     OW26689   4.604   2.508   9.097  0.0256 -0.5820 -0.1166
 5076SOL    HW126690   4.585   2.450   9.023 -0.1999  0.8593 -1.1991
 5076SOL    HW226691   4.688   2.540   9.062 -0.7250 -0.0309 -1.4173
 5077SOL     OW26692   2.818   2.038  16.855 -0.1422  0.4528 -0.2284
 5077SOL    HW126693   2.785   2.117  16.897  0.4459  1.0470 -0.8865
 5077SOL    HW226694   2.731   1.997  16.849  0.2796 -0.6080  0.9403
 5078SOL     OW26695   1.078   1.514   0.823 -0.0606 -0.0555 -0.0817
 5078SOL    HW126696   1.159   1.545   0.783 -2.3636  2.4146 -2.7744
 5078SOL    HW226697   1.096   1.425   0.855 -0.7412 -0.1585  0.0038
 5079SOL     OW26698   1.555   4.306  16.902  0.0931 -0.9979 -0.4845
 5079SOL    HW126699   1.595   4.245  16.840  2.3814 -1.9934  1.9648
 5079SOL    HW226700   1.611   4.383  16.889 -1.4402  0.0899 -0.6101
 5080SOL     OW26701   1.952   4.085   7.240  0.0850 -0.1606 -0.1553
 5080SOL    HW126702   1.909   4.169   7.256  0.1474  0.3720 -2.8322
 5080SOL    HW226703   1.992   4.089   7.153 -0.4519  1.9011 -0.3051
 5081SOL     OW26704   1.132   0.520   5.207  0.6827 -0.4880 -0.9735
 5081SOL    HW126705   1.133   0.483   5.295  0.7958 -2.0607 -1.6367
 5081SOL    HW226706   1.111   0.438   5.162 -0.0574 -0.2673 -1.0271
 5082SOL     OW26707   3.574   3.463   4.694 -0.3455  0.2218 -0.1922
 5082SOL    HW126708   3.540   3.530   4.636 -1.1202 -0.0751 -0.0764
 5082SOL    HW226709   3.576   3.514   4.775  2.4004 -0.1066 -0.0606
 5083SOL     OW26710   1.699   1.734   5.445  0.2197 -0.0733 -0.0696
 5083SOL    HW126711   1.630   1.705   5.385  1.1357 -0.6996 -0.8254
 5083SOL    HW226712   1.692   1.666   5.512  0.3849  2.4163  2.4759
 5084SOL     OW26713   4.648   0.271   0.560 -0.1524  0.4150 -0.1618
 5084SOL    HW126714   4.643   0.344   0.498 -1.7611 -0.6999 -1.3482
 5084SOL    HW226715   4.568   0.292   0.608 -0.3105  0.2787 -0.3679
 5085SOL     OW26716   2.079   0.552   9.001  0.9023 -0.0649  0.3524
 5085SOL    HW126717   2.046   0.609   8.931 -0.7909  1.4276  2.3826
 5085SOL    HW226718   2.151   0.605   9.033  0.0090  0.7146  1.0702
 5086SOL     OW26719   3.188   4.410   3.987 -0.9753  0.5569  0.2576
 5086SOL    HW126720   3.187   4.331   4.041 -0.2769  0.0645 -0.4531
 5086SOL    HW226721   3.092   4.406   3.981 -1.0373  0.4467  1.3903
 5087SOL     OW26722   1.123   0.595   2.322  0.2349  0.0958 -0.3819
 5087SOL    HW126723   1.133   0.689   2.336  1.9914  0.0393 -1.2343
 5087SOL    HW226724   1.215   0.575   2.306  0.0124  0.2089 -1.8539
 5088SOL     OW26725   3.482   2.041   2.260 -0.2709 -0.3588 -0.4885
 5088SOL    HW126726   3.480   1.971   2.194  2.3492 -1.7747  0.9384
 5088SOL    HW226727   3.574   2.066   2.252  0.1385 -1.4030  0.8390
 5089SOL     OW26728   3.697   2.471   2.808  0.5427 -0.2083 -0.1397
 5089SOL    HW126729   3.733   2.477   2.719 -1.9677  0.2355 -1.1326
 5089SOL    HW226730   3.684   2.377   2.814  0.5422 -0.0878  1.6928
 5090SOL     OW26731   3.196   3.321   8.790  0.2963 -0.2228 -0.3392
 5090SOL    HW126732   3.226   3.236   8.820  1.1628 -0.2658 -1.3162
 5090SOL    HW226733   3.102   3.318   8.806  0.4732 -2.2391  0.2685
 5091SOL     OW26734   2.144   4.698   4.372 -0.1056  0.0664 -0.0472
 5091SOL    HW126735   2.232   4.663   4.386 -0.7620 -1.3133  0.6362
 5091SOL    HW226736   2.162   0.049   4.314  1.2688 -0.9767 -0.9620
 5092SOL     OW26737   4.081   4.520   4.810 -0.2255  0.2571 -0.4662
 5092SOL    HW126738   4.151   4.541   4.747  1.2000 -0.8642  0.7341
 5092SOL    HW226739   4.022   4.594   4.793  0.2470  0.9890  1.0912
 5093SOL     OW26740   4.402   3.626   6.026 -0.1184  0.4050  0.0297
 5093SOL    HW126741   4.447   3.555   5.980  0.5003  1.0776 -0.3941
 5093SOL    HW226742   4.463   3.699   6.025 -0.6019  0.8250  1.6015
 5094SOL     OW26743   1.544   0.431  17.423  0.2031 -0.5231 -0.2364
 5094SOL    HW126744   1.463   0.390  17.453  0.5709 -0.9491  0.1669
 5094SOL    HW226745   1.543   0.507  17.480  4.0081 -0.1288 -0.6743
 5095SOL     OW26746   0.464   4.084   3.054  0.1701 -0.4579 -0.7243
 5095SOL    HW126747   0.372   4.069   3.079 -0.7609  4.1476 -1.3873
 5095SOL    HW226748   0.453   4.125   2.968  1.3842 -1.1294 -1.1956
 5096SOL     OW26749   0.778   3.582   1.525  0.1862 -0.1214 -0.1863
 5096SOL    HW126750   0.722   3.541   1.590 -0.3070 -1.1446 -1.2536
 5096SOL    HW226751   0.739   3.669   1.530  2.2955  0.8697 -0.6634
 5097SOL     OW26752   3.454   0.313   6.062 -0.0494  0.1582 -0.1802
 5097SOL    HW126753   3.498   0.306   5.977 -0.9827  0.4405 -0.6881
 5097SOL    HW226754   3.394   0.385   6.042 -1.0707 -0.0791  2.0247
 5098SOL     OW26755   0.667   4.719   4.122 -0.2466 -0.1782 -0.2643
 5098SOL    HW126756   0.635   4.674   4.200 -1.3649  0.3481 -0.4100
 5098SOL    HW226757   0.636   4.664   4.050 -0.8694 -3.4038  2.4950
 5099SOL     OW26758   0.511   2.744   2.526 -0.0503  0.4602 -0.7711
 5099SOL    HW126759   0.516   2.807   2.598  1.9260  0.7586 -1.1836
 5099SOL    HW226760   0.434   2.774   2.478 -1.6588  1.4906  2.4279
 5100SOL     OW26761   1.827   3.127   4.771 -0.3608 -0.3753 -0.4082
 5100SOL    HW126762   1.802   3.067   4.841  2.9534 -0.3193  0.8325
 5100SOL    HW226763   1.806   3.211   4.813  0.0683 -1.5787  2.1658
 5101SOL     OW26764   3.025   4.680   3.251  0.7415  0.1021 -0.1766
 5101SOL    HW126765   3.092   0.020   3.276  0.3766  1.4602 -2.5227
 5101SOL    HW226766   3.046   4.605   3.306 -1.1982 -0.5948 -0.3822
 5102SOL     OW26767   0.895   1.803   4.864  0.1958 -0.5013 -0.3598
 5102SOL    HW126768   0.820   1.766   4.910  1.0966 -1.0475  0.6538
 5102SOL    HW226769   0.907   1.736   4.796 -1.2320 -0.3653 -0.7621
 5103SOL     OW26770   2.475   1.275   7.194  0.0975  0.5649 -0.7020
 5103SOL    HW126771   2.452   1.327   7.117 -1.0994  2.2838  0.8073
 5103SOL    HW226772   2.570   1.265   7.196  0.0725  0.3164 -0.8017
 5104SOL     OW26773   2.211   0.777   7.894 -0.3013 -0.2909  0.1519
 5104SOL    HW126774   2.229   0.747   7.805 -2.7561 -1.1507 -0.0637
 5104SOL    HW226775   2.135   0.831   7.871  0.3722  1.6190  2.3915
 5105SOL     OW26776   4.574   0.952   6.520  0.6022  0.1752 -0.2507
 5105SOL    HW126777   4.594   1.035   6.563  0.0065 -0.6764  1.6542
 5105SOL    HW226778   4.519   0.909   6.585  1.5953  2.2556  1.9793
 5106SOL     OW26779   0.387   2.301   3.779  0.2571  0.4613 -0.0545
 5106SOL    HW126780   0.374   2.344   3.694  0.1772 -0.4479 -0.5039
 5106SOL    HW226781   0.411   2.372   3.838  1.1889  0.1631 -0.0828
 5107SOL     OW26782   2.457   3.049  14.149 -0.2048  0.0073 -0.3964
 5107SOL    HW126783   2.380   3.029  14.202  0.1866  0.6451  0.4072
 5107SOL    HW226784   2.428   3.023  14.061 -0.5602 -1.0457  0.0238
 5108SOL     OW26785   3.796   0.124   3.796 -0.1325 -0.1767 -0.8326
 5108SOL    HW126786   3.798   0.159   3.708 -0.4042 -0.1704 -0.8370
 5108SOL    HW226787   3.728   0.056   3.794 -1.0907  0.8350 -2.3171
 5109SOL     OW26788   2.184   3.225   4.218  0.4771  0.4556  0.1453
 5109SOL    HW126789   2.223   3.312   4.227  0.4179  0.6461 -1.4903
 5109SOL    HW226790   2.261   3.170   4.230  1.0569  1.3312  0.4035
 5110SOL     OW26791   1.451   0.034  15.978  0.3310  0.4318  0.1157
 5110SOL    HW126792   1.514   0.024  15.906  2.1957 -0.4859  1.8755
 5110SOL    HW226793   1.500   0.094  16.033 -0.2367  1.2919 -0.3301
 5111SOL     OW26794   3.661   2.669   7.857  0.1896  0.6058 -0.1567
 5111SOL    HW126795   3.670   2.742   7.795 -2.1084  0.4014 -0.7422
 5111SOL    HW226796   3.739   2.617   7.837  0.8078  1.1109  0.9683
 5112SOL     OW26797   0.026   0.901   4.787  0.3476  0.7364  0.1271
 5112SOL    HW126798   0.058   0.858   4.707  0.7566 -1.2633  1.3773
 5112SOL    HW226799   4.662   0.863   4.801 -0.0946  1.4435 -0.6386
 5113SOL     OW26800   2.938   0.051   5.035  0.3946 -0.8378 -0.0350
 5113SOL    HW126801   2.915   0.143   5.044 -1.1332 -1.4366  2.2316
 5113SOL    HW226802   2.891   0.039   4.953 -0.6328  0.0190  0.4245
 5114SOL     OW26803   3.112   3.186   3.139  0.2658 -0.0963  0.1554
 5114SOL    HW126804   3.203   3.211   3.124  0.6069 -2.5062 -1.8676
 5114SOL    HW226805   3.084   3.251   3.203  2.0648 -0.0507  0.8916
 5115SOL     OW26806   1.034   2.576  15.456 -0.0488 -0.4614 -0.3464
 5115SOL    HW126807   0.953   2.609  15.417 -0.9521 -0.7871  1.2372
 5115SOL    HW226808   0.991   2.520  15.520  0.7796 -1.9827 -1.1278
 5116SOL     OW26809   2.404   2.922   7.274 -0.0808  0.1794  0.0994
 5116SOL    HW126810   2.444   2.864   7.339 -0.8244  1.8875  2.0776
 5116SOL    HW226811   2.388   2.999   7.328 -0.6154  0.0218  0.1669
 5117SOL     OW26812   2.608   3.324  16.739  0.7656 -0.7569  0.1931
 5117SOL    HW126813   2.602   3.229  16.732 -2.4448 -0.5800  0.5733
 5117SOL    HW226814   2.518   3.353  16.730  1.3060  0.4841 -1.3059
 5118SOL     OW26815   2.968   0.722   5.092  0.1987  0.0838 -0.2163
 5118SOL    HW126816   2.970   0.792   5.158  0.4751  0.2575 -0.4100
 5118SOL    HW226817   2.883   0.738   5.049 -0.9064  0.8838  2.2549
 5119SOL     OW26818   3.556   4.570  15.637 -0.0064  0.1405  0.5351
 5119SOL    HW126819   3.647   4.561  15.664  0.3326 -2.9426 -1.5842
 5119SOL    HW226820   3.547   4.665  15.628  1.3550  0.1046 -1.1958
 5120SOL     OW26821   3.052   2.163  13.164  0.0870  0.2886  0.3033
 5120SOL    HW126822   3.098   2.113  13.231 -0.6997 -2.8154 -1.5175
 5120SOL    HW226823   3.006   2.223  13.223 -2.0576 -1.6693  0.6216
 5121SOL     OW26824   0.200   0.103   6.890  0.4560  0.4298  0.3257
 5121SOL    HW126825   0.161   0.033   6.838 -0.2847 -0.4033  2.0219
 5121SOL    HW226826   0.142   0.172   6.860 -1.9869 -1.6636  0.2439
 5122SOL     OW26827   2.867   1.579   8.904  0.4306  0.2462 -0.4902
 5122SOL    HW126828   2.790   1.527   8.928  0.2929  0.4896 -0.4009
 5122SOL    HW226829   2.909   1.566   8.989 -0.0335  1.5952 -0.0579
 5123SOL     OW26830   3.966   4.214   4.070  0.1553  0.0940  0.0989
 5123SOL    HW126831   3.976   4.153   4.143 -0.6640 -1.4632 -1.1009
 5123SOL    HW226832   3.878   4.244   4.090  0.3313  0.2606  0.6259
 5124SOL     OW26833   2.352   1.043   2.352  0.6582  0.1749  0.0288
 5124SOL    HW126834   2.269   1.070   2.315  0.6290  0.5898  0.4011
 5124SOL    HW226835   2.421   1.084   2.300  0.8503 -2.1092 -1.5449
 5125SOL     OW26836   1.346   4.130   1.982 -0.2160 -0.0324  0.9432
 5125SOL    HW126837   1.411   4.060   1.971  0.6259  0.9728 -0.4602
 5125SOL    HW226838   1.326   4.154   1.892  0.3599 -2.7146  0.0956
 5126SOL     OW26839   0.326   2.430   3.565  0.2090 -0.3657 -0.5811
 5126SOL    HW126840   0.327   2.473   3.480 -0.0203 -1.9262 -1.3638
 5126SOL    HW226841   0.245   2.457   3.609  1.6419  1.4025  0.9918
 5127SOL     OW26842   1.219   0.964   2.784  0.5777  0.1363 -0.0254
 5127SOL    HW126843   1.245   0.872   2.778  2.1410  0.5334  0.7353
 5127SOL    HW226844   1.229   0.998   2.695 -4.4067  0.4222 -0.4641
 5128SOL     OW26845   0.200   2.666  15.618  0.4493  0.0435  0.0585
 5128SOL    HW126846   0.184   2.572  15.611 -0.9375  0.3292 -0.6002
 5128SOL    HW226847   0.108   2.691  15.630  0.6271  0.1806  1.1967
 5129SOL     OW26848   4.497   2.374   5.395  0.3394  0.1418 -0.3534
 5129SOL    HW126849   4.411   2.350   5.362 -0.1490  0.1407  0.9381
 5129SOL    HW226850   4.549   2.305   5.353  0.7315  0.8780 -1.1029
 5130SOL     OW26851   2.739   0.780   2.690  0.0678  0.4949  0.0187
 5130SOL    HW126852   2.692   0.709   2.734  0.7535 -0.3090 -0.5263
 5130SOL    HW226853   2.711   0.760   2.601  0.8533  1.2904 -0.4036
 5131SOL     OW26854   4.045   4.608   5.554  0.3685 -0.3089  0.0173
 5131SOL    HW126855   4.092   4.675   5.504  0.3232  0.1800  0.6196
 5131SOL    HW226856   4.112   4.544   5.579  2.0488  0.8843 -1.4967
 5132SOL     OW26857   0.687   4.541  11.991 -0.5623  0.0697 -0.4345
 5132SOL    HW126858   0.602   4.528  12.032 -0.4566  1.9483  0.3969
 5132SOL    HW226859   0.667   4.567  11.901  1.6874  0.2256 -0.9101
 5133SOL     OW26860   3.559   0.489   4.695 -0.4489 -0.5088  0.4752
 5133SOL    HW126861   3.551   0.513   4.602 -1.5810 -0.8875  0.4810
 5133SOL    HW226862   3.469   0.486   4.726 -0.4454  0.1068  0.5470
 5134SOL     OW26863   4.473   4.184   5.860 -0.6847 -0.1722  0.4466
 5134SOL    HW126864   4.563   4.150   5.861 -1.1019 -1.3157 -0.3608
 5134SOL    HW226865   4.440   4.132   5.786  0.6345  0.3609 -0.5280
 5135SOL     OW26866   0.217   1.431   7.640  0.0116  0.1847 -0.1211
 5135SOL    HW126867   0.284   1.494   7.667 -0.8631  0.3546  1.5910
 5135SOL    HW226868   0.152   1.493   7.608 -0.2369 -0.3031 -0.5746
 5136SOL     OW26869   1.166   0.570  15.566  0.4957 -0.1126 -0.4474
 5136SOL    HW126870   1.114   0.496  15.533 -0.0361 -0.2132  0.6409
 5136SOL    HW226871   1.237   0.557  15.503  1.2242 -1.9155  0.7359
 5137SOL     OW26872   4.108   3.569   9.177  0.4288  0.1954 -0.0761
 5137SOL    HW126873   4.092   3.658   9.210  0.0261  0.1533 -0.1627
 5137SOL    HW226874   4.146   3.599   9.094  1.7574 -2.8317 -0.5325
 5138SOL     OW26875   4.451   2.869   3.296  0.0737  0.1396  1.0402
 5138SOL    HW126876   4.534   2.852   3.342  0.5305  0.0891  0.1919
 5138SOL    HW226877   4.477   2.917   3.218  1.3562 -0.3866  1.1384
 5139SOL     OW26878   1.289   2.853   7.325  0.7573 -0.2387  0.0470
 5139SOL    HW126879   1.210   2.866   7.378  2.2041  2.4465  1.5352
 5139SOL    HW226880   1.342   2.805   7.389  1.0001  1.3753  1.0699
 5140SOL     OW26881   2.045   0.300   4.677  0.8038 -0.7339 -0.2708
 5140SOL    HW126882   2.031   0.236   4.606 -1.6029 -1.3194  0.7116
 5140SOL    HW226883   1.960   0.288   4.719  0.3114  1.5136 -0.6396
 5141SOL     OW26884   3.489   1.991   8.473  0.2296 -0.1335  0.2886
 5141SOL    HW126885   3.507   1.929   8.544 -1.6592 -0.5589  0.3771
 5141SOL    HW226886   3.518   1.949   8.392  2.0024 -0.5724  1.1541
 5142SOL     OW26887   4.634   1.122  10.361 -0.0285 -0.3450 -0.4800
 5142SOL    HW126888   4.701   1.062  10.328  0.9059 -0.5057  1.7239
 5142SOL    HW226889   4.645   1.196  10.300 -0.8149  1.7418  1.9134
 5143SOL     OW26890   3.684   2.049   9.104 -0.1804 -0.3228 -0.2258
 5143SOL    HW126891   3.661   1.992   9.031 -1.1021  2.2921 -1.9704
 5143SOL    HW226892   3.764   2.089   9.070  0.0484 -0.4024  0.2141
 5144SOL     OW26893   4.073   4.524   7.045 -0.0169 -0.0513  0.0043
 5144SOL    HW126894   4.014   4.595   7.070 -0.3478 -0.1999 -0.3546
 5144SOL    HW226895   4.155   4.569   7.067  0.0360 -0.5220  0.7559
 5145SOL     OW26896   2.342   4.496   8.941 -0.6518 -0.4288 -0.2045
 5145SOL    HW126897   2.248   4.485   8.947 -0.5775 -1.0178 -0.1590
 5145SOL    HW226898   2.351   4.582   8.981  0.6377  0.1527 -1.7146
 5146SOL     OW26899   3.853   1.052   0.899 -0.1615 -0.1111  0.5489
 5146SOL    HW126900   3.885   1.137   0.869  0.9526 -0.4550  0.7753
 5146SOL    HW226901   3.873   1.067   0.991  0.0312 -0.7816  0.6197
 5147SOL     OW26902   0.887   1.395   8.360 -0.1139 -0.2701 -0.0964
 5147SOL    HW126903   0.943   1.322   8.336 -1.3201 -1.9496  2.1621
 5147SOL    HW226904   0.911   1.410   8.451 -0.7075 -0.6123  0.1204
 5148SOL     OW26905   3.340   2.377   6.636 -0.1663 -0.3541  0.4267
 5148SOL    HW126906   3.426   2.360   6.600 -0.6872  0.5374 -1.2456
 5148SOL    HW226907   3.356   2.376   6.731  0.9953  1.9764  0.2597
 5149SOL     OW26908   1.897   4.296   7.587  0.1482 -0.5828  0.1720
 5149SOL    HW126909   1.936   4.365   7.533  1.9627 -1.4862  0.3530
 5149SOL    HW226910   1.869   4.352   7.660 -1.6967  1.2312 -1.8814
 5150SOL     OW26911   0.296   1.930   6.193 -0.0797 -0.4005  0.0796
 5150SOL    HW126912   0.353   1.901   6.264  1.3793 -1.9055 -1.6795
 5150SOL    HW226913   0.215   1.947   6.241 -0.9709 -0.9773 -1.2119
 5151SOL     OW26914   4.510   0.367   2.158  0.5469  0.3908  0.0606
 5151SOL    HW126915   4.577   0.426   2.194  1.5437  0.7633 -2.3859
 5151SOL    HW226916   4.430   0.406   2.191  1.0406  1.7943 -0.3951
 5152SOL     OW26917   4.237   0.178   9.398 -0.0311 -0.2816 -0.0885
 5152SOL    HW126918   4.289   0.238   9.451  0.4728 -0.7300 -0.0695
 5152SOL    HW226919   4.234   0.102   9.456  2.4949  1.3814  2.2134
 5153SOL     OW26920   1.640   1.776   3.757 -0.2989  0.0700 -0.0249
 5153SOL    HW126921   1.577   1.805   3.692 -1.5009 -0.1421  1.0558
 5153SOL    HW226922   1.718   1.822   3.725  0.0809  0.1040  0.9547
 5154SOL     OW26923   0.948   3.824   6.194 -0.1304 -0.4942  0.6037
 5154SOL    HW126924   0.906   3.740   6.214 -1.8681  0.7629  2.0922
 5154SOL    HW226925   1.042   3.806   6.207  0.2906  0.4448 -1.0975
 5155SOL     OW26926   3.954   1.021  17.044 -0.0769 -0.1143 -0.0422
 5155SOL    HW126927   3.990   1.090  17.099  0.2910  1.4453 -2.2591
 5155SOL    HW226928   4.039   0.980  17.028 -0.2059  0.0649 -1.1609
 5156SOL     OW26929   1.355   4.601   3.463  0.2319  0.5572  0.1383
 5156SOL    HW126930   1.364   4.548   3.543 -1.9902 -0.3941 -0.2515
 5156SOL    HW226931   1.402   4.547   3.400 -0.7081 -0.3045  0.1719
 5157SOL     OW26932   3.645   4.266   5.224  0.4890  0.0715  0.1824
 5157SOL    HW126933   3.613   4.194   5.279  1.0983  0.5604  1.1795
 5157SOL    HW226934   3.688   4.222   5.151 -0.2874  0.8269 -0.7368
 5158SOL     OW26935   4.248   1.948   8.830  0.4348 -0.6125  0.4805
 5158SOL    HW126936   4.299   2.007   8.887 -0.8537  1.2184 -0.2522
 5158SOL    HW226937   4.293   1.974   8.750  0.4856 -2.1057  0.0260
 5159SOL     OW26938   0.186   0.457   0.883 -0.4257 -0.8648 -0.1076
 5159SOL    HW126939   0.180   0.516   0.807 -1.0509 -0.0581  0.5730
 5159SOL    HW226940   0.234   0.517   0.940 -0.1711  1.0516 -2.3073
 5160SOL     OW26941   1.943   2.655  13.369  0.5072 -0.5452 -0.1887
 5160SOL    HW126942   2.016   2.665  13.430  1.2589 -1.1333 -0.9901
 5160SOL    HW226943   1.988   2.622  13.291 -0.7680 -1.6036 -0.4625
 5161SOL     OW26944   3.592   3.158   5.634 -0.4996  0.1388 -0.9060
 5161SOL    HW126945   3.646   3.106   5.693  0.5511  2.6220  0.2996
 5161SOL    HW226946   3.538   3.202   5.700  1.4111  1.0426  0.0301
 5162SOL     OW26947   0.913   2.299   3.355 -0.0951  0.2190  0.2907
 5162SOL    HW126948   0.843   2.352   3.395 -1.5664 -0.8627 -0.8422
 5162SOL    HW226949   0.870   2.228   3.308 -0.0356  1.2261 -1.2749
 5163SOL     OW26950   3.468   2.440   8.701  0.0575  0.1125  0.0392
 5163SOL    HW126951   3.466   2.498   8.777  1.4432 -0.3821  0.4576
 5163SOL    HW226952   3.472   2.494   8.623  0.2672  2.4688  1.6945
 5164SOL     OW26953   0.499   1.425   8.096  0.3509 -0.5623 -0.0687
 5164SOL    HW126954   0.528   1.396   8.009  1.0483 -0.7311  0.2169
 5164SOL    HW226955   0.518   1.517   8.079 -0.1155 -0.2692  1.0001
 5165SOL     OW26956   0.949   3.914  17.352  0.2062 -0.3382  0.6131
 5165SOL    HW126957   1.006   3.925  17.276 -1.4203  1.4375 -0.3691
 5165SOL    HW226958   0.858   3.897  17.326 -0.1491  1.7816  0.5133
 5166SOL     OW26959   1.228   0.669   4.195 -0.4431  0.3866 -0.0966
 5166SOL    HW126960   1.266   0.757   4.201  2.8142 -1.1546  1.8102
 5166SOL    HW226961   1.262   0.656   4.107 -0.4700 -0.5023  0.0229
 5167SOL     OW26962   3.424   4.519   3.966  0.4931  0.2279 -0.6296
 5167SOL    HW126963   3.339   4.475   3.965  1.8393 -2.3261  0.0921
 5167SOL    HW226964   3.412   4.561   4.052 -1.0322 -1.3129 -0.0909
 5168SOL     OW26965   3.248   2.453  11.587 -0.7726 -0.3665 -0.5132
 5168SOL    HW126966   3.318   2.389  11.578 -1.9573 -2.2122  3.1792
 5168SOL    HW226967   3.248   2.465  11.682 -0.0999  3.2017 -0.9712
 5169SOL     OW26968   2.608   3.678   5.610 -0.0541 -0.3878 -0.5612
 5169SOL    HW126969   2.585   3.678   5.703 -1.9477 -0.3521 -1.0249
 5169SOL    HW226970   2.688   3.730   5.618 -1.2104  1.5868 -2.0663
 5170SOL     OW26971   1.715   0.837   6.785 -0.0189 -0.1472 -0.6021
 5170SOL    HW126972   1.648   0.843   6.853  0.3743 -2.9242  0.0151
 5170SOL    HW226973   1.699   0.920   6.740  0.2556 -0.2186 -0.8278
 5171SOL     OW26974   0.148   0.301   4.169  0.0399 -0.4563 -0.3395
 5171SOL    HW126975   0.112   0.234   4.110 -0.4127 -1.3545  0.9481
 5171SOL    HW226976   0.238   0.267   4.171  0.0157 -0.5052  0.0013
 5172SOL     OW26977   4.030   1.422  12.052 -0.1646  0.8431 -0.1072
 5172SOL    HW126978   4.044   1.401  12.145 -0.8176  0.1343 -0.1722
 5172SOL    HW226979   4.037   1.517  12.054 -0.6198  0.9126 -2.4445
 5173SOL     OW26980   2.757   2.142   9.039  0.0154  0.4857  0.0546
 5173SOL    HW126981   2.737   2.072   9.101 -0.4570 -0.3388 -1.0373
 5173SOL    HW226982   2.671   2.182   9.027  0.2455  1.1726  0.6904
 5174SOL     OW26983   1.594   4.205  12.463  0.1251  0.5218  0.2943
 5174SOL    HW126984   1.688   4.206  12.482 -0.0451 -1.9467  1.2384
 5174SOL    HW226985   1.564   4.272  12.524  0.7250 -0.8010  2.0561
 5175SOL     OW26986   0.854   1.358  14.188  0.3175  0.4891 -0.5261
 5175SOL    HW126987   0.904   1.348  14.269 -3.2512  0.3403  1.6624
 5175SOL    HW226988   0.796   1.427  14.220  0.2723 -0.2918  1.0330
 5176SOL     OW26989   3.213   2.024  13.400  0.2627 -0.4945 -0.0461
 5176SOL    HW126990   3.254   2.104  13.433 -1.7411  0.4580  0.1135
 5176SOL    HW226991   3.274   1.952  13.420 -0.0787 -0.3185  1.6567
 5177SOL     OW26992   0.675   2.241  16.377  0.1243 -0.4528  0.1181
 5177SOL    HW126993   0.722   2.158  16.369  0.9724  0.0798 -0.3662
 5177SOL    HW226994   0.603   2.218  16.318  0.0516 -0.7476  0.3218
 5178SOL     OW26995   2.497   0.375   0.939  0.3726  0.3521  0.2892
 5178SOL    HW126996   2.569   0.428   0.974 -0.2397  1.7022 -0.4984
 5178SOL    HW226997   2.428   0.405   0.999  0.9035 -2.7124  2.4164
 5179SOL     OW26998   2.355   0.995   4.862 -0.2207  0.3181 -0.2362
 5179SOL    HW126999   2.387   0.905   4.861 -1.4386 -0.1346  1.7549
 5179SOL    HW227000   2.301   0.985   4.940 -0.1973  1.1983 -0.1158
 5180SOL     OW27001   4.387   0.124   0.366 -0.3315 -0.2678  0.3729
 5180SOL    HW127002   4.416   0.212   0.343 -2.7266  0.2211 -0.8478
 5180SOL    HW227003   4.466   0.071   0.361  0.4512  0.7559  2.0434
 5181SOL     OW27004   1.336   4.100  13.893 -0.4208 -0.5360  0.0463
 5181SOL    HW127005   1.341   4.015  13.936 -0.8682  0.2141  1.6123
 5181SOL    HW227006   1.257   4.098  13.839 -0.4012  3.4358 -0.1862
 5182SOL     OW27007   4.000   4.245  16.259  0.1309  0.4220  0.5813
 5182SOL    HW127008   4.033   4.210  16.176 -0.8648  0.1847  0.2836
 5182SOL    HW227009   3.908   4.262  16.236  0.7006 -0.2209 -2.1072
 5183SOL     OW27010   1.178   2.156  14.767 -0.3020  0.0608 -0.1098
 5183SOL    HW127011   1.191   2.080  14.823  2.6024  1.8675  1.6842
 5183SOL    HW227012   1.082   2.157  14.767 -0.2976  1.2786  1.0377
 5184SOL     OW27013   1.545   4.615   0.554 -0.5904  0.0340 -0.0252
 5184SOL    HW127014   1.607   4.688   0.546 -0.1254 -0.5412 -1.6174
 5184SOL    HW227015   1.604   4.540   0.546 -0.1648  0.2026  1.4981
 5185SOL     OW27016   1.289   3.635   8.636 -0.0766 -0.2213  0.2367
 5185SOL    HW127017   1.228   3.685   8.582  0.4138  0.1860  0.0655
 5185SOL    HW227018   1.304   3.706   8.698  1.4324  0.4564 -0.9108
 5186SOL     OW27019   4.043   0.581   6.127  0.0734  0.1163  0.4348
 5186SOL    HW127020   3.995   0.565   6.208 -0.4864 -1.3293 -0.1931
 5186SOL    HW227021   4.002   0.652   6.078  1.5254  0.4649 -0.2826
 5187SOL     OW27022   1.133   4.197  17.305  0.3747 -0.1235  0.2931
 5187SOL    HW127023   1.119   4.222  17.213 -0.2152 -2.0132 -0.1239
 5187SOL    HW227024   1.058   4.139  17.320 -1.5830  2.4598  0.5884
 5188SOL     OW27025   1.802   3.712   8.114 -0.2772 -0.2201 -0.6097
 5188SOL    HW127026   1.729   3.760   8.073  0.2414  0.6625 -0.4979
 5188SOL    HW227027   1.791   3.731   8.207  1.3529  1.2715 -0.7274
 5189SOL     OW27028   1.347   1.832   7.237 -0.0020  0.7321  0.0418
 5189SOL    HW127029   1.252   1.818   7.233  0.0268  1.1693 -2.5628
 5189SOL    HW227030   1.364   1.813   7.329 -1.0671  2.5321  0.6149
 5190SOL     OW27031   1.925   0.622   3.395 -0.2118 -0.7088 -0.4050
 5190SOL    HW127032   1.980   0.631   3.473 -1.1635 -0.0205  0.1897
 5190SOL    HW227033   1.982   0.573   3.337 -0.4457  0.1235 -1.3346
 5191SOL     OW27034   1.657   3.532  16.005  0.0577  0.0842  0.1912
 5191SOL    HW127035   1.621   3.598  16.064 -0.6077  0.9921 -1.2250
 5191SOL    HW227036   1.670   3.574  15.920 -0.2463  0.6200  0.4110
 5192SOL     OW27037   0.759   2.283   6.313 -1.0509 -0.3027  0.2524
 5192SOL    HW127038   0.769   2.232   6.232  1.4070 -0.7083  0.8306
 5192SOL    HW227039   0.764   2.371   6.276  1.7421 -0.7203 -0.3563
 5193SOL     OW27040   2.266   3.795   8.040 -0.1426  0.1798 -0.2205
 5193SOL    HW127041   2.319   3.820   8.116  1.6956  0.1649 -1.5217
 5193SOL    HW227042   2.251   3.876   7.992  1.8998  1.3164  1.0587
 5194SOL     OW27043   0.424   2.667   8.296  0.4854 -0.4629  0.2364
 5194SOL    HW127044   0.509   2.691   8.258 -0.4243  1.6573 -0.4329
 5194SOL    HW227045   0.425   2.699   8.386  0.2327 -1.7362  0.6859
 5195SOL     OW27046   2.510   1.118   8.647  0.3559  0.1900 -0.6055
 5195SOL    HW127047   2.577   1.098   8.582 -0.1850 -1.1573 -0.7430
 5195SOL    HW227048   2.566   1.149   8.717  1.2887 -0.0861 -1.2341
 5196SOL     OW27049   0.352   0.541   7.027 -0.2266 -0.6855  0.0430
 5196SOL    HW127050   0.436   0.496   7.036  1.8199  3.2447  0.5379
 5196SOL    HW227051   0.314   0.507   7.108 -0.4995 -0.1606  0.1375
 5197SOL     OW27052   1.437   2.816   1.503  0.7210 -0.5040  0.4077
 5197SOL    HW127053   1.450   2.857   1.417 -1.9851 -0.7990 -0.1536
 5197SOL    HW227054   1.347   2.789   1.484 -0.5098  1.4775  3.5148
 5198SOL     OW27055   3.942   1.608   3.528 -0.0206 -0.0617  0.2621
 5198SOL    HW127056   3.862   1.557   3.522 -0.2672  0.6139 -2.1200
 5198SOL    HW227057   4.011   1.546   3.504  1.1520  0.8595  1.2755
 5199SOL     OW27058   0.395   1.934   1.353 -0.1024 -0.1689  0.2595
 5199SOL    HW127059   0.334   1.951   1.424 -1.6131 -0.1530 -1.0369
 5199SOL    HW227060   0.376   1.840   1.360 -1.3893  0.1374  0.8655
 5200SOL     OW27061   3.673   0.684   6.843  0.1086 -0.5709  0.2977
 5200SOL    HW127062   3.577   0.688   6.844  0.2002  2.1412 -0.0711
 5200SOL    HW227063   3.694   0.639   6.925  2.5464  1.7393  0.9562
 5201SOL     OW27064   1.383   0.341   6.712 -0.0101 -0.3055  0.4867
 5201SOL    HW127065   1.455   0.285   6.683  0.3069  0.9521 -1.1885
 5201SOL    HW227066   1.308   0.282   6.717 -1.9377  2.1969  1.0419
 5202SOL     OW27067   4.130   0.498   7.458 -0.4107 -0.5373  0.4145
 5202SOL    HW127068   4.074   0.422   7.444 -1.6534  0.6084 -0.8763
 5202SOL    HW227069   4.165   0.478   7.545  0.5552  0.9276  0.3604
 5203SOL     OW27070   1.607   0.782   9.015  0.1705  0.0896  0.1904
 5203SOL    HW127071   1.584   0.742   9.098  0.6101 -1.1565 -0.2969
 5203SOL    HW227072   1.602   0.876   9.036  0.2832  0.3555 -0.9560
 5204SOL     OW27073   0.047   1.912   4.404 -0.1270  0.3972 -0.1860
 5204SOL    HW127074   0.037   1.984   4.466  1.5804 -1.5452  2.3771
 5204SOL    HW227075   0.138   1.919   4.375  0.6592 -0.6953  2.0188
 5205SOL     OW27076   0.394   1.864   7.403 -0.5743 -0.2425  0.0435
 5205SOL    HW127077   0.419   1.825   7.319  0.2952 -0.6402  0.4882
 5205SOL    HW227078   0.477   1.906   7.424 -0.6004  0.2388 -0.8075
 5206SOL     OW27079   0.864   3.400  11.828  0.0106 -0.0664 -0.3112
 5206SOL    HW127080   0.879   3.493  11.847  1.0824 -0.3780  0.3992
 5206SOL    HW227081   0.771   3.383  11.814  0.3222 -0.4051 -2.0161
 5207SOL     OW27082   4.581   3.523  15.749 -0.1339  0.0987 -0.5058
 5207SOL    HW127083   4.587   3.531  15.844  3.3882  1.3540 -0.8350
 5207SOL    HW227084   4.667   3.555  15.720  0.4406  0.7735  1.9647
 5208SOL     OW27085   2.271   1.077   7.248 -0.0284 -0.1866  0.8601
 5208SOL    HW127086   2.360   1.090   7.216 -1.0705  3.1983 -0.6138
 5208SOL    HW227087   2.282   1.013   7.318  0.3357 -0.7432  0.2928
 5209SOL     OW27088   2.117   3.677   8.588  0.3777 -0.1477 -0.0372
 5209SOL    HW127089   2.139   3.766   8.616 -0.6496 -0.5876  2.2052
 5209SOL    HW227090   2.131   3.681   8.493 -0.7886 -1.0103 -0.2466
 5210SOL     OW27091   0.031   4.358   3.861 -0.3635  0.0930  0.5950
 5210SOL    HW127092   4.693   4.295   3.900 -1.6475  1.8116  1.3453
 5210SOL    HW227093   4.690   4.394   3.800  0.9789  0.6957 -0.4397
 5211SOL     OW27094   3.207   2.593   7.597 -0.2266  0.0041 -0.3300
 5211SOL    HW127095   3.119   2.574   7.630  0.0904 -0.1858  0.4052
 5211SOL    HW227096   3.252   2.587   7.681  0.4113  0.7104 -0.6230
 5212SOL     OW27097   0.945   3.429   0.865 -0.3642  0.3667  0.5417
 5212SOL    HW127098   0.925   3.336   0.850  0.7594  0.3410 -0.7821
 5212SOL    HW227099   1.011   3.419   0.933 -0.3293 -1.5250  0.2226
 5213SOL     OW27100   3.378   0.530   2.348 -0.5300 -0.2551  0.7775
 5213SOL    HW127101   3.429   0.609   2.366  2.1484 -1.6949 -0.5370
 5213SOL    HW227102   3.448   0.499   2.291 -1.3713 -1.6761  0.5132
 5214SOL     OW27103   2.560   0.583   5.253  0.1338  0.3921 -0.4214
 5214SOL    HW127104   2.530   0.494   5.236  1.4999  0.1071 -1.3756
 5214SOL    HW227105   2.591   0.610   5.167 -0.8229  0.2030 -0.8190
 5215SOL     OW27106   3.523   4.139  16.235  0.2874 -0.5049  0.1073
 5215SOL    HW127107   3.455   4.204  16.220  0.8484 -0.0910 -0.6256
 5215SOL    HW227108   3.472   4.069  16.277 -1.1236  0.2110 -0.4170
 5216SOL     OW27109   1.284   0.385  17.496  0.5775 -0.2642  0.3717
 5216SOL    HW127110   1.192   0.373  17.472  0.6888  0.5455 -0.4839
 5216SOL    HW227111   1.276   0.444  17.571 -0.8572 -0.4482  0.3673
 5217SOL     OW27112   0.608   2.361   8.025  0.3107  0.1874 -0.1641
 5217SOL    HW127113   0.573   2.360   8.114 -1.4457  1.3754 -0.8333
 5217SOL    HW227114   0.539   2.311   7.981  2.3574 -1.3530 -1.6208
 5218SOL     OW27115   4.091   1.138  16.051 -0.1653 -0.1210  0.7926
 5218SOL    HW127116   4.041   1.157  15.971 -2.6392  1.4029  2.6835
 5218SOL    HW227117   4.138   1.220  16.067 -0.4843  0.2101  0.0555
 5219SOL     OW27118   4.168   3.080   8.742 -0.0983  0.0270 -0.5628
 5219SOL    HW127119   4.226   3.149   8.774  0.7497 -1.0994  0.3165
 5219SOL    HW227120   4.231   3.011   8.723  0.2707  0.1806  0.1156
 5220SOL     OW27121   4.183   4.095   3.249  0.4624 -0.3199 -0.2791
 5220SOL    HW127122   4.263   4.142   3.272 -1.3670  2.0334  1.3018
 5220SOL    HW227123   4.128   4.102   3.328  1.3495  3.2459  0.0384
 5221SOL     OW27124   1.011   4.322   2.916  0.0100  0.2046 -0.0955
 5221SOL    HW127125   1.054   4.277   2.989 -0.1453  2.3247  1.2991
 5221SOL    HW227126   1.007   4.412   2.948 -3.7111 -0.1504  0.3888
 5222SOL     OW27127   3.405   1.929   4.195 -0.3876 -0.0357 -0.1379
 5222SOL    HW127128   3.369   1.958   4.279 -1.3503 -2.8225  0.4167
 5222SOL    HW227129   3.376   2.005   4.144  0.4231  0.7585  0.5765
 5223SOL     OW27130   3.347   0.257   3.088 -0.2719  0.3023  0.2927
 5223SOL    HW127131   3.397   0.310   3.026  0.8460  0.3408  1.2253
 5223SOL    HW227132   3.345   0.172   3.043  1.4375  0.4602 -0.1002
 5224SOL     OW27133   0.082   0.214   2.447  0.5975 -0.3269 -0.2350
 5224SOL    HW127134   0.062   0.229   2.354 -2.6589  0.8360  0.6680
 5224SOL    HW227135   0.071   0.301   2.486 -0.0500  0.0009 -1.1366
 5225SOL     OW27136   4.478   1.720   3.344 -0.2088 -0.0838 -0.3914
 5225SOL    HW127137   4.431   1.776   3.406 -0.2288 -1.4337  0.8129
 5225SOL    HW227138   4.435   1.636   3.359  1.9692 -1.0281  0.5803
 5226SOL     OW27139   2.652   4.127  11.595  0.1724 -0.1502 -0.3645
 5226SOL    HW127140   2.653   4.034  11.576  1.0053 -0.4308  1.0900
 5226SOL    HW227141   2.673   4.170  11.512 -1.2335 -2.1275 -1.7371
 5227SOL     OW27142   0.734   0.897   3.440 -0.3650  0.4851  0.0977
 5227SOL    HW127143   0.766   0.967   3.496  2.9169  0.6928 -1.9716
 5227SOL    HW227144   0.778   0.823   3.481  0.1005  1.1387  0.7659
 5228SOL     OW27145   0.649   3.002   3.911 -0.4747  0.5921 -0.5988
 5228SOL    HW127146   0.677   2.950   3.986  0.5055  1.2925 -0.4626
 5228SOL    HW227147   0.677   2.942   3.842  1.3299  0.9797 -0.2116
 5229SOL     OW27148   0.747   0.094  14.290  0.0386 -0.1207  0.3499
 5229SOL    HW127149   0.703   0.034  14.230 -1.7195 -0.0475  1.5740
 5229SOL    HW227150   0.740   0.177  14.242 -1.5195 -1.1671 -1.2279
 5230SOL     OW27151   1.633   0.565  13.777  0.4584  0.3406  0.1228
 5230SOL    HW127152   1.564   0.557  13.843  0.3906 -2.7065 -0.3080
 5230SOL    HW227153   1.704   0.611  13.820  0.2007 -0.8953  1.8715
 5231SOL     OW27154   3.755   1.654  17.645  0.0339  0.4735 -0.4088
 5231SOL    HW127155   3.799   1.618   0.029  0.2972 -0.7152 -1.1220
 5231SOL    HW227156   3.755   1.748  17.666  1.0233  0.3854 -0.0107
 5232SOL     OW27157   3.129   0.430  10.695 -0.2333  0.0210  0.1173
 5232SOL    HW127158   3.055   0.489  10.677  1.5980  2.4903  0.6771
 5232SOL    HW227159   3.163   0.410  10.608 -1.6051  3.6230 -1.2461
 5233SOL     OW27160   1.987   2.689   6.291  0.1213  0.3657  0.2544
 5233SOL    HW127161   1.993   2.692   6.195  0.1291 -0.9484  0.2078
 5233SOL    HW227162   2.005   2.781   6.313  1.2956  0.4041 -0.8409
 5234SOL     OW27163   0.872   1.992   5.995  0.3941 -0.2419 -0.4373
 5234SOL    HW127164   0.828   1.978   5.911 -1.9918 -3.3934  1.3576
 5234SOL    HW227165   0.800   1.974   6.055  1.0312 -1.3857 -0.0140
 5235SOL     OW27166   1.251   2.154   8.736  0.4792  0.3872  0.4406
 5235SOL    HW127167   1.243   2.098   8.658  1.9285  1.7675 -0.7083
 5235SOL    HW227168   1.172   2.133   8.786 -1.7415  0.5373 -3.0068
 5236SOL     OW27169   4.084   4.079   7.796 -0.3573  0.3201 -0.4003
 5236SOL    HW127170   4.104   4.170   7.774  0.8288 -0.1134 -1.1220
 5236SOL    HW227171   4.078   4.091   7.891  1.4353 -1.5183 -0.0470
 5237SOL     OW27172   3.147   1.484   7.438  0.4481 -0.3890  0.2594
 5237SOL    HW127173   3.232   1.515   7.472  1.2819 -1.9230 -0.4182
 5237SOL    HW227174   3.120   1.564   7.393  0.0271  0.3536  1.8247
 5238SOL     OW27175   3.539   1.416   8.673 -0.5298  0.2149  0.4147
 5238SOL    HW127176   3.590   1.394   8.750 -0.3798 -2.2755 -0.3914
 5238SOL    HW227177   3.446   1.394   8.686 -0.0017 -1.4763  1.2844
 5239SOL     OW27178   2.883   3.800   4.973 -0.2442 -0.4283  0.2685
 5239SOL    HW127179   2.869   3.828   5.063 -0.8265  0.9646 -0.2521
 5239SOL    HW227180   2.908   3.709   4.991  0.9048 -0.4024 -1.1453
 5240SOL     OW27181   3.961   2.755   6.170  0.1511 -0.1246 -0.4963
 5240SOL    HW127182   4.008   2.838   6.163  4.3951 -2.2989  2.6899
 5240SOL    HW227183   4.027   2.700   6.212 -0.0175  0.0445 -0.0109
 5241SOL     OW27184   1.119   3.683   0.898  0.5688 -0.2555 -0.0258
 5241SOL    HW127185   1.131   3.652   0.809  0.4275 -0.5538  0.0586
 5241SOL    HW227186   1.116   3.604   0.952  1.7256 -0.2235  0.0829
 5242SOL     OW27187   0.310   4.302   3.912 -0.4349  0.5643 -0.0507
 5242SOL    HW127188   0.219   4.327   3.895 -0.7551 -1.9111 -1.9819
 5242SOL    HW227189   0.316   4.216   3.870 -2.1973 -0.3744  1.6248
 5243SOL     OW27190   0.247   2.015   2.930  0.0044 -0.2109 -0.1698
 5243SOL    HW127191   0.251   2.050   2.841 -3.2724  0.7893  0.0666
 5243SOL    HW227192   0.172   1.956   2.920  1.0044 -1.7391  1.2627
 5244SOL     OW27193   2.339   1.675   2.963  0.3214  0.0497 -0.6621
 5244SOL    HW127194   2.296   1.650   3.045 -0.7879 -2.1238 -1.9275
 5244SOL    HW227195   2.397   1.601   2.948 -2.7863 -2.2558 -1.1177
 5245SOL     OW27196   2.677   0.160   5.969  0.5487 -0.1296  0.6687
 5245SOL    HW127197   2.718   0.076   5.948 -1.2206 -0.7448 -0.3143
 5245SOL    HW227198   2.752   0.219   5.974  0.0698  0.5357 -0.0472
 5246SOL     OW27199   2.087   4.016   8.834  0.6170 -0.1011  0.0206
 5246SOL    HW127200   2.113   3.988   8.747 -0.3178  2.7837 -1.1985
 5246SOL    HW227201   2.034   4.092   8.808 -1.9995 -1.0314  2.5637
 5247SOL     OW27202   1.260   4.052   8.181 -0.4683  0.5837  0.2145
 5247SOL    HW127203   1.205   4.026   8.255  1.8432  0.8457  2.0240
 5247SOL    HW227204   1.278   3.971   8.132  1.1063  1.2049 -0.2376
 5248SOL     OW27205   2.596   3.519   6.072 -0.1989  0.0605 -0.1795
 5248SOL    HW127206   2.529   3.481   6.129  2.7658 -0.7249  2.7905
 5248SOL    HW227207   2.639   3.568   6.143 -1.0906  4.3055 -2.5958
 5249SOL     OW27208   0.187   2.175   7.309  0.2677  0.8224  0.0844
 5249SOL    HW127209   0.105   2.180   7.261  0.5944  0.5776 -0.5032
 5249SOL    HW227210   0.229   2.097   7.272 -1.1407  1.0159 -1.9325
 5250SOL     OW27211   4.362   2.798   2.803 -0.5147  0.3256  0.3146
 5250SOL    HW127212   4.321   2.738   2.865 -0.7420  0.6941  0.5256
 5250SOL    HW227213   4.284   2.840   2.766  0.8673  1.4047 -1.3514
 5251SOL     OW27214   4.071   3.163  16.752  0.0372  0.2099 -0.0043
 5251SOL    HW127215   4.020   3.225  16.700  0.1771 -0.3368 -0.7972
 5251SOL    HW227216   4.120   3.216  16.815 -0.2803 -0.8664  1.1311
 5252SOL     OW27217   2.844   2.475   8.466  0.3598  0.0585 -0.1457
 5252SOL    HW127218   2.873   2.442   8.551  0.4852 -1.0004 -0.6026
 5252SOL    HW227219   2.763   2.424   8.458  0.5155 -0.1071 -0.6359
 5253SOL     OW27220   1.791   3.564   7.170  0.3728 -0.0387  0.2527
 5253SOL    HW127221   1.843   3.599   7.243  0.4344 -1.3510  0.8521
 5253SOL    HW227222   1.768   3.640   7.117 -0.9014 -1.0307 -0.6069
 5254SOL     OW27223   0.481   3.332   1.932  0.1727 -0.0064 -0.5086
 5254SOL    HW127224   0.459   3.315   2.024 -0.8125 -3.8492 -1.4452
 5254SOL    HW227225   0.461   3.244   1.900  1.1809 -0.1119 -0.8629
 5255SOL     OW27226   1.279   1.462   8.762 -0.4239  0.5821 -0.0607
 5255SOL    HW127227   1.353   1.455   8.823 -0.5469  0.0865  0.0295
 5255SOL    HW227228   1.212   1.482   8.828  0.0806  1.0000  0.3314
 5256SOL     OW27229   3.410   1.583   4.045 -0.2488 -0.8049  0.0870
 5256SOL    HW127230   3.421   1.611   4.136  1.5581 -0.7445 -0.1550
 5256SOL    HW227231   3.448   1.496   4.053 -0.0757 -0.6474  0.9524
 5257SOL     OW27232   0.784   2.156  15.629 -0.0639 -0.0834  0.0411
 5257SOL    HW127233   0.703   2.127  15.587  0.8752  0.6181 -2.2716
 5257SOL    HW227234   0.765   2.163  15.723  1.3831 -0.5707  0.3712
 5258SOL     OW27235   1.174   0.208   2.551 -0.2671 -0.2708 -0.4954
 5258SOL    HW127236   1.090   0.224   2.593 -0.0190  1.2122 -0.5843
 5258SOL    HW227237   1.161   0.175   2.462  1.6863 -1.8132 -0.2154
 5259SOL     OW27238   4.252   3.827   9.228 -0.4275  0.3843 -0.2376
 5259SOL    HW127239   4.331   3.787   9.264  0.0480  1.9156  0.4124
 5259SOL    HW227240   4.291   3.873   9.154  0.7865  0.6956  0.5948
 5260SOL     OW27241   1.561   3.709   9.774  0.2480 -0.6779  0.4023
 5260SOL    HW127242   1.505   3.740   9.846 -2.4614 -1.7983 -1.2276
 5260SOL    HW227243   1.585   3.619   9.796  1.0901 -0.2167  1.3890
 5261SOL     OW27244   4.109   2.216   8.856  0.1949  0.1994 -0.2271
 5261SOL    HW127245   4.021   2.253   8.865  0.1630  0.5565 -2.0012
 5261SOL    HW227246   4.108   2.201   8.761 -0.6370 -2.8492  0.2510
 5262SOL     OW27247   1.807   4.519  17.293 -0.0803 -0.0527 -0.1625
 5262SOL    HW127248   1.784   4.473  17.213 -2.1582 -1.7949  1.4246
 5262SOL    HW227249   1.788   4.464  17.369 -0.4984 -0.1863 -0.3628
 5263SOL     OW27250   3.245   4.243   4.221  0.2522 -0.3570  0.0548
 5263SOL    HW127251   3.182   4.252   4.293  0.0145 -1.2445 -0.0422
 5263SOL    HW227252   3.281   4.157   4.242  0.5538  0.0610  1.2582
 5264SOL     OW27253   4.455   0.493   5.528 -0.0309 -0.0404 -0.1117
 5264SOL    HW127254   4.389   0.520   5.591 -0.5348 -0.1549 -0.5877
 5264SOL    HW227255   4.396   0.466   5.457  0.6071 -2.5045  0.2873
 5265SOL     OW27256   4.275   3.004   7.032  0.1851 -0.7383  0.4112
 5265SOL    HW127257   4.328   2.995   7.110  0.5378  0.0057  0.2573
 5265SOL    HW227258   4.313   3.091   7.016 -0.2257 -0.2562  2.0971
 5266SOL     OW27259   3.289   1.254   9.656  0.8536  0.0902  0.0834
 5266SOL    HW127260   3.318   1.169   9.623 -0.4777 -0.9786  1.7083
 5266SOL    HW227261   3.196   1.249   9.634  1.1868  1.3126 -1.5996
 5267SOL     OW27262   0.992   0.159  16.120 -0.2396 -0.1932 -0.1403
 5267SOL    HW127263   1.084   0.159  16.094 -0.0712  1.9757  0.4903
 5267SOL    HW227264   0.945   0.120  16.047 -0.1171  0.1562 -0.4024
 5268SOL     OW27265   2.945   2.783   7.378 -0.1180  0.2313  0.0348
 5268SOL    HW127266   2.872   2.809   7.323  0.5596  0.3833 -0.7882
 5268SOL    HW227267   2.898   2.748   7.454 -0.3477  2.4411  0.9030
 5269SOL     OW27268   3.783   1.944   9.961 -0.3801  0.4119 -1.0467
 5269SOL    HW127269   3.753   1.916   9.875 -0.5240  0.2259 -0.9349
 5269SOL    HW227270   3.703   1.940  10.012 -1.9240  0.1551 -3.4869
 5270SOL     OW27271   4.084   4.693  14.688 -0.0486 -0.7924 -0.9016
 5270SOL    HW127272   4.010   0.029  14.670  1.4553  1.1877 -0.6936
 5270SOL    HW227273   4.143   0.045  14.702 -0.3227 -0.7301 -0.0858
 5271SOL     OW27274   4.595   0.261  12.119 -0.4141 -0.4004  0.4632
 5271SOL    HW127275   4.525   0.226  12.174 -1.1728 -0.6547 -0.6442
 5271SOL    HW227276   4.655   0.192  12.146  2.0926  1.7816  0.4087
 5272SOL     OW27277   4.020   2.713   1.315 -0.6237 -0.2725  0.2631
 5272SOL    HW127278   4.063   2.628   1.308  2.6016  1.2485  2.0255
 5272SOL    HW227279   3.934   2.681   1.343 -1.0016  1.6867  1.3608
 5273SOL     OW27280   1.733   0.587   9.358  0.4252 -0.3456 -0.4112
 5273SOL    HW127281   1.758   0.678   9.341  0.8087 -0.5024 -0.6838
 5273SOL    HW227282   1.644   0.607   9.385 -0.3461 -2.0740 -1.6945
 5274SOL     OW27283   1.312   2.409   6.040 -0.3377 -0.1728  0.1354
 5274SOL    HW127284   1.360   2.437   6.118 -3.6118 -0.3617  2.1984
 5274SOL    HW227285   1.235   2.369   6.080 -0.2221 -0.5785 -0.0519
 5275SOL     OW27286   4.639   2.597  15.942  0.1849 -0.9222  0.7977
 5275SOL    HW127287   4.593   2.609  15.859  3.4587  1.4172 -0.6827
 5275SOL    HW227288   4.606   2.512  15.972 -0.3324 -0.8044  0.5645
 5276SOL     OW27289   4.326   0.050   7.914 -0.5367  0.3940  0.4130
 5276SOL    HW127290   4.408   0.040   7.867 -1.9906 -2.0664 -1.5502
 5276SOL    HW227291   4.370   0.065   7.998 -1.3365 -0.5730  1.0025
 5277SOL     OW27292   3.938   4.131   7.045 -0.1186  0.3325 -0.2095
 5277SOL    HW127293   3.946   4.104   6.953  0.7778  0.1188 -0.0671
 5277SOL    HW227294   3.857   4.091   7.075 -0.3506  0.5553 -0.5344
 5278SOL     OW27295   3.144   1.727  17.207  0.1572  0.6449 -0.4654
 5278SOL    HW127296   3.057   1.764  17.192  0.4247  1.8495  0.8941
 5278SOL    HW227297   3.189   1.802  17.247  1.7860 -1.7403  2.2081
 5279SOL     OW27298   1.147   2.392   2.916 -0.4041 -0.2860 -0.2978
 5279SOL    HW127299   1.083   2.381   2.986  1.2388  0.1625  1.2801
 5279SOL    HW227300   1.226   2.367   2.965 -0.2714  0.3608 -0.1884
 5280SOL     OW27301   1.598   0.311  15.462  0.3874 -0.2174 -0.9062
 5280SOL    HW127302   1.584   0.346  15.374 -0.5938  2.0522  0.1461
 5280SOL    HW227303   1.627   0.387  15.513 -2.6967  0.1234  0.3129
 5281SOL     OW27304   4.071   2.420   2.129  0.2044  0.6111  0.2642
 5281SOL    HW127305   4.135   2.455   2.068 -1.4839  0.1740 -1.7608
 5281SOL    HW227306   4.012   2.392   2.059  1.6013 -0.1663 -0.5877
 5282SOL     OW27307   0.615   2.507  14.093  0.5850 -0.0471  0.3630
 5282SOL    HW127308   0.531   2.503  14.047 -0.1464  0.1253  1.6966
 5282SOL    HW227309   0.622   2.600  14.112  0.6804  0.2281 -0.9725
 5283SOL     OW27310   0.822   2.118  16.819  0.4710  0.5152 -0.3079
 5283SOL    HW127311   0.766   2.140  16.744  0.2427  1.3149  0.0991
 5283SOL    HW227312   0.762   2.153  16.885 -0.4555  0.9824 -1.3938
 5284SOL     OW27313   1.406   3.948   7.259 -0.2933  0.8200  0.1801
 5284SOL    HW127314   1.498   3.966   7.239 -0.4355 -0.1967 -1.2905
 5284SOL    HW227315   1.424   3.861   7.295 -0.0175  0.9082  0.2539
 5285SOL     OW27316   1.110   3.825   4.729 -0.1764 -0.0320  0.0504
 5285SOL    HW127317   1.165   3.823   4.651 -0.6959 -0.1055 -0.3155
 5285SOL    HW227318   1.068   3.911   4.716  0.0511  0.1520  0.5355
 5286SOL     OW27319   4.540   2.703  16.197  0.0316  0.3950  0.2931
 5286SOL    HW127320   4.591   2.783  16.208  0.3195  0.5338 -2.0352
 5286SOL    HW227321   4.574   2.677  16.111 -1.4390 -0.7464  0.0625
 5287SOL     OW27322   2.847   4.435  11.192  0.3889  0.1451 -0.1623
 5287SOL    HW127323   2.775   4.385  11.230 -0.0830  0.5485 -0.5311
 5287SOL    HW227324   2.933   4.403  11.222  0.6535 -0.5215 -1.6757
 5288SOL     OW27325   2.318   2.492   9.403  0.3165 -0.8089  0.7541
 5288SOL    HW127326   2.386   2.427   9.389  0.7727 -0.3375  0.8115
 5288SOL    HW227327   2.370   2.570   9.421  2.1542 -1.7159 -0.6478
 5289SOL     OW27328   2.246   2.910   7.526  0.0677 -0.6257 -0.1254
 5289SOL    HW127329   2.185   2.856   7.576  0.9644 -0.4328  1.2054
 5289SOL    HW227330   2.198   2.991   7.508  0.3121 -0.5026 -0.2330
 5290SOL     OW27331   2.678   0.623   0.937 -0.1669  0.6536  0.5333
 5290SOL    HW127332   2.651   0.680   0.865  0.5558 -1.1611 -1.2093
 5290SOL    HW227333   2.766   0.605   0.902 -0.0780  0.9753  0.5953
 5291SOL     OW27334   2.535   1.785  11.793 -0.1054  0.0465 -0.0603
 5291SOL    HW127335   2.563   1.717  11.854  1.2789  0.1747 -0.5486
 5291SOL    HW227336   2.440   1.785  11.800 -0.0182 -0.7859  1.0790
 5292SOL     OW27337   3.307   2.137   7.634 -0.3732  0.4055 -0.4118
 5292SOL    HW127338   3.253   2.169   7.707 -1.0656 -1.3122 -0.1690
 5292SOL    HW227339   3.393   2.163   7.666 -0.8383  1.1701  0.2095
 5293SOL     OW27340   1.277   2.482  10.122 -0.2974  0.0667  0.2582
 5293SOL    HW127341   1.211   2.415  10.140 -0.6580  0.1632 -0.7278
 5293SOL    HW227342   1.331   2.418  10.075  4.2921  1.9239  3.0052
 5294SOL     OW27343   4.273   0.346  12.171  0.0479  0.0719  0.3289
 5294SOL    HW127344   4.359   0.318  12.201  0.3848  1.3134  0.5063
 5294SOL    HW227345   4.216   0.305  12.236 -0.2510  2.3443  1.4740
 5295SOL     OW27346   2.252   3.359  14.572 -0.9075  0.2331  0.6086
 5295SOL    HW127347   2.269   3.328  14.483  2.6319  2.3736  0.5619
 5295SOL    HW227348   2.158   3.347  14.588 -0.9293  2.7509  2.2099
 5296SOL     OW27349   2.179   0.288   0.204 -0.2765 -0.3864  0.2787
 5296SOL    HW127350   2.184   0.239   0.286 -1.8628  1.1192  1.2886
 5296SOL    HW227351   2.225   0.368   0.232  0.9449 -0.5702 -1.1970
 5297SOL     OW27352   0.938   2.124   6.574 -0.6411 -0.3847  0.3959
 5297SOL    HW127353   0.844   2.134   6.584 -0.6099 -1.4603  1.7310
 5297SOL    HW227354   0.956   2.030   6.576  0.0975 -0.2118  2.1389
 5298SOL     OW27355   0.146   0.702   1.661 -0.2309  0.3210 -0.9445
 5298SOL    HW127356   0.122   0.618   1.621  2.6384 -1.7105  1.6036
 5298SOL    HW227357   0.241   0.691   1.659 -0.4287 -1.9471  2.3943
 5299SOL     OW27358   4.100   1.969   5.197 -0.3528  0.2294  0.0042
 5299SOL    HW127359   4.117   2.061   5.214 -1.7121  0.5043 -0.1368
 5299SOL    HW227360   4.094   1.926   5.282 -1.4538 -1.4833 -0.9222
 5300SOL     OW27361   1.835   2.376   5.509  0.6085 -0.0927  0.0886
 5300SOL    HW127362   1.895   2.444   5.541 -0.1376 -0.3467  2.0523
 5300SOL    HW227363   1.757   2.412   5.551  1.3550  0.9646  0.5932
 5301SOL     OW27364   3.834   3.363   2.559  0.4032 -0.2025 -0.5796
 5301SOL    HW127365   3.850   3.284   2.610 -0.1788 -0.5379 -0.9190
 5301SOL    HW227366   3.756   3.340   2.510 -0.1225 -0.2915  0.2988
 5302SOL     OW27367   4.259   2.327   2.320 -0.3350 -1.0360  0.1411
 5302SOL    HW127368   4.345   2.352   2.285 -1.1336  1.2110 -0.2045
 5302SOL    HW227369   4.201   2.390   2.279  0.1678  0.0270  1.0643
 5303SOL     OW27370   2.985   4.468   6.117 -0.2091 -0.0839 -0.5740
 5303SOL    HW127371   2.910   4.466   6.176  1.6937 -3.1296  1.7518
 5303SOL    HW227372   3.028   4.395   6.160 -0.6172  0.0210  0.0090
 5304SOL     OW27373   2.951   4.272  16.357  0.0929 -0.0654  0.2024
 5304SOL    HW127374   2.973   4.365  16.352  1.5865 -0.3545  1.4467
 5304SOL    HW227375   2.923   4.245  16.270 -0.0936  2.0285 -0.3876
 5305SOL     OW27376   1.387   2.671  10.321 -0.5517 -0.0506  0.3137
 5305SOL    HW127377   1.440   2.599  10.357 -0.9861 -0.0902  0.8831
 5305SOL    HW227378   1.321   2.618  10.277  0.2280 -0.6731 -0.1017
 5306SOL     OW27379   3.334   1.955  12.800  0.1371  0.2966 -0.6652
 5306SOL    HW127380   3.403   1.999  12.750  0.7180 -1.2398 -1.2299
 5306SOL    HW227381   3.306   2.023  12.861  2.3389  0.1283  0.5300
 5307SOL     OW27382   3.164   0.001   1.011 -0.6937 -0.1242 -0.0771
 5307SOL    HW127383   3.247   0.021   0.968  0.3650 -5.1901 -0.2677
 5307SOL    HW227384   3.198   4.674   1.085 -1.3503  0.0331  0.3365
 5308SOL     OW27385   4.387   3.461   9.951  0.0991 -0.9374 -0.0151
 5308SOL    HW127386   4.329   3.385   9.956 -0.8609 -0.1381  0.9947
 5308SOL    HW227387   4.414   3.449   9.860 -0.2529  0.3652 -0.2990
 5309SOL     OW27388   3.827   2.184   1.160 -0.0896 -0.1019  0.1184
 5309SOL    HW127389   3.806   2.192   1.067  2.0277  1.3686 -0.2272
 5309SOL    HW227390   3.865   2.269   1.179 -2.3126  1.6899 -3.4533
 5310SOL     OW27391   0.323   1.741   8.796 -0.0824  1.0633 -0.0127
 5310SOL    HW127392   0.382   1.798   8.747  0.3805  0.5794 -0.0157
 5310SOL    HW227393   0.367   1.753   8.880 -0.2721  1.6040  0.0126
 5311SOL     OW27394   4.500   3.407   2.278 -0.1753 -0.0683  0.1992
 5311SOL    HW127395   4.513   3.416   2.373  1.2110 -2.6495  0.2634
 5311SOL    HW227396   4.418   3.358   2.274  0.0984 -0.6380  1.6277
 5312SOL     OW27397   1.342   4.109   7.750  0.0036 -0.2994 -0.4032
 5312SOL    HW127398   1.255   4.146   7.765 -0.4727 -1.0381 -1.3858
 5312SOL    HW227399   1.394   4.164   7.809 -2.4007 -0.2685  1.6681
 5313SOL     OW27400   4.104   4.636   2.264  0.0535  0.4838  0.1726
 5313SOL    HW127401   4.073   4.706   2.320 -2.0810  0.6655 -1.2071
 5313SOL    HW227402   4.102   4.566   2.329 -0.1286  1.4942  1.2568
 5314SOL     OW27403   1.298   0.184   2.917  0.4286 -0.1285 -0.0047
 5314SOL    HW127404   1.296   0.101   2.868  1.4766 -0.0508 -0.1792
 5314SOL    HW227405   1.393   0.193   2.923  0.5072 -0.6272 -0.4708
 5315SOL     OW27406   4.721   0.927   5.698 -0.1207  0.6901 -0.0406
 5315SOL    HW127407   4.712   0.851   5.640  0.2485  0.9343 -0.4183
 5315SOL    HW227408   0.050   0.979   5.638  0.0116 -0.3274 -0.8216
 5316SOL     OW27409   3.351   3.703   3.141 -0.4557 -0.0193 -0.7069
 5316SOL    HW127410   3.400   3.769   3.092  1.2247 -0.7400  0.0158
 5316SOL    HW227411   3.265   3.746   3.147 -0.0611  0.5088  1.3613
 5317SOL     OW27412   0.366   1.187  10.342  0.2114 -0.2910 -0.2287
 5317SOL    HW127413   0.310   1.238  10.284 -1.2984 -1.3596  0.3004
 5317SOL    HW227414   0.312   1.151  10.413  0.0219  0.7157  0.1296
 5318SOL     OW27415   3.991   1.958   9.497  0.5928 -0.5769 -0.1827
 5318SOL    HW127416   4.041   1.878   9.512  1.7463 -0.0290 -1.0439
 5318SOL    HW227417   4.020   2.012   9.570 -0.0233  0.5554 -0.7761
 5319SOL     OW27418   4.719   2.865   1.358 -0.1810  0.1653  0.7701
 5319SOL    HW127419   4.708   2.950   1.401  1.4217  0.4821  0.5475
 5319SOL    HW227420   0.036   2.902   1.279  0.2840 -0.8358  0.5435
 5320SOL     OW27421   3.210   1.712  17.665 -0.1817 -0.0179 -0.3712
 5320SOL    HW127422   3.212   1.642  17.600 -1.1625 -0.1777 -0.2263
 5320SOL    HW227423   3.265   1.778  17.622  0.6735  0.3264  1.2520
 5321SOL     OW27424   0.289   2.438  14.746 -0.4113  0.5945 -0.0393
 5321SOL    HW127425   0.194   2.431  14.750 -0.3426 -0.4218 -0.1916
 5321SOL    HW227426   0.308   2.344  14.736 -1.6488  0.3541 -0.1860
 5322SOL     OW27427   0.964   1.600   6.554 -0.2278 -0.3597  0.1191
 5322SOL    HW127428   0.939   1.553   6.634  0.9375  0.1851  0.8002
 5322SOL    HW227429   1.047   1.557   6.532  0.7441  1.3918  0.4195
 5323SOL     OW27430   0.284   0.615   5.419 -0.5790 -0.3553 -0.5825
 5323SOL    HW127431   0.263   0.598   5.328  2.0828 -0.7622 -1.1259
 5323SOL    HW227432   0.378   0.594   5.417 -1.0639 -2.4830 -1.2884
 5324SOL     OW27433   0.313   4.553   2.574 -0.0312 -0.2948  0.0252
 5324SOL    HW127434   0.238   4.585   2.525  0.2087  0.7331  0.3325
 5324SOL    HW227435   0.314   4.459   2.556 -0.7755 -0.6123  1.6867
 5325SOL     OW27436   0.711   2.260  13.123 -0.0479  0.4763 -0.4821
 5325SOL    HW127437   0.618   2.249  13.142 -0.3677  3.3272 -0.3610
 5325SOL    HW227438   0.708   2.349  13.089  1.8986  0.4088 -0.8590
 5326SOL     OW27439   1.606   3.797   6.318 -0.1577 -0.5944  0.5027
 5326SOL    HW127440   1.618   3.823   6.227  0.4269 -0.6455  0.5651
 5326SOL    HW227441   1.549   3.723   6.299  0.7740 -1.2850  0.3634
 5327SOL     OW27442   3.185   2.399  10.138  0.2680 -0.0735  0.5768
 5327SOL    HW127443   3.251   2.418  10.072 -1.1786 -0.6679 -1.0280
 5327SOL    HW227444   3.126   2.336  10.096  0.4531  2.3461 -3.2908
 5328SOL     OW27445   2.807   0.490  16.241  0.0719  0.0100  0.0832
 5328SOL    HW127446   2.810   0.456  16.331 -1.8888 -0.9068 -0.1913
 5328SOL    HW227447   2.726   0.456  16.204  0.8794 -2.4316  0.5656
 5329SOL     OW27448   2.281   3.143  17.326  0.1490 -0.0049  0.7603
 5329SOL    HW127449   2.236   3.206  17.269  1.4803 -0.3384 -0.6483
 5329SOL    HW227450   2.364   3.141  17.279 -1.1790  1.5885 -1.6457
 5330SOL     OW27451   3.768   2.884   3.574 -0.2799 -0.0700  0.3289
 5330SOL    HW127452   3.755   2.816   3.507 -0.7469  1.9544 -1.6348
 5330SOL    HW227453   3.863   2.890   3.567 -0.4063  2.9589  1.1785
 5331SOL     OW27454   0.106   3.346   4.615  0.4787 -0.3055 -0.1590
 5331SOL    HW127455   0.106   3.281   4.544  0.6848 -3.1555  2.4292
 5331SOL    HW227456   0.013   3.366   4.628  0.4505 -0.2775 -0.4113
 5332SOL     OW27457   3.401   0.339  11.576  0.4288  0.2702 -0.2474
 5332SOL    HW127458   3.401   0.272  11.507 -2.2611  0.8090 -0.7451
 5332SOL    HW227459   3.367   0.410  11.522 -1.4896  0.2095  0.9141
 5333SOL     OW27460   1.625   4.002   2.867  0.2621 -0.5712  0.3145
 5333SOL    HW127461   1.585   4.000   2.954 -1.1203  0.6112 -0.2763
 5333SOL    HW227462   1.667   4.088   2.873 -0.0288 -0.3250 -1.1094
 5334SOL     OW27463   0.528   4.525   2.125 -0.3078 -0.4296 -0.3779
 5334SOL    HW127464   0.588   4.534   2.199  0.8788 -1.4688 -1.2189
 5334SOL    HW227465   0.511   4.431   2.127 -0.8318 -0.3824 -3.1082
 5335SOL     OW27466   4.145   2.579  10.079  0.0101 -0.8035 -0.8733
 5335SOL    HW127467   4.093   2.657  10.098 -1.7420 -1.8445 -1.3731
 5335SOL    HW227468   4.237   2.604  10.085 -0.6353  1.6773 -1.4879
 5336SOL     OW27469   3.388   0.769   4.595 -0.6162 -0.0590  0.0550
 5336SOL    HW127470   3.318   0.708   4.618  0.5838 -0.2472  3.2629
 5336SOL    HW227471   3.333   0.845   4.612 -0.0274  0.3181  0.3032
 5337SOL     OW27472   1.313   4.445   2.975  0.0590  0.0438  0.4257
 5337SOL    HW127473   1.354   4.450   3.061  1.7471  1.7439 -0.4911
 5337SOL    HW227474   1.372   4.394   2.919  1.3504  0.6283  1.2375
 5338SOL     OW27475   4.045   3.675  12.661 -0.3197  0.1786  0.0439
 5338SOL    HW127476   3.970   3.709  12.709  1.9201  3.3808  1.2907
 5338SOL    HW227477   4.104   3.751  12.665  0.8399 -0.7939  1.4074
 5339SOL     OW27478   1.407   2.442   6.914 -0.5573 -0.3091  0.0791
 5339SOL    HW127479   1.317   2.428   6.944 -1.4605  0.5637 -2.2123
 5339SOL    HW227480   1.453   2.473   6.992 -1.3513  1.9745 -0.3629
 5340SOL     OW27481   3.829   2.303   7.418  0.0885  0.3676 -0.1156
 5340SOL    HW127482   3.846   2.226   7.364 -0.1618 -1.3091  2.2000
 5340SOL    HW227483   3.779   2.360   7.359 -0.0262  0.2911 -0.0927
 5341SOL     OW27484   0.154   3.572   5.352 -0.0641 -0.1360 -0.3855
 5341SOL    HW127485   0.076   3.599   5.399  1.0742  0.4307  1.1764
 5341SOL    HW227486   0.164   3.647   5.293  3.0789  0.2669  0.6687
 5342SOL     OW27487   2.081   4.409   3.018  0.1793  0.1730  0.4498
 5342SOL    HW127488   2.148   4.342   3.033  0.6929  0.3112 -1.2084
 5342SOL    HW227489   2.114   4.458   2.942  0.8221 -0.2534  0.4599
 5343SOL     OW27490   2.965   1.580   7.931 -0.2809 -0.4762 -0.1139
 5343SOL    HW127491   2.956   1.666   7.892 -0.6804 -0.8294 -0.8013
 5343SOL    HW227492   2.871   1.565   7.947 -0.9878  2.3602 -1.7166
 5344SOL     OW27493   3.473   2.599   5.162 -0.3337 -0.5073 -0.2602
 5344SOL    HW127494   3.473   2.688   5.128  0.7581 -0.5134 -0.2767
 5344SOL    HW227495   3.524   2.609   5.242 -2.1507  2.7163  0.4849
 5345SOL     OW27496   1.658   3.096   6.264  0.6672 -0.0536  0.4129
 5345SOL    HW127497   1.578   3.053   6.234  1.2860 -1.0141  0.1190
 5345SOL    HW227498   1.714   3.021   6.285  0.2108  0.2063  2.5016
 5346SOL     OW27499   1.805   0.128  12.547  0.5651 -0.3456  0.1268
 5346SOL    HW127500   1.868   0.056  12.559 -0.7790 -1.5484 -0.0412
 5346SOL    HW227501   1.838   0.200  12.600  0.3793 -0.6005  0.5876
 5347SOL     OW27502   0.207   2.222  17.403 -0.5486 -0.8943 -0.1929
 5347SOL    HW127503   0.114   2.206  17.418 -0.6449 -0.2336 -0.1060
 5347SOL    HW227504   0.237   2.135  17.431 -0.7217 -0.9488 -0.1785
 5348SOL     OW27505   0.244   1.162   7.566  0.5093  0.1912  0.4095
 5348SOL    HW127506   0.259   1.256   7.576 -0.9098  0.5605 -0.8636
 5348SOL    HW227507   0.283   1.129   7.647 -2.8998 -2.3503  1.0104
 5349SOL     OW27508   0.209   1.277  17.657  0.2813  0.2936 -0.3320
 5349SOL    HW127509   0.237   1.358  17.614  0.7799  1.2631  1.8432
 5349SOL    HW227510   0.248   1.290   0.050 -0.5306 -2.7866  0.4937
 5350SOL     OW27511   2.768   2.814   7.691  0.0303  0.1222 -0.7015
 5350SOL    HW127512   2.680   2.849   7.708  0.3093  0.0846  0.7750
 5350SOL    HW227513   2.749   2.771   7.607  2.3303 -0.8634 -0.7204
 5351SOL     OW27514   0.806   0.463   0.554  0.3044 -0.5876 -0.2322
 5351SOL    HW127515   0.744   0.492   0.487  1.3149 -0.4265 -1.1009
 5351SOL    HW227516   0.756   0.469   0.635 -1.1893  0.2510 -1.2170
 5352SOL     OW27517   0.960   3.644  14.421 -0.0490  0.5496 -0.5132
 5352SOL    HW127518   0.985   3.627  14.330 -1.8124  0.1037 -0.9229
 5352SOL    HW227519   0.979   3.562  14.466 -3.5505  0.3332  0.5789
 5353SOL     OW27520   1.291   0.826   8.271  0.4232 -0.3033 -0.2799
 5353SOL    HW127521   1.209   0.857   8.234  0.0947  0.0819  0.7909
 5353SOL    HW227522   1.360   0.874   8.225  0.9037  0.0874  0.8454
 5354SOL     OW27523   3.079   2.484   8.674  0.1046 -0.8106  0.0811
 5354SOL    HW127524   3.014   2.418   8.697  0.8590 -0.8587  2.0860
 5354SOL    HW227525   3.145   2.429   8.632 -0.3519 -0.9468 -0.4676
 5355SOL     OW27526   3.703   2.058   3.817 -0.0982 -0.0531 -0.4768
 5355SOL    HW127527   3.795   2.066   3.789  0.3053 -1.0302  0.5707
 5355SOL    HW227528   3.661   2.068   3.732 -0.0907  1.0833 -0.3537
 5356SOL     OW27529   3.134   4.210   2.468 -0.1678  0.1365 -0.0347
 5356SOL    HW127530   3.042   4.233   2.484  0.3771  1.8799  0.4820
 5356SOL    HW227531   3.172   4.297   2.475  1.4961 -0.7080  1.3674
 5357SOL     OW27532   4.095   0.416   1.561 -0.0228  0.1023  0.1890
 5357SOL    HW127533   4.108   0.509   1.541 -2.4498  0.5427  0.7129
 5357SOL    HW227534   4.002   0.418   1.581  0.2273 -1.1599  1.5107
 5358SOL     OW27535   1.596   4.212   6.257  0.1608 -0.1560  0.0278
 5358SOL    HW127536   1.634   4.299   6.269 -2.6102  1.2896 -1.6729
 5358SOL    HW227537   1.676   4.161   6.271  0.5190 -0.0107 -1.4324
 5359SOL     OW27538   4.262   2.760   9.593 -0.3358  0.0906  0.3249
 5359SOL    HW127539   4.245   2.681   9.644 -0.6550  0.2838  0.5216
 5359SOL    HW227540   4.216   2.731   9.514  1.1733  0.0267 -0.5169
 5360SOL     OW27541   2.627   0.272   4.953  0.0237  0.0931  0.4496
 5360SOL    HW127542   2.717   0.286   4.982  0.7160  1.9996 -2.6516
 5360SOL    HW227543   2.633   0.189   4.905 -2.3573 -1.1124  2.2542
 5361SOL     OW27544   3.546   1.298   5.136 -0.1666 -0.4404 -0.1187
 5361SOL    HW127545   3.605   1.298   5.212  0.8393 -2.8565 -0.8929
 5361SOL    HW227546   3.476   1.358   5.160 -0.0411 -0.5991  0.6557
 5362SOL     OW27547   3.578   3.298  10.405  0.5387 -0.3513 -0.3072
 5362SOL    HW127548   3.631   3.310  10.484 -0.4916 -1.3671  0.5342
 5362SOL    HW227549   3.565   3.388  10.375 -0.3407  0.0739  1.3706
 5363SOL     OW27550   3.924   2.313   2.410  0.4044  0.2159 -0.1624
 5363SOL    HW127551   3.968   2.379   2.356 -1.3297  3.6069  2.5852
 5363SOL    HW227552   3.863   2.360   2.467 -0.3854 -1.9606  0.7931
 5364SOL     OW27553   3.540   0.371   8.665  0.0728  0.1811  0.6342
 5364SOL    HW127554   3.455   0.371   8.621 -0.2778  0.6187  1.3137
 5364SOL    HW227555   3.598   0.439   8.629 -1.9245  1.1576 -0.7210
 5365SOL     OW27556   3.776   1.264   3.278 -0.5483 -0.0946 -0.1945
 5365SOL    HW127557   3.788   1.176   3.242 -0.4451 -1.6602  3.6889
 5365SOL    HW227558   3.769   1.317   3.199  1.3846 -0.9125 -0.9153
 5366SOL     OW27559   2.657   1.788   6.602 -0.5328 -0.3629 -0.4108
 5366SOL    HW127560   2.655   1.883   6.600 -1.9763 -0.3731  0.7259
 5366SOL    HW227561   2.677   1.778   6.508  0.2707  1.2761 -0.4163
 5367SOL     OW27562   1.927   1.347  16.695 -0.6255 -0.4514 -0.3788
 5367SOL    HW127563   1.901   1.437  16.676  0.3545  0.2276  1.4864
 5367SOL    HW227564   1.881   1.299  16.626  0.5783 -0.1473 -1.3820
 5368SOL     OW27565   2.969   3.601  13.144 -0.2822  0.1578 -0.1458
 5368SOL    HW127566   2.880   3.571  13.160 -0.2048  0.3632  0.6582
 5368SOL    HW227567   2.967   3.688  13.183 -0.8220 -2.1780  5.0198
 5369SOL     OW27568   3.798   0.617   7.280 -0.0979 -0.1626 -0.0818
 5369SOL    HW127569   3.787   0.528   7.247 -0.0398 -0.0650 -0.3592
 5369SOL    HW227570   3.708   0.650   7.275 -0.2464  0.1685  4.1830
 5370SOL     OW27571   0.975   0.397   5.496  0.1216 -0.2139  1.2036
 5370SOL    HW127572   0.960   0.313   5.538 -1.6476 -0.6790 -0.3304
 5370SOL    HW227573   0.994   0.447   5.576 -0.8657  2.8171 -0.4494
 5371SOL     OW27574   2.822   1.077  16.305  0.2475  0.1424  0.4210
 5371SOL    HW127575   2.760   1.150  16.303 -0.5807 -0.5875 -0.4168
 5371SOL    HW227576   2.902   1.118  16.338 -1.0325  1.1894  2.2715
 5372SOL     OW27577   1.698   0.658   3.232 -0.0768  0.1295  0.3367
 5372SOL    HW127578   1.781   0.648   3.277  1.3038  3.2351 -1.4971
 5372SOL    HW227579   1.652   0.594   3.285  0.6430 -0.8670 -0.2547
 5373SOL     OW27580   4.181   0.207  13.104  0.0941 -0.3458  0.4414
 5373SOL    HW127581   4.261   0.246  13.067 -1.1964  0.3752 -1.5861
 5373SOL    HW227582   4.201   0.207  13.198 -0.7882  1.3379  0.6237
 5374SOL     OW27583   3.079   0.567   5.670  0.0529  0.1211  0.6040
 5374SOL    HW127584   3.115   0.479   5.658  1.8301  0.3531  4.2594
 5374SOL    HW227585   3.143   0.601   5.732  0.0014  4.5419 -1.8347
 5375SOL     OW27586   1.223   0.862   6.003  0.3462  0.9137  0.1732
 5375SOL    HW127587   1.136   0.897   5.982  0.1553  0.2506 -0.1263
 5375SOL    HW227588   1.204   0.785   5.950 -0.0828  0.2216  1.3426
 5376SOL     OW27589   3.294   3.452   8.576 -0.2118 -0.1735  0.4664
 5376SOL    HW127590   3.385   3.431   8.598 -0.0724  0.7402  0.7751
 5376SOL    HW227591   3.252   3.409   8.651  1.7434 -2.7741  0.0762
 5377SOL     OW27592   1.855   4.284   9.025  0.2313 -0.3015  0.0646
 5377SOL    HW127593   1.787   4.275   9.091  0.1911 -1.1653 -0.0971
 5377SOL    HW227594   1.801   4.310   8.950  1.9229 -0.5877 -1.2533
 5378SOL     OW27595   1.138   0.124   2.284  0.4107  0.2596  0.2661
 5378SOL    HW127596   1.186   0.053   2.241  1.1563  0.6392  0.4775
 5378SOL    HW227597   1.181   0.200   2.246  0.0173  1.3151  1.9280
 5379SOL     OW27598   0.341   0.955   7.388  0.0956  0.2065  0.3474
 5379SOL    HW127599   0.273   0.891   7.370  1.7855 -1.0562 -1.4321
 5379SOL    HW227600   0.292   1.035   7.411 -0.9771 -0.2979 -0.2204
 5380SOL     OW27601   0.673   3.593  17.149 -0.0609 -0.0989 -0.1554
 5380SOL    HW127602   0.699   3.523  17.090 -0.3165 -0.7822  0.5357
 5380SOL    HW227603   0.719   3.560  17.226  0.4951  0.6928 -0.1520
 5381SOL     OW27604   0.103   2.743   2.160  0.1197 -0.1433  0.4962
 5381SOL    HW127605   0.139   2.808   2.100  1.2684 -0.7183  0.5613
 5381SOL    HW227606   0.031   2.787   2.205  1.7028  2.5013  0.4633
 5382SOL     OW27607   1.249   4.393   2.023 -0.0122 -0.2538 -0.0014
 5382SOL    HW127608   1.228   4.422   1.934 -1.5947 -1.2016  0.0689
 5382SOL    HW227609   1.260   4.299   2.012 -0.4370 -0.3522  0.4140
 5383SOL     OW27610   1.648   0.572  15.566 -1.0916  0.0929  0.8234
 5383SOL    HW127611   1.669   0.665  15.556 -4.5057  0.8705  0.7063
 5383SOL    HW227612   1.730   0.530  15.594  0.1749  2.0351  0.0170
 5384SOL     OW27613   2.441   3.561   8.333 -0.1352  0.1156 -0.1386
 5384SOL    HW127614   2.464   3.596   8.419 -3.0447  0.6382  0.4255
 5384SOL    HW227615   2.424   3.469   8.352  3.0614 -0.1648  1.3109
 5385SOL     OW27616   0.629   1.666   2.768  0.4044  0.1361  0.1284
 5385SOL    HW127617   0.564   1.727   2.735  0.8477  0.0003 -1.0289
 5385SOL    HW227618   0.704   1.696   2.716  0.1115 -2.0702 -1.5921
 5386SOL     OW27619   2.632   3.514   6.850  0.3634  0.0653 -1.0968
 5386SOL    HW127620   2.725   3.517   6.872  0.1060 -1.5052  0.1381
 5386SOL    HW227621   2.623   3.432   6.801 -2.2072 -1.0341  1.2419
 5387SOL     OW27622   0.725   3.081  12.410 -0.2497 -0.0531  0.0147
 5387SOL    HW127623   0.721   3.175  12.394 -0.0081  0.0691  0.6742
 5387SOL    HW227624   0.719   3.084  12.505 -2.0913 -0.6010 -0.0730
 5388SOL     OW27625   2.723   3.256   3.906 -0.4243 -0.4072  0.0107
 5388SOL    HW127626   2.713   3.185   3.843 -1.3016 -0.2227 -0.0646
 5388SOL    HW227627   2.639   3.239   3.950  0.5056 -0.8459  1.6389
 5389SOL     OW27628   1.004   3.187   6.416  0.0615 -0.6264  0.0426
 5389SOL    HW127629   0.965   3.228   6.493  1.6461  0.3652  0.3153
 5389SOL    HW227630   0.975   3.096   6.424 -2.7647  0.4265  1.5855
 5390SOL     OW27631   3.926   2.462   6.418  0.2646  0.5566  0.9214
 5390SOL    HW127632   3.999   2.517   6.391  0.0468 -0.1037 -1.0171
 5390SOL    HW227633   3.856   2.503   6.367  0.5001 -1.7855 -1.2798
 5391SOL     OW27634   3.875   2.783  10.367  0.5937 -0.2093 -0.4806
 5391SOL    HW127635   3.885   2.785  10.272 -0.9953  0.4497 -0.6290
 5391SOL    HW227636   3.934   2.711  10.389  1.0840  0.3294 -0.0342
 5392SOL     OW27637   3.013   2.254   1.456 -0.3025  0.2793 -0.4660
 5392SOL    HW127638   3.020   2.257   1.361  2.4389 -0.6198 -0.2821
 5392SOL    HW227639   3.038   2.165   1.480  1.1516  1.0824  1.0061
 5393SOL     OW27640   4.048   1.601   6.045 -0.4784  0.0419 -0.5623
 5393SOL    HW127641   4.136   1.574   6.071 -1.7723 -0.7895  2.9789
 5393SOL    HW227642   4.073   1.644   5.963  0.2055  0.3460 -0.1934
 5394SOL     OW27643   3.812   4.552  15.747 -0.0769 -0.1840  0.1061
 5394SOL    HW127644   3.867   4.528  15.822 -1.9243  1.1094  1.8774
 5394SOL    HW227645   3.866   4.546  15.668  0.6169 -1.3289  0.6590
 5395SOL     OW27646   2.292   3.251   2.256  0.1533 -0.4131  0.1929
 5395SOL    HW127647   2.208   3.234   2.215 -0.6316  0.8270  1.2826
 5395SOL    HW227648   2.344   3.177   2.224 -2.2871 -1.7395 -0.6681
 5396SOL     OW27649   0.355   0.346  13.745 -0.3518 -0.6808  0.3368
 5396SOL    HW127650   0.298   0.318  13.817 -1.5966 -0.7155 -0.6471
 5396SOL    HW227651   0.437   0.299  13.757 -0.4876 -0.4717  2.1258
 5397SOL     OW27652   1.086   4.067   6.322 -0.0778  0.1710 -0.1212
 5397SOL    HW127653   1.017   4.131   6.332 -0.1288  0.7704 -4.2746
 5397SOL    HW227654   1.044   3.988   6.287  1.3028 -0.9371  0.6872
 5398SOL     OW27655   0.104   3.693   5.864  0.0515 -0.2447 -0.6666
 5398SOL    HW127656   0.146   3.742   5.794  1.0003  0.3789  0.3451
 5398SOL    HW227657   0.179   3.656   5.910  1.1064  1.2466 -1.2230
 5399SOL     OW27658   4.487   2.086   2.631  0.0698 -0.0242 -0.0521
 5399SOL    HW127659   4.467   2.057   2.542 -0.0588 -0.3518  0.0811
 5399SOL    HW227660   4.532   2.169   2.614 -0.5007 -0.0647 -1.7996
 5400SOL     OW27661   2.103   3.867   9.932  0.6582  0.2065 -0.1629
 5400SOL    HW127662   2.097   3.869   9.837 -1.7415  1.4510  0.0321
 5400SOL    HW227663   2.011   3.859   9.957  1.0067 -3.5426 -0.1138
 5401SOL     OW27664   1.753   1.727   2.382  0.3286 -0.4158  0.0953
 5401SOL    HW127665   1.840   1.722   2.343  0.1411 -0.8355 -0.2740
 5401SOL    HW227666   1.695   1.684   2.319 -0.6979  1.3168 -0.1345
 5402SOL     OW27667   3.406   0.848   4.927 -0.2134 -0.4542  0.4415
 5402SOL    HW127668   3.376   0.932   4.892  1.4131 -0.4035 -0.8428
 5402SOL    HW227669   3.322   0.802   4.924  1.1572 -2.8569 -1.4240
 5403SOL     OW27670   2.095   3.319  10.502  0.1092  0.0408  0.5748
 5403SOL    HW127671   2.016   3.269  10.479 -1.3263  2.2981  0.6797
 5403SOL    HW227672   2.136   3.259  10.564 -1.0655 -1.7123 -0.2982
 5404SOL     OW27673   1.334   0.295  14.454  0.9725 -0.0829  0.4088
 5404SOL    HW127674   1.255   0.275  14.504  1.6293  0.6670  1.7347
 5404SOL    HW227675   1.383   0.356  14.509  2.4796  0.9540 -2.0766
 5405SOL     OW27676   0.244   2.757  16.480  0.2982 -0.1276  0.2992
 5405SOL    HW127677   0.173   2.705  16.517  0.9712 -1.9317 -0.9257
 5405SOL    HW227678   0.264   2.826  16.543  2.1526 -0.9895  0.6587
 5406SOL     OW27679   1.037   3.799   2.424  0.0519 -0.2095  0.6844
 5406SOL    HW127680   0.980   3.723   2.433 -0.2405 -0.1781 -0.9358
 5406SOL    HW227681   1.109   3.788   2.486  1.2912 -1.1493 -0.9397
 5407SOL     OW27682   2.390   4.626   5.981 -0.3611  0.0093 -0.0365
 5407SOL    HW127683   2.481   4.601   5.995 -0.1333 -0.2345 -1.9886
 5407SOL    HW227684   2.349   4.539   5.975 -2.1230  0.7766  1.0694
 5408SOL     OW27685   4.452   1.079   5.427 -0.0440 -0.1919 -0.4475
 5408SOL    HW127686   4.448   0.984   5.437  0.2999 -0.1813 -0.1983
 5408SOL    HW227687   4.507   1.099   5.351  1.2591 -0.6268  0.3670
 5409SOL     OW27688   4.504   4.683   0.623 -0.2241 -0.8154  0.7075
 5409SOL    HW127689   4.419   4.714   0.655  0.5965  0.9520  1.1804
 5409SOL    HW227690   4.502   4.597   0.665 -1.1906 -1.3316 -0.3823
 5410SOL     OW27691   2.601   3.852   3.000 -0.1180 -0.4440  0.7918
 5410SOL    HW127692   2.506   3.858   2.987 -0.0812 -1.0352  0.2539
 5410SOL    HW227693   2.640   3.851   2.913 -0.6640  1.8871  0.5178
 5411SOL     OW27694   2.883   1.794   1.032 -0.2807  0.2974  0.1010
 5411SOL    HW127695   2.960   1.772   0.980  1.5734  2.4099  1.9436
 5411SOL    HW227696   2.918   1.878   1.060 -1.7667  1.2177 -0.8188
 5412SOL     OW27697   0.268   4.631   5.461 -0.0043 -0.1271 -0.1283
 5412SOL    HW127698   0.246   4.713   5.506  2.9104  0.8686 -0.5262
 5412SOL    HW227699   0.325   4.655   5.388  0.7526  0.6388  0.7086
 5413SOL     OW27700   3.305   0.367   8.568  0.2928 -0.8243 -0.5099
 5413SOL    HW127701   3.269   0.454   8.586  1.2998 -0.6096  0.4703
 5413SOL    HW227702   3.276   0.351   8.478  0.4571 -1.6383 -0.4162
 5414SOL     OW27703   3.858   4.319   9.669 -0.2948  1.1223  0.0403
 5414SOL    HW127704   3.877   4.238   9.621 -0.5795  1.4842 -0.6813
 5414SOL    HW227705   3.766   4.313   9.692 -0.4710  1.9783 -0.4333
 5415SOL     OW27706   3.063   0.759  11.411 -0.8602  0.6649 -0.4649
 5415SOL    HW127707   3.109   0.679  11.388 -0.6398  0.1419  1.8244
 5415SOL    HW227708   3.054   0.752  11.506 -2.0348  0.6391 -0.5850
 5416SOL     OW27709   4.491   3.898   9.034  0.3052 -0.2899 -0.2311
 5416SOL    HW127710   4.578   3.862   9.052  0.6062  0.1704 -0.7540
 5416SOL    HW227711   4.473   3.855   8.950  0.7350  0.8589 -0.9068
 5417SOL     OW27712   3.843   3.395   9.069  0.3225  0.0411  0.2035
 5417SOL    HW127713   3.853   3.301   9.085  0.9774  0.4028  1.9015
 5417SOL    HW227714   3.928   3.427   9.100  2.0461 -2.6042 -1.7368
 5418SOL     OW27715   0.899   1.447  10.332 -0.0465  0.0732  0.0619
 5418SOL    HW127716   0.917   1.403  10.414  0.4327 -1.4007 -0.8411
 5418SOL    HW227717   0.818   1.404  10.303  0.7785 -0.1074 -1.9727
 5419SOL     OW27718   1.088   0.208  15.193 -0.8420 -0.0342  0.8098
 5419SOL    HW127719   1.158   0.148  15.218  1.4705  2.0607 -0.6462
 5419SOL    HW227720   1.082   0.204  15.098  0.8164 -0.8877  0.7503
 5420SOL     OW27721   1.950   3.803   3.210 -0.2567 -0.2971 -0.1804
 5420SOL    HW127722   1.980   3.831   3.124 -0.1773  0.8783  0.2392
 5420SOL    HW227723   1.868   3.756   3.195  0.2913 -1.7382  1.3176
 5421SOL     OW27724   4.138   1.654  13.294 -0.1179 -0.1550  0.3762
 5421SOL    HW127725   4.073   1.678  13.361 -0.8090 -0.8939 -0.0253
 5421SOL    HW227726   4.181   1.574  13.321  0.6135 -0.4100 -1.5211
 5422SOL     OW27727   4.129   2.716  16.067 -0.1338  0.3898  0.2487
 5422SOL    HW127728   4.044   2.679  16.089  1.1682 -2.8163 -0.0032
 5422SOL    HW227729   4.103   2.807  16.079 -1.1834 -0.0120  0.9251
 5423SOL     OW27730   3.611   2.325  11.217 -0.3822 -0.1939 -0.0621
 5423SOL    HW127731   3.680   2.392  11.218  0.6962 -1.3044 -0.1198
 5423SOL    HW227732   3.650   2.273  11.146  3.1274  0.7343  1.1901
 5424SOL     OW27733   3.847   1.098  16.806 -0.3627 -0.4772 -0.1677
 5424SOL    HW127734   3.768   1.142  16.839  1.4401  2.3607  0.3592
 5424SOL    HW227735   3.894   1.066  16.883  0.1079  1.1597  0.2286
 5425SOL     OW27736   1.944   0.043   1.377 -0.5506 -0.1349 -0.4956
 5425SOL    HW127737   1.857   0.003   1.374  0.4177 -2.3128  0.6993
 5425SOL    HW227738   1.992   0.002   1.305 -0.0358 -0.5147  0.0663
 5426SOL     OW27739   2.949   2.227   7.297  0.3622  0.8829  0.1911
 5426SOL    HW127740   2.989   2.226   7.385  0.2366 -3.0550  0.1950
 5426SOL    HW227741   2.876   2.168   7.313  0.3887  0.5995 -0.7720
 5427SOL     OW27742   1.201   4.067  12.285 -0.2436 -0.0370  0.2307
 5427SOL    HW127743   1.128   4.128  12.275 -0.2760 -0.6520 -3.4630
 5427SOL    HW227744   1.155   3.984  12.302 -0.6693  0.5828  2.0855
 5428SOL     OW27745   2.826   3.100   2.645  0.3359 -0.0975  0.4514
 5428SOL    HW127746   2.910   3.143   2.634 -0.1541  0.7840  0.2052
 5428SOL    HW227747   2.858   3.031   2.704  0.6019  0.4383  0.9285
 5429SOL     OW27748   2.699   3.487   2.413 -0.6467  0.2860 -0.2046
 5429SOL    HW127749   2.786   3.492   2.452 -0.8538 -0.4086  0.3567
 5429SOL    HW227750   2.669   3.398   2.435  0.5850 -0.3327 -1.0060
 5430SOL     OW27751   3.682   2.453   9.662  0.1479 -0.2476 -0.0814
 5430SOL    HW127752   3.685   2.359   9.676  0.4329 -0.3795 -1.0040
 5430SOL    HW227753   3.738   2.490   9.731 -1.5985  1.8213  0.2416
 5431SOL     OW27754   1.452   3.416   4.351 -0.4275  0.1300 -0.3735
 5431SOL    HW127755   1.532   3.369   4.327  2.1386  2.9327  2.7757
 5431SOL    HW227756   1.501   3.493   4.380  0.3134 -0.3623 -0.3183
 5432SOL     OW27757   0.669   0.358   1.933 -0.1074  0.2590 -0.1175
 5432SOL    HW127758   0.720   0.435   1.908 -1.6109  1.1655 -0.3883
 5432SOL    HW227759   0.670   0.374   2.028  0.1773 -3.1180  0.4521
 5433SOL     OW27760   0.706   2.143  15.894 -0.3348 -0.1024 -0.1135
 5433SOL    HW127761   0.756   2.193  15.958  0.0270 -2.4911  1.4659
 5433SOL    HW227762   0.728   2.050  15.904 -0.2871  0.0557  1.1930
 5434SOL     OW27763   2.366   4.080   5.956 -0.3174 -0.2220 -0.0091
 5434SOL    HW127764   2.327   4.005   5.911  3.3623 -1.8016 -0.5765
 5434SOL    HW227765   2.429   4.041   6.016 -1.1569  1.1504  1.7599
 5435SOL     OW27766   3.560   1.888   7.975 -0.1787  0.1799  0.6807
 5435SOL    HW127767   3.587   1.969   7.932  0.1561 -0.7859 -0.9696
 5435SOL    HW227768   3.475   1.876   7.932  0.4487 -1.3660 -0.1704
 5436SOL     OW27769   1.722   3.470   5.128  0.3226  0.2956  0.1814
 5436SOL    HW127770   1.769   3.454   5.209  1.2299 -1.5870 -0.7089
 5436SOL    HW227771   1.732   3.565   5.128  0.4804  0.2804 -2.1218
 5437SOL     OW27772   1.473   2.450   6.282 -0.0451 -0.0514  0.6691
 5437SOL    HW127773   1.434   2.521   6.333  1.9236  0.7081  1.1104
 5437SOL    HW227774   1.513   2.397   6.352  0.8073 -0.9326 -0.4851
 5438SOL     OW27775   2.874   1.836   0.703  0.1604 -0.3188  0.0176
 5438SOL    HW127776   2.908   1.923   0.684 -0.8883  0.4882  1.8690
 5438SOL    HW227777   2.914   1.782   0.634 -1.0272 -0.6027 -0.4508
 5439SOL     OW27778   3.836   1.657  11.522  0.7611  0.0073 -0.3119
 5439SOL    HW127779   3.871   1.712  11.592 -1.2552  1.5754 -0.5575
 5439SOL    HW227780   3.748   1.694  11.517 -0.4948 -3.0576 -0.7910
 5440SOL     OW27781   2.461   0.337  15.075  0.2400  0.7753  0.0995
 5440SOL    HW127782   2.454   0.420  15.123  1.0511  1.7927 -1.5641
 5440SOL    HW227783   2.458   0.267  15.141 -1.2525  1.2921  0.5910
 5441SOL     OW27784   1.880   1.311   6.167 -0.6029  0.1665 -0.2079
 5441SOL    HW127785   1.800   1.354   6.137 -0.8273 -0.5258 -0.5969
 5441SOL    HW227786   1.916   1.372   6.232 -1.7503 -0.8411  1.3582
 5442SOL     OW27787   2.066   0.138   8.531 -0.1722 -0.3277 -0.4041
 5442SOL    HW127788   2.019   0.202   8.585  1.2116  1.1155 -0.9210
 5442SOL    HW227789   2.070   0.060   8.587  0.7868  0.6375  0.8744
 5443SOL     OW27790   4.155   2.655   8.603 -0.2160  0.4377  0.2931
 5443SOL    HW127791   4.079   2.708   8.624 -0.5306 -0.3521  1.1266
 5443SOL    HW227792   4.124   2.567   8.625  0.6285 -0.1253 -0.7417
 5444SOL     OW27793   4.392   4.360  10.187  0.7974 -0.5221 -0.0597
 5444SOL    HW127794   4.461   4.395  10.242  1.7667 -2.1071 -0.2635
 5444SOL    HW227795   4.433   4.289  10.138  0.2229 -1.2268  0.4733
 5445SOL     OW27796   3.302   2.084   6.620  0.2360 -0.2782 -0.1827
 5445SOL    HW127797   3.228   2.088   6.559  1.0307 -1.0544 -1.1823
 5445SOL    HW227798   3.272   2.149   6.685  2.0402  1.2042 -0.8395
 5446SOL     OW27799   4.357   0.994   6.335 -0.7367 -0.2686  0.0652
 5446SOL    HW127800   4.394   0.987   6.248 -0.8190  0.2770 -0.0095
 5446SOL    HW227801   4.440   0.975   6.379  0.5693  2.7755 -1.0807
 5447SOL     OW27802   0.327   4.439   5.652 -0.4924 -0.4597  0.5036
 5447SOL    HW127803   0.240   4.405   5.673 -2.0013  2.1231 -1.6208
 5447SOL    HW227804   0.306   4.506   5.588 -1.2203 -0.8777  0.3017
 5448SOL     OW27805   1.042   1.501   2.839  0.1577 -0.2163 -0.2694
 5448SOL    HW127806   0.960   1.550   2.827  0.2709  0.1213  0.3427
 5448SOL    HW227807   1.022   1.422   2.790 -0.0442  0.6218 -1.5353
 5449SOL     OW27808   0.727   1.424   1.836 -0.4646  0.3174  0.4548
 5449SOL    HW127809   0.813   1.464   1.851 -0.5933  1.2096 -1.2939
 5449SOL    HW227810   0.685   1.474   1.906 -2.5953  0.5301 -0.9915
 5450SOL     OW27811   2.475   0.599   3.056  0.5589 -0.1503  0.0319
 5450SOL    HW127812   2.482   0.612   3.151  2.0186 -0.7211 -0.0020
 5450SOL    HW227813   2.412   0.527   3.052  0.9863 -0.4560 -1.0689
 5451SOL     OW27814   1.269   3.262   2.331  0.0430  0.1733  0.0683
 5451SOL    HW127815   1.314   3.187   2.371 -1.8856 -1.3967 -0.6733
 5451SOL    HW227816   1.327   3.329   2.366  1.6125 -1.6655  0.9672
 5452SOL     OW27817   0.120   3.084   6.502 -0.1207 -0.3165 -0.6004
 5452SOL    HW127818   0.120   3.142   6.425 -2.6385 -0.3279 -0.6009
 5452SOL    HW227819   0.026   3.066   6.509 -0.6115  0.8709 -3.8599
 5453SOL     OW27820   0.430   3.016   4.817  0.3689 -0.0713  0.2725
 5453SOL    HW127821   0.517   3.016   4.858  0.2989  0.9703  0.4291
 5453SOL    HW227822   0.384   2.940   4.854 -1.1577  0.3931 -0.6901
 5454SOL     OW27823   3.492   4.404   2.404 -0.1398  0.5343  0.3123
 5454SOL    HW127824   3.452   4.333   2.353 -1.8157 -0.0794  2.5154
 5454SOL    HW227825   3.571   4.358   2.433 -2.8713 -2.3185  3.1587
 5455SOL     OW27826   4.257   0.695   8.274  0.3731  0.5477  0.0714
 5455SOL    HW127827   4.190   0.755   8.242  0.6334  1.3913  1.1244
 5455SOL    HW227828   4.319   0.687   8.201  0.3415 -2.3404  0.3348
 5456SOL     OW27829   1.589   1.839  15.292 -0.3048  0.0010  0.0073
 5456SOL    HW127830   1.571   1.777  15.364  2.3278 -0.7153  0.0521
 5456SOL    HW227831   1.523   1.904  15.315 -0.8153 -1.0679  1.5859
 5457SOL     OW27832   4.534   3.950  14.857  0.0468  0.3014 -0.5775
 5457SOL    HW127833   4.560   4.031  14.812 -2.1745 -0.1618 -2.7180
 5457SOL    HW227834   4.604   3.897  14.819  0.8407  0.6269  0.4349
 5458SOL     OW27835   0.620   1.719  17.421 -0.5026 -0.3124  0.2066
 5458SOL    HW127836   0.693   1.659  17.408  0.3380  1.1036 -1.5833
 5458SOL    HW227837   0.542   1.663  17.410 -0.8644  0.4574 -1.0355
 5459SOL     OW27838   2.616   0.960   3.591  0.3347 -0.1233  0.5287
 5459SOL    HW127839   2.598   0.895   3.659 -1.5929 -1.1691 -0.9784
 5459SOL    HW227840   2.707   0.938   3.573  0.5462  0.3649  1.0035
 5460SOL     OW27841   2.525   3.767   6.836 -0.0562 -0.2871  0.2864
 5460SOL    HW127842   2.559   3.681   6.808  0.3617 -0.8340  2.4886
 5460SOL    HW227843   2.587   3.819   6.786  0.6517 -0.5346  0.9142
 5461SOL     OW27844   4.712   1.099  14.274  0.7514 -0.4426 -0.0938
 5461SOL    HW127845   4.622   1.095  14.244  0.5115  0.1738  0.5282
 5461SOL    HW227846   0.029   1.063  14.195 -1.1972 -0.8989 -0.8419
 5462SOL     OW27847   0.796   4.562   8.457 -0.5043 -0.2842 -0.1672
 5462SOL    HW127848   0.806   4.654   8.432  1.4068  0.0064  1.6553
 5462SOL    HW227849   0.716   4.543   8.409  0.0133  1.0576 -1.5365
 5463SOL     OW27850   2.052   1.976   4.660  0.0435 -0.5027 -0.0448
 5463SOL    HW127851   2.078   2.068   4.667  0.5201 -0.4655 -2.5630
 5463SOL    HW227852   2.131   1.933   4.629  0.7478  0.9139 -0.2200
 5464SOL     OW27853   3.479   3.688  13.753 -0.2641 -0.2555  0.0974
 5464SOL    HW127854   3.483   3.757  13.820  0.3223  1.2866 -1.5335
 5464SOL    HW227855   3.464   3.748  13.681 -0.1306 -1.7008 -1.1227
 5465SOL     OW27856   0.317   0.387  11.731  0.3973 -0.0505  0.2378
 5465SOL    HW127857   0.374   0.429  11.668  0.1392 -0.4476 -0.2558
 5465SOL    HW227858   0.333   0.424  11.818 -1.9092 -0.0055  0.6483
 5466SOL     OW27859   0.750   3.858   5.783  0.1609  0.0877 -0.2874
 5466SOL    HW127860   0.725   3.773   5.820 -2.5085  0.9365 -0.1262
 5466SOL    HW227861   0.746   3.914   5.861 -0.2455 -0.1257 -0.1544
 5467SOL     OW27862   2.388   0.985  12.734  0.0473  0.0766 -0.0313
 5467SOL    HW127863   2.336   0.988  12.814  0.3994 -1.0245  0.2460
 5467SOL    HW227864   2.471   1.022  12.765 -0.2007  0.6237 -0.0241
 5468SOL     OW27865   0.670   1.993   8.788  0.1112 -0.2635  0.3472
 5468SOL    HW127866   0.603   2.034   8.842 -0.7304  0.5853 -1.3223
 5468SOL    HW227867   0.608   1.966   8.720 -0.5583  0.3124  0.7297
 5469SOL     OW27868   4.279   0.097   0.750 -0.2580 -0.2284  0.0801
 5469SOL    HW127869   4.247   0.116   0.838  2.6290 -2.4841  1.6326
 5469SOL    HW227870   4.230   0.022   0.717 -0.3465  0.6940 -1.8888
 5470SOL     OW27871   1.374   1.984   8.289  0.0110 -0.2261  0.0697
 5470SOL    HW127872   1.433   1.915   8.319 -0.5688 -0.6568  0.2380
 5470SOL    HW227873   1.306   1.936   8.242 -0.2941 -0.3804  0.6636
 5471SOL     OW27874   1.212   2.915   5.877  0.4699 -0.2194 -0.4220
 5471SOL    HW127875   1.207   2.820   5.871 -2.5120 -0.0353 -1.1881
 5471SOL    HW227876   1.156   2.943   5.804  2.7136  0.8505 -1.7066
 5472SOL     OW27877   1.224   2.687   2.312 -0.1957 -0.6175  0.1621
 5472SOL    HW127878   1.242   2.616   2.374  1.8233  1.5220  2.0038
 5472SOL    HW227879   1.136   2.708   2.344 -0.9455 -1.8668 -1.0688
 5473SOL     OW27880   0.338   0.280   8.106 -0.1424 -0.7557  0.2612
 5473SOL    HW127881   0.325   0.250   8.016 -2.6186 -1.5766  0.8742
 5473SOL    HW227882   0.269   0.238   8.158  0.4474 -1.2164  0.6727
 5474SOL     OW27883   0.619   4.072   5.232 -0.3953  0.1188  0.1867
 5474SOL    HW127884   0.643   4.096   5.142  0.5612  1.0117  0.6872
 5474SOL    HW227885   0.559   4.147   5.241  0.9854  1.2430  0.0369
 5475SOL     OW27886   4.585   0.308  16.417 -0.2117  0.1949  0.5133
 5475SOL    HW127887   4.591   0.260  16.500  2.4978 -0.2282  0.0705
 5475SOL    HW227888   4.545   0.250  16.352  1.8308 -2.4770  1.6279
 5476SOL     OW27889   1.822   4.319   4.635 -0.1709  0.4129  0.2983
 5476SOL    HW127890   1.850   4.274   4.715 -0.4461 -1.3328 -0.5992
 5476SOL    HW227891   1.884   4.391   4.622 -0.5623  1.1266  2.2300
 5477SOL     OW27892   1.042   0.875   9.870 -0.0893  0.3244  0.1437
 5477SOL    HW127893   1.034   0.848   9.961  2.5299  0.5230  0.4452
 5477SOL    HW227894   1.117   0.934   9.873  1.3160 -1.2673 -3.4781
 5478SOL     OW27895   0.996   3.032   3.086 -0.3629  0.4798  0.1056
 5478SOL    HW127896   0.996   2.943   3.122  1.8914 -0.3259 -1.8804
 5478SOL    HW227897   1.087   3.047   3.059  0.6081 -3.8290  0.9228
 5479SOL     OW27898   2.695   2.887  16.550  0.3067 -0.3930  0.2402
 5479SOL    HW127899   2.728   2.929  16.470  2.7534 -1.5265  0.6604
 5479SOL    HW227900   2.753   2.811  16.544  2.3523  0.9870  2.1593
 5480SOL     OW27901   3.961   0.311   3.051 -0.2213 -0.7932 -0.0779
 5480SOL    HW127902   3.974   0.290   3.143  4.0049  1.7194 -0.0635
 5480SOL    HW227903   4.030   0.378   3.053  0.4933 -1.5813  1.3820
 5481SOL     OW27904   3.038   2.199   6.167  0.1257  0.1364 -0.3740
 5481SOL    HW127905   3.126   2.206   6.202 -0.3308 -1.1332  1.0373
 5481SOL    HW227906   3.043   2.216   6.073  0.0349  0.9079 -0.2349
 5482SOL     OW27907   1.182   0.616   3.837 -0.0386  0.0677  0.0688
 5482SOL    HW127908   1.189   0.709   3.858  0.3846  0.6407 -2.6206
 5482SOL    HW227909   1.273   0.607   3.806  0.4086  0.0257  1.4078
 5483SOL     OW27910   3.186   4.465   5.029  0.1493  0.2065  0.6503
 5483SOL    HW127911   3.111   4.409   5.050 -0.5975  1.1984  0.6505
 5483SOL    HW227912   3.266   4.417   5.047 -0.2718  0.9181  4.3066
 5484SOL     OW27913   4.198   0.008  13.779 -0.2873 -0.1981  0.1661
 5484SOL    HW127914   4.152   0.052  13.707  2.7512  0.5261 -1.3589
 5484SOL    HW227915   4.288   0.006  13.746 -0.6936 -2.0487 -0.8638
 5485SOL     OW27916   0.975   1.905  12.178 -0.0500  0.0521 -0.2114
 5485SOL    HW127917   1.028   1.985  12.180 -0.9505  0.6534 -0.2224
 5485SOL    HW227918   0.997   1.860  12.259 -1.7158 -0.4024 -0.0174
 5486SOL     OW27919   2.679   3.612  14.030  0.5689 -0.1327 -0.1531
 5486SOL    HW127920   2.767   3.638  14.002 -0.0146  2.4841  0.4584
 5486SOL    HW227921   2.680   3.618  14.126  1.0091 -2.3084 -0.0259
 5487SOL     OW27922   3.797   0.163   8.700 -0.0149 -0.0762 -0.2141
 5487SOL    HW127923   3.732   0.224   8.666 -1.1441 -1.5304 -0.6557
 5487SOL    HW227924   3.738   0.091   8.720  2.7146 -2.6653 -1.5957
 5488SOL     OW27925   1.965   2.189   5.986 -0.2120  0.1901  0.1202
 5488SOL    HW127926   1.874   2.159   5.985 -0.0667 -0.1681 -3.9348
 5488SOL    HW227927   1.980   2.214   6.077  0.4143  0.0518  0.0516
 5489SOL     OW27928   0.621   3.615   9.068  0.2298 -0.1679 -0.3383
 5489SOL    HW127929   0.698   3.607   9.011  1.2475 -1.2401  1.2039
 5489SOL    HW227930   0.628   3.532   9.114  2.1804 -0.2705 -0.7792
 5490SOL     OW27931   4.577   0.864   7.861  0.2469 -0.1298 -0.0014
 5490SOL    HW127932   4.662   0.847   7.820  0.4791  0.1221  0.3687
 5490SOL    HW227933   4.573   0.958   7.878  0.5262 -0.2161  0.5623
 5491SOL     OW27934   0.868   3.927   2.051  0.2552 -0.3037 -0.3924
 5491SOL    HW127935   0.873   3.972   1.967 -1.4065 -1.2475 -1.0048
 5491SOL    HW227936   0.796   3.982   2.083  0.5267 -0.9327  1.3155
 5492SOL     OW27937   1.268   4.340   2.468  0.8903 -0.0028 -0.5382
 5492SOL    HW127938   1.287   4.425   2.428  1.1024  0.3074  0.2283
 5492SOL    HW227939   1.205   4.300   2.407  2.2134 -1.7213 -0.7721
 5493SOL     OW27940   4.444   2.263   6.053  0.2574 -0.3958  0.1006
 5493SOL    HW127941   4.535   2.234   6.063  0.5827  0.7175  0.3495
 5493SOL    HW227942   4.417   2.199   5.987  0.0836 -0.4975  0.2702
 5494SOL     OW27943   4.334   4.122   4.047 -0.5838 -0.6564 -0.0427
 5494SOL    HW127944   4.352   4.084   4.133 -0.6525 -0.0790  0.2275
 5494SOL    HW227945   4.418   4.156   4.015 -0.0109 -2.7059 -0.7419
 5495SOL     OW27946   1.628   3.824  15.151 -0.2633  0.7792  0.6947
 5495SOL    HW127947   1.542   3.818  15.110  0.9823  0.7587 -1.8649
 5495SOL    HW227948   1.685   3.772  15.095 -0.4791  3.0812 -1.6455
 5496SOL     OW27949   4.074   3.821   9.464 -0.1711 -0.4789  0.4091
 5496SOL    HW127950   4.140   3.806   9.396  0.1546  0.9910  0.4080
 5496SOL    HW227951   4.124   3.794   9.541 -1.8066  0.6053  1.8676
 5497SOL     OW27952   0.710   2.994   3.044 -0.2340  0.0864  0.0858
 5497SOL    HW127953   0.723   3.001   2.950  1.4100  0.7527  0.3800
 5497SOL    HW227954   0.773   2.925   3.065 -0.1283  0.5450  1.2714
 5498SOL     OW27955   2.505   1.060  17.215  0.2628 -0.3991  0.2843
 5498SOL    HW127956   2.417   1.030  17.240 -1.3117  3.6525 -0.4668
 5498SOL    HW227957   2.544   1.081  17.299 -0.4047 -0.5167  0.6253
 5499SOL     OW27958   3.107   2.330   3.833 -0.5901  0.3242 -0.3077
 5499SOL    HW127959   3.184   2.382   3.855 -1.4514  1.9511 -1.1857
 5499SOL    HW227960   3.135   2.264   3.769  1.0789 -0.4167  1.1569
 5500SOL     OW27961   2.175   2.999   3.225  0.4759 -0.0855 -0.4175
 5500SOL    HW127962   2.166   3.090   3.196 -0.5426  0.7942  2.6759
 5500SOL    HW227963   2.268   2.992   3.247  0.1165 -1.3604  0.7224
 5501SOL     OW27964   4.496   2.324   3.370  0.5013  0.1345  0.1628
 5501SOL    HW127965   4.517   2.397   3.312 -0.5928 -0.4658 -0.9977
 5501SOL    HW227966   4.580   2.280   3.363 -0.9241 -2.6209  0.2147
 5502SOL     OW27967   0.596   3.582   3.705 -0.1601  0.2361  0.0614
 5502SOL    HW127968   0.601   3.531   3.624 -2.5929  0.3488 -0.1610
 5502SOL    HW227969   0.560   3.515   3.764  1.7562 -0.5809  0.3135
 5503SOL     OW27970   1.131   4.255   5.842  0.1233  0.3640 -0.2108
 5503SOL    HW127971   1.190   4.272   5.768 -0.0635  0.3446 -0.3643
 5503SOL    HW227972   1.060   4.225   5.786 -0.8625 -0.2279  1.3623
 5504SOL     OW27973   1.941   4.237   8.711  0.5047 -0.4525  0.2842
 5504SOL    HW127974   2.008   4.278   8.656  0.6778 -1.3832 -0.2111
 5504SOL    HW227975   1.911   4.306   8.769 -1.9891 -0.5975 -0.8269
 5505SOL     OW27976   1.450   2.209   8.134  0.6677 -0.2897  0.2567
 5505SOL    HW127977   1.357   2.224   8.153  0.3889  0.5688 -1.8016
 5505SOL    HW227978   1.459   2.127   8.182  0.0350  0.4454  1.6442
 5506SOL     OW27979   3.396   3.729   8.102  0.1709 -0.3161 -0.2709
 5506SOL    HW127980   3.440   3.743   8.019  1.3274 -0.4962  0.3181
 5506SOL    HW227981   3.466   3.735   8.166 -0.7490 -0.6529  0.7711
 5507SOL     OW27982   1.067   1.866   9.287 -0.3344  0.1721  0.2941
 5507SOL    HW127983   1.106   1.922   9.220  1.3367 -1.4661 -0.0967
 5507SOL    HW227984   1.066   1.932   9.357 -0.8303  0.8549 -0.3453
 5508SOL     OW27985   3.337   4.457   8.527  0.3236 -0.3091  0.0574
 5508SOL    HW127986   3.293   4.412   8.600 -1.2535  1.1396 -0.0032
 5508SOL    HW227987   3.402   4.388   8.514  0.8632  0.3624 -0.7996
 5509SOL     OW27988   3.944   3.850   5.389 -0.0985  0.8464  0.1505
 5509SOL    HW127989   4.014   3.852   5.324  0.8412  2.3692  1.2196
 5509SOL    HW227990   3.920   3.941   5.411 -2.9101  0.4071 -1.0620
 5510SOL     OW27991   3.282   3.140   5.943 -0.0214  0.0323 -0.4636
 5510SOL    HW127992   3.352   3.184   5.992  1.7245 -3.4492  0.1520
 5510SOL    HW227993   3.207   3.167   5.996 -1.1156 -1.1802 -1.4019
 5511SOL     OW27994   3.750   3.710   2.696  0.3553  0.0435  0.4435
 5511SOL    HW127995   3.828   3.660   2.669  0.6943  0.4176  0.7252
 5511SOL    HW227996   3.768   3.730   2.788  1.4768 -0.2051  0.2907
 5512SOL     OW27997   1.283   2.898   7.996  0.0717  0.5542  0.5667
 5512SOL    HW127998   1.198   2.877   8.036  0.0002 -0.3414 -0.0726
 5512SOL    HW227999   1.267   2.992   7.983 -0.0174  0.3542 -0.7693
 5513SOL     OW28000   0.003   1.889   1.898  0.1987 -0.1173 -0.1539
 5513SOL    HW128001   4.632   1.875   1.912  0.8118 -3.0716  1.0131
 5513SOL    HW228002   0.001   1.971   1.849 -0.3260 -0.0885 -0.0875
 5514SOL     OW28003   3.654   0.123   4.215 -0.3554 -0.2890  0.3755
 5514SOL    HW128004   3.738   0.136   4.170 -0.1026  1.3423  1.3301
 5514SOL    HW228005   3.611   0.208   4.209 -1.0343 -0.6001  0.8350
 5515SOL     OW28006   1.391   0.126  17.476  0.0787  0.1705 -0.0629
 5515SOL    HW128007   1.370   0.118  17.569 -1.3489  0.6002 -0.3538
 5515SOL    HW228008   1.341   0.204  17.452 -0.2380 -0.9086 -2.9359
 5516SOL     OW28009   0.804   4.234   3.499  0.6637  0.8376  0.0429
 5516SOL    HW128010   0.770   4.320   3.476  0.1807  1.2286  2.2503
 5516SOL    HW228011   0.721   4.191   3.523 -0.2344  0.3159 -3.9722
 5517SOL     OW28012   1.998   4.552   2.111 -0.4862 -0.1569  0.1297
 5517SOL    HW128013   2.048   4.585   2.186 -2.1947  0.0587  1.1838
 5517SOL    HW228014   1.953   4.481   2.158  0.2310 -1.6201 -1.4076
 5518SOL     OW28015   0.320   3.570   3.861  0.8067 -0.4350 -0.0450
 5518SOL    HW128016   0.372   3.647   3.886 -0.7071  0.8248 -0.7412
 5518SOL    HW228017   0.356   3.503   3.919  0.2770 -1.1814 -0.5821
 5519SOL     OW28018   1.667   3.104   8.931 -0.3954  0.1021  0.5034
 5519SOL    HW128019   1.709   3.174   8.881  1.2582 -0.1581  1.5380
 5519SOL    HW228020   1.732   3.096   9.001  1.2288 -2.2563 -1.2848
 5520SOL     OW28021   1.381   3.436   8.445 -0.0297 -0.2519  0.0961
 5520SOL    HW128022   1.400   3.480   8.529 -0.7613  2.2032 -1.0220
 5520SOL    HW228023   1.286   3.441   8.436 -0.2740 -4.7505  0.4148
 5521SOL     OW28024   2.775   1.489  10.596 -0.2922 -0.3606  0.2767
 5521SOL    HW128025   2.813   1.418  10.543  1.5734 -0.6815  2.0347
 5521SOL    HW228026   2.768   1.450  10.683  1.1050  0.1248  0.6174
 5522SOL     OW28027   4.482   1.024   3.039  0.4261  0.3136  0.0682
 5522SOL    HW128028   4.469   1.114   3.069  3.5331  1.2290 -1.3050
 5522SOL    HW228029   4.535   0.994   3.112  0.9522 -0.6811 -0.7148
 5523SOL     OW28030   4.293   4.123   5.354  0.2638 -0.4319 -0.1758
 5523SOL    HW128031   4.297   4.139   5.260  1.4662  2.3263  0.3521
 5523SOL    HW228032   4.267   4.210   5.385  0.1840 -0.2683 -0.7154
 5524SOL     OW28033   2.590   1.522   2.927 -0.1977  0.6513 -0.2106
 5524SOL    HW128034   2.574   1.443   2.876  1.4969 -0.5618  1.1316
 5524SOL    HW228035   2.632   1.579   2.863 -1.4826  2.0403  0.1702
 5525SOL     OW28036   1.543   2.012  10.926  0.9628 -0.1597  0.2573
 5525SOL    HW128037   1.465   2.047  10.969 -0.1409 -0.9945 -1.0170
 5525SOL    HW228038   1.567   1.941  10.986  0.7469  1.2977  2.0388
 5526SOL     OW28039   4.406   2.844   8.624 -0.5734 -0.1822 -0.5242
 5526SOL    HW128040   4.450   2.914   8.672  0.4679 -0.8885 -0.4583
 5526SOL    HW228041   4.353   2.887   8.557  0.4406  0.0433 -1.1610
 5527SOL     OW28042   1.649   2.103   3.533 -0.2312  0.0753  0.1382
 5527SOL    HW128043   1.674   2.011   3.541  0.9731  0.3727 -0.2070
 5527SOL    HW228044   1.704   2.145   3.599 -2.7444 -0.2279  2.4603
 5528SOL     OW28045   4.675   0.703  13.106 -0.1709  0.0536  0.0219
 5528SOL    HW128046   4.716   0.623  13.073  1.1309  0.1698  1.3528
 5528SOL    HW228047   4.705   0.703  13.197 -0.5842 -1.7829  0.1631
 5529SOL     OW28048   4.574   2.418   7.386 -0.0422  0.4810  0.4923
 5529SOL    HW128049   4.604   2.327   7.383 -0.5309  0.3873 -1.2168
 5529SOL    HW228050   4.612   2.445   7.470 -0.1305  0.7669  0.4387
 5530SOL     OW28051   3.270   2.028   1.760 -0.5375  0.7214  0.2871
 5530SOL    HW128052   3.240   1.943   1.790 -1.1970  0.7224 -0.3652
 5530SOL    HW228053   3.228   2.080   1.828  0.0712  0.8497  0.5666
 5531SOL     OW28054   3.894   4.602   8.435 -0.8930  0.1642  0.5734
 5531SOL    HW128055   3.925   4.690   8.460 -2.7820  1.5432 -1.9064
 5531SOL    HW228056   3.800   4.589   8.446 -1.1523  2.1213  0.7036
 5532SOL     OW28057   1.556   1.118   8.336  1.1059 -0.5918  0.1112
 5532SOL    HW128058   1.482   1.147   8.283  2.9339  1.6631 -1.2442
 5532SOL    HW228059   1.579   1.033   8.299  0.5007 -0.9053  0.4806
 5533SOL     OW28060   4.063   0.128  11.920  0.3249 -0.3590  0.4119
 5533SOL    HW128061   3.968   0.130  11.919  0.3721  0.7680 -1.2249
 5533SOL    HW228062   4.089   0.169  11.838  0.2607 -2.0217 -0.4343
 5534SOL     OW28063   2.704   1.635   4.914 -0.2175  0.0378  1.1001
 5534SOL    HW128064   2.712   1.673   4.827  5.0842 -0.2400  1.4670
 5534SOL    HW228065   2.637   1.690   4.955 -1.0588  1.0366 -1.5655
 5535SOL     OW28066   2.633   1.783   7.750  0.6343  0.4985 -0.1553
 5535SOL    HW128067   2.581   1.711   7.785 -1.3690  1.6897 -0.7430
 5535SOL    HW228068   2.566   1.822   7.695  1.2849  0.7805 -0.7524
 5536SOL     OW28069   3.191   4.646   1.405 -0.0667 -0.0552 -0.2542
 5536SOL    HW128070   3.237   0.008   1.406  1.6625 -1.0147  1.2495
 5536SOL    HW228071   3.242   4.597   1.340 -0.7307 -0.6512 -0.3235
 5537SOL     OW28072   2.654   2.659   8.153  0.0112  0.6675 -0.5134
 5537SOL    HW128073   2.587   2.706   8.203  1.3683 -0.6122  2.4959
 5537SOL    HW228074   2.727   2.711   8.185  0.5224 -0.3397 -0.0269
 5538SOL     OW28075   0.022   4.600   0.921  0.1134 -0.5893  0.5512
 5538SOL    HW128076   0.051   4.538   0.854 -1.2971 -3.0285  2.1963
 5538SOL    HW228077   0.048   4.683   0.880  0.4443 -0.9581  0.0223
 5539SOL     OW28078   3.447   4.659   4.209 -0.3424 -0.0778  0.0402
 5539SOL    HW128079   3.374   4.700   4.256 -1.2008  0.4028 -1.7030
 5539SOL    HW228080   3.519   4.720   4.225 -0.1635 -0.8933  2.3427
 5540SOL     OW28081   3.067   3.958   5.934  0.0083  0.2517  0.7658
 5540SOL    HW128082   2.991   4.017   5.939 -0.4085 -0.1034 -1.2966
 5540SOL    HW228083   3.137   4.008   5.892 -1.4490  0.5484 -1.3183
 5541SOL     OW28084   2.557   4.579   3.159 -0.6957 -0.0400 -0.1278
 5541SOL    HW128085   2.522   4.548   3.243 -3.4454  1.9892 -0.5402
 5541SOL    HW228086   2.648   4.594   3.183 -0.3880  0.4302 -1.5485
 5542SOL     OW28087   4.423   4.558   6.609  0.4640 -0.0882 -0.5258
 5542SOL    HW128088   4.487   4.489   6.593  1.5777  0.7984  0.0994
 5542SOL    HW228089   4.456   4.628   6.551 -0.6320  0.6570 -0.2571
 5543SOL     OW28090   4.369   2.087   7.025 -0.0383  0.0839 -0.1177
 5543SOL    HW128091   4.436   2.075   6.957  0.1400 -1.7027  0.3780
 5543SOL    HW228092   4.435   2.097   7.094  1.4915  3.2683 -2.0616
 5544SOL     OW28093   3.111   3.212   7.654  0.2699 -0.2523 -1.0786
 5544SOL    HW128094   3.055   3.198   7.577  0.1423 -0.1643 -1.0035
 5544SOL    HW228095   3.134   3.120   7.664  1.7375  0.2698  0.3481
 5545SOL     OW28096   1.359   3.151   5.904 -0.0857  0.3145 -0.3710
 5545SOL    HW128097   1.444   3.107   5.900 -0.0369  0.4203 -0.4832
 5545SOL    HW228098   1.310   3.068   5.905 -2.1943  1.5716  1.5054
 5546SOL     OW28099   1.793   1.038   5.668  0.0190  0.5578  0.0763
 5546SOL    HW128100   1.754   1.072   5.748 -2.1912  1.5609 -1.4133
 5546SOL    HW228101   1.739   0.960   5.660 -0.0438  0.6984 -0.9673
 5547SOL     OW28102   3.831   1.974   5.921  0.1112 -0.8204 -0.4739
 5547SOL    HW128103   3.830   1.951   6.014 -1.6873  2.3671  0.3158
 5547SOL    HW228104   3.926   1.979   5.905  0.5863 -0.4926  2.4676
 5548SOL     OW28105   2.295   1.816  11.113 -0.0748  0.2813  0.2664
 5548SOL    HW128106   2.359   1.808  11.183  0.1596  2.2087  0.2618
 5548SOL    HW228107   2.222   1.845  11.169  0.1328 -1.7780  1.5980
 5549SOL     OW28108   1.917   3.616   6.320 -0.4351  0.5456 -0.2322
 5549SOL    HW128109   1.847   3.553   6.305  0.6966 -0.4795 -1.2306
 5549SOL    HW228110   1.871   3.696   6.298 -1.4563 -0.2102 -0.8441
 5550SOL     OW28111   4.183   3.400  11.589 -0.4801 -0.2142 -0.3230
 5550SOL    HW128112   4.262   3.357  11.557  0.1592  1.0167 -0.4106
 5550SOL    HW228113   4.171   3.481  11.539 -1.5205  0.6665  1.3295
 5551SOL     OW28114   0.365   3.756   4.682  0.7414 -0.2808  0.8016
 5551SOL    HW128115   0.303   3.707   4.737  0.1880  1.9904  2.2110
 5551SOL    HW228116   0.348   3.724   4.594 -1.5857 -0.1364  1.1886
 5552SOL     OW28117   0.695   3.055  10.010  0.6051  0.2944  0.2206
 5552SOL    HW128118   0.750   3.116   9.961  0.0004 -0.6067 -1.5474
 5552SOL    HW228119   0.668   3.000   9.937 -1.8440  0.6136  0.8911
 5553SOL     OW28120   3.010   2.597   8.016 -0.4036  0.3617 -0.0161
 5553SOL    HW128121   2.919   2.595   8.045 -0.1060  0.3860  0.9374
 5553SOL    HW228122   3.057   2.610   8.099 -4.0704 -0.9655  2.2916
 5554SOL     OW28123   0.384   2.572  13.899 -0.5958  0.6420  0.3289
 5554SOL    HW128124   0.446   2.611  13.837 -0.1466 -0.2044  0.2514
 5554SOL    HW228125   0.320   2.640  13.919 -0.3875  0.1191  2.6893
 5555SOL     OW28126   1.808   3.901   8.748 -0.4427 -0.5467 -0.1476
 5555SOL    HW128127   1.748   3.829   8.768  0.2042 -0.8935  0.5428
 5555SOL    HW228128   1.890   3.865   8.780  0.0825  0.6698 -0.1156
 5556SOL     OW28129   3.048   2.726   3.823 -0.2061 -0.3542 -0.2684
 5556SOL    HW128130   3.043   2.787   3.750 -1.0025  0.1539  0.2065
 5556SOL    HW228131   3.127   2.758   3.868  0.7740 -0.5026 -1.9060
 5557SOL     OW28132   2.293   1.209   6.042 -0.6024  0.0292  0.0086
 5557SOL    HW128133   2.294   1.123   6.085 -0.1784  0.1961  0.3283
 5557SOL    HW228134   2.355   1.259   6.095 -0.0375  1.1770 -1.7401
 5558SOL     OW28135   4.487   3.610   6.331  0.3986 -0.2568 -0.1326
 5558SOL    HW128136   4.450   3.645   6.250  1.9497 -0.6042 -0.9915
 5558SOL    HW228137   4.425   3.538   6.347 -0.7605  0.2225 -2.3361
 5559SOL     OW28138   1.462   4.352   6.528 -0.7635  0.4160  0.5952
 5559SOL    HW128139   1.424   4.270   6.497  0.2595  0.9319 -1.9867
 5559SOL    HW228140   1.556   4.334   6.521 -0.7509  1.1735 -1.0993
 5560SOL     OW28141   2.863   4.586   5.574 -0.7468 -0.0430  0.3379
 5560SOL    HW128142   2.836   4.511   5.521 -0.0697 -0.1040  0.0685
 5560SOL    HW228143   2.835   4.655   5.514  0.1780 -0.8463 -1.0399
 5561SOL     OW28144   0.603   3.462   8.730 -0.4911  0.0127 -0.5212
 5561SOL    HW128145   0.579   3.553   8.744  2.8796  0.5871  1.6762
 5561SOL    HW228146   0.692   3.477   8.764 -0.1310 -0.4589 -1.2569
 5562SOL     OW28147   3.128   1.971   3.496  0.0799 -0.0304 -0.2574
 5562SOL    HW128148   3.178   1.894   3.525  1.5002  0.7494 -0.6238
 5562SOL    HW228149   3.041   1.932   3.493  0.7388 -1.7312  2.2069
 5563SOL     OW28150   3.836   4.203  15.938  0.1831  0.5250 -0.4038
 5563SOL    HW128151   3.910   4.263  15.932  0.5585  0.2842  1.7371
 5563SOL    HW228152   3.864   4.135  15.877  0.6561  1.2511 -0.9977
 5564SOL     OW28153   3.943   0.374   8.772 -0.2233 -0.0308 -0.1922
 5564SOL    HW128154   3.905   0.412   8.851 -0.1770  0.9541 -0.6382
 5564SOL    HW228155   3.906   0.286   8.772  1.0650 -0.5839 -1.0599
 5565SOL     OW28156   4.716   2.104   8.949  0.1218  0.4084  0.3661
 5565SOL    HW128157   0.088   2.101   8.937 -0.2476 -0.7287 -2.2926
 5565SOL    HW228158   4.698   2.015   8.981 -1.3841  0.9118  0.9193
 5566SOL     OW28159   3.180   2.459   6.443 -0.6627  0.2408 -0.1269
 5566SOL    HW128160   3.250   2.438   6.381  0.0549 -1.2942  1.2099
 5566SOL    HW228161   3.229   2.458   6.525 -0.7686 -0.9158 -0.0764
 5567SOL     OW28162   1.735   1.131   2.235 -0.0045 -0.0059 -0.1086
 5567SOL    HW128163   1.801   1.101   2.173  0.9543  0.0066  0.9087
 5567SOL    HW228164   1.784   1.132   2.318  2.0444 -2.6720 -1.3119
 5568SOL     OW28165   4.476   2.603   5.620  0.4321 -0.4167  0.3779
 5568SOL    HW128166   4.450   2.539   5.553  0.1573 -0.8781  0.9288
 5568SOL    HW228167   4.414   2.592   5.692 -0.6970  1.9463 -0.2267
 5569SOL     OW28168   1.989   4.241  10.687 -0.1299  0.1404  0.2728
 5569SOL    HW128169   2.026   4.300  10.622 -0.9434  0.2837 -0.0664
 5569SOL    HW228170   2.065   4.219  10.741 -0.3350 -1.1349  0.0556
 5570SOL     OW28171   1.485   3.867  15.815  0.2247 -0.9559 -0.0391
 5570SOL    HW128172   1.495   3.962  15.829  0.6720 -1.1050  0.7015
 5570SOL    HW228173   1.574   3.840  15.792  1.2306  0.7017  1.8243
 5571SOL     OW28174   3.920   2.560   4.306 -0.0506 -0.0165  0.1426
 5571SOL    HW128175   3.842   2.577   4.253  1.9720 -0.7260 -3.0421
 5571SOL    HW228176   3.878   2.538   4.389  0.8325  1.1788  0.9001
 5572SOL     OW28177   1.724   2.021   2.366 -0.1821 -0.3875  0.2551
 5572SOL    HW128178   1.724   1.927   2.384 -0.1301 -0.4838 -0.2465
 5572SOL    HW228179   1.775   2.054   2.440 -1.1728 -0.0105  0.7784
 5573SOL     OW28180   2.541   1.867   7.295  0.9094  0.1028 -0.4904
 5573SOL    HW128181   2.534   1.886   7.201 -0.8894 -0.1650 -0.4154
 5573SOL    HW228182   2.617   1.812   7.311  1.6472  1.7496  1.6070
 5574SOL     OW28183   4.679   3.509   5.011 -0.2123  0.4087  0.3063
 5574SOL    HW128184   4.619   3.437   5.032 -0.5880  0.2962 -1.1461
 5574SOL    HW228185   0.015   3.465   4.950 -0.1631  0.5851  0.2243
 5575SOL     OW28186   4.718   2.907  16.907  0.3902  0.0633  0.7757
 5575SOL    HW128187   4.631   2.870  16.919  0.6585 -1.6299 -2.3617
 5575SOL    HW228188   0.016   2.938  16.995 -1.2991 -2.3101  1.9919
 5576SOL     OW28189   3.976   1.205   8.041 -0.0211  0.4770 -0.5173
 5576SOL    HW128190   3.916   1.186   7.969 -1.5885  1.3795  0.5567
 5576SOL    HW228191   3.963   1.299   8.043  0.7024  0.5446  1.2001
 5577SOL     OW28192   3.161   0.976  14.215  0.2021  0.4938 -0.0238
 5577SOL    HW128193   3.257   0.981  14.218  0.3255 -1.7419  0.3201
 5577SOL    HW228194   3.140   0.892  14.174  2.2171 -0.0781  0.1074
 5578SOL     OW28195   0.562   1.554   2.007 -0.5214 -0.1204 -0.0173
 5578SOL    HW128196   0.580   1.648   2.009 -1.4695  0.1902 -5.3597
 5578SOL    HW228197   0.512   1.546   2.088 -2.7292 -1.1557 -1.4909
 5579SOL     OW28198   4.456   1.252   5.993  0.2492 -0.0427 -0.2248
 5579SOL    HW128199   4.461   1.240   5.898 -1.4767 -4.6635  0.2733
 5579SOL    HW228200   4.483   1.344   5.990  1.0817 -0.2888 -0.3053
 5580SOL     OW28201   1.445   1.972   1.796 -0.1413 -0.7631  0.3541
 5580SOL    HW128202   1.389   1.976   1.719  0.3568 -0.3621  0.0162
 5580SOL    HW228203   1.531   1.998   1.763 -0.2193  1.0931  1.5594
 5581SOL     OW28204   0.960   3.114   5.805 -0.0185 -0.0693  0.3114
 5581SOL    HW128205   0.880   3.123   5.754 -0.0970  1.0331  0.6329
 5581SOL    HW228206   0.929   3.042   5.860 -0.4724  0.5488  0.8636
 5582SOL     OW28207   2.274   3.440   3.544  0.2218  0.1751 -0.3915
 5582SOL    HW128208   2.212   3.403   3.482  1.0866 -0.6476 -0.7624
 5582SOL    HW228209   2.320   3.364   3.579 -1.3482 -0.1840  0.8757
 5583SOL     OW28210   0.263   2.652   5.204  0.3359  0.5925  0.1851
 5583SOL    HW128211   0.225   2.569   5.175 -1.7571  0.3681  3.5446
 5583SOL    HW228212   0.348   2.633   5.243  0.5637  0.5660 -0.3211
 5584SOL     OW28213   1.787   0.298  17.377  0.2153 -0.1013 -0.0841
 5584SOL    HW128214   1.749   0.211  17.387  1.5267 -0.7269 -0.5327
 5584SOL    HW228215   1.715   0.359  17.388  0.3962  0.3328 -1.3231
 5585SOL     OW28216   2.710   0.464   6.277  0.3513 -0.1203 -0.2018
 5585SOL    HW128217   2.789   0.412   6.263  0.7090  0.1434  0.8404
 5585SOL    HW228218   2.704   0.510   6.194  1.3661 -2.7976 -1.7798
 5586SOL     OW28219   0.932   4.578   9.599 -1.2035 -0.1663  0.3207
 5586SOL    HW128220   0.885   4.658   9.575 -1.6595 -0.8394 -1.0143
 5586SOL    HW228221   0.936   4.580   9.694  1.5998  1.3474  0.1767
 5587SOL     OW28222   0.729   0.949  13.372  0.3366 -0.3852 -0.0827
 5587SOL    HW128223   0.699   0.862  13.397 -0.8210 -0.3675 -1.4146
 5587SOL    HW228224   0.654   1.003  13.399  0.4315 -0.8287  1.0661
 5588SOL     OW28225   2.549   3.687   7.654 -0.0364 -1.1571 -0.4237
 5588SOL    HW128226   2.527   3.626   7.724  0.5571 -1.2585 -0.3266
 5588SOL    HW228227   2.476   3.684   7.593  0.4068  2.8232 -1.1892
 5589SOL     OW28228   3.407   3.354   6.085 -0.3911  1.1250 -0.2605
 5589SOL    HW128229   3.466   3.404   6.142  0.7635  0.1505 -0.6141
 5589SOL    HW228230   3.355   3.426   6.049  0.0505  1.3281 -0.4890
 5590SOL     OW28231   0.801   1.683   7.313  0.0962 -0.0724 -0.8202
 5590SOL    HW128232   0.831   1.596   7.285  1.5904 -0.0457  0.6453
 5590SOL    HW228233   0.707   1.691   7.303 -0.1091  1.0307  2.0695
 5591SOL     OW28234   2.018   3.351  16.729 -0.6848  0.1800  0.3226
 5591SOL    HW128235   2.089   3.333  16.668  0.8340 -0.8566  2.3890
 5591SOL    HW228236   2.065   3.363  16.812  0.7489  2.6056 -0.8312
 5592SOL     OW28237   3.583   3.348  16.424  0.6662  0.5384  0.1397
 5592SOL    HW128238   3.578   3.306  16.510 -0.2285 -0.5182 -0.4315
 5592SOL    HW228239   3.490   3.365  16.407  1.1039  0.2198 -2.4609
 5593SOL     OW28240   0.104   3.778  14.985  1.0187  0.2712 -0.4549
 5593SOL    HW128241   0.119   3.831  14.907 -0.2268  1.6486  0.2252
 5593SOL    HW228242   0.064   3.847  15.040 -0.2697 -0.6457 -0.2331
 5594SOL     OW28243   3.802   0.198  15.730  0.3692 -0.0661  1.0645
 5594SOL    HW128244   3.768   0.162  15.811 -0.3452  0.0427  0.8130
 5594SOL    HW228245   3.720   0.229  15.692  1.3409  2.4266  0.9497
 5595SOL     OW28246   0.107   4.056  11.701 -0.0434  0.8987 -0.1578
 5595SOL    HW128247   0.124   4.013  11.617 -0.0635  0.4025  0.0872
 5595SOL    HW228248   0.179   4.023  11.755 -0.3234  2.2220  1.0191
 5596SOL     OW28249   0.485   3.854   5.899 -0.5717  0.1934 -0.1917
 5596SOL    HW128250   0.529   3.862   5.984 -0.4392 -2.3944 -0.0191
 5596SOL    HW228251   0.553   3.822   5.840 -0.2904 -1.2867  0.9447
 5597SOL     OW28252   3.594   1.185   4.185  0.0080 -0.4428 -0.5581
 5597SOL    HW128253   3.521   1.231   4.224  0.6190 -0.4854  0.6457
 5597SOL    HW228254   3.548   1.173   4.102 -0.2893 -0.0787 -0.4397
 5598SOL     OW28255   4.389   2.461   9.227  0.1724 -0.0574 -0.0465
 5598SOL    HW128256   4.473   2.454   9.182  0.4568 -0.1604  0.5012
 5598SOL    HW228257   4.334   2.451   9.149  2.6870 -0.0104 -1.8255
 5599SOL     OW28258   2.973   2.628   6.731  0.0055 -0.2015 -0.8003
 5599SOL    HW128259   3.027   2.633   6.652 -0.0913  1.3446 -0.7686
 5599SOL    HW228260   2.896   2.677   6.701  1.3536  2.8352  0.7645
 5600SOL     OW28261   0.722   2.338  13.441  0.1050 -0.7446  0.8044
 5600SOL    HW128262   0.810   2.313  13.412  0.2133  1.5325 -0.8369
 5600SOL    HW228263   0.679   2.325  13.357  2.2393 -0.8476 -0.2743
 5601SOL     OW28264   0.881   2.503   9.087  0.1258 -0.6062 -0.2140
 5601SOL    HW128265   0.803   2.461   9.125 -0.4027  0.7112  0.1480
 5601SOL    HW228266   0.857   2.594   9.074 -1.9935 -1.1695 -0.2291
 5602SOL     OW28267   2.758   1.039   9.012 -0.4568  0.0864  0.0903
 5602SOL    HW128268   2.804   0.959   9.038 -0.8120 -0.0811  0.2061
 5602SOL    HW228269   2.769   1.084   9.096 -0.3079 -0.2940  0.2788
 5603SOL     OW28270   4.465   3.330   8.564  0.1212 -0.1615  0.2585
 5603SOL    HW128271   4.423   3.412   8.538  1.1673  0.5289  0.7310
 5603SOL    HW228272   4.513   3.312   8.483 -0.0496 -1.4446  0.4375
 5604SOL     OW28273   0.011   2.698  16.673 -0.3481 -0.0024  0.2743
 5604SOL    HW128274   4.711   2.633  16.739 -1.0372  1.6280  1.6383
 5604SOL    HW228275   0.046   2.763  16.734  2.2054 -2.0504  1.0094
 5605SOL     OW28276   2.946   1.902  13.127 -0.1647  0.6789 -0.0821
 5605SOL    HW128277   2.949   1.990  13.165  0.1755  0.1911  1.0244
 5605SOL    HW228278   2.994   1.921  13.046  0.2291  0.0357 -0.0022
 5606SOL     OW28279   4.171   0.354   9.938  0.5489 -0.1441  0.0633
 5606SOL    HW128280   4.162   0.317  10.025  0.7753 -0.8552 -0.2168
 5606SOL    HW228281   4.217   0.280   9.898 -0.9460 -1.7836  1.3853
 5607SOL     OW28282   3.763   2.188  16.119  0.1072  0.4147  0.2059
 5607SOL    HW128283   3.844   2.142  16.141  0.9116  1.1335 -1.2635
 5607SOL    HW228284   3.794   2.259  16.063  0.6127  0.6410  0.7855
 5608SOL     OW28285   3.053   4.674   6.699  0.5549  0.1075  0.5596
 5608SOL    HW128286   3.145   4.664   6.675  0.8923  2.6763  0.8232
 5608SOL    HW228287   3.023   4.667   6.609  1.0039 -2.5270  0.5937
 5609SOL     OW28288   2.204   1.315   1.155  0.2955  0.3416 -0.1736
 5609SOL    HW128289   2.253   1.239   1.123  0.7334  0.2380  0.7586
 5609SOL    HW228290   2.147   1.331   1.079  0.7749 -0.7081 -0.7532
 5610SOL     OW28291   1.470   0.979   5.999  0.3890 -0.1304 -0.6012
 5610SOL    HW128292   1.543   0.930   5.963 -1.8232 -0.5887 -4.4230
 5610SOL    HW228293   1.405   0.909   6.002 -1.8528  2.0329  1.7277
 5611SOL     OW28294   4.060   0.847   7.887  0.3316  0.5798 -0.0163
 5611SOL    HW128295   4.080   0.844   7.980  0.7692 -0.8379 -0.1589
 5611SOL    HW228296   4.142   0.809   7.857  0.8082  1.5849  0.0461
 5612SOL     OW28297   0.153   2.597   8.279 -0.2468  0.0135 -0.4788
 5612SOL    HW128298   0.132   2.510   8.243 -1.9209  1.1273 -2.1980
 5612SOL    HW228299   0.245   2.607   8.254 -0.1555  1.3467  0.4052
 5613SOL     OW28300   0.632   0.489   6.212  0.3881  0.0480  0.0214
 5613SOL    HW128301   0.631   0.503   6.306  1.6563  0.9477 -0.0954
 5613SOL    HW228302   0.586   0.407   6.194  0.7775  0.1322 -1.4179
 5614SOL     OW28303   4.131   4.115  16.057  0.6940  0.1164 -0.2913
 5614SOL    HW128304   4.145   4.165  15.977  2.0290 -1.6708 -1.1743
 5614SOL    HW228305   4.213   4.127  16.104  0.1423 -0.8575  0.9250
 5615SOL     OW28306   0.514   0.249   6.320 -0.5658 -0.2194  0.3960
 5615SOL    HW128307   0.535   0.160   6.345 -0.8462  0.4544  3.0424
 5615SOL    HW228308   0.517   0.288   6.407  0.0536  1.7043 -0.4645
 5616SOL     OW28309   4.303   2.481   4.984  0.4161 -0.4569 -0.0128
 5616SOL    HW128310   4.243   2.548   5.015  0.1751 -0.8890  0.4467
 5616SOL    HW228311   4.240   2.435   4.929 -0.7485  0.6637  0.4056
 5617SOL     OW28312   2.745   4.380   8.003  0.1960 -0.4873 -0.6812
 5617SOL    HW128313   2.792   4.396   8.085 -0.2821 -0.3568 -0.4386
 5617SOL    HW228314   2.789   4.302   7.967  0.8732 -0.1975 -0.4836
 5618SOL     OW28315   0.927   3.917  12.295  0.0124 -0.8293  0.5964
 5618SOL    HW128316   0.928   3.908  12.391 -1.9123 -0.4544  0.6428
 5618SOL    HW228317   0.910   4.011  12.294 -0.8992 -1.0067 -0.0098
 5619SOL     OW28318   1.899   2.186   8.608 -0.0616  0.4687 -0.0144
 5619SOL    HW128319   1.816   2.143   8.590  0.7217 -0.9377 -0.2564
 5619SOL    HW228320   1.903   2.255   8.541 -0.5590  0.1963 -0.3211
 5620SOL     OW28321   4.311   1.753   6.235 -0.1685 -0.0219  0.1693
 5620SOL    HW128322   4.332   1.786   6.322  0.8624  1.4826 -0.6424
 5620SOL    HW228323   4.259   1.828   6.205 -0.8652 -0.1625  1.0271
 5621SOL     OW28324   2.769   4.192   6.999 -0.4450 -0.5428  0.0097
 5621SOL    HW128325   2.760   4.119   7.060  1.3467 -0.6380  0.1503
 5621SOL    HW228326   2.846   4.238   7.033 -1.0729 -0.2744  1.0682
 5622SOL     OW28327   3.986   3.600   9.802 -0.1297  0.0972  0.2464
 5622SOL    HW128328   3.983   3.510   9.770  1.6516  1.5523 -3.9888
 5622SOL    HW228329   4.037   3.596   9.883 -0.7782  2.4133  0.7607
 5623SOL     OW28330   4.619   4.206   2.381  0.2648  0.3877 -0.1423
 5623SOL    HW128331   4.694   4.246   2.336  0.0156  1.2202  0.1871
 5623SOL    HW228332   4.549   4.271   2.380 -0.8522 -0.8408 -3.4948
 5624SOL     OW28333   0.836   2.933   5.605 -0.2129  0.1056 -0.4400
 5624SOL    HW128334   0.928   2.921   5.580  0.2299  1.2683  0.6045
 5624SOL    HW228335   0.815   2.862   5.665  1.8599  0.6429  0.9250
 5625SOL     OW28336   1.036   3.994  15.370  0.0529 -0.0563  0.5946
 5625SOL    HW128337   0.952   3.964  15.405  1.0927 -1.5957  1.7658
 5625SOL    HW228338   1.011   4.082  15.343  2.2292  0.7189  1.1385
 5626SOL     OW28339   1.910   0.150   6.410  0.4974 -0.1962 -0.6469
 5626SOL    HW128340   1.971   0.147   6.336 -0.0361  0.9964 -1.1399
 5626SOL    HW228341   1.848   0.218   6.384 -0.0875 -0.5142 -0.0682
 5627SOL     OW28342   1.882   3.446   5.343  0.0813 -0.2839  0.2711
 5627SOL    HW128343   1.950   3.386   5.313  0.5698  0.7685 -0.7119
 5627SOL    HW228344   1.905   3.532   5.309 -1.4349 -1.2981 -3.3248
 5628SOL     OW28345   3.552   1.757   8.655 -0.2899 -0.3945  0.0343
 5628SOL    HW128346   3.606   1.740   8.578  0.0428  0.3471  0.1014
 5628SOL    HW228347   3.494   1.681   8.658 -2.0643  0.9964  0.9303
 5629SOL     OW28348   4.073   2.024   7.703 -0.2517 -0.0888  0.1125
 5629SOL    HW128349   4.155   2.072   7.712 -0.0447 -0.1919 -1.1817
 5629SOL    HW228350   4.026   2.101   7.674  1.8107  1.0404 -0.2234
 5630SOL     OW28351   0.708   4.270   8.807 -0.1684  0.4564  0.4980
 5630SOL    HW128352   0.613   4.266   8.795 -0.2212  0.6258  0.8678
 5630SOL    HW228353   0.721   4.360   8.779  0.4469  0.5649  1.1334
 5631SOL     OW28354   0.472   2.973   5.130  0.1735 -0.4680 -0.5151
 5631SOL    HW128355   0.567   2.960   5.130  0.1888 -0.3396  0.5997
 5631SOL    HW228356   0.464   3.066   5.109  0.6152  0.2495  2.4378
 5632SOL     OW28357   3.803   0.250   1.138 -0.1355 -0.1337 -0.4573
 5632SOL    HW128358   3.828   0.248   1.045 -3.5369  1.3121 -1.3776
 5632SOL    HW228359   3.883   0.274   1.185  0.4269 -2.0579 -0.4152
 5633SOL     OW28360   2.174   4.259  16.045 -0.2084  0.7976 -0.1631
 5633SOL    HW128361   2.125   4.188  16.005 -0.3546  2.1453 -2.3845
 5633SOL    HW228362   2.209   4.314  15.975  0.0351  0.9394  0.0683
 5634SOL     OW28363   0.550   4.605  15.731  0.1775 -0.7727 -0.5995
 5634SOL    HW128364   0.552   4.580  15.639  0.5246 -2.0042 -0.2649
 5634SOL    HW228365   0.643   4.616  15.749 -0.5156  0.4258  2.3565
 5635SOL     OW28366   2.757   0.072   3.258 -0.2187  0.3810 -0.1536
 5635SOL    HW128367   2.787   0.163   3.267  0.1783 -0.0529  2.7853
 5635SOL    HW228368   2.837   0.019   3.254 -1.1100 -0.9342 -0.5577
 5636SOL     OW28369   1.072   3.593   9.255 -0.0270 -0.9542  0.2196
 5636SOL    HW128370   0.983   3.581   9.288  0.3133  0.3935  1.6252
 5636SOL    HW228371   1.116   3.607   9.339 -0.2041  0.7894  0.0130
 5637SOL     OW28372   1.024   2.103   6.271  0.3639 -0.5107  0.2831
 5637SOL    HW128373   0.972   2.129   6.347 -2.3744  0.0874 -1.8056
 5637SOL    HW228374   0.968   2.048   6.216  0.1674  0.5379 -0.5566
 5638SOL     OW28375   2.539   4.469   6.472 -0.2179 -0.6070 -0.2062
 5638SOL    HW128376   2.576   4.479   6.560 -0.7349 -1.7916  0.1361
 5638SOL    HW228377   2.446   4.488   6.476  0.0610  0.9514 -1.1185
 5639SOL     OW28378   3.785   3.077   8.728  0.5398 -0.4054  0.3607
 5639SOL    HW128379   3.722   3.051   8.661  0.9812 -3.1415  1.0402
 5639SOL    HW228380   3.781   3.172   8.717 -0.0610 -0.1468  2.7631
 5640SOL     OW28381   2.634   2.834   5.771  0.3230 -0.2109  0.6066
 5640SOL    HW128382   2.605   2.809   5.683  1.5849  2.0532 -0.4647
 5640SOL    HW228383   2.574   2.778   5.820  1.1090 -1.8345 -0.3087
 5641SOL     OW28384   1.609   3.206  11.931  0.3999  0.0513  0.5485
 5641SOL    HW128385   1.559   3.236  12.007 -0.6573 -0.4248  0.0455
 5641SOL    HW228386   1.657   3.135  11.974  0.2350 -1.3180 -1.5337
 5642SOL     OW28387   1.597   2.823   8.259  0.4126  0.2963  0.2370
 5642SOL    HW128388   1.610   2.765   8.334 -1.7591  1.8206  1.8085
 5642SOL    HW228389   1.535   2.773   8.206 -2.3509 -0.0156  3.7401
 5643SOL     OW28390   0.227   0.119   3.756  0.0792 -0.1284 -0.0610
 5643SOL    HW128391   0.175   0.177   3.699  1.4091 -0.2217 -1.3711
 5643SOL    HW228392   0.186   0.143   3.839  2.8841  2.7496  0.4890
 5644SOL     OW28393   0.032   0.446   3.146 -0.3723  0.0008  0.3891
 5644SOL    HW128394   0.122   0.461   3.174 -0.0996 -1.2009  0.1346
 5644SOL    HW228395   0.004   0.538   3.143 -1.6330 -0.3467  1.3262
 5645SOL     OW28396   4.134   3.574  10.039 -0.7576 -0.3853 -0.4087
 5645SOL    HW128397   4.083   3.563  10.119  2.6994 -0.7959  1.7118
 5645SOL    HW228398   4.203   3.510  10.054 -0.3285 -0.1625 -1.4083
 5646SOL     OW28399   0.594   3.495   6.077 -0.5363  0.0866  0.3668
 5646SOL    HW128400   0.622   3.407   6.103 -0.7410 -0.2844 -0.6818
 5646SOL    HW228401   0.603   3.543   6.159 -2.4167 -0.3827  0.8527
 5647SOL     OW28402   1.757   2.634   8.694  0.0491 -0.4488 -0.6430
 5647SOL    HW128403   1.779   2.544   8.716 -0.1508 -0.0206  1.2875
 5647SOL    HW228404   1.811   2.682   8.757 -0.1820  0.1044 -0.8611
 5648SOL     OW28405   3.948   0.340  15.394  0.8425 -0.6603  0.8554
 5648SOL    HW128406   3.984   0.426  15.414  1.2104 -0.7694  0.6692
 5648SOL    HW228407   3.990   0.285  15.460  0.8649 -0.1664  1.2504
 5649SOL     OW28408   2.345   3.242   0.369  0.4269 -0.4507  0.0352
 5649SOL    HW128409   2.422   3.187   0.387  1.0276  0.6773  0.9264
 5649SOL    HW228410   2.312   3.212   0.284  0.4066 -1.1744  0.3033
 5650SOL     OW28411   0.420   0.339   6.047 -0.0044 -0.3197 -0.1408
 5650SOL    HW128412   0.484   0.289   5.996  0.9020 -0.5014  1.1835
 5650SOL    HW228413   0.450   0.300   6.129  0.7591 -0.2401 -0.3815
 5651SOL     OW28414   2.583   4.551   6.899 -0.0515  0.2600 -0.9209
 5651SOL    HW128415   2.531   4.631   6.910 -0.3895 -0.0386 -0.3425
 5651SOL    HW228416   2.616   4.528   6.986  1.3361 -1.3093 -1.8834
 5652SOL     OW28417   3.045   3.294   1.788  0.2976 -0.2247 -0.3699
 5652SOL    HW128418   2.953   3.313   1.768 -0.3351 -2.3837  0.4711
 5652SOL    HW228419   3.029   3.206   1.756  0.9042 -1.2392  2.1390
 5653SOL     OW28420   3.001   0.780   9.373 -0.0250  0.2686 -0.0357
 5653SOL    HW128421   3.072   0.758   9.313 -0.0648  1.3888 -0.4808
 5653SOL    HW228422   2.997   0.874   9.360 -0.3703  0.2677  0.0694
 5654SOL     OW28423   3.619   0.454   7.656  0.0905  0.2011  0.1684
 5654SOL    HW128424   3.619   0.430   7.749 -0.2307  0.4639  0.2333
 5654SOL    HW228425   3.683   0.395   7.616  0.8466  1.1287  0.0077
 5655SOL     OW28426   4.163   4.328   0.650  0.7973  0.8918 -0.3597
 5655SOL    HW128427   4.098   4.260   0.671  0.7754  0.2654 -2.4915
 5655SOL    HW228428   4.158   4.327   0.555 -0.6333 -0.8774 -0.2679
 5656SOL     OW28429   3.155   4.195   3.507  0.3729  0.8146 -0.0227
 5656SOL    HW128430   3.150   4.136   3.582 -0.1660  0.3971 -0.3871
 5656SOL    HW228431   3.106   4.146   3.441  0.8754  0.6619 -0.2872
 5657SOL     OW28432   3.961   0.243   2.789 -0.1776  0.1836  0.2727
 5657SOL    HW128433   3.943   0.332   2.761 -0.3629 -0.2286 -0.9337
 5657SOL    HW228434   3.972   0.263   2.882 -2.4630 -0.8743  0.7901
 5658SOL     OW28435   0.103   1.904   2.614  0.3489  0.3230 -0.5070
 5658SOL    HW128436   0.033   1.858   2.567 -0.8035  1.1859  0.3728
 5658SOL    HW228437   0.111   1.985   2.564  0.4606  1.4876  1.3856
 5659SOL     OW28438   0.728   2.580   8.573 -0.0813 -0.4631 -0.0966
 5659SOL    HW128439   0.763   2.616   8.655 -3.6707 -0.2568  1.3539
 5659SOL    HW228440   0.739   2.485   8.581  2.3347 -0.2175 -0.6437
 5660SOL     OW28441   1.045   0.953   9.265 -0.5003  0.1706 -0.3579
 5660SOL    HW128442   1.087   0.886   9.211  2.2151  0.2883  1.6482
 5660SOL    HW228443   1.040   0.903   9.346 -2.9472 -3.1505 -2.5719
 5661SOL     OW28444   1.846   4.480   5.358  0.0911  0.1963 -0.2989
 5661SOL    HW128445   1.903   4.485   5.281 -1.7856 -0.7065 -1.7390
 5661SOL    HW228446   1.914   4.470   5.425  0.3230  0.6434 -0.4656
 5662SOL     OW28447   2.716   3.558   4.314  0.2638 -0.3277  0.2558
 5662SOL    HW128448   2.806   3.538   4.290  0.2622  0.1704 -0.1585
 5662SOL    HW228449   2.724   3.572   4.408  2.5840 -0.8050  0.1252
 5663SOL     OW28450   3.717   1.116   2.370  0.0462 -0.5197  0.7699
 5663SOL    HW128451   3.672   1.119   2.455 -0.9758 -1.5664  0.2752
 5663SOL    HW228452   3.704   1.028   2.334 -0.7410  0.6944 -1.9324
 5664SOL     OW28453   0.649   0.573   0.358  0.6182 -0.0473  0.6131
 5664SOL    HW128454   0.708   0.649   0.357  1.4819 -0.7302 -0.1367
 5664SOL    HW228455   0.569   0.613   0.393  0.9377  1.9162 -0.8903
 5665SOL     OW28456   4.037   4.388  17.278  0.0541  0.4982 -0.0254
 5665SOL    HW128457   4.085   4.345  17.207 -2.0044 -0.4362 -0.8511
 5665SOL    HW228458   3.953   4.344  17.290  0.7711 -1.0682 -0.8384
 5666SOL     OW28459   2.400   2.986  12.422  0.0117 -0.2960 -0.8002
 5666SOL    HW128460   2.305   2.995  12.411 -0.1936 -0.0232  1.1554
 5666SOL    HW228461   2.438   3.069  12.396 -0.9612 -0.2836 -2.1580
 5667SOL     OW28462   3.101   4.032   2.277  0.0586 -0.4316 -0.0956
 5667SOL    HW128463   3.017   4.002   2.311  0.3992 -0.1842  0.9498
 5667SOL    HW228464   3.115   4.113   2.326 -1.3876 -1.3884  1.8817
 5668SOL     OW28465   2.324   0.572   5.498  0.6674 -0.0157 -0.3477
 5668SOL    HW128466   2.394   0.533   5.550 -0.0369  0.7094  1.1382
 5668SOL    HW228467   2.246   0.567   5.553 -0.2965 -1.0512 -1.8047
 5669SOL     OW28468   1.752   3.553   7.628 -0.0702  0.2865  0.0738
 5669SOL    HW128469   1.819   3.520   7.568 -0.1437  0.3719 -0.0564
 5669SOL    HW228470   1.777   3.508   7.709  2.2648  2.2142  0.4266
 5670SOL     OW28471   3.866   0.781  12.481 -0.1123  0.0822 -0.4312
 5670SOL    HW128472   3.892   0.847  12.418 -1.4044 -1.0561 -2.1537
 5670SOL    HW228473   3.812   0.720  12.430 -0.2205  1.8811 -2.4459
 5671SOL     OW28474   2.337   2.748   4.485  0.5141 -0.3470  0.2458
 5671SOL    HW128475   2.249   2.723   4.459 -0.6826  0.9160  3.1613
 5671SOL    HW228476   2.325   2.811   4.556 -2.6166 -0.8772  0.1922
 5672SOL     OW28477   4.649   2.836   3.462  0.4764  0.2556  0.2400
 5672SOL    HW128478   0.021   2.844   3.462  0.4622  0.4021  0.6401
 5672SOL    HW228479   4.618   2.892   3.533  0.6944 -0.7082  1.0956
 5673SOL     OW28480   4.321   0.451   0.921  0.8067 -0.1750 -0.3358
 5673SOL    HW128481   4.328   0.456   1.016 -1.4829 -0.7043 -0.1470
 5673SOL    HW228482   4.260   0.523   0.905 -0.1691 -0.8882  0.1588
 5674SOL     OW28483   3.766   3.373   8.815 -0.3715  0.1112  0.1890
 5674SOL    HW128484   3.801   3.385   8.903 -1.2022  1.9891  0.2670
 5674SOL    HW228485   3.715   3.452   8.795 -0.4983  0.2240  0.9592
 5675SOL     OW28486   3.570   1.709   7.613 -0.5860 -0.3727 -0.4158
 5675SOL    HW128487   3.664   1.727   7.613 -0.4871 -0.9306  0.8252
 5675SOL    HW228488   3.552   1.667   7.697  2.2891 -2.4869 -0.8774
 5676SOL     OW28489   0.183   1.466   4.290  0.5092  0.3426  0.2195
 5676SOL    HW128490   0.199   1.461   4.196  0.7865 -2.3819  0.4151
 5676SOL    HW228491   0.103   1.518   4.302  0.8825  0.4778  2.1147
 5677SOL     OW28492   0.304   2.998   8.355 -0.1049 -0.3620  0.5679
 5677SOL    HW128493   0.280   3.090   8.344  0.9809 -0.4913 -2.6581
 5677SOL    HW228494   0.290   2.956   8.270 -0.5370 -0.0672  0.4911
 5678SOL     OW28495   1.031   3.641   7.640 -0.6865  0.0434  0.1132
 5678SOL    HW128496   1.124   3.618   7.649 -0.6548 -0.0812 -0.5305
 5678SOL    HW228497   1.009   3.608   7.552  0.4380 -2.3652  0.7157
 5679SOL     OW28498   3.678   1.832   3.239  0.3539  0.1373  0.5472
 5679SOL    HW128499   3.681   1.770   3.311 -2.2365  1.6852  1.9896
 5679SOL    HW228500   3.586   1.830   3.215  0.1862  0.7576  1.1516
 5680SOL     OW28501   3.951   3.362   4.665  0.2468 -0.4004  0.5030
 5680SOL    HW128502   3.908   3.352   4.750 -0.0830 -0.2800  0.3508
 5680SOL    HW228503   3.959   3.271   4.636  1.0905 -0.2879  0.3702
 5681SOL     OW28504   0.942   0.469  11.427  0.5599  0.9712 -0.2999
 5681SOL    HW128505   1.016   0.490  11.484  0.3243 -2.8262  1.4134
 5681SOL    HW228506   0.959   0.531  11.357  1.5391 -0.0469 -0.9699
 5682SOL     OW28507   3.097   2.929   2.210 -0.2190  0.2835 -0.4276
 5682SOL    HW128508   3.176   2.922   2.157  0.0641 -1.4941  0.1967
 5682SOL    HW228509   3.046   2.849   2.193 -0.3784  0.3045 -0.0541
 5683SOL     OW28510   3.604   0.861   3.938 -0.1916 -0.5517 -0.0768
 5683SOL    HW128511   3.589   0.940   3.991  0.4835  0.3434 -1.2267
 5683SOL    HW228512   3.579   0.795   4.002  0.3157  1.4902  2.2291
 5684SOL     OW28513   3.848   0.047   2.648 -0.2129  0.1821  0.0007
 5684SOL    HW128514   3.881   0.108   2.714 -1.8834  1.4817 -0.3642
 5684SOL    HW228515   3.752   0.040   2.654 -0.2180 -0.1130 -0.4304
 5685SOL     OW28516   3.356   2.338   5.723 -0.0411 -0.0224 -0.2010
 5685SOL    HW128517   3.418   2.357   5.653 -1.6790 -0.4365 -1.7839
 5685SOL    HW228518   3.295   2.407   5.695 -0.4929 -0.1002  0.5868
 5686SOL     OW28519   3.998   2.868   2.183  0.0733 -0.0757  0.1414
 5686SOL    HW128520   3.920   2.912   2.216  0.2544  0.9340 -0.7756
 5686SOL    HW228521   3.958   2.803   2.126 -1.3968  1.3052 -0.4110
 5687SOL     OW28522   0.198   0.171   7.585 -0.6328 -1.1147 -0.2311
 5687SOL    HW128523   0.264   0.235   7.611 -1.7488 -0.4747  1.0180
 5687SOL    HW228524   0.235   0.118   7.514  1.1564 -0.7402  0.4349
 5688SOL     OW28525   3.209   1.077   1.241 -0.0213 -0.4798 -0.7417
 5688SOL    HW128526   3.274   1.140   1.272 -1.0016 -1.2268  2.8312
 5688SOL    HW228527   3.248   0.990   1.239  0.8527 -0.1554  2.0049
 5689SOL     OW28528   0.952   1.818  11.918  0.2839 -0.2207 -0.2776
 5689SOL    HW128529   1.025   1.873  11.892 -0.5832  0.8917 -0.3706
 5689SOL    HW228530   0.941   1.855  12.005  1.2007 -0.6448  0.0086
 5690SOL     OW28531   3.566   0.086   2.751 -0.6498 -0.2001 -0.0911
 5690SOL    HW128532   3.509   0.024   2.706 -0.2682 -0.5890 -0.0415
 5690SOL    HW228533   3.530   0.168   2.716  0.9212  1.0947  1.3681
 5691SOL     OW28534   0.816   3.231   3.215 -0.0972 -0.0334  0.3050
 5691SOL    HW128535   0.864   3.157   3.179 -1.1617 -0.4236 -0.2933
 5691SOL    HW228536   0.881   3.294   3.246 -2.0856  2.0456  0.2517
 5692SOL     OW28537   3.766   2.183   6.820 -0.0772 -0.2476 -0.4577
 5692SOL    HW128538   3.822   2.161   6.895  0.2538  3.9582  0.5473
 5692SOL    HW228539   3.825   2.175   6.745 -1.6774  0.9930 -1.8441
 5693SOL     OW28540   4.594   0.610  15.053  0.1912  0.1914  0.2386
 5693SOL    HW128541   4.606   0.574  15.141  0.6882 -1.5551 -0.5486
 5693SOL    HW228542   4.683   0.635  15.030  0.4512 -2.3337 -1.4978
 5694SOL     OW28543   1.513   1.956   4.354  0.0370 -0.2256  0.0307
 5694SOL    HW128544   1.588   1.912   4.315  0.5265  1.7482 -1.2607
 5694SOL    HW228545   1.534   2.045   4.324  0.2873  0.5811  2.5771
 5695SOL     OW28546   3.141   0.720  14.068  0.1595  0.0251  0.9299
 5695SOL    HW128547   3.226   0.711  14.111  0.5082  1.4664  0.5322
 5695SOL    HW228548   3.153   0.795  14.010  3.6909 -0.3715  1.1665
 5696SOL     OW28549   3.189   2.890   4.608 -0.0163 -1.1317 -0.5376
 5696SOL    HW128550   3.139   2.906   4.689  1.7275 -1.7373  0.6539
 5696SOL    HW228551   3.262   2.950   4.618 -0.7592 -0.2924 -0.2008
 5697SOL     OW28552   1.633   0.541  10.881  0.4603 -0.5626 -0.2878
 5697SOL    HW128553   1.591   0.510  10.801 -1.3854 -0.1832  0.5343
 5697SOL    HW228554   1.566   0.571  10.942  0.1307 -1.0727 -0.4074
 5698SOL     OW28555   1.115   3.937   1.132  0.0010  0.1183 -0.2077
 5698SOL    HW128556   1.047   3.989   1.175 -0.4511 -0.1325 -0.6085
 5698SOL    HW228557   1.194   3.989   1.144  1.9551 -2.5810 -1.2578
 5699SOL     OW28558   2.661   1.967   5.534  0.0208 -0.6167  0.3257
 5699SOL    HW128559   2.631   1.877   5.545 -0.3552 -0.5609 -0.2413
 5699SOL    HW228560   2.673   1.973   5.439  0.3943  2.6473  0.5599
 5700SOL     OW28561   4.228   0.466   7.707 -0.0934 -0.4931 -0.2312
 5700SOL    HW128562   4.147   0.510   7.736  0.0312 -1.0738  0.9851
 5700SOL    HW228563   4.282   0.483   7.784 -0.2114 -1.8055  0.1355
 5701SOL     OW28564   1.850   1.612   5.862 -0.4480  0.3494  0.6092
 5701SOL    HW128565   1.922   1.658   5.820  0.7051 -1.0506  1.0783
 5701SOL    HW228566   1.813   1.676   5.923  0.5980 -0.2485  1.8666
 5702SOL     OW28567   3.265   3.973   2.561 -0.2999  0.1421  0.3776
 5702SOL    HW128568   3.215   4.048   2.529 -0.9180 -0.2745  0.3601
 5702SOL    HW228569   3.251   3.908   2.492 -0.7620 -0.0782  0.6813
 5703SOL     OW28570   2.993   1.994   2.340 -0.5330  0.2135 -0.3331
 5703SOL    HW128571   3.021   2.013   2.250 -1.8149  1.5005 -0.4575
 5703SOL    HW228572   3.066   2.039   2.384  1.4383 -3.5934  0.3220
 5704SOL     OW28573   4.635   0.155  11.305  0.9522 -0.0077 -0.0928
 5704SOL    HW128574   4.580   0.231  11.294  1.3977  0.1783 -1.0355
 5704SOL    HW228575   0.005   0.176  11.289  1.2635  1.3462  3.4944
 5705SOL     OW28576   3.461   0.293   3.809 -0.4707 -0.1324  0.1236
 5705SOL    HW128577   3.461   0.199   3.830 -0.2834  0.0537  0.9579
 5705SOL    HW228578   3.489   0.282   3.718 -1.8038 -1.8418 -0.0904
 5706SOL     OW28579   4.585   3.713   2.806 -0.1700  0.0331 -0.2441
 5706SOL    HW128580   4.621   3.689   2.721 -1.1935 -0.2338 -0.6027
 5706SOL    HW228581   4.517   3.646   2.814  0.0011 -0.0278  0.6863
 5707SOL     OW28582   4.489   4.129  11.817 -0.0683 -0.9824  0.7976
 5707SOL    HW128583   4.476   4.224  11.814  3.0836 -0.6293 -1.8681
 5707SOL    HW228584   4.400   4.095  11.825 -0.2707 -0.6084  0.1847
 5708SOL     OW28585   2.921   2.986  11.904 -0.6209 -0.6610 -0.9006
 5708SOL    HW128586   2.968   2.968  11.822  1.1010  3.2645 -0.7983
 5708SOL    HW228587   2.868   2.908  11.920  1.1984 -1.6808  0.1097
 5709SOL     OW28588   4.510   0.574   4.073  0.2912 -0.0696  0.3151
 5709SOL    HW128589   4.509   0.666   4.049  0.7872 -0.1198  0.1080
 5709SOL    HW228590   4.573   0.532   4.015  1.0817  0.5509  0.7311
 5710SOL     OW28591   3.814   3.085  11.713 -0.0117 -0.3022 -0.0760
 5710SOL    HW128592   3.850   3.159  11.664 -0.9548 -1.0934 -1.9595
 5710SOL    HW228593   3.724   3.117  11.718 -0.0072 -0.1025 -1.3610
 5711SOL     OW28594   2.370   1.744   2.471  0.2627 -0.0760  0.4610
 5711SOL    HW128595   2.414   1.827   2.491  1.0596 -0.3995  0.0492
 5711SOL    HW228596   2.339   1.711   2.555 -0.4791 -1.7284 -0.4521
 5712SOL     OW28597   4.233   0.890   5.096  0.0253 -0.4120  0.1679
 5712SOL    HW128598   4.252   0.978   5.129  2.3103 -1.3363  1.3059
 5712SOL    HW228599   4.148   0.887   5.141  0.3645 -0.8842  0.7748
 5713SOL     OW28600   3.584   0.879  12.464  0.0295  0.0393 -0.5422
 5713SOL    HW128601   3.527   0.803  12.472 -2.0381  1.6436 -0.0429
 5713SOL    HW228602   3.537   0.944  12.516 -1.5246 -2.0016  0.6077
 5714SOL     OW28603   1.969   1.161   7.294 -0.2066  0.0812  0.3283
 5714SOL    HW128604   1.992   1.253   7.284  0.1983 -0.2221 -1.6330
 5714SOL    HW228605   1.886   1.160   7.247 -0.6095  3.3572  0.9780
 5715SOL     OW28606   2.283   0.383   3.004 -0.6302 -0.7872  0.7731
 5715SOL    HW128607   2.341   0.328   3.057  0.4798  1.0537  1.4772
 5715SOL    HW228608   2.308   0.347   2.918  0.0672  0.2141  0.5638
 5716SOL     OW28609   2.154   1.873  11.344 -0.2944 -0.2516 -0.3890
 5716SOL    HW128610   2.208   1.857  11.421 -3.1785 -3.4828  0.9514
 5716SOL    HW228611   2.092   1.940  11.373 -0.1754  0.5224 -1.9141
 5717SOL     OW28612   1.851   1.123  12.931 -0.0079 -0.1668 -0.0878
 5717SOL    HW128613   1.758   1.116  12.908 -0.2183  3.3268 -0.1730
 5717SOL    HW228614   1.899   1.131  12.849  1.9508  0.0963  1.1010
 5718SOL     OW28615   1.740   1.427   7.072  0.5716 -0.0291  0.5570
 5718SOL    HW128616   1.763   1.520   7.065 -1.1182  0.3593  0.2415
 5718SOL    HW228617   1.648   1.445   7.052  0.6514 -0.1459  0.0760
 5719SOL     OW28618   2.100   0.412  14.667 -0.0455  0.4520  0.3067
 5719SOL    HW128619   2.010   0.398  14.638  0.6144  0.4060 -1.7745
 5719SOL    HW228620   2.151   0.341  14.629 -0.0205  1.0996 -0.8776
 5720SOL     OW28621   0.784   2.428   7.396 -0.2893 -0.0864  0.6122
 5720SOL    HW128622   0.827   2.405   7.479 -2.2945 -2.1087  1.0869
 5720SOL    HW228623   0.834   2.508   7.381  1.2104 -0.9766  0.9124
 5721SOL     OW28624   4.202   0.933   7.177  0.1051 -0.5068 -0.2638
 5721SOL    HW128625   4.271   0.920   7.242 -0.3768 -0.5277  0.2372
 5721SOL    HW228626   4.147   0.859   7.202  0.2844 -0.6713 -0.3539
 5722SOL     OW28627   1.822   2.063   0.900  0.2890 -0.2173  0.5214
 5722SOL    HW128628   1.739   2.041   0.859  0.6522  2.5061 -1.6845
 5722SOL    HW228629   1.845   2.139   0.846  0.5872  0.7524  2.0228
 5723SOL     OW28630   3.576   2.125   8.763 -0.1407 -0.2304 -0.2084
 5723SOL    HW128631   3.577   2.138   8.668 -1.6118  3.0579  0.2440
 5723SOL    HW228632   3.490   2.160   8.785 -0.5558 -2.2284  1.3877
 5724SOL     OW28633   3.631   2.700   6.595  0.3089  0.1338 -0.0085
 5724SOL    HW128634   3.685   2.773   6.566  0.1890  1.5144  3.2735
 5724SOL    HW228635   3.538   2.725   6.595  0.5773  1.0984 -1.5447
 5725SOL     OW28636   1.982   2.546   6.031  0.2223  0.1036  0.0522
 5725SOL    HW128637   2.015   2.478   5.972  2.2087  1.0153  0.0932
 5725SOL    HW228638   1.890   2.527   6.011  0.0614 -0.3011  1.1965
 5726SOL     OW28639   1.952   2.524   5.099  0.0863  0.9494 -0.0251
 5726SOL    HW128640   2.041   2.554   5.120  0.2304  0.5462 -0.0726
 5726SOL    HW228641   1.925   2.481   5.180  0.5919 -1.5561 -1.1876
 5727SOL     OW28642   4.521   0.992   1.793  0.4317 -0.2663 -0.1383
 5727SOL    HW128643   4.443   0.944   1.767 -0.3756  1.3350 -0.6442
 5727SOL    HW228644   4.587   0.922   1.803 -1.3785 -1.9437  0.0994
 5728SOL     OW28645   3.559   0.802   5.790 -0.4437  0.1804 -0.4475
 5728SOL    HW128646   3.584   0.839   5.875  0.5896  0.1539 -0.7317
 5728SOL    HW228647   3.608   0.852   5.724 -0.5328  1.5861  0.5445
 5729SOL     OW28648   2.949   3.569   2.957  0.0713  0.4275 -0.3981
 5729SOL    HW128649   2.931   3.565   2.863  1.7049 -1.5573 -0.6143
 5729SOL    HW228650   3.041   3.547   2.970 -0.2343 -1.4626 -1.4822
 5730SOL     OW28651   4.286   3.188  16.025  0.0401  0.0355 -0.5353
 5730SOL    HW128652   4.255   3.131  16.096  1.1643 -0.0883 -0.1443
 5730SOL    HW228653   4.246   3.273  16.042  0.4089 -0.2636  1.9433
 5731SOL     OW28654   3.994   2.214   6.259 -0.1178 -0.2746 -0.0376
 5731SOL    HW128655   4.085   2.193   6.236 -0.1799 -0.4732 -0.1021
 5731SOL    HW228656   4.008   2.304   6.288 -0.0577 -0.8557  1.7519
 5732SOL     OW28657   0.927   3.278   7.909 -0.7722 -0.1573 -0.3400
 5732SOL    HW128658   0.947   3.332   7.832  4.0163 -1.2887  0.1158
 5732SOL    HW228659   0.926   3.351   7.971  1.6534 -0.7239  0.3747
 5733SOL     OW28660   0.407   3.210   5.794 -0.2777 -0.0547  0.1342
 5733SOL    HW128661   0.347   3.150   5.838 -1.1917  2.2102  2.0124
 5733SOL    HW228662   0.364   3.239   5.713  0.1652  0.6640  0.1510
 5734SOL     OW28663   4.702   3.139   1.534  0.3009  0.1758 -0.3851
 5734SOL    HW128664   0.026   3.222   1.533 -0.4239  0.5830 -0.9516
 5734SOL    HW228665   4.617   3.155   1.575  0.0539  0.5046 -1.0166
 5735SOL     OW28666   0.856   3.515   4.290  0.1438 -0.1697  0.4651
 5735SOL    HW128667   0.941   3.493   4.329 -0.6296 -0.3151  2.0865
 5735SOL    HW228668   0.798   3.454   4.336 -0.8510  0.5134  0.1172
 5736SOL     OW28669   3.253   4.298   1.738  0.4777 -0.1602  0.1717
 5736SOL    HW128670   3.167   4.263   1.717  1.1854 -0.0995 -2.7964
 5736SOL    HW228671   3.253   4.287   1.833  1.8605  0.4566  0.2393
 5737SOL     OW28672   1.261   4.465   3.981 -0.3402  0.3571 -0.4515
 5737SOL    HW128673   1.298   4.404   4.044 -2.5888  0.1738  0.6520
 5737SOL    HW228674   1.173   4.429   3.968 -0.2829 -0.2504  0.8769
 5738SOL     OW28675   1.351   2.834   3.178  0.5993  0.0545 -0.3786
 5738SOL    HW128676   1.400   2.882   3.244 -1.2133 -0.0070  0.9871
 5738SOL    HW228677   1.421   2.836   3.113  0.2107  0.6028 -0.7789
 5739SOL     OW28678   3.206   2.391  12.833 -0.3678 -0.2526  0.4844
 5739SOL    HW128679   3.252   2.424  12.756  3.2436 -3.2183  1.4047
 5739SOL    HW228680   3.131   2.341  12.801  0.0689  1.3614 -3.0738
 5740SOL     OW28681   3.610   3.975   4.831  0.0476  0.2511 -0.2272
 5740SOL    HW128682   3.682   3.949   4.774  0.6510 -0.5096  0.8712
 5740SOL    HW228683   3.652   4.041   4.886  1.9233 -2.1053  1.1467
 5741SOL     OW28684   3.131   3.167   2.676  0.4012 -0.3956  0.0619
 5741SOL    HW128685   3.214   3.149   2.719  0.9867  0.7378 -0.5892
 5741SOL    HW228686   3.142   3.115   2.596 -0.9107  2.5169 -2.0228
 5742SOL     OW28687   4.694   3.071   8.536 -0.1070  0.2262  0.0140
 5742SOL    HW128688   4.708   2.983   8.501 -2.0403  0.6332 -1.7537
 5742SOL    HW228689   4.652   3.114   8.462  1.5454 -0.4741 -1.3352
 5743SOL     OW28690   1.429   0.612  13.589 -0.2522 -0.1880 -0.0586
 5743SOL    HW128691   1.502   0.588  13.646  1.4637 -0.4857 -2.4302
 5743SOL    HW228692   1.365   0.552  13.629 -1.2101  0.9979  0.2117
 5744SOL     OW28693   4.573   4.503   1.230 -0.3212  0.6433 -0.5155
 5744SOL    HW128694   4.496   4.531   1.279  0.7200  2.3300  0.1671
 5744SOL    HW228695   4.532   4.439   1.172 -0.3682  0.9290 -0.8025
 5745SOL     OW28696   1.307   0.599   7.816  0.1305  0.1877  0.0344
 5745SOL    HW128697   1.242   0.528   7.813 -0.4646  0.7605 -0.7631
 5745SOL    HW228698   1.377   0.559   7.765 -2.0439 -2.4009 -0.9791
 5746SOL     OW28699   4.518   3.479   4.035 -0.1137  0.9392  0.1999
 5746SOL    HW128700   4.578   3.483   3.961  0.4836 -1.2810  0.5868
 5746SOL    HW228701   4.577   3.471   4.110  0.9264  1.0677 -0.6068
 5747SOL     OW28702   3.998   3.550   8.041 -0.3780  0.5062  0.2764
 5747SOL    HW128703   4.088   3.569   8.014  0.1193 -0.5500  1.1864
 5747SOL    HW228704   4.013   3.495   8.118 -0.7902 -1.0334 -0.7388
 5748SOL     OW28705   0.869   1.311   7.798  0.5118 -0.2152  0.2925
 5748SOL    HW128706   0.809   1.378   7.831  1.1134  0.9057 -0.8713
 5748SOL    HW228707   0.928   1.295   7.872  1.7781 -1.4918 -0.9843
 5749SOL     OW28708   3.955   2.980   5.233  0.0545 -0.7592  0.4558
 5749SOL    HW128709   3.932   3.059   5.283 -0.5165 -0.6085 -0.0520
 5749SOL    HW228710   4.046   3.004   5.216 -0.5239  0.7120 -0.5548
 5750SOL     OW28711   1.233   3.303   3.257  0.4057  0.1775 -0.1254
 5750SOL    HW128712   1.215   3.305   3.163 -1.7203 -0.5191  0.2791
 5750SOL    HW228713   1.306   3.363   3.274  0.6611  0.1016 -0.9795
 5751SOL     OW28714   1.530   1.134  12.625 -0.1824  0.2245  0.3081
 5751SOL    HW128715   1.534   1.102  12.715 -0.2957  2.0209  0.9606
 5751SOL    HW228716   1.608   1.093  12.587 -0.2417 -0.8613  1.3739
 5752SOL     OW28717   4.087   3.742   5.635 -0.2916 -0.3446  0.0346
 5752SOL    HW128718   4.164   3.798   5.627 -1.8110  1.8624  0.6304
 5752SOL    HW228719   4.034   3.800   5.581 -1.6815 -2.6659 -1.0959
 5753SOL     OW28720   2.964   0.830   7.957 -0.5133 -0.0954  0.2222
 5753SOL    HW128721   2.908   0.878   7.895 -1.0413  1.5741  2.0097
 5753SOL    HW228722   2.990   0.897   8.019 -0.8555  0.4995 -0.2721
 5754SOL     OW28723   1.244   1.163   9.451  0.2606  0.3487 -0.5089
 5754SOL    HW128724   1.296   1.136   9.527  0.8293  1.6755 -0.4338
 5754SOL    HW228725   1.160   1.193   9.485  0.4944  0.3443  0.0681
 5755SOL     OW28726   3.629   4.515   8.464 -0.2635 -0.0161  0.4600
 5755SOL    HW128727   3.678   4.472   8.394 -1.3755 -1.7883  0.7527
 5755SOL    HW228728   3.581   4.440   8.501 -0.7953 -1.1156 -2.4440
 5756SOL     OW28729   1.913   2.893   6.534 -0.0052 -0.1161  0.1683
 5756SOL    HW128730   1.965   2.818   6.562 -0.8160 -0.0932  1.7532
 5756SOL    HW228731   1.957   2.963   6.582  1.8798 -0.8011 -0.5968
 5757SOL     OW28732   0.684   4.032  11.001 -0.7871 -0.5776 -0.3566
 5757SOL    HW128733   0.777   4.039  11.024 -1.3910  0.1423  1.8908
 5757SOL    HW228734   0.691   4.034  10.906  0.8623 -1.0567 -0.2514
 5758SOL     OW28735   3.727   3.595   1.233  0.2483 -0.6287  0.2021
 5758SOL    HW128736   3.793   3.595   1.163 -1.6071  0.5011 -1.5240
 5758SOL    HW228737   3.775   3.542   1.296  0.0533  0.3026  1.1355
 5759SOL     OW28738   2.483   3.791  11.090  0.5679 -0.2658  0.0820
 5759SOL    HW128739   2.441   3.711  11.058  0.7620 -0.8196  1.2246
 5759SOL    HW228740   2.490   3.847  11.012  0.6977  0.5098  0.6487
 5760SOL     OW28741   4.554   3.155   2.083 -0.2839  0.5572 -0.6561
 5760SOL    HW128742   4.628   3.199   2.041  0.0545  0.0505 -0.5941
 5760SOL    HW228743   4.572   3.138   2.175  0.3292 -1.3670 -1.1249
 5761SOL     OW28744   3.818   2.482  11.233  0.2664 -0.0813  0.3404
 5761SOL    HW128745   3.912   2.461  11.231  0.5928  1.3553  0.6559
 5761SOL    HW228746   3.810   2.549  11.301  0.4760 -2.2633  2.5275
 5762SOL     OW28747   0.356   4.009   2.726 -0.4543  0.5562 -0.2748
 5762SOL    HW128748   0.385   3.987   2.638  1.9941 -1.7646  1.1194
 5762SOL    HW228749   0.364   3.925   2.771 -0.5868  1.1161  0.7825
 5763SOL     OW28750   2.126   0.385  10.594  0.2229 -0.3356  0.2907
 5763SOL    HW128751   2.188   0.366  10.524 -0.4458  0.2550 -0.4499
 5763SOL    HW228752   2.044   0.376  10.548  0.6005  0.2528 -0.4972
 5764SOL     OW28753   0.227   4.576  14.806  0.0455  0.2955 -0.1142
 5764SOL    HW128754   0.150   4.544  14.854 -0.6861  0.7494 -0.9775
 5764SOL    HW228755   0.275   4.627  14.871  0.1763 -0.6280  0.5219
 5765SOL     OW28756   1.996   0.070  10.474  0.0965 -0.4125 -0.3864
 5765SOL    HW128757   1.968   0.121  10.550 -2.6218 -1.6469 -0.5597
 5765SOL    HW228758   2.054   0.011  10.521 -0.0926 -0.9761 -0.8717
 5766SOL     OW28759   1.793   1.860   3.549 -0.6551  0.3775 -0.9143
 5766SOL    HW128760   1.887   1.864   3.532 -0.8716 -1.1498 -2.4916
 5766SOL    HW228761   1.777   1.781   3.497  1.8064  0.5204 -1.8931
 5767SOL     OW28762   1.133   3.480   9.821 -0.3065 -0.4006 -0.1973
 5767SOL    HW128763   1.065   3.472   9.888 -2.3753 -2.0378 -2.4938
 5767SOL    HW228764   1.207   3.454   9.875 -0.0973 -3.2523 -1.8706
 5768SOL     OW28765   0.209   3.543   3.624 -0.3745  0.6502  0.1553
 5768SOL    HW128766   0.259   3.473   3.583  0.8517  1.3222  0.5319
 5768SOL    HW228767   0.254   3.561   3.706  0.3609  0.3865 -0.1964
 5769SOL     OW28768   3.999   4.148   6.306  0.0654  0.2677 -0.1812
 5769SOL    HW128769   4.036   4.092   6.237 -1.6036 -0.4897 -0.4457
 5769SOL    HW228770   4.046   4.230   6.288 -2.3991  1.5604 -0.6571
 5770SOL     OW28771   1.989   1.712  15.931  0.2245  0.5656 -0.0287
 5770SOL    HW128772   1.963   1.736  15.842  0.3656 -0.6695 -0.4056
 5770SOL    HW228773   2.083   1.731  15.927  0.7227 -1.7256  0.5518
 5771SOL     OW28774   1.277   1.780   8.885 -0.3573 -0.3123 -0.2903
 5771SOL    HW128775   1.271   1.701   8.939 -0.3796 -0.1916 -0.1165
 5771SOL    HW228776   1.271   1.849   8.951  2.7971  0.1493 -0.4762
 5772SOL     OW28777   3.517   3.803  10.626 -0.8095  0.2585 -0.2247
 5772SOL    HW128778   3.502   3.869  10.694  2.2731  1.5517 -0.8204
 5772SOL    HW228779   3.515   3.724  10.680 -0.7338  0.8697  0.6707
 5773SOL     OW28780   4.189   3.189   5.080 -0.6377 -0.2082  0.6494
 5773SOL    HW128781   4.185   3.271   5.129 -2.9271 -2.3198  3.9644
 5773SOL    HW228782   4.100   3.193   5.044 -0.2690  3.8810  0.1249
 5774SOL     OW28783   2.955   0.133  14.188 -1.1885  0.1641 -1.1094
 5774SOL    HW128784   2.996   0.149  14.104  0.1862  0.1440 -0.4393
 5774SOL    HW228785   2.975   0.212  14.238  2.2477 -1.0800 -0.5336
 5775SOL     OW28786   3.144   0.709   6.951 -0.1487  0.1585 -0.0177
 5775SOL    HW128787   3.087   0.754   7.014  0.8755 -0.1727  1.1525
 5775SOL    HW228788   3.081   0.701   6.880  0.8747  0.6472 -0.9756
 5776SOL     OW28789   1.239   4.125   1.379  0.1565  0.4134 -0.1553
 5776SOL    HW128790   1.269   4.190   1.443 -0.6509  0.4370  0.1919
 5776SOL    HW228791   1.236   4.173   1.296  0.0941 -0.4729 -0.6688
 5777SOL     OW28792   3.856   2.197   8.373 -0.2349 -0.1486 -0.1438
 5777SOL    HW128793   3.866   2.110   8.410 -1.2920  0.1373  0.8086
 5777SOL    HW228794   3.788   2.242   8.423  0.0434 -1.3388  1.2852
 5778SOL     OW28795   0.580   2.930   6.190  1.0314  0.1444 -0.0890
 5778SOL    HW128796   0.499   2.939   6.240 -0.0087 -1.0633 -1.5456
 5778SOL    HW228797   0.584   2.835   6.173 -2.7661  0.1641 -1.1778
 5779SOL     OW28798   2.490   2.224   1.646  0.1229  0.2207  0.5404
 5779SOL    HW128799   2.584   2.240   1.634 -0.0195  0.2251 -0.5087
 5779SOL    HW228800   2.490   2.186   1.734  1.0512  0.8528  0.8123
 5780SOL     OW28801   4.000   1.750   1.492 -0.5346  0.2106 -0.2646
 5780SOL    HW128802   4.066   1.798   1.442 -2.0453 -0.3319 -2.7545
 5780SOL    HW228803   4.026   1.658   1.488 -0.4913  0.1186  1.8407
 5781SOL     OW28804   0.300   1.780   8.255 -0.0647 -0.2060  0.8140
 5781SOL    HW128805   0.383   1.755   8.295  0.9389  0.2200 -1.0025
 5781SOL    HW228806   0.245   1.798   8.332  0.2645 -0.0683  1.0168
 5782SOL     OW28807   4.498   4.560   3.099  0.8276  0.0610 -0.4304
 5782SOL    HW128808   4.459   4.646   3.116 -0.0184 -0.9079  2.4898
 5782SOL    HW228809   4.565   4.552   3.166  1.3925 -0.5804 -1.0682
 5783SOL     OW28810   1.500   0.514   3.345 -0.1490  0.1178 -0.3097
 5783SOL    HW128811   1.475   0.436   3.394 -0.4579 -0.0796 -0.7755
 5783SOL    HW228812   1.455   0.579   3.397 -0.6810 -0.3078 -0.2452
 5784SOL     OW28813   3.769   4.240   3.634  0.2899 -0.1349  0.2744
 5784SOL    HW128814   3.747   4.155   3.671  1.8785 -0.8878 -0.5408
 5784SOL    HW228815   3.838   4.199   3.582 -0.8173 -3.6045  1.5520
 5785SOL     OW28816   2.213   3.246   2.830  0.2573  0.2688 -0.1012
 5785SOL    HW128817   2.229   3.330   2.787  0.3774 -0.1556 -0.8901
 5785SOL    HW228818   2.118   3.242   2.836  0.1970  0.6554 -0.7595
 5786SOL     OW28819   0.302   3.607  13.927 -0.4309  0.0418  0.1079
 5786SOL    HW128820   0.289   3.630  14.019 -0.7126 -3.0865  0.8508
 5786SOL    HW228821   0.354   3.681  13.897  0.9980  0.4191  3.6185
 5787SOL     OW28822   0.004   3.910   1.887 -0.1462  0.2580  0.1325
 5787SOL    HW128823   0.030   3.891   1.977 -1.8586 -1.7003  0.2105
 5787SOL    HW228824   4.641   3.951   1.902 -0.4043 -0.6033  1.0496
 5788SOL     OW28825   0.379   4.713  14.283  0.3634 -0.4868 -0.1658
 5788SOL    HW128826   0.306   4.656  14.306 -0.2346  0.1153 -0.5600
 5788SOL    HW228827   0.378   4.719  14.187 -1.1295  1.3436 -0.0300
 5789SOL     OW28828   0.136   3.838   6.875  0.1037  0.0141  0.3456
 5789SOL    HW128829   0.214   3.784   6.872  1.0829  1.4030  0.7565
 5789SOL    HW228830   0.105   3.834   6.966 -1.0536  0.6698 -0.0088
 5790SOL     OW28831   1.466   3.418  13.005 -0.0394  0.3380 -1.0887
 5790SOL    HW128832   1.534   3.403  13.072 -0.4645  1.4220 -0.4125
 5790SOL    HW228833   1.501   3.367  12.933  0.3075 -0.4715 -0.3465
 5791SOL     OW28834   3.115   3.642  15.452 -0.6423  0.5112  0.3430
 5791SOL    HW128835   3.160   3.722  15.425  1.8176 -0.6338  1.0909
 5791SOL    HW228836   3.115   3.603  15.364 -1.9070  1.1749  0.0407
 5792SOL     OW28837   2.128   3.224   7.730  0.1330  0.4836  0.1499
 5792SOL    HW128838   2.113   3.257   7.818 -1.0069 -0.7136  0.4133
 5792SOL    HW228839   2.128   3.130   7.748 -0.6179  0.1494 -1.5672
 5793SOL     OW28840   2.733   0.532   8.417  0.0912 -0.1642  0.1159
 5793SOL    HW128841   2.725   0.623   8.446  0.2652 -0.2780  0.5252
 5793SOL    HW228842   2.819   0.530   8.375 -0.7540  1.1718 -1.6851
 5794SOL     OW28843   4.702   0.925  12.783 -0.4844 -0.2267  0.0937
 5794SOL    HW128844   4.633   0.896  12.724 -1.8433  0.7216  1.2306
 5794SOL    HW228845   0.055   0.877  12.749  0.2772  2.9236 -2.5218
 5795SOL     OW28846   3.312   0.031   6.620 -0.5686 -0.3839 -0.4623
 5795SOL    HW128847   3.351   0.113   6.647  1.4116 -2.2598  2.3398
 5795SOL    HW228848   3.382   4.698   6.655 -1.1796 -0.3075  0.8669
 5796SOL     OW28849   3.715   1.634   6.072 -0.1422 -0.3769 -0.4724
 5796SOL    HW128850   3.783   1.688   6.112  0.0087 -1.3183  0.5398
 5796SOL    HW228851   3.752   1.545   6.069  1.4866  0.2547  0.9720
 5797SOL     OW28852   3.869   2.780   7.311 -0.2516  0.1127  0.0246
 5797SOL    HW128853   3.851   2.698   7.357 -1.4646  1.4026  1.8466
 5797SOL    HW228854   3.937   2.749   7.251  0.9401  1.6495  0.6026
 5798SOL     OW28855   0.656   3.405   5.650  0.1083 -0.2953 -0.5467
 5798SOL    HW128856   0.637   3.381   5.559  0.3027 -2.2840 -0.0653
 5798SOL    HW228857   0.682   3.322   5.691 -0.3431 -0.5193 -0.7106
 5799SOL     OW28858   2.706   0.759   8.885 -0.5469 -0.1857  0.0931
 5799SOL    HW128859   2.638   0.704   8.924  0.1634 -0.3230  1.1254
 5799SOL    HW228860   2.768   0.781   8.954 -2.1218  1.0421  1.1187
 5800SOL     OW28861   1.581   0.883   7.737  0.2793 -0.1140  0.3607
 5800SOL    HW128862   1.505   0.859   7.791 -2.3053  1.8953 -2.4188
 5800SOL    HW228863   1.630   0.803   7.755  0.3438  0.1770  1.5273
 5801SOL     OW28864   3.830   3.190   3.841 -0.3725  0.5461 -0.1107
 5801SOL    HW128865   3.788   3.271   3.869  0.6689  0.6504  1.1566
 5801SOL    HW228866   3.908   3.226   3.799  0.1929 -1.1187 -0.4674
 5802SOL     OW28867   1.239   2.626   5.876 -0.3697  0.0225 -0.1369
 5802SOL    HW128868   1.277   2.558   5.931 -0.3917  0.5284  0.5103
 5802SOL    HW228869   1.156   2.579   5.871 -0.7222  0.6256 -0.0351
 5803SOL     OW28870   0.999   4.670   8.987  0.3285 -0.1845  0.5133
 5803SOL    HW128871   1.002   4.614   8.909 -2.4542  0.6328 -0.1670
 5803SOL    HW228872   1.005   0.034   8.948  0.8022  0.4395  2.0077
 5804SOL     OW28873   0.343   4.673  10.312  0.0672 -0.0367 -0.2862
 5804SOL    HW128874   0.398   4.598  10.288 -1.0400 -0.3527 -1.8066
 5804SOL    HW228875   0.273   4.618  10.347  1.2474 -0.9608  0.6475
 5805SOL     OW28876   1.845   0.785   0.250 -0.1175  0.0088 -0.2771
 5805SOL    HW128877   1.915   0.722   0.234  0.3391  1.0806 -2.4744
 5805SOL    HW228878   1.900   0.862   0.266 -0.3263  0.0370  0.2932
 5806SOL     OW28879   3.393   0.281   6.571 -0.4501  0.2353  0.4473
 5806SOL    HW128880   3.481   0.265   6.536 -0.7526 -0.7029  0.1032
 5806SOL    HW228881   3.410   0.353   6.632 -0.1194 -0.8411  1.6284
 5807SOL     OW28882   0.943   3.570   5.493 -0.2731 -0.5690 -0.7847
 5807SOL    HW128883   0.961   3.536   5.580  0.0091 -0.2780 -0.7284
 5807SOL    HW228884   0.962   3.499   5.431  0.2958 -0.2157 -1.0208
 5808SOL     OW28885   3.061   3.298   6.682 -0.1165  0.2827  0.5014
 5808SOL    HW128886   3.134   3.245   6.654  0.6296  0.6609  1.7214
 5808SOL    HW228887   3.109   3.375   6.713  1.1648 -0.5812  0.6546
 5809SOL     OW28888   2.341   2.250   5.627 -0.1090 -0.0194 -0.0686
 5809SOL    HW128889   2.413   2.190   5.609 -2.2766 -2.2637 -1.2532
 5809SOL    HW228890   2.359   2.267   5.719  0.3833 -2.6485  0.3297
 5810SOL     OW28891   1.672   2.764   7.503 -0.0135 -0.3737  0.4820
 5810SOL    HW128892   1.580   2.739   7.512 -0.2901  0.6769  0.6170
 5810SOL    HW228893   1.667   2.858   7.521  0.7642  0.0078 -1.3354
 5811SOL     OW28894   0.319   3.639  14.857 -0.3129  0.4533 -0.2734
 5811SOL    HW128895   0.236   3.651  14.903  0.2200  3.0182  0.0048
 5811SOL    HW228896   0.326   3.727  14.820  0.2519 -0.4837 -2.3748
 5812SOL     OW28897   0.596   0.575   8.671 -0.2937  0.5832  0.3838
 5812SOL    HW128898   0.577   0.499   8.727 -0.7455  0.4233  0.0132
 5812SOL    HW228899   0.678   0.597   8.716 -0.8818 -1.1587  2.3228
 5813SOL     OW28900   3.941   2.520   9.462  0.1067  0.3165 -0.5912
 5813SOL    HW128901   3.866   2.481   9.417  2.2630 -1.9396 -2.2290
 5813SOL    HW228902   3.910   2.553   9.546  2.5277  0.2325  0.3272
 5814SOL     OW28903   1.462   3.828  15.386  0.5174  0.2600 -0.4936
 5814SOL    HW128904   1.524   3.767  15.426  0.3623  0.1766 -0.3778
 5814SOL    HW228905   1.519   3.895  15.350  1.8979 -0.2577  0.7192
 5815SOL     OW28906   3.397   1.031   9.271  0.5885  0.1412  0.3978
 5815SOL    HW128907   3.371   0.965   9.335 -1.1869  1.0053  0.5796
 5815SOL    HW228908   3.437   1.100   9.325  0.7893  2.0599 -2.2001
 5816SOL     OW28909   0.879   3.497   6.172 -0.5250  0.1375  0.0282
 5816SOL    HW128910   0.880   3.450   6.089 -1.9715  0.2166 -0.0326
 5816SOL    HW228911   0.867   3.422   6.230 -0.0602 -1.0310 -1.3912
 5817SOL     OW28912   1.090   1.845   0.196  0.4524  0.2074 -0.6701
 5817SOL    HW128913   1.035   1.809   0.266  2.0528  0.1270  0.5542
 5817SOL    HW228914   1.015   1.886   0.154 -1.0912 -0.9665  0.9312
 5818SOL     OW28915   0.379   3.186   0.591 -0.2863 -0.2352  0.3013
 5818SOL    HW128916   0.399   3.261   0.536  0.1036  0.3637  1.2574
 5818SOL    HW228917   0.364   3.114   0.530 -0.8163 -0.1633  0.3478
 5819SOL     OW28918   2.231   0.527   8.064 -0.5562 -0.5009  0.4661
 5819SOL    HW128919   2.207   0.619   8.075  0.4213 -0.2304  0.3519
 5819SOL    HW228920   2.255   0.494   8.151  1.3897  0.7531  0.4229
 5820SOL     OW28921   1.746   4.242   4.393 -0.3357  0.1747  0.0857
 5820SOL    HW128922   1.684   4.314   4.394 -1.8724 -1.1592  0.0054
 5820SOL    HW228923   1.786   4.262   4.478 -1.7457  1.8104  0.3500
 5821SOL     OW28924   4.334   2.927   7.807  0.3132  0.3237  0.2796
 5821SOL    HW128925   4.265   2.962   7.863 -0.1542 -2.9974  1.7526
 5821SOL    HW228926   4.358   2.849   7.858 -0.8954 -1.3435 -1.7306
 5822SOL     OW28927   2.427   0.716   7.065 -0.3174  0.0254 -0.3594
 5822SOL    HW128928   2.376   0.687   6.990  1.1627  0.3885 -1.4925
 5822SOL    HW228929   2.477   0.778   7.012 -0.0568  0.9340  0.9508
 5823SOL     OW28930   1.530   1.322   2.159  0.4030 -0.3483  0.1382
 5823SOL    HW128931   1.542   1.367   2.076 -1.8100 -1.5405 -0.8142
 5823SOL    HW228932   1.600   1.257   2.148  0.5980 -0.2743  0.9698
 5824SOL     OW28933   1.400   3.681   5.230  0.9111 -0.3663 -0.1490
 5824SOL    HW128934   1.484   3.635   5.227  1.2728  0.2293  0.8601
 5824SOL    HW228935   1.374   3.664   5.321 -2.5943 -1.0169 -1.2598
 5825SOL     OW28936   2.025   3.866   9.432  0.6163  0.1896 -0.4602
 5825SOL    HW128937   2.010   3.902   9.520  0.3118  0.1383 -0.4908
 5825SOL    HW228938   1.933   3.863   9.408  0.9194 -0.9642 -1.4846
 5826SOL     OW28939   0.454   4.323   0.711 -0.2042 -0.5270  0.0687
 5826SOL    HW128940   0.468   4.296   0.621 -0.7207  0.7456 -0.3867
 5826SOL    HW228941   0.504   4.405   0.707 -0.2243 -0.5896 -1.4455
 5827SOL     OW28942   3.883   1.187   2.752  0.2834 -0.2419  0.1232
 5827SOL    HW128943   3.858   1.185   2.844 -0.5610 -1.9703 -0.1518
 5827SOL    HW228944   3.942   1.111   2.746 -2.5110 -2.4598  0.9555
 5828SOL     OW28945   2.720   2.323   1.933  0.5791 -0.0101  0.5433
 5828SOL    HW128946   2.789   2.277   1.981 -2.5376 -1.0932  3.9841
 5828SOL    HW228947   2.753   2.330   1.843  0.7033 -1.2311  0.4904
 5829SOL     OW28948   3.018   0.792   7.602  0.3855 -0.2669 -0.3466
 5829SOL    HW128949   2.984   0.704   7.587 -0.9584  0.2813 -0.5435
 5829SOL    HW228950   3.101   0.764   7.641  0.6846  1.2798  0.1172
 5830SOL     OW28951   4.337   0.141   2.915  0.1417 -0.0927  0.4141
 5830SOL    HW128952   4.408   0.110   2.970  0.6323  1.9742  0.9148
 5830SOL    HW228953   4.397   0.177   2.849  0.9990 -3.7175 -0.7871
 5831SOL     OW28954   2.656   1.220  13.259  0.4306  0.5520  0.4388
 5831SOL    HW128955   2.572   1.218  13.303  1.3153 -2.1935  1.9939
 5831SOL    HW228956   2.681   1.308  13.287 -0.1031  0.6303  0.6519
 5832SOL     OW28957   3.186   1.393   1.809 -0.0161  0.0624  0.2375
 5832SOL    HW128958   3.204   1.301   1.830  1.8901  0.1953 -0.7673
 5832SOL    HW228959   3.262   1.417   1.755 -0.6060  2.2400  0.3824
 5833SOL     OW28960   0.623   4.313   6.774  0.4459 -0.3820 -0.0477
 5833SOL    HW128961   0.620   4.260   6.694 -0.3298 -1.1799  0.5159
 5833SOL    HW228962   0.536   4.297   6.810  0.4644  0.7756  0.5120
 5834SOL     OW28963   4.488   3.989   1.958 -0.5991 -0.0354  0.4359
 5834SOL    HW128964   4.413   3.929   1.948  0.6738 -1.5776  0.0484
 5834SOL    HW228965   4.456   4.073   1.926 -0.0644 -0.1737 -0.4798
 5835SOL     OW28966   4.655   2.800   5.665  0.2883 -0.1464  0.1578
 5835SOL    HW128967   4.598   2.733   5.629  0.7259  0.7025 -2.1605
 5835SOL    HW228968   4.596   2.827   5.735 -0.3464 -0.1022 -0.3901
 5836SOL     OW28969   1.519   4.428  12.596 -0.1594 -0.3231  0.4609
 5836SOL    HW128970   1.531   4.522  12.602  1.7507 -0.4185 -1.6353
 5836SOL    HW228971   1.477   4.397  12.676  0.2057  0.6070  1.0043
 5837SOL     OW28972   3.428   2.823   4.289  0.0224  0.6695  0.4365
 5837SOL    HW128973   3.348   2.873   4.305 -1.2989 -0.8798 -1.4258
 5837SOL    HW228974   3.494   2.875   4.244 -0.3183  0.4204 -0.3363
 5838SOL     OW28975   1.090   0.305   3.080 -0.4244  0.3249  0.1372
 5838SOL    HW128976   1.147   0.250   3.027  1.6188  2.0755  0.4773
 5838SOL    HW228977   1.153   0.370   3.113 -0.7530  1.6447 -1.8783
 5839SOL     OW28978   1.421   3.003   9.123 -0.2880 -0.0365 -0.0222
 5839SOL    HW128979   1.441   2.925   9.071  1.5252  0.5746 -0.2359
 5839SOL    HW228980   1.429   3.071   9.055 -0.9354  0.0340 -0.0277
 5840SOL     OW28981   4.120   0.490   8.102  0.0641 -0.2161 -0.2127
 5840SOL    HW128982   4.203   0.467   8.060  0.8606 -0.7765  1.6848
 5840SOL    HW228983   4.137   0.516   8.192 -0.9868  1.4418 -0.5019
 5841SOL     OW28984   1.384   2.436   1.912  0.2085  0.3726 -0.4446
 5841SOL    HW128985   1.333   2.366   1.872 -1.4882  2.0516 -1.1888
 5841SOL    HW228986   1.421   2.492   1.845 -0.6377 -0.4596 -1.5969
 5842SOL     OW28987   4.626   1.415   4.578  0.3841 -0.5940  0.7456
 5842SOL    HW128988   4.589   1.340   4.624  1.0235 -0.5157  1.3999
 5842SOL    HW228989   4.542   1.443   4.543  0.7989 -0.4748 -0.1399
 5843SOL     OW28990   0.717   3.758   5.527 -0.5762  0.0667 -0.4609
 5843SOL    HW128991   0.742   3.800   5.609 -3.9324  1.0344  0.0614
 5843SOL    HW228992   0.777   3.686   5.511  0.8186  1.4078 -1.2914
 5844SOL     OW28993   3.886   3.121   2.700  0.8522  0.2227  0.0327
 5844SOL    HW128994   3.874   3.108   2.794  0.5573  1.3511  0.1499
 5844SOL    HW228995   3.882   3.028   2.676  0.2984 -0.4741  2.8217
 5845SOL     OW28996   0.800   0.617   2.297 -0.7638  0.4455  0.1304
 5845SOL    HW128997   0.844   0.628   2.213 -1.7599 -2.1087 -0.7025
 5845SOL    HW228998   0.763   0.530   2.282 -0.7781  0.3670  0.6179
 5846SOL     OW28999   0.885   2.572   7.941  0.0938 -0.0905 -0.1175
 5846SOL    HW129000   0.876   2.477   7.942  2.0531 -0.3001 -1.5225
 5846SOL    HW229001   0.795   2.594   7.962  0.0416 -1.2413  0.8420
 5847SOL     OW29002   0.056   1.571   8.319 -0.2649 -0.3040  0.0986
 5847SOL    HW129003   0.119   1.530   8.259 -0.4075  0.0289 -0.2834
 5847SOL    HW229004   0.102   1.654   8.334 -0.8402  0.1519 -0.6183
 5848SOL     OW29005   2.843   2.799   8.253 -0.0770  0.5481 -0.1129
 5848SOL    HW129006   2.878   2.866   8.194 -2.1634  0.3793 -1.5277
 5848SOL    HW229007   2.814   2.851   8.328 -0.8924  0.6047 -0.4780
 5849SOL     OW29008   2.205   1.487   6.154 -0.3335 -0.3952  0.4971
 5849SOL    HW129009   2.193   1.400   6.115 -0.8948  1.3207 -3.1909
 5849SOL    HW229010   2.219   1.549   6.083 -1.0119 -0.3882  0.3718
 5850SOL     OW29011   0.380   3.709  16.134 -0.2827 -0.0491  0.2778
 5850SOL    HW129012   0.433   3.782  16.100 -0.4816  1.5950  3.4880
 5850SOL    HW229013   0.443   3.672  16.197  2.3477 -0.6983 -2.7490
 5851SOL     OW29014   0.333   1.251   7.031  0.2957 -0.0000 -0.0961
 5851SOL    HW129015   0.279   1.197   7.088  2.2967  0.2075  2.0309
 5851SOL    HW229016   0.317   1.215   6.944 -0.2177  0.7200 -0.2988
 5852SOL     OW29017   2.491   2.335   3.654 -0.0184 -0.2976  0.0358
 5852SOL    HW129018   2.489   2.283   3.735 -0.4749 -2.6145 -1.4510
 5852SOL    HW229019   2.405   2.322   3.616 -0.0885 -1.0341  0.4351
 5853SOL     OW29020   0.054   4.606   6.348  0.4295 -0.0219 -0.4754
 5853SOL    HW129021   0.087   4.653   6.425 -0.7916 -2.6232  1.6492
 5853SOL    HW229022   0.021   4.677   6.294  1.7113 -0.4603 -1.8388
 5854SOL     OW29023   1.292   1.809   6.442 -0.3736  0.2154  0.2679
 5854SOL    HW129024   1.252   1.880   6.492  1.2366  1.8037 -0.7075
 5854SOL    HW229025   1.255   1.822   6.355  0.0197  0.7920  0.1867
 5855SOL     OW29026   2.008   2.025   5.656  0.3122  0.5210 -0.1100
 5855SOL    HW129027   1.983   2.102   5.605  3.1463  1.9902  0.7133
 5855SOL    HW229028   2.104   2.018   5.648  0.1938  0.2195 -1.2348
 5856SOL     OW29029   2.217   2.570   1.002  0.0222  0.0960  0.9138
 5856SOL    HW129030   2.132   2.568   1.047 -1.4140 -1.7725 -1.8381
 5856SOL    HW229031   2.209   2.507   0.930  1.8727  2.1905 -1.0751
 5857SOL     OW29032   2.475   1.925   7.570  0.2985  0.6218 -0.5213
 5857SOL    HW129033   2.395   1.874   7.583 -0.0249  1.3702  0.4646
 5857SOL    HW229034   2.492   1.919   7.476 -0.8687 -1.3524 -0.6079
 5858SOL     OW29035   3.633   1.845  15.681 -0.1770  0.7290  0.3911
 5858SOL    HW129036   3.668   1.932  15.703  1.4775  0.4716 -1.2186
 5858SOL    HW229037   3.648   1.789  15.757  0.2000  0.1668 -0.1008
 5859SOL     OW29038   2.914   0.555   0.788 -0.5158 -0.0410 -0.3171
 5859SOL    HW129039   2.979   0.491   0.761 -1.7147 -1.0487 -0.7752
 5859SOL    HW229040   2.919   0.542   0.883 -2.0336  3.0363  0.1809
 5860SOL     OW29041   4.630   3.701   8.810 -0.4297 -0.0546  0.1354
 5860SOL    HW129042   4.678   3.727   8.890  2.9107 -1.2336 -1.4750
 5860SOL    HW229043   4.705   3.682   8.754 -0.3614 -0.4951  0.3790
 5861SOL     OW29044   2.435   3.607  14.928  0.3798 -0.3217  0.1176
 5861SOL    HW129045   2.385   3.526  14.943 -0.3187 -0.2997 -2.0217
 5861SOL    HW229046   2.405   3.610  14.837  0.8772  1.3266  0.0224
 5862SOL     OW29047   4.649   0.659  10.517 -0.3235 -0.0519 -0.0763
 5862SOL    HW129048   4.568   0.616  10.542 -1.1678  1.1927 -0.6647
 5862SOL    HW229049   4.606   0.709  10.447  2.5333 -0.4314 -2.1248
 5863SOL     OW29050   4.600   1.503   4.291  0.1007  0.1244 -0.1459
 5863SOL    HW129051   4.549   1.502   4.372  2.7669  1.1804  1.5504
 5863SOL    HW229052   4.535   1.468   4.230 -1.4848 -0.1972  1.7134
 5864SOL     OW29053   3.753   1.614   2.761 -0.3420 -0.2680 -0.6123
 5864SOL    HW129054   3.694   1.568   2.821 -1.5329 -0.6818 -2.1003
 5864SOL    HW229055   3.818   1.548   2.738  0.2896  0.2716 -0.3871
 5865SOL     OW29056   1.684   3.095  13.022 -0.1812 -0.2386 -0.2166
 5865SOL    HW129057   1.633   3.130  13.095 -1.5159 -0.6885 -0.9396
 5865SOL    HW229058   1.611   3.047  12.982  0.0784 -1.0616  0.2833
 5866SOL     OW29059   0.647   2.448   7.727  0.9043  0.0390  0.0073
 5866SOL    HW129060   0.630   2.394   7.804 -0.4629 -0.7780 -0.8645
 5866SOL    HW229061   0.740   2.434   7.709  0.9578  1.8195 -1.1272
 5867SOL     OW29062   2.658   1.149   3.364 -0.1050 -0.0112  0.7523
 5867SOL    HW129063   2.709   1.113   3.437 -0.5701  0.6084  1.3830
 5867SOL    HW229064   2.595   1.081   3.341  1.0561 -0.5751 -0.7675
 5868SOL     OW29065   1.949   0.332   5.951 -0.3658 -0.0015 -0.7589
 5868SOL    HW129066   1.922   0.268   6.018  1.5765 -0.2759 -0.2212
 5868SOL    HW229067   1.890   0.403   5.972 -4.0092 -3.4709  0.7807
 5869SOL     OW29068   4.236   4.138   2.479  0.3858 -0.4268  0.2214
 5869SOL    HW129069   4.263   4.066   2.421  0.7440 -0.0216 -0.1160
 5869SOL    HW229070   4.202   4.099   2.559  1.2624  0.8614  1.2175
 5870SOL     OW29071   3.867   0.855   3.095  0.5857  0.3119  0.1051
 5870SOL    HW129072   3.799   0.811   3.043 -1.4100  2.7296  0.6552
 5870SOL    HW229073   3.947   0.819   3.057 -1.3797 -2.7124 -1.1461
 5871SOL     OW29074   4.272   4.291   8.070  0.1929  0.1141  0.0478
 5871SOL    HW129075   4.238   4.206   8.043 -0.2848  0.8312 -1.5789
 5871SOL    HW229076   4.297   4.277   8.162  0.2365  0.0954  0.0332
 5872SOL     OW29077   3.547   2.301   3.151 -0.7236  0.8275 -0.0417
 5872SOL    HW129078   3.630   2.254   3.139  0.7676  3.6256 -0.7593
 5872SOL    HW229079   3.572   2.342   3.234  2.7722  1.4742 -1.4071
 5873SOL     OW29080   4.216   2.465   1.809 -0.1869  0.6911 -0.0356
 5873SOL    HW129081   4.309   2.482   1.802 -0.2128 -0.5257 -3.2117
 5873SOL    HW229082   4.211   2.460   1.714 -0.7911  1.3150 -0.0436
 5874SOL     OW29083   0.406   0.156   5.042 -0.3735  0.5567  0.0150
 5874SOL    HW129084   0.358   0.077   5.020  1.6088 -0.7532  0.3205
 5874SOL    HW229085   0.489   0.131   5.000 -0.5581  0.5607 -0.3511
 5875SOL     OW29086   2.106   1.113   2.236 -0.6526 -0.6768  1.0633
 5875SOL    HW129087   2.125   1.182   2.172 -0.3915  0.3256  2.2305
 5875SOL    HW229088   2.055   1.054   2.179  2.0287 -0.5556 -1.4881
 5876SOL     OW29089   3.449   1.221  12.911  0.6568 -0.2599 -0.8062
 5876SOL    HW129090   3.366   1.175  12.892  0.1291  0.6763 -0.7602
 5876SOL    HW229091   3.430   1.314  12.904 -1.8614 -0.8412 -1.9113
 5877SOL     OW29092   3.283   1.557   2.754  0.5850 -0.3881  0.0292
 5877SOL    HW129093   3.378   1.547   2.765  0.9646 -0.4551 -3.4112
 5877SOL    HW229094   3.276   1.644   2.715 -1.1853  0.1765  1.6332
 5878SOL     OW29095   2.556   2.628  16.043 -0.4005  0.1705  0.2283
 5878SOL    HW129096   2.499   2.579  15.984 -1.5812 -1.1633  2.4851
 5878SOL    HW229097   2.504   2.700  16.077  0.7882 -0.6509  3.8189
 5879SOL     OW29098   2.681   1.949   8.239  0.3486  0.0459 -0.2893
 5879SOL    HW129099   2.704   2.027   8.290 -1.5301 -0.9530  2.1198
 5879SOL    HW229100   2.746   1.954   8.169  1.8628 -1.2938  1.0245
 5880SOL     OW29101   0.423   2.278   3.046  0.2539  0.3536  0.7091
 5880SOL    HW129102   0.459   2.218   2.981 -0.0623 -1.2539  2.0008
 5880SOL    HW229103   0.500   2.335   3.047 -0.1402  0.9109 -1.7103
 5881SOL     OW29104   0.414   4.190   5.017  0.1601 -0.3129  0.0307
 5881SOL    HW129105   0.426   4.108   4.970 -1.8007 -1.1810  1.0198
 5881SOL    HW229106   0.361   4.161   5.092 -0.6043  0.7699 -0.0934
 5882SOL     OW29107   2.740   2.596  15.642  0.0842 -0.3709 -0.8345
 5882SOL    HW129108   2.766   2.579  15.732  2.9217  1.6591 -1.2361
 5882SOL    HW229109   2.760   2.690  15.631 -1.2943  0.0582  0.3806
 5883SOL     OW29110   4.411   0.863   2.481 -0.0086 -0.0347 -0.1817
 5883SOL    HW129111   4.443   0.827   2.564 -2.6412  1.0495  1.2923
 5883SOL    HW229112   4.475   0.818   2.425 -2.1260 -2.1673 -0.9191
 5884SOL     OW29113   1.272   2.802   4.355  0.7469 -0.4029 -0.4056
 5884SOL    HW129114   1.262   2.875   4.416  2.8744  0.2067 -0.8072
 5884SOL    HW229115   1.268   2.721   4.407 -1.3185 -0.7011 -1.0117
 5885SOL     OW29116   0.880   2.262   7.197 -0.4057  0.3589  0.1839
 5885SOL    HW129117   0.864   2.306   7.281  0.5726 -1.7771  1.4763
 5885SOL    HW229118   0.865   2.336   7.138  2.8600  0.1879 -0.8820
 5886SOL     OW29119   4.638   0.563  12.196 -0.4275  0.6022 -0.2634
 5886SOL    HW129120   4.553   0.528  12.222  1.4352 -1.7158  2.8023
 5886SOL    HW229121   4.680   0.528  12.275  1.5751  2.5972 -0.4537
 5887SOL     OW29122   4.678   3.196  10.568 -0.6756 -0.2860 -0.2270
 5887SOL    HW129123   4.621   3.234  10.502 -1.7707 -0.6864  0.4940
 5887SOL    HW229124   4.649   3.105  10.570  0.5412 -0.6221  2.8112
 5888SOL     OW29125   3.775   3.191   6.698 -0.3512 -0.3691  0.1143
 5888SOL    HW129126   3.700   3.133   6.688  0.8490 -1.8830 -0.0453
 5888SOL    HW229127   3.776   3.212   6.791  1.6574 -1.8994  0.4257
 5889SOL     OW29128   0.149   0.397  16.468 -0.4396  0.2892  0.6704
 5889SOL    HW129129   0.192   0.313  16.485  0.1418  0.4907  0.2269
 5889SOL    HW229130   0.081   0.377  16.403  1.8676 -1.1903 -1.3015
 5890SOL     OW29131   3.028   4.303  10.102 -0.2175 -0.1300 -0.9303
 5890SOL    HW129132   2.952   4.353  10.133  0.6767  0.9705 -0.4966
 5890SOL    HW229133   3.093   4.373  10.108 -0.6178  0.0500  1.3523
 5891SOL     OW29134   1.772   3.112   1.492 -0.8912 -0.2814  0.7617
 5891SOL    HW129135   1.846   3.169   1.472 -1.2662  0.7698  2.3756
 5891SOL    HW229136   1.821   3.053   1.550 -0.7488 -1.0738 -0.1678
 5892SOL     OW29137   4.068   1.413  11.127  0.4533  0.0090 -0.5131
 5892SOL    HW129138   3.993   1.354  11.114  0.7327 -0.2872 -0.7883
 5892SOL    HW229139   4.061   1.431  11.220  1.4859  1.5715 -0.7329
 5893SOL     OW29140   2.988   0.275   0.686  0.5779  0.2609  0.2672
 5893SOL    HW129141   2.945   0.231   0.759  1.8014 -1.4003 -0.0060
 5893SOL    HW229142   3.081   0.253   0.691  0.3237 -1.0044 -0.6149
 5894SOL     OW29143   0.793   4.474  10.247 -0.0554 -0.2288 -0.2320
 5894SOL    HW129144   0.741   4.400  10.277  1.2863 -1.4192 -0.8398
 5894SOL    HW229145   0.880   4.439  10.262 -0.8540 -2.9736 -1.9696
 5895SOL     OW29146   3.982   2.281   7.637 -0.2732  0.3665  0.1632
 5895SOL    HW129147   3.943   2.361   7.673 -0.6129  1.2570 -2.2210
 5895SOL    HW229148   3.953   2.289   7.547  0.5018  0.6480 -0.0635
 5896SOL     OW29149   1.477   4.277   2.873 -0.0499 -0.6343 -0.6463
 5896SOL    HW129150   1.569   4.261   2.893 -0.0349 -1.1500 -1.1346
 5896SOL    HW229151   1.484   4.289   2.778  0.4375  1.0127 -0.4006
 5897SOL     OW29152   1.580   2.927   1.700 -0.3649 -0.2739  0.4968
 5897SOL    HW129153   1.668   2.919   1.665 -0.1625  1.2563  0.6673
 5897SOL    HW229154   1.533   2.903   1.620  3.0226 -0.3618 -1.4636
 5898SOL     OW29155   3.633   3.979   9.747  0.5770  0.0236 -0.5452
 5898SOL    HW129156   3.696   3.920   9.706  0.0389  0.0221 -1.3863
 5898SOL    HW229157   3.566   3.991   9.679  1.1243  1.3933 -0.8534
 5899SOL     OW29158   2.806   0.488  10.176  0.4203  0.2098 -0.3346
 5899SOL    HW129159   2.892   0.511  10.140  0.7858  3.2089  2.4355
 5899SOL    HW229160   2.814   0.400  10.214  1.0837  0.5473  0.3249
 5900SOL     OW29161   4.708   0.228   7.823  0.2402 -0.1741  0.4377
 5900SOL    HW129162   0.007   0.319   7.803  0.7984 -0.7198 -1.3709
 5900SOL    HW229163   4.696   0.245   7.917 -0.0144 -0.1581  0.4038
 5901SOL     OW29164   3.775   0.780   8.789  0.1484  0.0321 -0.2080
 5901SOL    HW129165   3.808   0.867   8.811 -2.6918  1.7878 -2.7973
 5901SOL    HW229166   3.840   0.758   8.723 -0.8281 -2.1023 -0.4835
 5902SOL     OW29167   1.745   3.565  17.413 -0.1131  0.0331 -0.5273
 5902SOL    HW129168   1.670   3.531  17.462  0.5424  0.3042  0.6682
 5902SOL    HW229169   1.805   3.570  17.487 -1.1517 -0.5880  0.3636
 5903SOL     OW29170   3.032   3.168  12.771 -0.1579  0.1838 -0.2908
 5903SOL    HW129171   3.071   3.108  12.708 -0.2637 -0.7587  0.5422
 5903SOL    HW229172   3.004   3.236  12.709  0.3854 -0.8607 -1.6507
 5904SOL     OW29173   2.608   4.105   8.624  0.1524 -0.3480  0.3793
 5904SOL    HW129174   2.556   4.056   8.687 -0.8575 -0.1798 -0.3234
 5904SOL    HW229175   2.675   4.143   8.681  0.9062 -0.7170 -0.2404
 5905SOL     OW29176   2.216   3.101  14.777 -0.4977  0.3052 -0.0488
 5905SOL    HW129177   2.205   3.194  14.757 -1.9085  0.3001  0.7235
 5905SOL    HW229178   2.306   3.092  14.745 -0.6149 -0.4388 -0.1846
 5906SOL     OW29179   0.445   1.969   4.536  0.1666 -0.0915 -0.4873
 5906SOL    HW129180   0.480   1.923   4.613 -0.2248  2.0360  0.9842
 5906SOL    HW229181   0.528   1.976   4.488 -0.1497  0.6038 -0.9367
 5907SOL     OW29182   4.007   1.890   8.729  0.3582 -0.1144  0.4353
 5907SOL    HW129183   4.096   1.912   8.755 -0.2420  3.6123 -0.7388
 5907SOL    HW229184   4.006   1.932   8.643 -1.9953  0.5592  0.7863
 5908SOL     OW29185   2.898   1.512   6.495 -0.2774 -0.1507  0.7365
 5908SOL    HW129186   2.944   1.456   6.433 -0.6884  0.5099 -0.1540
 5908SOL    HW229187   2.960   1.583   6.507 -0.4700 -0.0934  1.4494
 5909SOL     OW29188   0.487   4.125   6.626  0.2341 -0.0149  0.0451
 5909SOL    HW129189   0.497   4.030   6.620  0.7077 -0.1114  2.2058
 5909SOL    HW229190   0.391   4.121   6.627  0.3232 -2.2347 -1.7688
 5910SOL     OW29191   2.758   0.437   3.731 -0.4126 -0.1290  0.1985
 5910SOL    HW129192   2.693   0.372   3.703 -0.3543 -0.3450  0.5557
 5910SOL    HW229193   2.813   0.454   3.655  0.3452  0.7790  0.9481
 5911SOL     OW29194   3.260   1.263   6.754 -0.3798 -0.7026  0.3038
 5911SOL    HW129195   3.201   1.239   6.683 -0.9637  0.5339  0.3804
 5911SOL    HW229196   3.299   1.183   6.789 -0.4320 -0.4845  0.8572
 5912SOL     OW29197   3.557   4.714   5.656  0.0349  0.5099 -0.2950
 5912SOL    HW129198   3.646   0.024   5.668  0.6762 -1.2415 -0.3287
 5912SOL    HW229199   3.564   4.633   5.606 -2.0381 -0.9607  1.8076
 5913SOL     OW29200   0.512   0.407   4.148 -0.4718  0.0743 -0.0088
 5913SOL    HW129201   0.461   0.331   4.119 -0.4122 -0.0619  0.2391
 5913SOL    HW229202   0.572   0.361   4.206 -0.4435 -0.9809 -0.8728
 5914SOL     OW29203   1.827   1.670   6.211 -0.0149 -0.3341  0.0210
 5914SOL    HW129204   1.784   1.733   6.270  0.6857 -1.9954  2.2858
 5914SOL    HW229205   1.802   1.714   6.130  3.5159  1.0465 -0.3017
 5915SOL     OW29206   2.142   3.563   0.804  0.2821  0.1770 -0.2875
 5915SOL    HW129207   2.234   3.575   0.780  0.6198 -1.8903  0.0155
 5915SOL    HW229208   2.117   3.507   0.730 -0.6868  1.6133 -1.0521
 5916SOL     OW29209   3.456   2.179   9.521  0.0822  0.3681 -0.2053
 5916SOL    HW129210   3.440   2.241   9.451  1.3723  1.2584  0.2778
 5916SOL    HW229211   3.438   2.093   9.484  0.7643  0.7958 -1.5363
 5917SOL     OW29212   2.005   0.082   7.068 -0.2857 -1.0793 -0.2371
 5917SOL    HW129213   1.950   0.004   7.059 -3.0698  0.9131 -0.5612
 5917SOL    HW229214   2.031   0.075   7.160  0.3640  1.7927 -0.1856
 5918SOL     OW29215   4.640   0.798   8.420  0.4002  0.5171  0.0002
 5918SOL    HW129216   0.003   0.777   8.457  0.9622  2.9721  0.0636
 5918SOL    HW229217   4.633   0.732   8.351  1.6767  0.0459  0.3166
 5919SOL     OW29218   0.999   3.637   2.002  0.2143  0.0945 -0.2017
 5919SOL    HW129219   0.971   3.728   2.005  0.3661  0.1796 -1.4681
 5919SOL    HW229220   0.918   3.595   2.031  0.0550  1.7857  1.7913
 5920SOL     OW29221   2.487   0.997  15.103  0.7615  0.1528 -0.0913
 5920SOL    HW129222   2.559   0.983  15.042  1.2103  1.6342  0.1105
 5920SOL    HW229223   2.462   0.905  15.117 -0.6298  0.3965 -0.9616
 5921SOL     OW29224   0.613   4.321   2.538  0.0188 -0.3741 -0.3674
 5921SOL    HW129225   0.622   4.408   2.498  1.0655  0.2020  1.1156
 5921SOL    HW229226   0.593   4.352   2.626  0.0790 -1.6917  0.1030
 5922SOL     OW29227   4.536   1.137  12.742  0.5470 -0.3324  0.1898
 5922SOL    HW129228   4.616   1.091  12.770  0.1054 -0.9170  0.4905
 5922SOL    HW229229   4.460   1.112  12.794  0.0278  0.8578 -0.0041
 5923SOL     OW29230   3.240   2.275   8.558  0.3903 -0.3736 -0.3488
 5923SOL    HW129231   3.221   2.189   8.521  0.6099 -0.1646 -0.9496
 5923SOL    HW229232   3.293   2.300   8.482  1.1337  3.3014  1.3709
 5924SOL     OW29233   3.910   3.933  10.440 -0.7273  0.1659 -0.2243
 5924SOL    HW129234   3.861   3.944  10.358 -0.0968 -1.0633 -0.7646
 5924SOL    HW229235   3.994   3.964  10.406 -0.4234 -0.1355  0.2417
 5925SOL     OW29236   0.186   1.858   2.093 -0.2912 -0.0090 -0.8871
 5925SOL    HW129237   0.132   1.862   2.015 -2.3227 -1.1521  0.4770
 5925SOL    HW229238   0.123   1.880   2.162  1.3833 -0.1576  0.6847
 5926SOL     OW29239   0.467   4.591   7.916 -0.2541  0.0539 -0.2124
 5926SOL    HW129240   0.398   4.657   7.912  0.0721  0.4208  0.2071
 5926SOL    HW229241   0.425   4.513   7.881 -1.4795  2.2257 -3.5410
 5927SOL     OW29242   0.077   0.376   1.789  0.2448  0.3270  0.0575
 5927SOL    HW129243   0.137   0.423   1.847 -1.2019  0.7350  1.2353
 5927SOL    HW229244   4.718   0.394   1.834  0.0023  0.1368 -0.3113
 5928SOL     OW29245   2.018   0.604  14.954 -0.1987  0.0605  0.2512
 5928SOL    HW129246   2.001   0.578  14.864  0.9673 -0.6726  0.2399
 5928SOL    HW229247   2.101   0.648  14.935 -0.7229  0.6409 -0.6804
 5929SOL     OW29248   0.020   3.560   0.883  0.3901 -0.1849 -0.3263
 5929SOL    HW129249   0.094   3.567   0.822  0.8991 -0.9235  0.2004
 5929SOL    HW229250   4.669   3.579   0.826 -1.1273 -1.0604  1.3789
 5930SOL     OW29251   1.637   0.064   9.240 -0.6530  0.4067  0.1921
 5930SOL    HW129252   1.656   0.072   9.334  1.6114  0.4649 -0.2800
 5930SOL    HW229253   1.662   4.695   9.228 -2.1119 -0.0760  0.6937
 5931SOL     OW29254   1.913   2.207  16.956 -0.4855  0.3939  0.0214
 5931SOL    HW129255   1.981   2.274  16.963 -0.0037 -0.3593  2.6162
 5931SOL    HW229256   1.854   2.225  17.030  3.6338 -0.9331  3.6531
 5932SOL     OW29257   3.977   1.952  16.881 -0.3115  0.4225 -0.2222
 5932SOL    HW129258   3.991   2.043  16.907 -1.3975 -0.0079  1.8968
 5932SOL    HW229259   4.013   1.957  16.793  2.1434  0.9360  0.8089
 5933SOL     OW29260   2.226   3.855   2.473  0.2622  0.4121  0.4602
 5933SOL    HW129261   2.279   3.857   2.553  3.1938  1.8497 -1.5192
 5933SOL    HW229262   2.139   3.867   2.511 -0.5804  1.6016 -1.8536
 5934SOL     OW29263   3.000   4.178   1.708 -0.2642 -0.1576 -0.3780
 5934SOL    HW129264   2.926   4.221   1.665  1.5598  1.6836 -1.6779
 5934SOL    HW229265   2.964   4.090   1.693  2.1075 -1.1469 -0.1917
 5935SOL     OW29266   3.755   2.239   6.080  0.3625  0.3922 -0.0854
 5935SOL    HW129267   3.683   2.221   6.140  0.5479 -1.8593 -0.5701
 5935SOL    HW229268   3.829   2.203   6.129  0.6588 -1.3123 -1.8002
 5936SOL     OW29269   0.780   0.529   5.349  0.0162  0.0454 -0.0037
 5936SOL    HW129270   0.839   0.460   5.378  0.3611  0.5093  0.4073
 5936SOL    HW229271   0.839   0.602   5.330  1.5417 -0.4806  2.7621
 5937SOL     OW29272   2.883   4.577   3.041  0.0577  0.0838 -0.5244
 5937SOL    HW129273   2.944   4.604   3.111  1.0627 -1.4661 -0.8106
 5937SOL    HW229274   2.886   4.482   3.032  0.3929  0.0592 -0.1512
 5938SOL     OW29275   3.465   1.441   3.502  0.0105  0.2406  0.0507
 5938SOL    HW129276   3.508   1.398   3.575 -0.0785 -1.2686 -0.7801
 5938SOL    HW229277   3.373   1.438   3.530 -0.4288  1.0954 -1.2647
 5939SOL     OW29278   2.389   1.981  16.062  0.3552  0.3213 -0.0195
 5939SOL    HW129279   2.340   1.982  15.980  1.9075 -1.8714 -1.0044
 5939SOL    HW229280   2.466   1.930  16.037 -0.8296 -0.0585 -2.8316
 5940SOL     OW29281   3.091   1.582   2.544 -0.2153  0.4974  0.1186
 5940SOL    HW129282   3.161   1.526   2.511  0.3975 -0.9012  3.7767
 5940SOL    HW229283   3.067   1.630   2.465  1.8189 -0.5984 -1.1749
 5941SOL     OW29284   0.212   4.236  10.508  0.3871  0.1616 -0.0103
 5941SOL    HW129285   0.223   4.321  10.465 -0.1704  0.2958  0.1213
 5941SOL    HW229286   0.121   4.246  10.534  0.4009  0.7682 -0.1959
 5942SOL     OW29287   2.462   0.537   4.559 -0.5372  0.5384  0.1279
 5942SOL    HW129288   2.408   0.567   4.485  0.2055 -0.4991 -0.8393
 5942SOL    HW229289   2.541   0.588   4.542 -0.7799  1.4199  1.7469
 5943SOL     OW29290   1.686   1.508   2.639 -0.0314 -0.0125 -0.4394
 5943SOL    HW129291   1.661   1.562   2.564 -2.7686  0.3425  0.7136
 5943SOL    HW229292   1.607   1.456   2.652 -0.7698  1.3882  0.6846
 5944SOL     OW29293   0.623   0.102   2.174 -0.2164 -0.6175 -0.6681
 5944SOL    HW129294   0.653   0.068   2.089  0.8067 -0.2664 -0.4526
 5944SOL    HW229295   0.700   0.078   2.226  0.2146  0.1131 -0.9706
 5945SOL     OW29296   3.137   0.930   5.799  0.3056  0.7055 -0.3742
 5945SOL    HW129297   3.121   0.931   5.705 -0.0058 -0.4412 -0.3408
 5945SOL    HW229298   3.185   1.011   5.813 -1.1707  1.4814  0.2455
 5946SOL     OW29299   2.206   3.908  15.972 -0.0415  0.4287  0.9125
 5946SOL    HW129300   2.229   3.895  15.880  0.1194 -0.0352  1.0234
 5946SOL    HW229301   2.289   3.946  16.002  1.5483 -1.3621 -1.2146
 5947SOL     OW29302   4.352   1.875  11.089 -0.2201 -0.0440  0.1696
 5947SOL    HW129303   4.276   1.817  11.096  0.6393 -1.2971 -0.7328
 5947SOL    HW229304   4.389   1.878  11.178 -1.7322 -0.8512  0.8330
 5948SOL     OW29305   0.267   0.761  12.320  0.2282 -0.2824 -0.1586
 5948SOL    HW129306   0.189   0.807  12.352  1.4192  1.3918  0.3389
 5948SOL    HW229307   0.242   0.751  12.228 -0.3235  0.5066 -0.0947
 5949SOL     OW29308   4.126   2.915   9.025 -0.6598  0.7279 -0.0290
 5949SOL    HW129309   4.152   3.005   9.005 -2.5995  1.4654  0.7242
 5949SOL    HW229310   4.191   2.871   8.970 -3.0894 -1.8612 -0.8095
 5950SOL     OW29311   4.131   1.097  17.320 -0.0690  0.0297  0.2840
 5950SOL    HW129312   4.210   1.044  17.314 -0.9557 -1.5441  2.2241
 5950SOL    HW229313   4.138   1.146  17.238 -0.0980 -0.2500  0.1159
 5951SOL     OW29314   3.578   3.469   9.092 -0.5030  0.8601  0.4473
 5951SOL    HW129315   3.671   3.450   9.082 -1.0181 -1.3809 -0.1665
 5951SOL    HW229316   3.573   3.554   9.134 -1.9052  1.7445 -1.4926
 5952SOL     OW29317   1.052   3.395  14.916 -0.2358  0.2742 -0.1444
 5952SOL    HW129318   1.009   3.372  14.833  1.3171 -0.8848 -0.6246
 5952SOL    HW229319   1.009   3.478  14.934 -0.1568 -0.0333  1.4917
 5953SOL     OW29320   3.462   4.417   6.144  0.6905  0.5436 -0.4058
 5953SOL    HW129321   3.466   4.329   6.108  2.0397  0.4296  0.0240
 5953SOL    HW229322   3.374   4.441   6.116  0.3354 -0.2025  0.0916
 5954SOL     OW29323   2.899   0.763   2.961  0.3981 -0.5871 -0.2757
 5954SOL    HW129324   2.848   0.784   2.882 -0.5492  1.4779  0.8908
 5954SOL    HW229325   2.926   0.672   2.949 -0.1299 -0.3850 -3.0597
 5955SOL     OW29326   4.570   3.486   5.598  0.3434  0.2758  0.3052
 5955SOL    HW129327   4.608   3.481   5.686  1.0105  2.3151  0.1239
 5955SOL    HW229328   4.626   3.548   5.551 -0.6175  0.3484 -0.7338
 5956SOL     OW29329   3.628   0.219   1.357 -0.0656  0.1325 -0.9252
 5956SOL    HW129330   3.651   0.160   1.429 -0.2569  1.9618  0.6385
 5956SOL    HW229331   3.701   0.224   1.296  0.8307 -1.4896  0.0358
 5957SOL     OW29332   1.933   3.347   0.982  0.0474 -0.3636  0.0729
 5957SOL    HW129333   1.976   3.339   0.897 -1.4102 -0.9416 -0.6030
 5957SOL    HW229334   1.873   3.418   0.957 -1.7242 -3.3441 -4.0332
 5958SOL     OW29335   1.653   3.175   5.368 -0.1858 -0.2804 -0.0971
 5958SOL    HW129336   1.737   3.136   5.391  0.2702  1.8596  1.8323
 5958SOL    HW229337   1.609   3.179   5.453 -1.0483 -1.5035 -0.4768
 5959SOL     OW29338   1.737   4.252   6.570  0.6471 -0.1163 -0.2610
 5959SOL    HW129339   1.734   4.241   6.665 -0.1420  0.8428 -0.1714
 5959SOL    HW229340   1.738   4.163   6.535 -0.0754 -0.3419  0.2937
 5960SOL     OW29341   2.111   2.002   2.403  0.0996 -0.5144 -0.2582
 5960SOL    HW129342   2.050   2.074   2.418  0.3270 -0.4750  0.4995
 5960SOL    HW229343   2.166   2.037   2.334  0.2355  0.6582  0.4420
 5961SOL     OW29344   2.510   2.573   2.819  0.0154  0.3061 -0.8533
 5961SOL    HW129345   2.493   2.482   2.843 -2.5604  1.6257  2.4239
 5961SOL    HW229346   2.484   2.578   2.727 -0.9559  0.7516 -0.5516
 5962SOL     OW29347   1.209   3.751   0.409 -0.2678 -0.3238  0.4718
 5962SOL    HW129348   1.200   3.844   0.387 -0.6535 -0.8282 -1.5557
 5962SOL    HW229349   1.301   3.733   0.387 -0.1607  0.6994  0.0885
 5963SOL     OW29350   1.833   3.071  11.769 -0.7973 -0.2585 -0.2567
 5963SOL    HW129351   1.869   3.038  11.686  1.1702 -0.7779  0.7972
 5963SOL    HW229352   1.870   3.157  11.788 -2.9666  0.5439  0.3578
 5964SOL     OW29353   3.882   2.510   5.461 -0.1935  0.0469 -0.0383
 5964SOL    HW129354   3.968   2.530   5.423 -0.1050 -3.1846 -1.5341
 5964SOL    HW229355   3.899   2.425   5.501  0.5428  0.0207 -0.4038
 5965SOL     OW29356   3.238   4.280   3.114 -0.0050  0.8900 -0.0037
 5965SOL    HW129357   3.288   4.326   3.181  0.3440 -0.7722  0.8914
 5965SOL    HW229358   3.294   4.203   3.100 -0.3551  0.9339 -1.6200
 5966SOL     OW29359   1.563   3.070  14.231  0.0106  0.4524  0.3841
 5966SOL    HW129360   1.628   3.087  14.163  0.0730 -2.2103 -0.2124
 5966SOL    HW229361   1.477   3.083  14.190 -1.0623 -0.1359  2.4372
 5967SOL     OW29362   3.157   3.814   4.788 -0.0965  0.1673 -0.1194
 5967SOL    HW129363   3.094   3.843   4.855 -1.4777 -0.4138 -1.1761
 5967SOL    HW229364   3.119   3.735   4.750  1.7991 -1.4868  1.4519
 5968SOL     OW29365   2.010   4.047   3.366 -0.0652 -0.0334  0.2456
 5968SOL    HW129366   2.058   4.082   3.291  0.9474  0.9108  1.3258
 5968SOL    HW229367   1.976   3.968   3.324  1.1243 -0.4833  0.1318
 5969SOL     OW29368   4.678   2.788   8.501  0.2254  0.4469  0.2071
 5969SOL    HW129369   4.610   2.828   8.448 -0.7230 -0.5128  0.6955
 5969SOL    HW229370   4.624   2.710   8.517  0.2909  0.5640  0.9671
 5970SOL     OW29371   3.367   3.271   9.133 -0.2745  0.7894 -0.0407
 5970SOL    HW129372   3.452   3.315   9.125  0.6021 -1.2628 -1.9645
 5970SOL    HW229373   3.397   3.201   9.191 -1.2300 -1.1197 -1.8669
 5971SOL     OW29374   3.339   2.894   7.981 -0.3452 -0.2179  0.3593
 5971SOL    HW129375   3.304   2.978   7.952 -0.2486 -1.2397 -2.7009
 5971SOL    HW229376   3.388   2.923   8.058 -1.3082 -0.9909  1.2454
 5972SOL     OW29377   3.892   0.247   6.274 -0.2831 -0.4776 -0.3437
 5972SOL    HW129378   3.942   0.168   6.295  2.1920  0.7093 -1.7342
 5972SOL    HW229379   3.805   0.208   6.280  0.0908 -1.5536 -1.9540
 5973SOL     OW29380   3.449   0.489   3.984 -0.0017 -0.0631  0.2228
 5973SOL    HW129381   3.454   0.409   3.932 -1.2574  0.6136 -0.9181
 5973SOL    HW229382   3.451   0.558   3.918 -0.0610 -0.5921 -0.3376
 5974SOL     OW29383   1.086   2.717   8.266  0.0837  0.1223  0.2728
 5974SOL    HW129384   1.043   2.734   8.349  2.1151 -2.1376  1.7851
 5974SOL    HW229385   1.171   2.695   8.303 -0.1883 -0.8668  0.3088
 5975SOL     OW29386   4.253   0.560   8.527 -0.3750 -0.0765  0.0036
 5975SOL    HW129387   4.279   0.623   8.460 -0.1920 -1.3502 -1.1185
 5975SOL    HW229388   4.334   0.540   8.575 -0.1005  4.0704  1.2377
 5976SOL     OW29389   3.907   0.188   0.856 -0.2919  0.1044  0.1616
 5976SOL    HW129390   3.992   0.231   0.842 -0.3347  0.6672  1.5958
 5976SOL    HW229391   3.925   0.095   0.845  0.4228 -0.0356  2.5311
 5977SOL     OW29392   1.301   1.545   9.263 -0.0395  0.1512  0.3325
 5977SOL    HW129393   1.335   1.484   9.328 -1.5603 -2.8626 -1.7372
 5977SOL    HW229394   1.212   1.511   9.266 -0.1509  0.3333 -0.9344
 5978SOL     OW29395   3.613   0.713   4.193 -0.1819 -0.2159  0.0491
 5978SOL    HW129396   3.548   0.649   4.221 -1.4184  1.3644  0.7990
 5978SOL    HW229397   3.662   0.725   4.274  1.1807  1.4744 -1.0276
 5979SOL     OW29398   3.623   1.698  16.284  0.0336  0.7448 -0.7599
 5979SOL    HW129399   3.534   1.665  16.277 -0.5395  1.2582  3.7317
 5979SOL    HW229400   3.643   1.701  16.191  1.7102 -1.2505 -0.4806
 5980SOL     OW29401   4.312   1.683   5.385 -0.0364  0.3588  0.0282
 5980SOL    HW129402   4.398   1.641   5.381 -0.1064  0.1834  0.3317
 5980SOL    HW229403   4.280   1.656   5.471 -1.5942 -1.2453 -1.0613
 5981SOL     OW29404   2.374   3.741   3.516 -0.4629  0.0111 -0.4061
 5981SOL    HW129405   2.439   3.671   3.516 -2.8446 -2.1880 -2.2569
 5981SOL    HW229406   2.303   3.684   3.485  0.6813 -1.2645 -0.6680
 5982SOL     OW29407   0.908   0.764   3.644  0.3546  0.0741  0.4141
 5982SOL    HW129408   1.000   0.791   3.642  0.2833  0.3923  1.2862
 5982SOL    HW229409   0.899   0.750   3.738 -1.6507  1.2922  0.4038
 5983SOL     OW29410   3.155   1.721  10.968  0.7242 -0.3235  0.1516
 5983SOL    HW129411   3.126   1.688  11.053 -1.5905  3.1950  0.7305
 5983SOL    HW229412   3.084   1.782  10.949 -1.4496 -2.3425  1.8459
 5984SOL     OW29413   1.112   2.412   8.657 -0.1400 -0.2620 -0.0569
 5984SOL    HW129414   1.175   2.466   8.705  0.5079 -0.3139 -0.8580
 5984SOL    HW229415   1.166   2.342   8.622 -1.3501 -1.0408 -0.3775
 5985SOL     OW29416   3.197   3.823  15.754  0.4596 -0.3221 -0.5766
 5985SOL    HW129417   3.183   3.858  15.666 -1.5997 -0.7825 -0.4215
 5985SOL    HW229418   3.289   3.847  15.765 -0.4156  2.1375  1.2472
 5986SOL     OW29419   1.273   4.462   6.233 -0.0226 -0.1203 -0.3971
 5986SOL    HW129420   1.264   4.371   6.205  1.4173  0.2742 -2.2219
 5986SOL    HW229421   1.363   4.475   6.201  0.8897 -2.3073  1.3181
 5987SOL     OW29422   2.282   1.052  10.567 -0.2402  0.1713  0.3349
 5987SOL    HW129423   2.353   1.076  10.628 -1.7156  0.2125  2.0350
 5987SOL    HW229424   2.300   1.116  10.499 -0.7213 -0.9697 -0.8689
 5988SOL     OW29425   1.187   2.420   7.069  0.7737  0.3316 -0.2173
 5988SOL    HW129426   1.227   2.434   7.155  0.4709 -3.5474  0.5943
 5988SOL    HW229427   1.092   2.417   7.082  0.7695  1.1294 -0.0924
 5989SOL     OW29428   0.781   2.178   5.039 -0.8098 -0.2636  0.0026
 5989SOL    HW129429   0.828   2.182   4.956 -0.5575  3.8917  0.3454
 5989SOL    HW229430   0.770   2.269   5.066  5.5117  1.5711 -3.7263
 5990SOL     OW29431   4.552   1.716   5.823  0.5170  0.2087 -0.3395
 5990SOL    HW129432   4.615   1.713   5.750  1.1875 -1.3712  0.3164
 5990SOL    HW229433   4.587   1.787   5.876 -1.7810  1.2460 -0.2016
 5991SOL     OW29434   1.938   1.530   3.528 -0.3143  0.4084 -0.3085
 5991SOL    HW129435   1.975   1.596   3.470  0.2006  0.3147 -0.0847
 5991SOL    HW229436   1.845   1.552   3.517  0.0954  0.1372 -4.0256
 5992SOL     OW29437   0.590   0.540   5.906  0.5877  0.1578 -0.4180
 5992SOL    HW129438   0.611   0.597   5.980 -0.7720  0.5078 -0.3035
 5992SOL    HW229439   0.624   0.456   5.936  2.1936  1.5033  1.4555
 5993SOL     OW29440   2.570   0.771  12.602 -0.4128  0.1365  0.3253
 5993SOL    HW129441   2.605   0.698  12.653  0.2236  0.3585  0.2129
 5993SOL    HW229442   2.515   0.823  12.661 -2.0222 -1.2967  0.0843
 5994SOL     OW29443   2.111   4.092  14.041  0.4209 -0.0963 -0.0207
 5994SOL    HW129444   2.111   4.121  14.132  0.7950  0.4997 -0.2108
 5994SOL    HW229445   2.192   4.134  14.011  0.2050 -1.9791 -3.2389
 5995SOL     OW29446   0.657   0.979   0.407  0.5572  0.2357  0.1919
 5995SOL    HW129447   0.569   1.014   0.411 -0.0766 -1.1716 -1.2329
 5995SOL    HW229448   0.676   0.994   0.314 -0.8950 -0.0377 -0.1419
 5996SOL     OW29449   4.268   3.692   8.174 -0.5071 -0.2406 -0.4840
 5996SOL    HW129450   4.228   3.707   8.260  0.0980  0.5636 -0.3466
 5996SOL    HW229451   4.317   3.771   8.151 -1.5196  0.2076 -1.1031
 5997SOL     OW29452   3.362   3.662   6.480  0.7491  0.0376  0.4342
 5997SOL    HW129453   3.379   3.729   6.414  2.1435 -0.7202  0.0281
 5997SOL    HW229454   3.287   3.705   6.521 -0.3894 -1.9297  0.4146
 5998SOL     OW29455   4.417   0.145  12.303 -0.2123  0.2165  0.1128
 5998SOL    HW129456   4.465   0.160  12.384  0.4095 -0.6687 -0.0893
 5998SOL    HW229457   4.338   0.097  12.329 -0.1200 -0.8294 -1.5354
 5999SOL     OW29458   4.112   4.010   6.079 -0.3943  0.2398 -0.0201
 5999SOL    HW129459   4.188   4.060   6.048  0.2303 -1.0036 -0.5156
 5999SOL    HW229460   4.123   3.919   6.053  1.5731  0.1273  1.1843
 6000SOL     OW29461   3.195   0.322   3.385 -0.2806  0.1930  0.0465
 6000SOL    HW129462   3.286   0.351   3.383 -0.0268 -0.5373  1.5904
 6000SOL    HW229463   3.201   0.227   3.378 -0.8714  0.1877 -0.5036
 6001SOL     OW29464   0.251   0.757   2.207 -0.1122 -0.9801  0.2807
 6001SOL    HW129465   0.250   0.679   2.152  1.0761 -0.7037 -0.1160
 6001SOL    HW229466   0.201   0.816   2.150  0.3163 -1.7048 -0.8467
 6002SOL     OW29467   0.611   2.486  12.108 -0.4623 -0.0205 -0.2500
 6002SOL    HW129468   0.704   2.482  12.089 -0.3634 -0.7109  0.3820
 6002SOL    HW229469   0.593   2.393  12.093 -2.9685  0.4187  0.0245
 6003SOL     OW29470   3.301   1.883   7.906  0.3843  0.2336  0.8519
 6003SOL    HW129471   3.259   1.937   7.839  1.0484 -1.0478 -0.5875
 6003SOL    HW229472   3.244   1.807   7.915 -2.2446  2.0570 -0.1497
 6004SOL     OW29473   4.095   2.314  10.965  0.3309 -0.7261 -0.3389
 6004SOL    HW129474   4.013   2.357  10.990 -0.2152 -2.1004  0.2713
 6004SOL    HW229475   4.096   2.233  11.017 -0.2331 -0.9086 -0.6127
 6005SOL     OW29476   1.508   0.204   3.818  0.1864  0.3206  0.4848
 6005SOL    HW129477   1.469   0.192   3.732  2.5408 -2.7531 -0.1266
 6005SOL    HW229478   1.476   0.131   3.871  1.9395 -0.9738 -0.2261
 6006SOL     OW29479   0.286   0.503  12.004  0.0253  0.0969 -0.0895
 6006SOL    HW129480   0.233   0.582  12.011 -0.5012 -0.3604  1.0685
 6006SOL    HW229481   0.248   0.444  12.069 -0.2352 -1.4172 -1.6015
 6007SOL     OW29482   3.865   0.334   2.283 -0.0733 -0.4736  0.3550
 6007SOL    HW129483   3.917   0.307   2.207  1.7188 -1.1554  1.8068
 6007SOL    HW229484   3.883   0.263   2.345  0.3441  0.7164  1.6193
 6008SOL     OW29485   0.044   1.518   7.209 -0.5980 -0.1550  0.0627
 6008SOL    HW129486   4.687   1.484   7.171 -0.8038 -0.4976  0.7917
 6008SOL    HW229487   0.010   1.595   7.255 -2.2688 -1.0889  0.3641
 6009SOL     OW29488   3.880   1.060   8.761  0.5170 -0.1226  0.1465
 6009SOL    HW129489   3.818   1.076   8.690 -0.1552 -0.5126  0.6503
 6009SOL    HW229490   3.860   1.126   8.827 -1.4902 -0.6947  0.1166
 6010SOL     OW29491   4.681   2.841   4.468 -0.1278  0.5008  0.2781
 6010SOL    HW129492   0.033   2.887   4.506  1.0210 -0.4808 -0.7388
 6010SOL    HW229493   4.639   2.901   4.406 -0.3389 -0.0232 -0.0868
 6011SOL     OW29494   3.068   1.732   7.045  0.5653  0.3940  0.0567
 6011SOL    HW129495   3.065   1.659   6.983  1.9290  1.4907 -1.2943
 6011SOL    HW229496   3.106   1.797   6.987 -0.5646  0.4421 -0.6095
 6012SOL     OW29497   3.961   1.118   1.142 -0.1046  0.3680  0.0698
 6012SOL    HW129498   4.034   1.168   1.177  1.0321 -1.6326  0.5185
 6012SOL    HW229499   3.947   1.069   1.223  0.2951 -2.4174 -1.5522
 6013SOL     OW29500   2.388   1.074   1.973 -0.7397 -0.0309  0.1897
 6013SOL    HW129501   2.332   1.149   1.951  0.7603  1.4715  1.5891
 6013SOL    HW229502   2.472   1.114   1.994  0.2272 -1.7372 -0.4549
 6014SOL     OW29503   3.781   3.986  14.264 -0.3022 -0.1452 -0.0840
 6014SOL    HW129504   3.833   3.906  14.272 -1.6584 -1.0021  0.2134
 6014SOL    HW229505   3.803   4.011  14.174 -2.3532  0.3206 -0.4463
 6015SOL     OW29506   1.317   0.132   3.613 -0.1793  0.2626  0.0303
 6015SOL    HW129507   1.311   0.067   3.543  2.6431 -0.1557  0.1860
 6015SOL    HW229508   1.225   0.139   3.640 -0.4200 -0.7367 -0.5212
 6016SOL     OW29509   1.054   2.125   7.582  0.4066 -0.3960  0.3964
 6016SOL    HW129510   1.129   2.146   7.527 -0.1050 -1.8183 -0.8465
 6016SOL    HW229511   1.092   2.051   7.628  0.4925 -0.1711  0.6947
 6017SOL     OW29512   2.486   2.728   9.001  0.0345 -0.4767 -0.1851
 6017SOL    HW129513   2.403   2.731   9.049  0.2462 -3.3595  0.3779
 6017SOL    HW229514   2.529   2.805   9.037 -0.2626  0.0990 -1.0789
 6018SOL     OW29515   2.295   1.415   4.731 -0.3380 -0.4994  0.2464
 6018SOL    HW129516   2.304   1.351   4.803 -0.7946  0.3252  1.0315
 6018SOL    HW229517   2.387   1.442   4.731 -0.6369  0.4842 -0.1954
 6019SOL     OW29518   3.897   2.714   9.682 -0.2513 -0.2068 -0.3024
 6019SOL    HW129519   3.831   2.774   9.717 -1.0880 -0.4531 -1.4732
 6019SOL    HW229520   3.959   2.780   9.651 -0.6163 -0.1996 -1.0138
 6020SOL     OW29521   1.261   1.126   5.216 -0.2349 -0.5801  0.3330
 6020SOL    HW129522   1.170   1.127   5.188 -0.4512 -0.4707  1.0422
 6020SOL    HW229523   1.252   1.119   5.311 -0.0684  0.8317  0.4655
 6021SOL     OW29524   3.962   4.600  11.629  0.2572  0.0246 -0.1294
 6021SOL    HW129525   3.998   4.686  11.645  1.6509 -0.3007 -1.5097
 6021SOL    HW229526   3.869   4.624  11.621  0.3771 -0.3552 -2.5303
 6022SOL     OW29527   2.888   4.450   4.303  0.0041 -0.3188 -0.7846
 6022SOL    HW129528   2.981   4.471   4.293  0.2615  0.6554  3.6591
 6022SOL    HW229529   2.900   4.369   4.354 -0.0030  0.5079  0.5355
 6023SOL     OW29530   2.371   2.836   2.884  0.5088  0.2126 -0.0333
 6023SOL    HW129531   2.464   2.860   2.888  0.5106  0.0919  0.7423
 6023SOL    HW229532   2.376   2.740   2.888 -0.2326  0.1942  0.4987
 6024SOL     OW29533   0.677   3.719  14.513 -0.5607  0.1945  0.3569
 6024SOL    HW129534   0.745   3.726  14.580 -0.5145 -2.9011  0.6050
 6024SOL    HW229535   0.707   3.787  14.451 -0.4447 -0.4525 -0.2961
 6025SOL     OW29536   0.564   4.156   9.151 -0.2087 -0.2731  0.3966
 6025SOL    HW129537   0.646   4.191   9.116 -0.2736 -1.0474 -0.5211
 6025SOL    HW229538   0.503   4.220   9.115 -0.2626 -0.4257  0.2166
 6026SOL     OW29539   4.427   2.662   3.757  0.5412 -0.3414  0.6479
 6026SOL    HW129540   4.518   2.632   3.753  0.6060  0.1763 -1.7093
 6026SOL    HW229541   4.398   2.628   3.842  0.4170 -3.0504 -0.4746
 6027SOL     OW29542   2.088   2.168   7.902  0.0776 -0.4678  0.2122
 6027SOL    HW129543   2.148   2.097   7.879 -0.4570 -1.1626  0.9521
 6027SOL    HW229544   2.145   2.241   7.927  0.9346 -0.7339 -0.9752
 6028SOL     OW29545   4.597   4.060  17.386 -0.1013  0.3255  0.5345
 6028SOL    HW129546   4.593   4.143  17.339  0.9677  0.9542  1.5494
 6028SOL    HW229547   4.518   4.014  17.358  0.3004 -0.5281  0.7777
 6029SOL     OW29548   0.873   1.606  11.790 -0.1320 -0.4886  0.2027
 6029SOL    HW129549   0.930   1.659  11.846 -1.1719 -1.4981  2.2202
 6029SOL    HW229550   0.903   1.628  11.702 -0.1115 -0.3912  0.2342
 6030SOL     OW29551   2.264   1.621   3.667  0.0431 -0.0520  0.0091
 6030SOL    HW129552   2.263   1.571   3.586  0.2713  0.7397 -0.4822
 6030SOL    HW229553   2.317   1.561   3.719  1.5687  1.0717 -0.2713
 6031SOL     OW29554   2.549   1.535   5.171 -0.0896 -0.1035  0.0859
 6031SOL    HW129555   2.549   1.631   5.172 -1.2001 -0.0786 -2.2050
 6031SOL    HW229556   2.459   1.512   5.144 -0.1381  0.2084 -0.0223
 6032SOL     OW29557   2.770   3.250   4.529  0.0234 -0.3573 -0.1641
 6032SOL    HW129558   2.785   3.206   4.445 -0.3529  1.8547 -1.4175
 6032SOL    HW229559   2.697   3.194   4.558 -0.4873  0.1021 -0.5550
 6033SOL     OW29560   3.038   1.309   7.673  0.0593  0.4420 -0.4522
 6033SOL    HW129561   3.064   1.356   7.594 -0.3888  1.6777  0.1317
 6033SOL    HW229562   3.016   1.224   7.634  1.9950 -0.6798  0.8726
 6034SOL     OW29563   1.114   4.609   2.921  0.0874 -0.2037  0.3196
 6034SOL    HW129564   1.159   4.623   2.838 -3.3373  1.3355 -1.2762
 6034SOL    HW229565   1.168   4.544   2.966 -0.0346 -0.0919  0.6231
 6035SOL     OW29566   1.286   0.038   0.809 -0.0541  0.0882 -0.4534
 6035SOL    HW129567   1.222   0.035   0.880 -0.0554 -2.6136 -0.5750
 6035SOL    HW229568   1.313   4.671   0.790 -1.7039  0.1866 -3.2094
 6036SOL     OW29569   3.408   1.533   4.528  0.3523 -0.0489 -0.3497
 6036SOL    HW129570   3.408   1.594   4.602 -0.1560  0.5893 -0.8866
 6036SOL    HW229571   3.402   1.600   4.461  2.3441  0.4867 -0.0027
 6037SOL     OW29572   1.055   0.553   8.228 -0.0769  0.1681  0.2072
 6037SOL    HW129573   1.048   0.639   8.186  0.2974  0.9759  1.8131
 6037SOL    HW229574   0.967   0.522   8.208 -0.1543  0.3553  0.2626
 6038SOL     OW29575   3.371   1.561  16.293  0.7378  0.1123 -0.0857
 6038SOL    HW129576   3.282   1.564  16.258 -0.0240  2.8168  2.1041
 6038SOL    HW229577   3.339   1.570  16.383 -0.7457 -0.8368 -0.5328
 6039SOL     OW29578   1.242   0.216  16.000  0.2903  0.0061 -0.1743
 6039SOL    HW129579   1.256   0.240  15.909 -0.4542 -0.9157 -0.5344
 6039SOL    HW229580   1.314   0.154  16.010  0.9827  0.5593 -1.8431
 6040SOL     OW29581   1.433   0.602   5.775  0.0923 -0.8106  0.8040
 6040SOL    HW129582   1.354   0.640   5.813  0.1766 -1.7016  1.8728
 6040SOL    HW229583   1.415   0.605   5.681  0.1659 -1.0046  0.7830
 6041SOL     OW29584   3.653   0.904   9.958  0.1632 -0.2137 -0.1071
 6041SOL    HW129585   3.727   0.911   9.898 -1.3361 -1.0290 -2.0608
 6041SOL    HW229586   3.612   0.990   9.949 -0.7635 -0.3989  2.2094
 6042SOL     OW29587   2.449   2.868   8.033 -0.0675 -0.3333 -0.3031
 6042SOL    HW129588   2.472   2.909   7.949  0.2467  1.8241  0.8296
 6042SOL    HW229589   2.411   2.789   7.994  0.0547 -0.5220 -0.0365
 6043SOL     OW29590   0.451   0.765   5.792 -0.1226 -0.4019  0.0758
 6043SOL    HW129591   0.476   0.673   5.792 -1.3142 -0.7357 -3.2259
 6043SOL    HW229592   0.499   0.799   5.868 -1.7808 -0.5209  1.1908
 6044SOL     OW29593   1.563   4.693  12.618 -0.2652  0.6372  0.1740
 6044SOL    HW129594   1.604   4.698  12.532  1.7655  1.9725  1.2189
 6044SOL    HW229595   1.639   4.712  12.673 -1.0785  1.2955  1.0874
 6045SOL     OW29596   3.742   2.412  10.057  0.4548 -0.2601 -0.0776
 6045SOL    HW129597   3.786   2.491  10.025 -0.9957  1.4104  2.0637
 6045SOL    HW229598   3.756   2.350   9.985  0.2389  0.0408 -0.3808
 6046SOL     OW29599   2.617   1.444   4.196 -0.1117 -0.3542 -0.7345
 6046SOL    HW129600   2.641   1.425   4.287  1.8022  1.9100 -0.7693
 6046SOL    HW229601   2.596   1.358   4.161 -0.3899 -0.7393  0.3703
 6047SOL     OW29602   2.225   0.227  10.802 -0.2254 -0.5760  0.5625
 6047SOL    HW129603   2.173   0.154  10.838  1.3610 -2.0665 -0.1985
 6047SOL    HW229604   2.170   0.276  10.741 -0.8633 -1.0249  0.7770
 6048SOL     OW29605   0.909   0.569  17.480  0.4395 -0.2078 -0.3103
 6048SOL    HW129606   0.991   0.611  17.505 -0.3337  0.2839  1.4094
 6048SOL    HW229607   0.931   0.559  17.387  0.5828 -0.8678 -0.2073
 6049SOL     OW29608   0.493   4.229   0.437  0.1336 -0.6709  0.2179
 6049SOL    HW129609   0.545   4.158   0.475  1.9161  1.9544  2.6518
 6049SOL    HW229610   0.406   4.213   0.472 -0.5806 -1.3735 -1.8525
 6050SOL     OW29611   0.121   4.429   6.960 -0.0801 -0.5293 -0.0960
 6050SOL    HW129612   0.036   4.386   6.953 -0.3169 -0.6377  3.3859
 6050SOL    HW229613   0.098   4.506   6.907 -2.0333 -0.9127  0.1937
 6051SOL     OW29614   0.669   1.069  14.162 -0.1014  0.0678  0.2785
 6051SOL    HW129615   0.631   1.039  14.245 -1.3168 -0.1659 -0.3593
 6051SOL    HW229616   0.663   1.165  14.169  3.5152  0.4479 -2.0913
 6052SOL     OW29617   4.038   3.280  10.196 -0.2387 -0.5262 -0.0643
 6052SOL    HW129618   3.985   3.359  10.203 -0.3644 -0.6748  0.7979
 6052SOL    HW229619   4.087   3.296  10.277 -0.4528 -0.1106 -0.0173
 6053SOL     OW29620   2.015   2.162   6.560  0.0665 -0.1031  0.5124
 6053SOL    HW129621   2.012   2.066   6.565  4.5482 -0.2145  0.9407
 6053SOL    HW229622   1.925   2.182   6.588  0.3316  1.8366 -0.0357
 6054SOL     OW29623   1.657   1.534   6.682  0.1250  0.2862  0.0732
 6054SOL    HW129624   1.661   1.615   6.630  1.1657 -0.7019 -1.4032
 6054SOL    HW229625   1.595   1.484   6.628 -1.4118  0.9416  1.2265
 6055SOL     OW29626   0.177   3.171  12.972 -0.3109 -0.1877  0.1826
 6055SOL    HW129627   0.182   3.120  12.891 -0.5794  0.2413 -0.1027
 6055SOL    HW229628   0.205   3.260  12.952  0.6649 -1.1463 -2.7878
 6056SOL     OW29629   4.553   3.064   4.347 -0.4579 -0.1925 -0.3136
 6056SOL    HW129630   4.566   3.129   4.416 -2.1747 -1.6955  1.4009
 6056SOL    HW229631   4.462   3.065   4.318 -0.3469  1.1551 -0.6383
 6057SOL     OW29632   1.968   1.508   6.348  0.0111  0.1838  0.0170
 6057SOL    HW129633   1.904   1.557   6.297  1.4212  1.6141 -0.3572
 6057SOL    HW229634   2.051   1.534   6.308 -0.9611  0.1389 -2.0298
 6058SOL     OW29635   1.682   1.751   4.102 -0.0063  0.3602  0.1218
 6058SOL    HW129636   1.771   1.739   4.068 -0.3978 -3.1951  0.3733
 6058SOL    HW229637   1.658   1.662   4.126 -0.7392  0.5135 -0.0430
 6059SOL     OW29638   0.726   0.289   3.366  0.0254 -0.3010  0.3480
 6059SOL    HW129639   0.779   0.321   3.293 -0.0586 -0.3235  0.2769
 6059SOL    HW229640   0.638   0.287   3.327  0.5640  2.0263 -1.0010
 6060SOL     OW29641   1.028   4.513   8.777 -0.6224  0.1675 -0.5044
 6060SOL    HW129642   0.940   4.497   8.742 -1.4935  4.0249 -0.1286
 6060SOL    HW229643   1.051   4.423   8.801 -1.8015  0.0709  0.3118
 6061SOL     OW29644   4.123   2.144   2.520  0.2507 -0.2756  0.2770
 6061SOL    HW129645   4.059   2.187   2.464 -1.3774 -0.4988  1.9341
 6061SOL    HW229646   4.210   2.168   2.487 -0.3729  2.2109  0.4598
 6062SOL     OW29647   2.806   1.980   4.724  0.1430 -0.1470 -0.2379
 6062SOL    HW129648   2.757   1.967   4.806  0.8746 -0.1790  0.1915
 6062SOL    HW229649   2.792   2.072   4.704  1.3678 -0.3135 -1.8338
 6063SOL     OW29650   0.253   2.286   6.086 -0.0352  0.3723 -0.8560
 6063SOL    HW129651   0.171   2.334   6.093  0.8572  1.4050  2.6589
 6063SOL    HW229652   0.231   2.218   6.022  0.2881  0.5904 -1.2008
 6064SOL     OW29653   1.742   4.542   7.350 -0.1533  0.0955  0.2176
 6064SOL    HW129654   1.735   4.622   7.402 -0.5561  0.2743 -0.1134
 6064SOL    HW229655   1.785   4.568   7.269 -3.0622 -1.3057 -1.7706
 6065SOL     OW29656   3.748   0.382  12.667  0.4852  0.4333  0.0596
 6065SOL    HW129657   3.732   0.370  12.760 -2.2908  0.2883 -0.4406
 6065SOL    HW229658   3.769   0.475  12.677  0.3670  0.4715 -0.0438
 6066SOL     OW29659   1.546   4.341   7.443 -0.0541  0.1514  0.0463
 6066SOL    HW129660   1.574   4.400   7.373 -3.1066  2.8451  1.1388
 6066SOL    HW229661   1.507   4.408   7.499 -0.2317 -0.4343  0.6249
 6067SOL     OW29662   1.507   4.588   6.414 -0.2688  0.1467 -0.0789
 6067SOL    HW129663   1.460   4.514   6.453  1.1709 -1.6272 -1.6818
 6067SOL    HW229664   1.482   4.657   6.475  3.0003  1.2011  0.1072
 6068SOL     OW29665   3.170   1.567   4.976  0.5532  0.2320  0.5784
 6068SOL    HW129666   3.118   1.501   5.022  0.0754 -0.1794 -0.5640
 6068SOL    HW229667   3.105   1.596   4.912 -0.5119 -0.4170  1.3487
 6069SOL     OW29668   0.067   0.834   1.250  0.4479 -0.0545 -0.1270
 6069SOL    HW129669   0.010   0.786   1.310 -0.6158 -0.8349 -1.7481
 6069SOL    HW229670   0.049   0.925   1.275  1.3991 -0.1523  0.8958
 6070SOL     OW29671   4.162   1.261  17.097 -0.0818  0.1725  0.0240
 6070SOL    HW129672   4.167   1.263  17.001 -3.6025 -0.6277 -0.1686
 6070SOL    HW229673   4.131   1.348  17.122 -1.6275 -0.0695 -1.0385
 6071SOL     OW29674   0.336   2.806   4.618  0.8571 -0.3816  0.5947
 6071SOL    HW129675   0.426   2.800   4.648  1.4649  1.7076 -0.7949
 6071SOL    HW229676   0.346   2.747   4.543 -0.5948 -0.6658  0.6222
 6072SOL     OW29677   2.186   1.464  10.149  0.2339 -0.3075 -0.1241
 6072SOL    HW129678   2.253   1.461  10.081  0.8605 -2.5554  0.5845
 6072SOL    HW229679   2.193   1.555  10.178 -3.9055 -0.6915  2.1028
 6073SOL     OW29680   2.354   3.735   7.464 -0.3816  0.1359  0.4691
 6073SOL    HW129681   2.352   3.796   7.391  0.6796 -1.6705 -1.0661
 6073SOL    HW229682   2.287   3.772   7.521 -1.1267 -0.5385  0.0291
 6074SOL     OW29683   2.194   2.725   1.261  0.1525  0.6691  0.2527
 6074SOL    HW129684   2.229   2.767   1.182  1.6051  0.3037  0.7083
 6074SOL    HW229685   2.133   2.668   1.215 -0.1777  0.2744  1.1754
 6075SOL     OW29686   2.038   3.828   4.124  0.0796  0.3819  0.1730
 6075SOL    HW129687   2.109   3.777   4.084  0.4514  2.2561 -1.5707
 6075SOL    HW229688   2.033   3.787   4.210 -0.5993  0.5061  0.1941
 6076SOL     OW29689   1.890   1.687   8.843 -0.1137 -0.2020  0.2015
 6076SOL    HW129690   1.913   1.730   8.761 -2.3873  1.8365  0.6352
 6076SOL    HW229691   1.819   1.628   8.820  0.1856 -1.0188  1.3675
 6077SOL     OW29692   0.211   4.145  11.975  0.0477  0.2470  0.5809
 6077SOL    HW129693   0.275   4.079  12.005 -0.6207 -1.7237 -2.3253
 6077SOL    HW229694   0.267   4.223  11.977  0.2703  0.0638  1.7026
 6078SOL     OW29695   3.338   3.080   8.559  0.0458  0.4130  0.6746
 6078SOL    HW129696   3.256   3.111   8.520 -0.0559  0.4072  0.8833
 6078SOL    HW229697   3.365   3.156   8.612  0.5028  0.1428  0.8219
 6079SOL     OW29698   3.212   3.485   5.080 -0.4676  0.2292  0.1239
 6079SOL    HW129699   3.273   3.470   5.153 -0.2609  0.3136 -0.0339
 6079SOL    HW229700   3.239   3.575   5.064 -2.0492  0.4773 -1.1231
 6080SOL     OW29701   1.962   2.755  10.738 -0.3680  0.3518  0.0860
 6080SOL    HW129702   2.042   2.765  10.789 -0.9316 -2.1316  1.4724
 6080SOL    HW229703   1.933   2.665  10.753  2.6211 -0.2937  1.8435
 6081SOL     OW29704   0.959   2.744   8.503  0.0707  0.9250  0.3431
 6081SOL    HW129705   0.878   2.694   8.495 -0.0928  1.3969 -0.9052
 6081SOL    HW229706   0.972   2.728   8.597  0.5342  0.8086  0.2612
 6082SOL     OW29707   3.206   2.463   7.123 -0.1281  0.4369  0.2105
 6082SOL    HW129708   3.289   2.504   7.100 -1.5827  2.5959 -1.1332
 6082SOL    HW229709   3.220   2.428   7.211 -1.6238  0.2269  0.3496
 6083SOL     OW29710   4.313   0.651   5.718  0.1397 -0.4139 -0.3232
 6083SOL    HW129711   4.252   0.580   5.737  1.7051 -1.1092  2.1194
 6083SOL    HW229712   4.288   0.711   5.788 -0.7944  2.1903 -2.8766
 6084SOL     OW29713   1.923   0.598   2.963  0.0156 -0.2316  0.2634
 6084SOL    HW129714   1.972   0.665   2.915  0.5909 -2.2053 -1.9239
 6084SOL    HW229715   1.864   0.562   2.897  0.1504 -0.2648  0.1622
 6085SOL     OW29716   4.188   2.444   3.867 -0.1346 -0.7109 -0.3111
 6085SOL    HW129717   4.102   2.483   3.853 -0.1365 -1.0827 -1.2999
 6085SOL    HW229718   4.204   2.400   3.784 -3.5558 -0.5496 -1.0693
 6086SOL     OW29719   0.961   0.579   0.863 -0.3623 -0.0984  0.3453
 6086SOL    HW129720   0.880   0.529   0.862  0.1268 -0.8299 -0.9818
 6086SOL    HW229721   0.942   0.633   0.941  1.9504  1.6832 -0.3293
 6087SOL     OW29722   3.165   3.386  12.943  0.2449 -0.4631  0.4054
 6087SOL    HW129723   3.219   3.440  12.886 -1.9730 -1.0440 -2.2719
 6087SOL    HW229724   3.146   3.307  12.892 -1.4711 -0.2906  0.7769
 6088SOL     OW29725   1.330   0.806   8.723 -0.3694 -0.0083 -0.2324
 6088SOL    HW129726   1.304   0.765   8.640  1.0643 -1.2766 -0.0585
 6088SOL    HW229727   1.415   0.767   8.746  0.4728  0.4196 -2.5304
 6089SOL     OW29728   3.639   2.993   9.589 -0.4688 -0.3363 -0.2000
 6089SOL    HW129729   3.671   2.968   9.676  2.1088  0.1359 -0.9976
 6089SOL    HW229730   3.696   2.953   9.524 -0.3097  1.2927 -1.0701
 6090SOL     OW29731   0.995   3.667   8.437  0.1708 -0.5803  0.7491
 6090SOL    HW129732   0.998   3.744   8.494  1.7881  0.9241 -1.3483
 6090SOL    HW229733   0.903   3.645   8.447  0.1465 -0.8553 -0.1239
 6091SOL     OW29734   0.008   4.477  14.921 -0.2570  0.1445 -0.1552
 6091SOL    HW129735   4.643   4.516  14.922 -0.0964  0.4988  0.1823
 6091SOL    HW229736   0.026   4.485  15.014  0.9791 -0.6114 -0.3304
 6092SOL     OW29737   2.904   4.320   9.377  0.1278  0.7624 -0.6787
 6092SOL    HW129738   2.852   4.267   9.438  0.0631 -0.5109 -1.8282
 6092SOL    HW229739   2.851   4.399   9.386  0.4222  0.9873 -0.9290
 6093SOL     OW29740   3.434   0.989  14.251 -0.8362  0.4274 -0.1019
 6093SOL    HW129741   3.443   1.083  14.269  1.4361 -0.4414  3.2604
 6093SOL    HW229742   3.521   0.960  14.278 -0.6711 -1.4151 -2.7146
 6094SOL     OW29743   4.078   1.671  12.126 -0.0606  0.0908  0.4139
 6094SOL    HW129744   4.059   1.660  12.219 -1.2967 -0.4960  0.0862
 6094SOL    HW229745   4.032   1.753  12.106 -0.5883 -0.6018 -1.2074
 6095SOL     OW29746   2.862   4.075   3.385  0.2326  0.3257  0.0214
 6095SOL    HW129747   2.867   3.994   3.334  0.7562 -0.1765  0.8702
 6095SOL    HW229748   2.820   4.133   3.321  0.4252 -0.4931 -0.8588
 6096SOL     OW29749   1.338   1.618   5.318  0.2742 -0.3579 -0.5439
 6096SOL    HW129750   1.279   1.586   5.249  2.6003 -1.2268 -2.1166
 6096SOL    HW229751   1.382   1.690   5.273  0.9414 -0.8210 -0.6336
 6097SOL     OW29752   4.183   1.154   8.201  0.2566  0.2786 -0.2708
 6097SOL    HW129753   4.136   1.170   8.282 -2.4908  1.2794 -2.0495
 6097SOL    HW229754   4.109   1.176   8.144 -1.2209 -0.5273  1.3757
 6098SOL     OW29755   3.225   3.500   6.795  0.3006  0.3086  0.2935
 6098SOL    HW129756   3.181   3.504   6.880  0.1393 -2.0959  0.3445
 6098SOL    HW229757   3.291   3.568   6.807  1.1143 -0.6172  1.1308
 6099SOL     OW29758   0.895   0.276   7.488  0.0933 -0.0845  0.4545
 6099SOL    HW129759   0.867   0.360   7.524  0.0436  0.8051 -1.6925
 6099SOL    HW229760   0.954   0.253   7.560  1.3497 -0.2664 -0.6337
 6100SOL     OW29761   3.317   0.744   7.371  0.4261  0.3603 -0.1244
 6100SOL    HW129762   3.343   0.701   7.453  1.7712 -0.6901 -1.1016
 6100SOL    HW229763   3.379   0.703   7.311  0.2282 -0.5314  0.2769
 6101SOL     OW29764   3.952   2.509  16.168  0.5358 -0.6779  0.6318
 6101SOL    HW129765   4.017   2.449  16.205  0.0799 -1.1311  0.7106
 6101SOL    HW229766   3.922   2.454  16.095  1.7377  2.0951 -1.9447
 6102SOL     OW29767   4.325   0.047  16.720 -0.7793 -0.0086 -0.1013
 6102SOL    HW129768   4.415   0.046  16.686 -0.6768  1.9977  0.1327
 6102SOL    HW229769   4.313   0.141  16.733 -1.2662 -0.0803 -0.0616
 6103SOL     OW29770   3.513   1.898   3.652  0.0400  0.1744  0.4718
 6103SOL    HW129771   3.547   1.987   3.654  0.2660  0.0885  0.5062
 6103SOL    HW229772   3.589   1.843   3.673  0.0605 -0.8204 -2.2591
 6104SOL     OW29773   0.967   1.650   9.150  0.0018  0.3373  0.0484
 6104SOL    HW129774   1.013   1.709   9.209 -0.0928 -0.2709  0.7288
 6104SOL    HW229775   0.873   1.666   9.152 -0.3690 -1.7695 -0.1565
 6105SOL     OW29776   3.494   4.046   4.162 -0.1425  0.4587 -0.4764
 6105SOL    HW129777   3.576   4.095   4.176 -1.2663  1.9859  0.7075
 6105SOL    HW229778   3.503   3.980   4.230  2.8216  3.2118  1.7956
 6106SOL     OW29779   4.415   3.667   7.023  0.0103  0.2566 -0.0104
 6106SOL    HW129780   4.352   3.616   7.074  0.2484  1.2102  1.2325
 6106SOL    HW229781   4.449   3.731   7.085  0.5143  0.9606 -1.0059
 6107SOL     OW29782   1.773   2.181   1.144  0.7988  0.3899 -0.2542
 6107SOL    HW129783   1.802   2.162   1.055  1.4147  0.3052 -0.0419
 6107SOL    HW229784   1.720   2.252   1.110 -0.7796 -1.1204 -0.9278
 6108SOL     OW29785   3.550   4.490  16.738  0.3035 -0.1218 -0.3198
 6108SOL    HW129786   3.573   4.473  16.647 -1.4972 -0.5705 -0.6939
 6108SOL    HW229787   3.640   4.479  16.769 -1.0925 -0.2386  3.6978
 6109SOL     OW29788   4.233   2.625   2.525  0.5854  0.0392 -0.1112
 6109SOL    HW129789   4.148   2.626   2.569  0.3350  0.7047 -0.6046
 6109SOL    HW229790   4.220   2.681   2.449  1.2341 -2.1044 -1.8131
 6110SOL     OW29791   4.498   1.934   6.196 -0.3851  0.0048  0.0635
 6110SOL    HW129792   4.443   1.855   6.191 -0.1379 -0.2519  1.4465
 6110SOL    HW229793   4.567   1.922   6.131  1.1302 -0.1163  1.6952
 6111SOL     OW29794   1.266   0.883   7.206 -0.0023  0.1386 -0.3381
 6111SOL    HW129795   1.300   0.842   7.127 -0.7054  2.6777 -1.9508
 6111SOL    HW229796   1.177   0.894   7.173 -0.0723 -0.7511 -0.4402
 6112SOL     OW29797   1.472   4.628   8.654  0.4091  0.5020 -0.4703
 6112SOL    HW129798   1.382   4.656   8.641  0.2118 -1.3567 -3.1385
 6112SOL    HW229799   1.466   4.533   8.648  1.2224  0.4328 -0.2808
 6113SOL     OW29800   3.809   3.530  16.629 -0.2318  0.6922  0.3108
 6113SOL    HW129801   3.808   3.436  16.614 -1.5936  0.8725 -0.7353
 6113SOL    HW229802   3.734   3.539  16.688  0.6347 -1.5185  1.7344
 6114SOL     OW29803   1.226   4.622   7.715 -0.0305 -0.2732 -0.6851
 6114SOL    HW129804   1.271   4.620   7.800 -0.0848  0.4716 -0.6442
 6114SOL    HW229805   1.300   4.598   7.658  0.6820 -0.1179  0.1690
 6115SOL     OW29806   4.032   2.063   8.146  0.2271 -0.2000 -0.0184
 6115SOL    HW129807   3.999   2.108   8.224  1.2939 -1.8268  1.3598
 6115SOL    HW229808   4.049   1.977   8.185  1.6275  1.7067  3.5156
 6116SOL     OW29809   1.021   2.474  16.702 -0.1108  0.1564 -0.0855
 6116SOL    HW129810   1.021   2.379  16.711  0.7594  0.3543  2.1217
 6116SOL    HW229811   1.107   2.478  16.661  0.0753 -0.7522  0.2223
 6117SOL     OW29812   1.763   3.499   0.846 -0.1450  0.6938  0.2956
 6117SOL    HW129813   1.801   3.584   0.825  0.0177  0.7688  0.8986
 6117SOL    HW229814   1.756   3.458   0.760 -0.3439  1.3537 -0.0072
 6118SOL     OW29815   1.091   3.641   7.948 -0.5140  0.2151 -0.1336
 6118SOL    HW129816   1.137   3.639   7.864  1.4716  1.3750  0.9292
 6118SOL    HW229817   1.138   3.709   7.996 -0.1704  0.3582 -0.6715
 6119SOL     OW29818   2.794   3.602   8.960 -0.1129  0.6696 -0.1609
 6119SOL    HW129819   2.748   3.596   9.044 -3.2951  0.1080 -1.9297
 6119SOL    HW229820   2.782   3.689   8.924  0.4415  0.5990 -0.5132
 6120SOL     OW29821   1.367   2.990   4.832 -0.5289  0.0847 -0.2068
 6120SOL    HW129822   1.388   2.897   4.822  0.2026  0.1974  0.2372
 6120SOL    HW229823   1.333   3.002   4.744  0.3171  1.1937 -0.3837
 6121SOL     OW29824   2.305   1.914  11.584  0.5782  0.3054  0.6175
 6121SOL    HW129825   2.388   1.954  11.556  0.5140  0.0899  0.1144
 6121SOL    HW229826   2.268   1.985  11.637 -0.7510  0.0953 -0.0266
 6122SOL     OW29827   1.744   0.754   8.558 -0.1852  0.7236  0.3873
 6122SOL    HW129828   1.695   0.732   8.479 -1.0374  0.2544  1.0354
 6122SOL    HW229829   1.691   0.705   8.621 -1.0809  1.1034 -0.0654
 6123SOL     OW29830   2.671   0.265   3.956  0.1247  0.2053 -0.2588
 6123SOL    HW129831   2.726   0.214   3.896 -1.0187 -2.7916  1.2267
 6123SOL    HW229832   2.654   0.348   3.913 -3.0506  0.8662  2.2805
 6124SOL     OW29833   0.998   2.838   8.037 -0.2455  0.0654 -0.0297
 6124SOL    HW129834   1.018   2.775   8.106  1.8478 -0.7835 -1.4113
 6124SOL    HW229835   0.971   2.777   7.968 -0.9059  0.8164 -0.4285
 6125SOL     OW29836   2.946   0.544   9.484 -0.1104 -0.4472  0.0022
 6125SOL    HW129837   3.033   0.503   9.486  0.0479 -0.0125  2.2439
 6125SOL    HW229838   2.960   0.632   9.449  2.2171 -0.8901 -0.1992
 6126SOL     OW29839   4.650   1.128   2.093 -0.9710 -0.1541 -0.2695
 6126SOL    HW129840   4.713   1.200   2.094 -1.7469  0.5286 -0.4791
 6126SOL    HW229841   4.579   1.165   2.040 -0.9428  1.1605  0.6027
 6127SOL     OW29842   2.315   4.687   0.006 -0.2621 -0.3057 -0.2876
 6127SOL    HW129843   2.373   0.008   0.069  0.5187 -0.6711 -0.7560
 6127SOL    HW229844   2.245   4.673   0.069  1.3604 -1.5061  1.2494
 6128SOL     OW29845   4.385   3.132   3.343  0.2205  0.2006  0.0707
 6128SOL    HW129846   4.377   3.038   3.328 -2.0165  0.3860  0.1566
 6128SOL    HW229847   4.436   3.133   3.424 -0.7713  0.5311  0.6874
 6129SOL     OW29848   1.756   2.370   6.980  1.0445  0.4098 -0.1588
 6129SOL    HW129849   1.727   2.441   7.037 -0.9027 -0.8155  0.3363
 6129SOL    HW229850   1.812   2.317   7.037 -1.7456 -0.2395  1.9345
 6130SOL     OW29851   1.491   2.170   2.369 -0.2254 -0.0581  0.1527
 6130SOL    HW129852   1.486   2.211   2.282 -1.7502  2.0494  1.2380
 6130SOL    HW229853   1.572   2.120   2.360 -0.7123 -0.8071 -0.0884
 6131SOL     OW29854   3.768   4.141   5.003 -0.2853  0.4714  0.4200
 6131SOL    HW129855   3.815   4.220   4.975 -0.6801  0.7536  0.5477
 6131SOL    HW229856   3.827   4.074   4.967 -0.6689  1.4299 -1.9476
 6132SOL     OW29857   1.495   1.570  15.392  0.1122 -0.2966  0.4523
 6132SOL    HW129858   1.530   1.485  15.365 -0.0953 -0.7630  1.6389
 6132SOL    HW229859   1.536   1.568  15.479 -0.8852  0.0895  0.9404
 6133SOL     OW29860   2.114   0.547   3.129  0.0271 -0.3552  0.0123
 6133SOL    HW129861   2.170   0.481   3.089 -0.7523 -0.3501 -1.0802
 6133SOL    HW229862   2.044   0.559   3.065  1.0733  1.4050 -0.7948
 6134SOL     OW29863   2.970   1.448   9.906 -0.3594 -0.4677 -0.2524
 6134SOL    HW129864   3.018   1.527   9.885 -0.1106 -0.4164  0.5008
 6134SOL    HW229865   3.003   1.436   9.995  1.2481  4.5761 -0.1753
 6135SOL     OW29866   3.437   1.129   7.159  0.0199 -0.1486  0.2243
 6135SOL    HW129867   3.396   1.076   7.090 -0.4310 -1.2271  1.3050
 6135SOL    HW229868   3.376   1.128   7.233  3.1501  2.3260  2.8466
 6136SOL     OW29869   2.118   0.061   5.127  0.3311  0.2775  0.6662
 6136SOL    HW129870   2.045   0.098   5.078 -0.0133 -2.6371 -1.0476
 6136SOL    HW229871   2.112   0.113   5.207  0.0854 -0.8368  1.3746
 6137SOL     OW29872   2.748   1.085   2.902  0.1240  0.0566 -0.3803
 6137SOL    HW129873   2.809   1.038   2.846  0.7760  0.6889 -0.2062
 6137SOL    HW229874   2.686   1.018   2.932  0.1927  0.5921  0.9516
 6138SOL     OW29875   2.935   2.102  16.613 -0.0166  0.3073 -0.3873
 6138SOL    HW129876   2.915   2.101  16.707  1.3769 -0.1151 -0.0982
 6138SOL    HW229877   2.928   2.197  16.601  1.8092  0.4858  0.0680
 6139SOL     OW29878   4.455   1.223   1.959  0.3192  0.6403  0.2925
 6139SOL    HW129879   4.372   1.197   1.918  1.4217 -3.5172  0.6931
 6139SOL    HW229880   4.515   1.205   1.887 -0.3472 -0.8550  0.0999
 6140SOL     OW29881   0.158   2.646   2.600 -0.0884  0.7723  0.1603
 6140SOL    HW129882   0.216   2.666   2.527  3.8471  0.9669  3.3619
 6140SOL    HW229883   0.210   2.668   2.677  2.6074  1.7771 -1.9741
 6141SOL     OW29884   0.510   1.462   0.486  0.3981  0.5508  0.4516
 6141SOL    HW129885   0.470   1.527   0.428 -0.0405  0.8482  1.0831
 6141SOL    HW229886   0.507   1.505   0.572 -1.0202 -3.0222  2.2137
 6142SOL     OW29887   3.712   1.057   3.508  0.4686  0.1800  0.2959
 6142SOL    HW129888   3.644   1.083   3.446  1.5128  0.7563 -0.6060
 6142SOL    HW229889   3.735   0.971   3.471 -0.6175 -0.8833  2.0513
 6143SOL     OW29890   2.386   2.389   7.329 -0.1766  0.1786 -0.1613
 6143SOL    HW129891   2.396   2.455   7.260  1.7564  0.8269  0.7441
 6143SOL    HW229892   2.458   2.330   7.309  0.2994  0.6208  0.2583
 6144SOL     OW29893   3.711   2.168   9.647 -0.3252 -0.2243 -0.1229
 6144SOL    HW129894   3.621   2.167   9.615 -0.4882 -0.4629  0.3415
 6144SOL    HW229895   3.758   2.174   9.564 -0.8971 -0.9475 -0.5000
 6145SOL     OW29896   1.701   1.639   3.412 -0.1258  0.1800 -0.2035
 6145SOL    HW129897   1.607   1.641   3.391  0.5042  2.0828 -2.8322
 6145SOL    HW229898   1.730   1.556   3.373 -0.2576 -0.5196  1.2131
 6146SOL     OW29899   1.702   3.322   4.281 -0.4527 -0.1604 -0.0759
 6146SOL    HW129900   1.783   3.274   4.302 -0.1508 -0.1298 -1.1610
 6146SOL    HW229901   1.688   3.277   4.198  0.8568 -0.3078 -0.2247
 6147SOL     OW29902   3.032   3.371  13.353 -0.2004  0.2398 -0.2817
 6147SOL    HW129903   3.035   3.366  13.448  1.1505  1.6295 -0.2532
 6147SOL    HW229904   2.939   3.350  13.346 -0.2758  0.5997 -0.3684
 6148SOL     OW29905   0.583   1.807   7.686 -0.4085  0.1701  0.2180
 6148SOL    HW129906   0.621   1.836   7.604 -1.6729  0.1691 -0.3640
 6148SOL    HW229907   0.629   1.867   7.744 -0.7522  1.3629 -0.7643
 6149SOL     OW29908   1.598   2.900   4.420 -0.4230  0.1305 -0.1145
 6149SOL    HW129909   1.647   2.903   4.338  0.0826 -0.9605  0.1465
 6149SOL    HW229910   1.507   2.917   4.395  0.1689  0.2367 -2.2011
 6150SOL     OW29911   0.226   1.518   3.675 -0.7959 -0.0432 -0.4712
 6150SOL    HW129912   0.273   1.542   3.595 -1.4224 -0.5908 -0.9961
 6150SOL    HW229913   0.261   1.432   3.699  1.5393  0.2578 -2.8812
 6151SOL     OW29914   2.773   1.685   5.840 -0.9231 -0.7729 -0.0059
 6151SOL    HW129915   2.721   1.699   5.761 -2.7125 -1.5549  1.0268
 6151SOL    HW229916   2.862   1.679   5.807 -0.8448  1.3746 -0.1490
 6152SOL     OW29917   0.474   0.042   6.936  0.2665  0.4659  0.3176
 6152SOL    HW129918   0.509   0.114   6.883 -1.1173  1.8872  1.3644
 6152SOL    HW229919   0.382   0.064   6.924  0.0602 -0.7179 -0.2957
 6153SOL     OW29920   0.171   0.885   0.985 -0.2172 -0.1327  0.8130
 6153SOL    HW129921   0.085   0.861   0.952  0.8271 -3.0655  0.1958
 6153SOL    HW229922   0.146   0.887   1.078  0.0741 -1.1461  0.9134
 6154SOL     OW29923   1.837   1.640   5.013  0.3647  0.5726 -0.1713
 6154SOL    HW129924   1.887   1.711   4.974  0.2675 -0.0729 -1.4696
 6154SOL    HW229925   1.906   1.574   5.008  2.2073  2.4016  1.0773
 6155SOL     OW29926   1.013   0.603  11.199 -0.0470 -0.4196  0.4290
 6155SOL    HW129927   1.000   0.584  11.107  0.7053  0.0384  0.2260
 6155SOL    HW229928   1.096   0.558  11.218  0.8850  0.3737 -1.8020
 6156SOL     OW29929   2.247   1.384  10.801  0.1021 -0.1094  0.4779
 6156SOL    HW129930   2.233   1.478  10.798 -0.2635 -0.2017 -0.7964
 6156SOL    HW229931   2.270   1.363  10.711 -1.3997 -1.0399  0.3152
 6157SOL     OW29932   1.133   3.346  15.344 -0.1201 -0.9084 -0.1011
 6157SOL    HW129933   1.187   3.400  15.285 -1.0104  1.9546  1.6805
 6157SOL    HW229934   1.197   3.276  15.357 -1.1260 -2.4140 -3.4394
 6158SOL     OW29935   2.074   1.134   8.273  0.2942 -0.4794 -0.0170
 6158SOL    HW129936   1.994   1.082   8.263 -1.0301  1.8290 -1.5853
 6158SOL    HW229937   2.120   1.109   8.193  0.7338 -1.5224  0.5759
 6159SOL     OW29938   2.729   3.243  17.010  0.1191 -0.2668  0.5627
 6159SOL    HW129939   2.764   3.322  17.053 -0.4639 -0.0285  0.5894
 6159SOL    HW229940   2.744   3.178  17.079 -0.9714 -0.5491  0.5284
 6160SOL     OW29941   2.488   0.680   0.461 -0.2860  0.3990 -0.1057
 6160SOL    HW129942   2.577   0.649   0.473  0.4277  2.4204 -0.1324
 6160SOL    HW229943   2.445   0.624   0.526  1.1928 -0.8015 -0.1676
 6161SOL     OW29944   0.477   0.980  11.643 -0.4504 -0.1008  0.9396
 6161SOL    HW129945   0.549   0.922  11.670 -1.5597 -0.0525  4.0425
 6161SOL    HW229946   0.473   1.051  11.707 -1.3693 -0.8231  1.6857
 6162SOL     OW29947   0.136   2.788   9.726 -0.2770 -0.0836 -0.4129
 6162SOL    HW129948   0.063   2.775   9.665  0.0796  1.2627 -1.1267
 6162SOL    HW229949   0.156   2.700   9.758 -1.3972 -0.9849 -2.1540
 6163SOL     OW29950   3.896   1.179   7.786  0.2792 -0.0129  0.1702
 6163SOL    HW129951   3.870   1.250   7.728  2.5480 -0.2547 -1.1408
 6163SOL    HW229952   3.831   1.110   7.774 -0.5165  0.7080  0.3554
 6164SOL     OW29953   3.055   3.021   3.908  0.2626  0.7011  0.0371
 6164SOL    HW129954   3.128   2.963   3.884  1.5535  2.0819  0.6034
 6164SOL    HW229955   2.994   3.017   3.835  0.7547 -1.1418 -0.2743
 6165SOL     OW29956   1.919   1.631   2.008  0.1557  0.0707  0.2717
 6165SOL    HW129957   1.856   1.702   1.991 -0.6544 -1.2226 -2.1494
 6165SOL    HW229958   1.870   1.559   1.967  0.4123 -0.0303  0.1468
 6166SOL     OW29959   4.666   0.729   5.494 -0.1713  0.0176 -0.6366
 6166SOL    HW129960   4.647   0.638   5.515  0.9457  0.1472  0.9231
 6166SOL    HW229961   0.022   0.708   5.443  0.3770  0.7404 -0.0852
 6167SOL     OW29962   4.282   0.456   2.249 -0.0467  0.4592  0.1521
 6167SOL    HW129963   4.252   0.541   2.281  0.5338  1.1674 -1.1522
 6167SOL    HW229964   4.208   0.432   2.192 -0.8081  0.4423  1.1606
 6168SOL     OW29965   2.376   2.386  10.774 -0.2499 -0.4680 -0.1850
 6168SOL    HW129966   2.373   2.366  10.867  0.2175  2.1386  0.3982
 6168SOL    HW229967   2.301   2.341  10.736  0.4869 -1.2827 -0.6871
 6169SOL     OW29968   2.994   3.260  14.476 -0.6803  0.4811  0.3697
 6169SOL    HW129969   2.981   3.201  14.401 -0.9940  2.2721 -0.9771
 6169SOL    HW229970   3.009   3.337  14.422 -3.7484  0.2576 -0.8235
 6170SOL     OW29971   0.456   2.193   4.945 -0.6424 -0.2434  0.5136
 6170SOL    HW129972   0.510   2.131   4.993  1.9049  0.8368 -1.0018
 6170SOL    HW229973   0.387   2.219   5.007 -0.7607 -0.2478  0.3839
 6171SOL     OW29974   2.872   1.490   5.081  0.2210  0.8104  0.5463
 6171SOL    HW129975   2.806   1.532   5.025  1.7836 -0.9410 -2.6543
 6171SOL    HW229976   2.885   1.404   5.041 -0.6471  0.7566  0.3634
 6172SOL     OW29977   1.103   2.628   6.262 -0.3600  0.4266  0.5458
 6172SOL    HW129978   1.057   2.653   6.343 -0.6449 -2.2739  1.2114
 6172SOL    HW229979   1.140   2.709   6.227 -0.1047 -0.1470 -0.5124
 6173SOL     OW29980   2.994   2.245   5.888  0.3726  0.2629 -0.4239
 6173SOL    HW129981   2.985   2.177   5.822  0.0574  0.5396 -0.6653
 6173SOL    HW229982   2.967   2.325   5.843 -0.0044  1.0044  1.1235
 6174SOL     OW29983   4.011   0.689   3.415  0.3826  0.3679 -0.4610
 6174SOL    HW129984   3.951   0.630   3.462  0.6259 -0.0184 -0.6386
 6174SOL    HW229985   3.945   0.758   3.409 -0.8603 -0.8189 -0.6539
 6175SOL     OW29986   0.407   1.532  17.393 -0.3452  0.4904 -0.0797
 6175SOL    HW129987   0.414   1.449  17.345 -0.3126  1.4083 -1.6836
 6175SOL    HW229988   0.315   1.554  17.377 -0.5877 -1.2569 -1.1050
 6176SOL     OW29989   2.306   2.273   6.685  0.3136 -0.2573  0.2514
 6176SOL    HW129990   2.315   2.178   6.680 -2.8005 -0.5111 -0.4197
 6176SOL    HW229991   2.265   2.293   6.601 -0.8757 -0.8903  0.6830
 6177SOL     OW29992   0.025   1.306   6.737 -0.5297 -0.5069 -0.0506
 6177SOL    HW129993   4.658   1.284   6.762 -0.4280  0.1179  0.8505
 6177SOL    HW229994   0.026   1.273   6.647 -0.5846 -1.8673  0.4523
 6178SOL     OW29995   1.401   1.466   3.186 -0.2080  0.3243  0.2140
 6178SOL    HW129996   1.465   1.417   3.238  0.4385  0.9066 -0.0293
 6178SOL    HW229997   1.373   1.530   3.251 -2.6615 -1.0044  0.4734
 6179SOL     OW29998   3.599   2.308   6.561 -0.7748  0.1386  0.2494
 6179SOL    HW129999   3.631   2.219   6.575 -1.4759 -0.6034 -2.9264
 6179SOL    HW230000   3.669   2.357   6.605 -0.3546 -0.8280  0.6510
 6180SOL     OW30001   1.493   0.056  10.599  0.6492 -0.2217  0.1484
 6180SOL    HW130002   1.518   0.149  10.600 -0.1299 -0.0056 -1.2430
 6180SOL    HW230003   1.433   0.054  10.674 -0.9075  1.7520 -1.0260
 6181SOL     OW30004   3.774   3.369  16.236  0.2791 -0.6305 -0.1555
 6181SOL    HW130005   3.800   3.454  16.270 -0.3921  0.0453 -1.3444
 6181SOL    HW230006   3.703   3.345  16.296  1.0621 -1.0708  0.5869
 6182SOL     OW30007   3.208   1.194   7.353  0.3441 -0.4674 -0.1867
 6182SOL    HW130008   3.196   1.281   7.391  0.0632 -1.5897  2.2580
 6182SOL    HW230009   3.123   1.155   7.372  1.1522 -1.6094  1.1380
 6183SOL     OW30010   2.299   4.181   8.600 -0.0645  0.1023  0.2383
 6183SOL    HW130011   2.363   4.226   8.655  0.1568 -0.7029  0.6301
 6183SOL    HW230012   2.233   4.250   8.610  1.6033  2.0056 -1.6996
 6184SOL     OW30013   4.434   0.134   4.981  0.1524 -0.2916 -0.0480
 6184SOL    HW130014   4.373   0.127   4.908  0.6431  1.7123 -0.6651
 6184SOL    HW230015   4.451   0.229   4.982 -2.6602  0.1987  1.4590
 6185SOL     OW30016   1.266   3.736   9.883 -0.1306  0.4853  0.4088
 6185SOL    HW130017   1.315   3.716   9.962 -0.3509 -0.2050  0.3663
 6185SOL    HW230018   1.220   3.655   9.862  2.1578 -0.7946  0.3876
 6186SOL     OW30019   3.903   0.507   6.362  0.5542  0.2091  0.5704
 6186SOL    HW130020   3.923   0.420   6.328 -0.7458  0.4940 -0.9267
 6186SOL    HW230021   3.917   0.488   6.455 -0.5387 -1.9535  0.2908
 6187SOL     OW30022   3.228   2.662   2.265 -0.1586  0.7112 -0.4988
 6187SOL    HW130023   3.294   2.653   2.333  0.9091 -2.4863 -1.9666
 6187SOL    HW230024   3.275   2.641   2.184 -0.0477 -3.4251  0.6585
 6188SOL     OW30025   4.375   2.965   4.071  0.3885 -0.1439 -0.6762
 6188SOL    HW130026   4.296   2.921   4.101  0.8499 -0.6383 -0.1717
 6188SOL    HW230027   4.351   3.057   4.078 -0.3111 -0.3694 -0.1456
 6189SOL     OW30028   3.660   2.490   8.973  0.2667 -0.1743  0.3546
 6189SOL    HW130029   3.642   2.543   9.051 -2.1876 -1.5290  0.7236
 6189SOL    HW230030   3.646   2.558   8.908 -0.7263 -0.3826  0.3459
 6190SOL     OW30031   1.507   4.075   1.387 -0.0690  0.2751  0.4973
 6190SOL    HW130032   1.413   4.089   1.377 -0.0507 -0.1868 -0.3292
 6190SOL    HW230033   1.525   4.144   1.450 -0.5672  2.2998 -1.5745
 6191SOL     OW30034   2.274   2.865   3.580 -0.1205  0.1181  0.6351
 6191SOL    HW130035   2.291   2.771   3.586 -0.7652 -0.0685 -0.5486
 6191SOL    HW230036   2.205   2.866   3.514  0.4268  0.8273  0.0790
 6192SOL     OW30037   2.510   3.003   8.743 -0.1771  0.1064 -0.0797
 6192SOL    HW130038   2.471   2.965   8.821  1.2136 -0.7708  0.1876
 6192SOL    HW230039   2.443   3.064   8.711 -2.0550 -2.3877 -0.9073
 6193SOL     OW30040   1.604   3.853   6.054 -0.7768  0.2274  0.1101
 6193SOL    HW130041   1.573   3.882   5.969 -0.3952 -1.1235 -0.4975
 6193SOL    HW230042   1.608   3.759   6.035  2.7086  0.5543 -0.7407
 6194SOL     OW30043   4.051   3.914   3.096 -0.1451  0.0036 -0.1204
 6194SOL    HW130044   4.104   3.984   3.133  1.3437 -0.6828 -0.9169
 6194SOL    HW230045   4.004   3.894   3.177  0.9232 -1.2717  0.1923
 6195SOL     OW30046   4.302   1.642  12.435  0.0566 -0.5104  0.0698
 6195SOL    HW130047   4.344   1.673  12.515 -0.1963  0.9043 -0.3500
 6195SOL    HW230048   4.214   1.622  12.468  0.0921 -2.0053 -0.7418
 6196SOL     OW30049   3.557   2.854   7.490 -0.1523 -0.4758 -0.4911
 6196SOL    HW130050   3.591   2.876   7.404  0.9191 -0.3265 -0.0384
 6196SOL    HW230051   3.479   2.905   7.510 -0.0158 -1.0257  1.5208
 6197SOL     OW30052   2.673   2.873   4.512 -0.7818 -0.4262  0.0937
 6197SOL    HW130053   2.615   2.840   4.443  1.4678 -1.4805 -1.2628
 6197SOL    HW230054   2.631   2.956   4.536  0.4914  0.5299 -1.0128
 6198SOL     OW30055   3.404   1.020   7.951  0.1939  0.8525  0.1494
 6198SOL    HW130056   3.467   1.080   7.911  2.5263 -1.6588  0.0038
 6198SOL    HW230057   3.329   1.023   7.892 -0.6572  3.0746  1.3690
 6199SOL     OW30058   3.831   4.296   5.979  0.3343  0.3167 -0.4051
 6199SOL    HW130059   3.830   4.385   5.944 -0.1143  0.3385 -0.3448
 6199SOL    HW230060   3.857   4.313   6.069 -0.5595  2.2331 -0.5027
 6200SOL     OW30061   3.525   2.708   2.646 -0.7145  0.5650  0.4059
 6200SOL    HW130062   3.596   2.751   2.692  0.4071 -0.6600 -0.1753
 6200SOL    HW230063   3.505   2.772   2.577  0.8494 -1.4522 -1.9153
 6201SOL     OW30064   1.814   4.425   3.102  0.2086 -0.4036 -0.1039
 6201SOL    HW130065   1.909   4.428   3.113  0.3733 -1.2891 -1.2588
 6201SOL    HW230066   1.788   4.511   3.136 -0.7214  0.1389 -2.1715
 6202SOL     OW30067   0.882   0.738   4.651  0.4841  0.1702 -0.3099
 6202SOL    HW130068   0.849   0.662   4.603 -0.8477  0.3864  0.2822
 6202SOL    HW230069   0.924   0.784   4.578 -0.7538  1.9917  0.1556
 6203SOL     OW30070   2.043   2.536   2.188 -0.0635  0.1205 -0.1706
 6203SOL    HW130071   2.102   2.489   2.248  1.9481  0.7067 -1.7144
 6203SOL    HW230072   2.005   2.596   2.252  0.4241  1.1613 -0.8658
 6204SOL     OW30073   1.717   0.297   6.285  0.5895  0.2648  0.0612
 6204SOL    HW130074   1.682   0.225   6.233 -0.9154  0.6079  0.6051
 6204SOL    HW230075   1.639   0.341   6.319 -0.3479 -2.9161  2.0395
 6205SOL     OW30076   0.519   0.644  12.830 -0.6371 -0.1304 -0.4860
 6205SOL    HW130077   0.501   0.664  12.738 -2.6082 -0.4517 -0.1525
 6205SOL    HW230078   0.587   0.710  12.845  0.2941 -1.3639  0.7445
 6206SOL     OW30079   0.114   2.252   9.939  0.5649  0.1447 -0.1248
 6206SOL    HW130080   0.134   2.211  10.024 -0.3918  0.5525  0.2943
 6206SOL    HW230081   0.068   2.333   9.960  1.1677  0.0696  1.4485
 6207SOL     OW30082   1.926   0.355  13.765 -0.2912  0.6118 -0.2201
 6207SOL    HW130083   1.961   0.427  13.818 -2.2345  1.2256  0.2058
 6207SOL    HW230084   1.868   0.313  13.829  0.6397  2.0643  1.5955
 6208SOL     OW30085   2.898   3.569   5.081  0.1842  0.4012 -0.6480
 6208SOL    HW130086   2.941   3.564   5.166 -0.1761 -0.5104 -0.5235
 6208SOL    HW230087   2.856   3.484   5.089  0.2768  0.5088  0.8766
 6209SOL     OW30088   0.940   0.184  13.823  0.0550 -0.0304 -0.1517
 6209SOL    HW130089   0.893   0.105  13.794 -0.0499 -0.0674  0.1275
 6209SOL    HW230090   0.880   0.241  13.871  1.5712  1.5726 -0.1648
 6210SOL     OW30091   3.223   2.977   6.959 -0.3807 -0.1136  0.2383
 6210SOL    HW130092   3.291   2.915   6.934 -0.8968 -0.7377  0.3667
 6210SOL    HW230093   3.164   2.957   6.886  1.2712  0.6301 -1.3206
 6211SOL     OW30094   4.610   3.287   9.512  0.1893 -0.0391  0.2487
 6211SOL    HW130095   4.525   3.291   9.468  0.5169 -1.1729 -0.4875
 6211SOL    HW230096   4.634   3.202   9.476  1.2960  0.9391 -1.3510
 6212SOL     OW30097   1.682   3.955   2.398 -0.3949 -0.2348 -0.3898
 6212SOL    HW130098   1.643   3.960   2.486  1.7615 -0.4340  0.5781
 6212SOL    HW230099   1.720   4.043   2.392  0.6983 -0.4463  3.1334
 6213SOL     OW30100   3.949   1.294   7.450  0.0250 -0.7586 -0.8417
 6213SOL    HW130101   3.956   1.199   7.440 -2.0110 -1.2117  2.0813
 6213SOL    HW230102   3.854   1.306   7.444  0.2237  0.5456 -1.4239
 6214SOL     OW30103   2.059   3.398   9.077 -0.2015  0.1291 -0.2036
 6214SOL    HW130104   2.064   3.306   9.104  1.7870  0.2905  0.0227
 6214SOL    HW230105   1.966   3.419   9.087  0.1913  1.6990  0.1174
 6215SOL     OW30106   1.266   1.405   6.980  0.0556  0.0851  0.0816
 6215SOL    HW130107   1.269   1.499   6.968  0.8557 -0.1051 -1.1900
 6215SOL    HW230108   1.200   1.384   6.914  1.0687  0.3928 -1.0350
 6216SOL     OW30109   4.348   1.417   4.173  0.2122 -0.9262 -0.7639
 6216SOL    HW130110   4.320   1.425   4.082 -3.1110 -1.3414  0.1942
 6216SOL    HW230111   4.297   1.490   4.208  2.4089 -0.8531  2.2999
 6217SOL     OW30112   0.497   0.044  12.736  0.0237 -0.0012 -0.2007
 6217SOL    HW130113   0.445   0.057  12.816  1.8585 -3.2676  1.5104
 6217SOL    HW230114   0.585   0.058  12.770  0.0560 -0.2141 -0.1979
 6218SOL     OW30115   0.989   1.082  15.929  0.1204 -0.6291 -1.4334
 6218SOL    HW130116   1.055   1.123  15.985 -0.3002  0.3062 -1.6278
 6218SOL    HW230117   1.040   1.067  15.849  2.0849 -0.7599 -0.1606
 6219SOL     OW30118   1.045   0.268   5.149  0.2402 -0.4675 -0.0758
 6219SOL    HW130119   1.053   0.256   5.055 -1.0748  0.3293 -0.2831
 6219SOL    HW230120   0.956   0.245   5.174  0.8160 -1.1506  1.3491
 6220SOL     OW30121   1.343   4.610   9.031  0.6493 -0.1549  0.3126
 6220SOL    HW130122   1.326   4.630   9.123 -3.4530 -0.5545 -0.3751
 6220SOL    HW230123   1.436   4.609   9.011  0.8138 -3.5620  1.3538
 6221SOL     OW30124   3.234   0.872  11.184 -0.3496  0.8594  1.1817
 6221SOL    HW130125   3.177   0.829  11.247 -1.4318  1.0006  0.2960
 6221SOL    HW230126   3.262   0.793  11.138  2.2378  2.8100 -0.6345
 6222SOL     OW30127   0.502   1.398   4.784  0.3475  0.1603  0.2563
 6222SOL    HW130128   0.447   1.474   4.765  0.4599 -0.4858 -2.7564
 6222SOL    HW230129   0.474   1.333   4.720 -1.6726  2.0029 -0.7241
 6223SOL     OW30130   4.300   2.886   4.533 -0.1614  0.0519  0.1941
 6223SOL    HW130131   4.332   2.960   4.481  0.6714  0.8170  1.8155
 6223SOL    HW230132   4.209   2.877   4.506  0.5620 -2.1614 -1.4904
 6224SOL     OW30133   0.086   4.568  15.923  0.4687 -0.5599 -0.5022
 6224SOL    HW130134   0.087   4.664  15.923  2.6544 -0.6097  1.7718
 6224SOL    HW230135   0.180   4.555  15.932  0.8153  1.0016 -1.7407
 6225SOL     OW30136   3.321   1.334   4.697 -0.2426  0.1554 -0.0513
 6225SOL    HW130137   3.232   1.360   4.673 -1.1899 -3.6327 -0.6292
 6225SOL    HW230138   3.360   1.379   4.623  2.2785 -0.9304  0.6286
 6226SOL     OW30139   4.326   3.554   5.491 -0.2062  0.2660  0.4416
 6226SOL    HW130140   4.412   3.529   5.523  0.1989  0.7385 -0.2880
 6226SOL    HW230141   4.301   3.609   5.566  0.4476  0.5307  0.4633
 6227SOL     OW30142   0.057   1.628  10.008  0.6722 -0.3730 -0.3941
 6227SOL    HW130143   0.007   1.597   9.932 -1.1061  0.2874  0.5195
 6227SOL    HW230144   0.107   1.695   9.960  0.7212 -0.4942 -0.5126
 6228SOL     OW30145   4.181   1.960   1.177 -0.1774  0.5281  0.1603
 6228SOL    HW130146   4.182   2.049   1.144  1.4472  0.0001 -1.2463
 6228SOL    HW230147   4.276   1.943   1.179 -0.2375 -0.1349 -2.8031
 6229SOL     OW30148   0.698   4.222  17.581  0.2836  0.7158 -0.3721
 6229SOL    HW130149   0.697   4.191  17.490  0.3247  0.5660 -0.3217
 6229SOL    HW230150   0.791   4.224  17.604 -0.2660 -0.5539  1.8970
 6230SOL     OW30151   0.460   3.404   7.646  0.9617  0.1780 -0.6005
 6230SOL    HW130152   0.394   3.380   7.711  1.1212  0.9742 -0.1505
 6230SOL    HW230153   0.412   3.380   7.566  1.5226  1.3795 -1.3025
 6231SOL     OW30154   1.773   0.952   8.743  0.3202  0.3810 -0.3375
 6231SOL    HW130155   1.701   0.929   8.802 -0.3516  1.1153 -0.8809
 6231SOL    HW230156   1.754   0.897   8.668  1.1517  2.7048 -2.2549
 6232SOL     OW30157   1.473   4.140  15.253 -0.2166  0.1995  0.3396
 6232SOL    HW130158   1.544   4.109  15.309 -1.7269 -0.3324  1.9512
 6232SOL    HW230159   1.409   4.076  15.286  0.1459 -0.1905  0.2945
 6233SOL     OW30160   0.603   2.953  11.576 -0.5121  0.5376 -0.1365
 6233SOL    HW130161   0.601   2.858  11.577  1.0634  0.5044 -2.1792
 6233SOL    HW230162   0.608   2.959  11.672 -0.9155  0.6982 -0.1248
 6234SOL     OW30163   3.724   4.402   8.226 -0.1607  0.1330 -0.4083
 6234SOL    HW130164   3.816   4.377   8.221 -0.4032 -1.0388  1.0116
 6234SOL    HW230165   3.705   4.413   8.132 -0.6453  0.7495 -0.2380
 6235SOL     OW30166   3.772   0.648  12.699 -0.7240  0.1494  0.1403
 6235SOL    HW130167   3.818   0.694  12.629  1.6664 -0.1884  1.4624
 6235SOL    HW230168   3.683   0.681  12.700 -0.0149  2.0212  1.4531
 6236SOL     OW30169   4.565   4.202   4.268  0.4333  0.7062 -0.1385
 6236SOL    HW130170   4.498   4.260   4.302 -1.1069 -0.3287 -1.4177
 6236SOL    HW230171   4.613   4.181   4.348  1.8036  0.7182 -0.9548
 6237SOL     OW30172   1.695   4.460   6.265 -0.1543  0.1899 -0.1222
 6237SOL    HW130173   1.631   4.494   6.328  0.5647  0.6895  0.3319
 6237SOL    HW230174   1.737   4.543   6.243  0.5335  0.2846  1.5717
 6238SOL     OW30175   4.164   2.534  16.446 -0.4438 -0.2420 -0.0857
 6238SOL    HW130176   4.254   2.514  16.422 -0.5440 -0.0606 -0.6011
 6238SOL    HW230177   4.112   2.454  16.432  1.6173 -2.2494  3.6959
 6239SOL     OW30178   1.244   2.436   5.308  0.3216 -0.3716 -0.2007
 6239SOL    HW130179   1.185   2.433   5.383  0.3795 -2.4702 -0.2303
 6239SOL    HW230180   1.249   2.526   5.277  1.4266  0.0126  1.1070
 6240SOL     OW30181   3.021   2.946   8.103  0.1999  0.1639 -0.1135
 6240SOL    HW130182   3.003   2.896   8.023 -0.0494  0.3954 -0.2055
 6240SOL    HW230183   3.003   3.038   8.080 -1.2075 -0.1790 -0.3507
 6241SOL     OW30184   0.196   3.251   5.607 -0.3358  0.1319  0.3407
 6241SOL    HW130185   0.240   3.206   5.535  0.2095 -1.7011  1.8328
 6241SOL    HW230186   0.117   3.199   5.611  1.4285 -2.6420 -0.9017
 6242SOL     OW30187   4.094   1.110   3.785  0.2434 -0.2890 -1.0931
 6242SOL    HW130188   4.160   1.164   3.829 -1.1286 -0.4214  1.1327
 6242SOL    HW230189   4.019   1.169   3.793 -0.5142 -1.2954 -0.6981
 6243SOL     OW30190   1.810   1.650   4.619 -0.2255  0.1812  0.5861
 6243SOL    HW130191   1.860   1.571   4.596  0.0794  0.8465 -1.0863
 6243SOL    HW230192   1.882   1.713   4.610  0.3076 -0.3363  1.1664
 6244SOL     OW30193   3.394   0.580   7.554  0.3049 -0.5127  0.8228
 6244SOL    HW130194   3.486   0.560   7.570 -0.0106 -0.9010  2.1594
 6244SOL    HW230195   3.366   0.489   7.547  2.1465 -1.0349  0.2091
 6245SOL     OW30196   3.453   2.662   4.538 -0.0691  0.4094 -0.0333
 6245SOL    HW130197   3.408   2.580   4.558  2.9608 -1.9618 -2.8876
 6245SOL    HW230198   3.440   2.669   4.443 -1.4037  0.2544  0.1382
 6246SOL     OW30199   2.574   2.743   2.473 -0.2610 -0.0645  0.6471
 6246SOL    HW130200   2.668   2.725   2.477  0.6108  4.0862 -1.0536
 6246SOL    HW230201   2.562   2.835   2.447  1.5168  0.0368  0.1951
 6247SOL     OW30202   3.962   3.175   5.885  0.0173 -0.1034  0.3651
 6247SOL    HW130203   3.908   3.239   5.932 -0.0864  0.1685 -0.1235
 6247SOL    HW230204   3.897   3.143   5.821 -1.9273  1.2693  1.6535
 6248SOL     OW30205   0.979   3.654  11.832 -0.6050 -0.1056 -0.6965
 6248SOL    HW130206   0.993   3.718  11.901 -0.0201  1.0988 -1.9290
 6248SOL    HW230207   1.068   3.648  11.795 -0.1650 -0.6927  0.4491
 6249SOL     OW30208   3.928   1.671   6.267  0.7060  0.3649 -0.4698
 6249SOL    HW130209   3.938   1.596   6.326  0.8823 -0.2994 -1.3387
 6249SOL    HW230210   3.974   1.626   6.196  2.0550 -0.8284  1.1638
 6250SOL     OW30211   3.528   2.410   4.322 -0.1684  0.2226  0.5643
 6250SOL    HW130212   3.560   2.323   4.298  1.8735  1.0330  0.3581
 6250SOL    HW230213   3.446   2.413   4.272  0.1305 -0.9442  0.0091
 6251SOL     OW30214   4.289   2.699   7.059 -0.2264  0.0753  0.7195
 6251SOL    HW130215   4.374   2.743   7.054 -0.3713  0.1159 -1.0799
 6251SOL    HW230216   4.278   2.669   6.969 -1.4318  2.0228  0.2161
 6252SOL     OW30217   3.531   4.574  10.914 -0.0959 -0.5679 -0.5276
 6252SOL    HW130218   3.512   4.647  10.855 -2.6510 -1.1647 -0.4309
 6252SOL    HW230219   3.553   4.627  10.991 -1.7517  1.4978 -1.4691
 6253SOL     OW30220   1.540   0.320  15.818  0.0713  0.6899 -0.6326
 6253SOL    HW130221   1.531   0.415  15.813 -1.5609  0.4495 -2.0444
 6253SOL    HW230222   1.456   0.294  15.782 -0.6840 -0.0899  1.6578
 6254SOL     OW30223   4.621   4.290  17.248 -0.0282 -0.7110  0.5400
 6254SOL    HW130224   4.572   4.364  17.284  0.7234  0.5949 -1.1377
 6254SOL    HW230225   4.689   4.337  17.200  1.8574 -3.0233  0.9728
 6255SOL     OW30226   1.783   4.058   3.877 -0.6210 -0.2364 -0.1329
 6255SOL    HW130227   1.819   4.146   3.884 -1.9255  0.5471 -3.1680
 6255SOL    HW230228   1.835   4.005   3.938 -1.6949 -2.7877 -1.4120
 6256SOL     OW30229   2.594   1.754  16.021  0.3844 -0.1390  0.0783
 6256SOL    HW130230   2.668   1.782  15.967 -0.3657  0.4226 -0.6577
 6256SOL    HW230231   2.637   1.761  16.106 -0.4604  3.7339  0.1716
 6257SOL     OW30232   2.650   3.229   2.327  0.1309  0.3638  0.4811
 6257SOL    HW130233   2.714   3.177   2.279  0.2923 -0.9281  2.0875
 6257SOL    HW230234   2.576   3.169   2.338  1.1381 -0.8082  0.8659
 6258SOL     OW30235   2.607   3.440   3.324  0.3903 -0.2023 -0.3236
 6258SOL    HW130236   2.681   3.415   3.268  0.8695 -0.1121  0.2746
 6258SOL    HW230237   2.562   3.504   3.269 -0.8433 -0.9342 -0.1788
 6259SOL     OW30238   1.155   0.813   0.653 -0.2789 -0.1044  0.2137
 6259SOL    HW130239   1.161   0.717   0.647  1.6892 -0.0300  0.9218
 6259SOL    HW230240   1.240   0.827   0.695 -0.9988  0.0400  1.5906
 6260SOL     OW30241   0.755   1.174   9.417  0.2985 -0.0685 -0.1212
 6260SOL    HW130242   0.664   1.194   9.438  0.8968  1.1069  1.3435
 6260SOL    HW230243   0.790   1.164   9.506  1.0815  1.4502 -0.2617
 6261SOL     OW30244   3.125   2.327   3.042  0.2902  0.2702 -0.9326
 6261SOL    HW130245   3.145   2.235   3.056 -1.3201  0.4110  2.3216
 6261SOL    HW230246   3.030   2.317   3.040  0.0249  3.1495 -3.0633
 6262SOL     OW30247   4.546   1.273   2.701 -0.3079 -0.8605  0.1422
 6262SOL    HW130248   4.504   1.207   2.646 -0.9085 -2.0190  1.9909
 6262SOL    HW230249   4.618   1.303   2.645 -0.7445  0.6582  0.3859
 6263SOL     OW30250   2.109   0.270   3.595 -0.4286 -0.2100 -0.5708
 6263SOL    HW130251   2.135   0.328   3.667  0.3079 -2.5358  1.0330
 6263SOL    HW230252   2.172   0.282   3.523  1.6504  1.9144  1.6213
 6264SOL     OW30253   1.220   4.045   8.901 -0.0522 -0.4089 -0.2658
 6264SOL    HW130254   1.254   4.129   8.932 -1.5762  0.1501 -0.0859
 6264SOL    HW230255   1.185   4.011   8.984 -0.0434 -0.2071 -0.1790
 6265SOL     OW30256   1.659   2.371  15.348 -0.4793  0.0221 -0.0226
 6265SOL    HW130257   1.668   2.411  15.262  1.8125 -1.0005 -0.2613
 6265SOL    HW230258   1.734   2.421  15.382 -0.4661  0.2861 -0.4422
 6266SOL     OW30259   4.647   2.243   8.408 -0.6101  0.0915  0.2450
 6266SOL    HW130260   4.668   2.291   8.328 -0.4686  0.3524  0.4375
 6266SOL    HW230261   4.584   2.180   8.373 -1.2080  0.0008  1.4928
 6267SOL     OW30262   2.350   0.076   7.643 -0.0252 -0.2567 -0.1558
 6267SOL    HW130263   2.431   0.124   7.626 -0.7144  0.5139 -1.2276
 6267SOL    HW230264   2.288   0.144   7.619  0.8965 -0.0581 -1.9747
 6268SOL     OW30265   3.069   2.779  11.267 -0.5318 -0.4748 -0.1469
 6268SOL    HW130266   3.117   2.793  11.185 -1.4912  1.2451 -0.4086
 6268SOL    HW230267   2.997   2.732  11.226 -0.4131 -0.6118 -0.1992
 6269SOL     OW30268   1.001   1.013   5.961 -0.3064 -0.4558 -0.3212
 6269SOL    HW130269   0.947   1.036   6.036 -0.5356 -2.8343  0.2542
 6269SOL    HW230270   1.004   1.093   5.908 -1.3227  1.4830  2.5799
 6270SOL     OW30271   1.324   4.389  10.372 -0.0573  0.1582  0.2121
 6270SOL    HW130272   1.358   4.477  10.355  0.9997  0.0256  1.5794
 6270SOL    HW230273   1.397   4.348  10.419 -0.7438 -1.2903 -0.0043
 6271SOL     OW30274   2.212   1.387   6.987 -0.0200  0.4663  0.4325
 6271SOL    HW130275   2.153   1.311   6.992  0.1588  0.3509  0.7902
 6271SOL    HW230276   2.247   1.377   6.898 -3.1079  0.2753 -0.7521
 6272SOL     OW30277   4.386   2.851   5.801  0.4810 -0.3302  0.0126
 6272SOL    HW130278   4.303   2.830   5.844  0.8769 -2.1019 -0.0767
 6272SOL    HW230279   4.367   2.833   5.709  0.8904 -1.0957  0.0762
 6273SOL     OW30280   0.329   2.246   6.322 -0.8387  0.4818 -0.3543
 6273SOL    HW130281   0.239   2.239   6.354 -0.6809 -3.3674 -0.7466
 6273SOL    HW230282   0.305   2.235   6.230 -1.5811  0.3184 -0.1407
 6274SOL     OW30283   0.334   1.830  15.097 -0.3794 -0.4537  0.1195
 6274SOL    HW130284   0.325   1.775  15.019  0.4414 -1.3780  0.6752
 6274SOL    HW230285   0.263   1.788  15.145 -0.3006  1.2382  1.7187
 6275SOL     OW30286   1.758   3.154   6.754 -0.7038  0.2029 -0.1870
 6275SOL    HW130287   1.734   3.159   6.662 -1.7381  0.6596  0.1058
 6275SOL    HW230288   1.705   3.084   6.791 -1.8636  0.5668 -1.1681
 6276SOL     OW30289   1.063   3.805  11.236  0.2560  0.1769 -0.0976
 6276SOL    HW130290   1.106   3.778  11.155  0.1196 -0.0093 -0.1087
 6276SOL    HW230291   0.975   3.769  11.222  0.4007 -1.4406  3.0697
 6277SOL     OW30292   4.595   3.767   5.042  0.1500  0.0499 -0.0086
 6277SOL    HW130293   4.625   3.676   5.034  0.9475  0.1271  1.9940
 6277SOL    HW230294   4.676   3.796   5.085  0.3563  1.7391 -1.5724
 6278SOL     OW30295   2.866   0.203   0.924 -0.1965 -0.0843 -0.0705
 6278SOL    HW130296   2.914   0.252   0.990 -1.1273 -1.9353  1.9733
 6278SOL    HW230297   2.877   0.113   0.956 -1.2124 -0.1098  0.1892
 6279SOL     OW30298   4.006   2.238   3.399  0.3708 -0.1338 -0.0296
 6279SOL    HW130299   4.073   2.189   3.352  1.8602  1.9565 -0.1192
 6279SOL    HW230300   3.959   2.168   3.445 -1.8749  1.5695  0.2815
 6280SOL     OW30301   1.320   2.675   3.839 -0.2726 -0.1779 -0.6417
 6280SOL    HW130302   1.289   2.746   3.895  1.8777 -0.7476  1.2866
 6280SOL    HW230303   1.287   2.692   3.751 -1.0076 -2.3913 -0.8059
 6281SOL     OW30304   3.378   3.526   8.924 -0.1121 -0.0106  0.5363
 6281SOL    HW130305   3.352   3.452   8.869 -0.6138  0.3363  0.3080
 6281SOL    HW230306   3.429   3.487   8.995 -2.1967 -1.1008  1.4212
 6282SOL     OW30307   4.079   0.601   5.143 -0.0690 -0.2199 -0.2499
 6282SOL    HW130308   4.031   0.682   5.125 -0.5777 -0.3679  0.4392
 6282SOL    HW230309   4.161   0.624   5.099 -0.1378 -0.0131 -0.2688
 6283SOL     OW30310   3.565   2.453   7.999  0.1381 -0.2504  0.1865
 6283SOL    HW130311   3.469   2.455   8.005 -0.0200  1.0093 -2.4244
 6283SOL    HW230312   3.582   2.525   7.938 -3.3929  2.0905  1.9828
 6284SOL     OW30313   1.064   0.859   6.974  0.3634 -0.2887  0.0734
 6284SOL    HW130314   1.140   0.905   6.938 -0.0122 -0.3575 -0.8129
 6284SOL    HW230315   1.082   0.766   6.971  1.4623 -0.1211  1.8268
 6285SOL     OW30316   2.638   2.447  10.625 -0.0431 -0.1963 -0.0519
 6285SOL    HW130317   2.709   2.467  10.685 -0.3612  1.1129 -0.0942
 6285SOL    HW230318   2.561   2.416  10.673 -0.6628  3.3430  1.2739
 6286SOL     OW30319   0.442   1.873   3.652  0.5134  0.0610  0.2826
 6286SOL    HW130320   0.495   1.950   3.634 -2.5222  2.2573  0.6649
 6286SOL    HW230321   0.362   1.897   3.605 -0.5166 -2.2325  0.8617
 6287SOL     OW30322   0.980   1.882   2.400  0.2034  0.3257 -0.4604
 6287SOL    HW130323   0.921   1.913   2.330 -0.6828 -0.6042 -0.1239
 6287SOL    HW230324   1.038   1.958   2.399  3.7417 -2.4088  0.3394
 6288SOL     OW30325   2.539   0.572   6.466  0.4191 -0.2935 -0.4377
 6288SOL    HW130326   2.568   0.534   6.549 -1.8555 -1.8723 -0.3945
 6288SOL    HW230327   2.595   0.527   6.402  0.6264 -1.0422  0.2723
 6289SOL     OW30328   3.234   3.057   4.197 -0.0151 -0.5393 -0.1924
 6289SOL    HW130329   3.161   3.072   4.257 -0.0303  0.2329 -0.3939
 6289SOL    HW230330   3.179   3.027   4.125 -0.3752 -1.0563  0.3033
 6290SOL     OW30331   4.341   2.061   4.911 -0.0905  0.3422 -0.5978
 6290SOL    HW130332   4.398   2.137   4.923  1.5409 -0.6346 -2.2404
 6290SOL    HW230333   4.403   2.001   4.869 -0.1572  1.9441 -2.9789
 6291SOL     OW30334   0.646   0.717   6.697 -1.1324  0.1972 -0.8979
 6291SOL    HW130335   0.632   0.761   6.780 -2.4411  0.2413 -1.1412
 6291SOL    HW230336   0.736   0.742   6.679 -0.7517  0.8940  2.0467
 6292SOL     OW30337   3.295   0.524   8.266  0.1614  0.1125  0.3722
 6292SOL    HW130338   3.236   0.449   8.253 -2.7895  3.1921 -3.9975
 6292SOL    HW230339   3.282   0.575   8.186  0.0242 -0.7344 -0.1373
 6293SOL     OW30340   2.970   2.266  12.878 -0.3422 -0.0444  0.3687
 6293SOL    HW130341   2.876   2.286  12.885  0.2319  3.4307 -2.0444
 6293SOL    HW230342   2.979   2.200  12.947  0.0652  1.6147  1.9110
 6294SOL     OW30343   4.262   0.798   3.399 -0.0722 -0.2865 -0.4246
 6294SOL    HW130344   4.234   0.835   3.315 -0.1166  0.2517 -0.1745
 6294SOL    HW230345   4.181   0.751   3.420  1.5818 -2.0204  2.0081
 6295SOL     OW30346   1.014   0.130   1.503 -0.1203  0.5089  0.0156
 6295SOL    HW130347   1.031   0.171   1.418  0.6701 -0.7070 -0.4250
 6295SOL    HW230348   0.962   0.199   1.543  0.0838  0.6030  0.1189
 6296SOL     OW30349   1.910   0.716  11.727  0.0615 -0.1697  0.0849
 6296SOL    HW130350   1.852   0.673  11.664  1.4684  0.6040 -1.7640
 6296SOL    HW230351   1.995   0.699  11.687 -0.0688 -0.9542  0.1537
 6297SOL     OW30352   1.407   1.081   3.594  0.2384 -0.2082  0.2249
 6297SOL    HW130353   1.406   1.040   3.681  0.6439  0.8444  0.7294
 6297SOL    HW230354   1.385   1.171   3.618 -0.9503 -0.1731 -1.0414
 6298SOL     OW30355   2.664   0.600   7.856 -0.2436  0.1634  0.1167
 6298SOL    HW130356   2.591   0.555   7.812  0.7423  2.4470 -3.9182
 6298SOL    HW230357   2.743   0.568   7.811 -0.5056  1.8663 -1.5546
 6299SOL     OW30358   1.506   4.134  14.976  0.3870 -0.3842  0.1122
 6299SOL    HW130359   1.520   4.135  15.071  0.3183 -2.2516  0.1442
 6299SOL    HW230360   1.506   4.228  14.957 -2.4294 -0.3328  0.2498
 6300SOL     OW30361   3.839   0.991   9.258  0.2674 -0.5652 -0.1567
 6300SOL    HW130362   3.869   1.080   9.279 -0.8229 -0.3192  0.3147
 6300SOL    HW230363   3.767   0.979   9.319 -0.4078 -1.8353 -1.2160
 6301SOL     OW30364   0.553   0.031  14.479 -0.1154  0.0691 -0.1061
 6301SOL    HW130365   0.613   0.030  14.405  0.9706  0.8264  0.7704
 6301SOL    HW230366   0.473   0.012  14.429 -0.6751 -1.0991  1.2299
 6302SOL     OW30367   2.728   1.983  11.005 -0.5809  0.4006 -0.6794
 6302SOL    HW130368   2.719   2.047  10.935  1.5777  0.4830 -0.8779
 6302SOL    HW230369   2.821   1.983  11.028 -0.3999 -1.4928 -1.4021
 6303SOL     OW30370   3.123   0.516   2.309 -0.6119  0.2346 -0.2177
 6303SOL    HW130371   3.213   0.540   2.333 -0.9684 -0.2316  1.5946
 6303SOL    HW230372   3.109   0.606   2.280  0.0251  0.1658 -0.7614
 6304SOL     OW30373   2.317   3.831  15.266 -0.0127 -0.6519 -0.2043
 6304SOL    HW130374   2.224   3.849  15.275  0.3954 -0.0265  2.6783
 6304SOL    HW230375   2.314   3.747  15.312  1.1634 -1.1807 -1.0743
 6305SOL     OW30376   4.679   0.497   4.771 -0.5011 -0.3491  0.4394
 6305SOL    HW130377   4.649   0.573   4.721  1.9051 -2.0076 -3.4630
 6305SOL    HW230378   0.049   0.522   4.778 -1.6436  4.2020 -0.5344
 6306SOL     OW30379   4.604   0.087   6.963  0.3621 -0.2276  0.7626
 6306SOL    HW130380   4.513   0.067   6.943  0.8014 -0.5052 -0.9621
 6306SOL    HW230381   4.627   0.034   7.039 -2.7118 -2.4923  0.0785
 6307SOL     OW30382   2.933   0.733   5.820 -0.6281  0.0674 -0.8547
 6307SOL    HW130383   2.950   0.708   5.729  2.9985  0.6882 -0.3259
 6307SOL    HW230384   3.015   0.779   5.835 -0.7397  0.2829 -0.8954
 6308SOL     OW30385   0.490   0.593   2.713 -0.1587  0.6093 -0.2821
 6308SOL    HW130386   0.525   0.514   2.753 -1.8126 -0.9832 -1.9739
 6308SOL    HW230387   0.560   0.604   2.648 -0.1803  0.0240 -0.4017
 6309SOL     OW30388   1.688   2.639  13.316 -0.6574 -0.7167  0.4796
 6309SOL    HW130389   1.681   2.734  13.319 -0.9591 -0.6648 -1.7116
 6309SOL    HW230390   1.770   2.631  13.364 -0.6433 -2.6118  0.1546
 6310SOL     OW30391   4.355   3.715   3.749 -0.0344 -0.3679 -0.2656
 6310SOL    HW130392   4.450   3.720   3.739 -0.1088  1.5740  0.0672
 6310SOL    HW230393   4.331   3.792   3.699  0.2258 -1.0868 -1.4955
 6311SOL     OW30394   0.223   0.277  12.189 -0.1555  0.2624 -0.6338
 6311SOL    HW130395   0.137   0.246  12.216  0.6298 -0.8933  0.5316
 6311SOL    HW230396   0.250   0.325  12.267 -0.9994  0.2780 -0.3504
 6312SOL     OW30397   1.251   1.357  14.895 -0.5523 -0.3093 -0.6461
 6312SOL    HW130398   1.269   1.434  14.949  2.0392 -1.1228 -0.3458
 6312SOL    HW230399   1.337   1.317  14.883 -0.0727  1.3762 -2.7475
 6313SOL     OW30400   3.613   0.757  14.023 -0.4817  0.2838 -0.3957
 6313SOL    HW130401   3.649   0.840  13.993  2.8997 -1.8304 -2.2020
 6313SOL    HW230402   3.680   0.717  14.079 -0.1680  0.8588 -0.3646
 6314SOL     OW30403   1.206   0.052   5.299 -0.5841  0.4221 -0.2399
 6314SOL    HW130404   1.136   0.103   5.258 -2.7069 -1.7781  0.6402
 6314SOL    HW230405   1.153   0.018   5.371 -0.2694  1.2066  0.3613
 6315SOL     OW30406   0.265   0.180   7.155 -0.3328 -0.0692 -0.1330
 6315SOL    HW130407   0.299   0.115   7.217  0.4268  0.5932  0.1330
 6315SOL    HW230408   0.255   0.127   7.076  1.6724 -0.4078 -0.1578
 6316SOL     OW30409   4.565   4.481   3.724 -0.2960 -0.6182 -0.5102
 6316SOL    HW130410   4.570   4.566   3.768  0.7229 -0.1544 -1.5020
 6316SOL    HW230411   4.480   4.452   3.756  0.2699  0.0818  1.6088
 6317SOL     OW30412   1.270   4.464  11.556 -0.2825  0.0644  0.7614
 6317SOL    HW130413   1.319   4.501  11.482 -0.7598 -1.6024 -0.4031
 6317SOL    HW230414   1.342   4.460  11.618 -1.2422 -1.9996  1.7204
 6318SOL     OW30415   4.229   0.196   4.731 -0.2135 -0.4193 -0.1764
 6318SOL    HW130416   4.237   0.110   4.689  1.1641 -0.1255 -0.5218
 6318SOL    HW230417   4.175   0.237   4.663 -1.9367 -0.7717  1.0119
 6319SOL     OW30418   2.783   1.800   6.337  0.9431  0.4286  0.4614
 6319SOL    HW130419   2.727   1.866   6.296 -0.1099 -2.0873 -2.2191
 6319SOL    HW230420   2.844   1.778   6.267 -0.4106 -1.1121 -0.2333
 6320SOL     OW30421   2.727   0.601  10.876  0.4250 -0.0717  0.0621
 6320SOL    HW130422   2.646   0.590  10.826  0.6497 -0.4871 -0.2146
 6320SOL    HW230423   2.692   0.671  10.932  1.1168 -0.1278  0.5612
 6321SOL     OW30424   2.803   1.741   2.186  0.4223 -0.7379  0.2553
 6321SOL    HW130425   2.746   1.683   2.135 -0.1985  0.9529 -0.9487
 6321SOL    HW230426   2.803   1.692   2.268  2.8499 -0.3316  0.5043
 6322SOL     OW30427   0.225   4.675   1.179 -0.5016  0.2786  0.0112
 6322SOL    HW130428   0.299   4.665   1.119  0.9616 -1.0984  2.0536
 6322SOL    HW230429   0.161   4.634   1.121  0.1031  0.0082 -0.4697
 6323SOL     OW30430   4.415   0.358  15.605 -0.1350 -0.1645 -0.0052
 6323SOL    HW130431   4.332   0.316  15.628  0.0787 -0.7537 -0.3074
 6323SOL    HW230432   4.382   0.447  15.612  0.5482  0.0180  1.0638
 6324SOL     OW30433   2.825   2.258   4.634 -0.1354 -0.2603  0.0709
 6324SOL    HW130434   2.736   2.275   4.666  0.1497  1.8762 -0.2388
 6324SOL    HW230435   2.858   2.347   4.620  1.2483 -1.1452 -2.1826
 6325SOL     OW30436   1.009   2.442   3.145 -0.0998  0.4178  0.6324
 6325SOL    HW130437   1.091   2.469   3.186  1.2892 -1.4995 -0.8485
 6325SOL    HW230438   0.990   2.367   3.202  1.0939  0.1093  0.6176
 6326SOL     OW30439   2.958   4.589   9.964  0.3326 -0.0685 -0.6428
 6326SOL    HW130440   3.050   4.564   9.969  0.4424  0.3543 -0.5545
 6326SOL    HW230441   2.960   4.683   9.950 -0.4846  0.1948  0.9848
 6327SOL     OW30442   1.773   3.895   0.408 -0.8302  0.4436 -0.3006
 6327SOL    HW130443   1.831   3.874   0.482 -0.0426  0.6084 -0.8699
 6327SOL    HW230444   1.730   3.811   0.392  0.4425  0.1098 -1.9110
 6328SOL     OW30445   1.059   2.978   5.305 -1.0151 -0.4085 -0.0025
 6328SOL    HW130446   1.057   2.899   5.252  1.3658  0.5830 -1.5471
 6328SOL    HW230447   1.054   2.947   5.395 -1.5367  0.8483  0.3944
 6329SOL     OW30448   0.594   1.836   4.717  0.4307  0.0380 -0.2832
 6329SOL    HW130449   0.615   1.757   4.766  2.2601  0.3576 -0.5495
 6329SOL    HW230450   0.669   1.893   4.733  0.8796  0.2712 -3.1324
 6330SOL     OW30451   0.368   2.174  16.576  0.3364 -0.0250 -0.3059
 6330SOL    HW130452   0.358   2.165  16.671 -2.2418  0.9917 -0.4660
 6330SOL    HW230453   0.442   2.234  16.580  0.0630  0.1767  1.5671
 6331SOL     OW30454   3.454   4.442   4.524  0.2826 -0.2765  0.0539
 6331SOL    HW130455   3.506   4.365   4.550  0.2110 -0.6622 -0.9460
 6331SOL    HW230456   3.502   4.471   4.446  0.0131  0.5514  0.1988
 6332SOL     OW30457   1.809   4.513   6.631 -0.0687  0.3156 -0.4688
 6332SOL    HW130458   1.871   4.451   6.668 -0.4395 -1.2949 -2.5171
 6332SOL    HW230459   1.738   4.452   6.610  0.2065  0.0274 -0.5653
 6333SOL     OW30460   4.545   1.599   5.342  0.3907 -0.2796  0.3255
 6333SOL    HW130461   4.576   1.537   5.408 -1.2787 -0.1422  1.2407
 6333SOL    HW230462   4.588   1.554   5.270 -0.8247  0.0723 -0.6144
 6334SOL     OW30463   3.664   0.578   2.558 -0.3300  0.4492  0.0167
 6334SOL    HW130464   3.671   0.671   2.579 -0.1210 -0.2740  3.0786
 6334SOL    HW230465   3.627   0.584   2.470  2.5958 -2.3213 -1.3787
 6335SOL     OW30466   1.193   2.259   1.776 -0.5384  0.4642  0.3127
 6335SOL    HW130467   1.171   2.183   1.829  2.3486 -1.0543 -0.6885
 6335SOL    HW230468   1.108   2.303   1.776  0.0547  1.6114  0.6141
 6336SOL     OW30469   2.508   1.549   6.969 -0.7503  0.2045  0.3972
 6336SOL    HW130470   2.504   1.641   6.945 -0.3235 -0.0106 -0.5060
 6336SOL    HW230471   2.447   1.553   7.042  0.3252  1.7987  1.1991
 6337SOL     OW30472   0.996   2.985   9.841  0.0681  0.2796  0.2521
 6337SOL    HW130473   0.928   3.043   9.877 -1.6659  0.3402 -3.1499
 6337SOL    HW230474   0.954   2.915   9.791  1.0337 -1.2095  1.5291
 6338SOL     OW30475   1.406   4.706   4.027  0.0553  0.0381 -0.3527
 6338SOL    HW130476   1.495   4.671   4.024  0.0209 -0.0379 -0.4854
 6338SOL    HW230477   1.355   4.625   4.021  0.3675 -0.1051 -1.0413
 6339SOL     OW30478   4.297   4.058   8.396 -0.2892 -0.3583  0.0821
 6339SOL    HW130479   4.379   4.086   8.356  1.0031 -2.1964  1.4602
 6339SOL    HW230480   4.251   4.142   8.402 -0.7407 -0.5305 -1.0052
 6340SOL     OW30481   4.240   3.554   7.201  0.0062 -0.3225  0.3073
 6340SOL    HW130482   4.258   3.595   7.285 -1.3800  0.6071  0.1458
 6340SOL    HW230483   4.145   3.554   7.200 -0.0300 -1.4198  3.0070
 6341SOL     OW30484   3.038   4.066  12.327 -0.6651 -0.4734  0.2531
 6341SOL    HW130485   2.960   4.080  12.273 -1.6261  1.4277  2.1470
 6341SOL    HW230486   3.065   4.151  12.361  0.1535  0.1262 -1.9082
 6342SOL     OW30487   4.091   1.508   1.398 -0.2952  0.8103  0.1610
 6342SOL    HW130488   4.083   1.541   1.309 -0.8118 -0.3487 -0.2153
 6342SOL    HW230489   4.054   1.420   1.388  1.4576  0.2231 -1.1205
 6343SOL     OW30490   3.998   2.396   1.304 -0.0530 -0.0382 -0.2133
 6343SOL    HW130491   3.965   2.385   1.393  2.0105 -0.3653  0.4952
 6343SOL    HW230492   4.061   2.325   1.292  0.1050  0.0778 -0.0618
 6344SOL     OW30493   0.597   4.545   7.063 -0.0740 -0.0916  0.2503
 6344SOL    HW130494   0.544   4.618   7.032  1.0711 -0.1001 -1.7374
 6344SOL    HW230495   0.559   4.472   7.014  1.2557 -0.6892  0.0908
 6345SOL     OW30496   2.323   0.299   4.564 -0.4447 -0.0268  0.0289
 6345SOL    HW130497   2.318   0.283   4.658 -2.7493  0.8163  0.0522
 6345SOL    HW230498   2.370   0.383   4.563 -0.5529  0.0254 -0.3589
 6346SOL     OW30499   0.723   3.719   3.099  0.0158 -0.3198 -0.1710
 6346SOL    HW130500   0.772   3.709   3.180 -0.5818 -1.8744  0.0118
 6346SOL    HW230501   0.684   3.632   3.085 -1.0702  0.1668 -0.1820
 6347SOL     OW30502   1.194   0.931   1.544  0.0978 -0.0015  0.1089
 6347SOL    HW130503   1.268   0.899   1.492 -0.8992 -0.1504 -1.2120
 6347SOL    HW230504   1.180   1.006   1.486 -0.4554  0.2344  0.5518
 6348SOL     OW30505   1.150   0.764   7.656  0.2185 -0.4598  0.5884
 6348SOL    HW130506   1.179   0.762   7.565  0.5318 -0.5121  0.6891
 6348SOL    HW230507   1.220   0.710   7.694  0.1166 -2.0503 -1.4262
 6349SOL     OW30508   1.827   0.815   8.075  0.0391  0.6642 -0.3195
 6349SOL    HW130509   1.877   0.856   8.145 -1.3885 -0.3817  1.2908
 6349SOL    HW230510   1.845   0.725   8.102 -0.6278  0.7392  0.3705
 6350SOL     OW30511   0.150   0.347  12.824 -0.1666  0.2484 -0.2278
 6350SOL    HW130512   0.183   0.437  12.826  0.1808  0.0405  3.2567
 6350SOL    HW230513   0.169   0.315  12.912 -0.4042  1.7773  0.3869
 6351SOL     OW30514   1.494   2.526  16.442  0.2625 -0.0993  0.0898
 6351SOL    HW130515   1.589   2.534  16.437  0.1850  0.0340 -1.3169
 6351SOL    HW230516   1.476   2.488  16.356  1.9136 -2.5754  0.8435
 6352SOL     OW30517   1.159   3.332   7.521 -0.6659 -0.0224 -0.1895
 6352SOL    HW130518   1.252   3.311   7.519  0.1827  3.4089  2.4610
 6352SOL    HW230519   1.128   3.252   7.563  1.1368 -0.2486  0.6979
 6353SOL     OW30520   1.086   3.228  11.875  0.1157 -0.0887  0.0672
 6353SOL    HW130521   1.028   3.156  11.900 -0.9574  0.3165 -1.2372
 6353SOL    HW230522   1.017   3.295  11.865  0.3309  0.2371  0.7307
 6354SOL     OW30523   1.556   4.070   7.535  0.6189  0.2510  0.1868
 6354SOL    HW130524   1.523   4.150   7.495  1.2519  0.4501  0.0617
 6354SOL    HW230525   1.486   4.058   7.600  1.5084  0.1697  1.1331
 6355SOL     OW30526   4.066   3.469   5.926 -0.0009 -0.2946 -0.2157
 6355SOL    HW130527   4.125   3.433   5.992 -1.5966  0.2874  1.5551
 6355SOL    HW230528   3.980   3.441   5.959 -0.9109  0.3664 -2.0068
 6356SOL     OW30529   0.972   3.645   5.964  0.4786  0.4785 -0.0484
 6356SOL    HW130530   0.879   3.649   5.941  0.1779  2.1183  1.3988
 6356SOL    HW230531   0.972   3.610   6.053 -1.9754  0.4180 -0.0743
 6357SOL     OW30532   0.418   2.537  13.383 -0.5745  0.1789 -0.5421
 6357SOL    HW130533   0.352   2.580  13.329  0.7926  1.3817 -1.2434
 6357SOL    HW230534   0.480   2.511  13.315  0.2776 -0.5663  0.5201
 6358SOL     OW30535   3.289   1.364   8.699 -0.1417 -0.3620  0.5781
 6358SOL    HW130536   3.233   1.435   8.730 -0.5660 -0.7428  0.6879
 6358SOL    HW230537   3.229   1.294   8.670 -3.3881  2.1691  1.1999
 6359SOL     OW30538   2.224   2.893   2.359 -0.5353  0.3314 -0.0816
 6359SOL    HW130539   2.219   2.830   2.431 -0.2518 -0.8119 -1.0584
 6359SOL    HW230540   2.138   2.915   2.325  0.0275 -0.1142 -1.8001
 6360SOL     OW30541   0.641   1.609   8.921  0.0694  0.1581  0.2598
 6360SOL    HW130542   0.642   1.586   8.829  1.7752 -2.3507  0.8989
 6360SOL    HW230543   0.679   1.697   8.918  0.5576 -0.0877 -0.8212
 6361SOL     OW30544   1.666   0.838   0.461  0.1806  0.2029 -0.2131
 6361SOL    HW130545   1.716   0.828   0.380 -1.6102  1.1762 -1.4460
 6361SOL    HW230546   1.592   0.778   0.463  1.2622 -1.1708 -1.1740
 6362SOL     OW30547   1.714   4.186  12.091 -0.1493 -0.3152 -0.5345
 6362SOL    HW130548   1.749   4.215  12.176  1.5382 -0.8040 -1.0838
 6362SOL    HW230549   1.637   4.137  12.121 -0.1087  1.3429  2.3770
 6363SOL     OW30550   3.932   1.970   4.983  0.0089 -0.1420 -0.3162
 6363SOL    HW130551   3.890   2.055   4.967  0.0676  0.1311  0.9539
 6363SOL    HW230552   3.990   1.975   5.059  1.5528 -3.4814 -1.2961
 6364SOL     OW30553   0.719   3.137  12.669  0.0913  0.5059 -0.2421
 6364SOL    HW130554   0.632   3.153  12.707 -1.5269 -1.8905 -2.8932
 6364SOL    HW230555   0.757   3.219  12.700 -0.2936  0.1759  1.1145
 6365SOL     OW30556   1.153   2.286   5.753  0.0383  0.2214  0.5907
 6365SOL    HW130557   1.137   2.262   5.844 -1.2636 -2.0432 -0.2291
 6365SOL    HW230558   1.222   2.225   5.726 -0.8408 -0.1629 -0.7567
 6366SOL     OW30559   4.530   3.374   3.524 -0.2638  0.3255 -0.0496
 6366SOL    HW130560   4.467   3.338   3.587  1.9351  0.4962  2.2342
 6366SOL    HW230561   4.610   3.329   3.550  0.5180  0.7320 -1.7875
 6367SOL     OW30562   2.445   4.404   5.095  0.1181  0.4612  0.3304
 6367SOL    HW130563   2.447   4.499   5.109  1.2411  0.5249 -0.2893
 6367SOL    HW230564   2.380   4.391   5.026 -0.4578  0.4232  0.8800
 6368SOL     OW30565   0.342   2.284   8.540  0.2317  0.0953 -0.2087
 6368SOL    HW130566   0.350   2.285   8.445 -1.7331 -0.0040 -0.3766
 6368SOL    HW230567   0.248   2.294   8.553  0.0680 -0.5431 -0.8759
 6369SOL     OW30568   4.588   0.374   8.040  0.1593 -0.6278 -0.2474
 6369SOL    HW130569   4.570   0.304   8.103 -0.4149  0.3847  0.7032
 6369SOL    HW230570   4.610   0.448   8.096 -0.9902  0.4193 -1.1978
 6370SOL     OW30571   4.359   2.836  16.984  0.2194  0.1325  0.0057
 6370SOL    HW130572   4.379   2.823  17.076 -0.4622 -1.9647 -0.1617
 6370SOL    HW230573   4.275   2.791  16.975 -0.1137  0.3564  2.0417
 6371SOL     OW30574   0.705   3.307   4.392 -0.2015  0.6742 -0.1713
 6371SOL    HW130575   0.733   3.238   4.452  0.6074 -0.8399 -2.2926
 6371SOL    HW230576   0.692   3.277   4.302  1.7882  2.2975 -1.0060
 6372SOL     OW30577   4.475   0.510   5.961 -0.5759 -0.5362  0.0286
 6372SOL    HW130578   4.542   0.579   5.960  0.1605 -1.2796 -0.9957
 6372SOL    HW230579   4.502   0.463   5.883  0.6113  1.0221 -0.5016
 6373SOL     OW30580   0.607   0.502   7.455  0.0389  0.0612  0.6323
 6373SOL    HW130581   0.621   0.597   7.459 -0.4266  0.1390  0.3754
 6373SOL    HW230582   0.637   0.476   7.542 -0.6081  4.0021  2.0609
 6374SOL     OW30583   3.947   3.623   6.213  0.2336  0.4945  0.1609
 6374SOL    HW130584   3.991   3.686   6.269 -2.6394  2.6469  0.0118
 6374SOL    HW230585   4.015   3.623   6.146 -0.1836  1.5343 -0.2714
 6375SOL     OW30586   1.783   3.574   3.915  0.0390  0.7599  0.8990
 6375SOL    HW130587   1.769   3.581   3.821  0.3702 -0.9604  0.7079
 6375SOL    HW230588   1.878   3.562   3.922  0.2417  0.5524 -2.0186
 6376SOL     OW30589   4.258   4.266   6.300  0.3485 -0.5986 -0.1774
 6376SOL    HW130590   4.334   4.234   6.348  1.3684  0.7106 -0.9122
 6376SOL    HW230591   4.291   4.264   6.210  0.9457  0.0369  0.0318
 6377SOL     OW30592   1.953   3.731   5.248  0.1156 -0.0103  0.1402
 6377SOL    HW130593   1.996   3.760   5.329 -3.2284  1.0251  1.5626
 6377SOL    HW230594   2.014   3.754   5.179  1.6214 -0.0820  1.4579
 6378SOL     OW30595   3.212   3.072   6.551 -0.0132  0.1680  0.1214
 6378SOL    HW130596   3.132   3.082   6.499  0.5668  0.5470 -0.6928
 6378SOL    HW230597   3.275   3.131   6.510  0.1657 -0.0281  0.1136
 6379SOL     OW30598   2.778   3.364  10.327  0.0700 -0.4279 -0.0061
 6379SOL    HW130599   2.803   3.366  10.234 -0.0780 -1.2984 -0.0695
 6379SOL    HW230600   2.748   3.453  10.343  1.6435  0.1286 -0.1498
 6380SOL     OW30601   1.104   0.156   6.137 -0.2076  0.0495 -0.7094
 6380SOL    HW130602   1.087   0.064   6.115 -0.2232 -0.2339  0.4865
 6380SOL    HW230603   1.178   0.175   6.080  0.8050 -1.1617  0.1737
 6381SOL     OW30604   1.910   1.585   5.329 -0.3009  0.9590 -0.5698
 6381SOL    HW130605   1.836   1.630   5.288 -1.4427  0.2250  0.7010
 6381SOL    HW230606   1.909   1.503   5.280 -0.2175  0.9456 -0.5498
 6382SOL     OW30607   3.547   0.832   0.082  0.0396 -0.0568 -0.0938
 6382SOL    HW130608   3.555   0.736   0.085  2.9802  0.2043  0.1475
 6382SOL    HW230609   3.630   0.850   0.039 -0.6587  0.6150 -1.1618
 6383SOL     OW30610   3.722   2.941   2.394  0.1099  0.3269  0.7164
 6383SOL    HW130611   3.741   3.010   2.332  1.0673 -0.3538  0.2378
 6383SOL    HW230612   3.633   2.969   2.413 -0.1699  2.1745 -3.3332
 6384SOL     OW30613   1.480   1.217  14.869  0.1454 -0.2378  0.1520
 6384SOL    HW130614   1.506   1.232  14.778  1.4755 -0.0100  0.5706
 6384SOL    HW230615   1.567   1.212  14.910  0.0872 -0.7257  0.2162
 6385SOL     OW30616   1.066   1.261   5.826  0.9199  0.4228  0.1695
 6385SOL    HW130617   1.105   1.349   5.827  1.0762  0.3788 -1.4261
 6385SOL    HW230618   1.008   1.268   5.749  1.6116  0.9944 -0.2977
 6386SOL     OW30619   4.632   0.523   0.399 -0.5703 -0.2268 -0.6151
 6386SOL    HW130620   4.596   0.601   0.442  1.9560 -0.3225  1.6066
 6386SOL    HW230621   4.711   0.571   0.373 -0.5344 -0.6653 -1.3227
 6387SOL     OW30622   4.077   3.832   2.127 -0.8833  0.2197  0.1863
 6387SOL    HW130623   3.987   3.832   2.095 -0.8527  2.1844  0.0913
 6387SOL    HW230624   4.116   3.847   2.041  1.1809 -0.6788  0.9630
 6388SOL     OW30625   4.038   1.698   2.478  0.5165 -0.2796 -0.4560
 6388SOL    HW130626   4.005   1.616   2.515  0.8216  0.0054  0.4290
 6388SOL    HW230627   4.054   1.757   2.551  0.4927  0.9913 -1.4873
 6389SOL     OW30628   2.046   4.502   8.370  0.2519 -0.2020  0.0087
 6389SOL    HW130629   1.991   4.557   8.426 -1.7897 -2.3886  0.1352
 6389SOL    HW230630   1.983   4.432   8.354 -0.8108  0.7121  0.1801
 6390SOL     OW30631   2.157   1.826   8.388  0.4762  0.6033 -0.0279
 6390SOL    HW130632   2.229   1.871   8.434  1.8058 -0.4779 -1.0408
 6390SOL    HW230633   2.098   1.896   8.362 -1.8781 -0.8884  1.2901
 6391SOL     OW30634   1.746   0.015   6.765  0.1715  0.2131  0.4366
 6391SOL    HW130635   1.660   4.705   6.788 -0.0387  1.7967  1.9267
 6391SOL    HW230636   1.786   4.661   6.724  1.8012  1.1404  0.2469
 6392SOL     OW30637   2.980   2.842   7.848  0.3358  0.0395  0.1348
 6392SOL    HW130638   2.909   2.845   7.784 -0.7973 -1.9974  1.3057
 6392SOL    HW230639   2.989   2.747   7.851  1.0800  0.0464 -1.7843
 6393SOL     OW30640   2.401   3.484   6.989  0.3729  0.0179 -0.0117
 6393SOL    HW130641   2.493   3.504   6.973  0.4808 -1.6870 -1.5552
 6393SOL    HW230642   2.372   3.560   7.041  0.4674  0.4232 -0.5464
 6394SOL     OW30643   2.253   2.460   8.791 -0.0032  0.2951 -0.4814
 6394SOL    HW130644   2.178   2.471   8.850  0.1855 -1.5295  0.1037
 6394SOL    HW230645   2.282   2.377   8.828  0.2301  0.4964 -0.2110
 6395SOL     OW30646   0.924   2.312   1.767  0.4810 -0.0087  0.3050
 6395SOL    HW130647   0.848   2.315   1.826  1.1530 -0.0222  1.1647
 6395SOL    HW230648   0.873   2.299   1.687  1.2177  1.6996 -0.4166
 6396SOL     OW30649   4.448   2.895   4.997 -0.1072 -0.6084 -0.2365
 6396SOL    HW130650   4.541   2.906   4.981 -0.0364 -1.1466 -0.1829
 6396SOL    HW230651   4.419   2.850   4.918  0.8754  1.4210 -1.7633
 6397SOL     OW30652   2.762   3.440   9.356  0.0872  0.3018 -0.1813
 6397SOL    HW130653   2.783   3.410   9.267  0.7613  0.9819 -0.2529
 6397SOL    HW230654   2.788   3.359   9.399  1.0349  0.6665 -0.0570
 6398SOL     OW30655   3.125   0.979  15.678  0.4304  0.1342 -0.8433
 6398SOL    HW130656   3.209   1.008  15.642  0.3704 -1.4483 -2.2610
 6398SOL    HW230657   3.099   0.912  15.614  1.6870  0.5361 -1.7633
 6399SOL     OW30658   4.509   2.125   4.105  0.7214 -0.1478  0.1699
 6399SOL    HW130659   4.594   2.153   4.072  1.2514 -0.8907  0.9173
 6399SOL    HW230660   4.466   2.210   4.089  0.1181 -0.7410 -1.3097
 6400SOL     OW30661   1.366   4.219  17.526 -0.2459 -0.0385  0.2098
 6400SOL    HW130662   1.319   4.139  17.547  0.3464 -1.0137 -2.2020
 6400SOL    HW230663   1.425   4.194  17.455 -0.7093 -0.9170  0.1400
 6401SOL     OW30664   3.772   2.380   3.289  0.1759 -0.2713 -0.4139
 6401SOL    HW130665   3.793   2.432   3.212  1.1527  0.6899  0.5032
 6401SOL    HW230666   3.847   2.325   3.311 -0.1262  0.0647  1.4305
 6402SOL     OW30667   0.262   2.401   9.659  0.6391 -0.2863  0.0738
 6402SOL    HW130668   0.274   2.477   9.601 -0.9001  0.0256  0.1490
 6402SOL    HW230669   0.185   2.423   9.711  2.1225  1.6244  1.4733
 6403SOL     OW30670   0.779   1.002  17.394 -0.3200  0.1803 -0.1836
 6403SOL    HW130671   0.812   0.969  17.477  2.6676 -0.9984 -1.8390
 6403SOL    HW230672   0.736   1.086  17.414  0.2293  0.6836 -1.0870
 6404SOL     OW30673   3.611   3.041   8.531 -0.2469 -0.2551 -0.3163
 6404SOL    HW130674   3.518   3.018   8.525 -0.5895  0.7952  1.0361
 6404SOL    HW230675   3.600   3.122   8.480  0.5727  0.5546  0.7803
 6405SOL     OW30676   4.213   4.376   0.936  0.6013  0.2372  0.3277
 6405SOL    HW130677   4.220   4.348   0.845  2.2319  0.4803  0.3799
 6405SOL    HW230678   4.289   4.326   0.963  0.4701 -0.9566 -1.5332
 6406SOL     OW30679   1.475   1.268   7.661  0.1178 -0.0296 -0.3818
 6406SOL    HW130680   1.569   1.284   7.672  0.3964 -0.1699 -2.5404
 6406SOL    HW230681   1.445   1.219   7.737  0.3229  0.7061  0.1790
 6407SOL     OW30682   3.000   2.591  17.553 -0.3811 -0.4654  0.6592
 6407SOL    HW130683   3.015   2.519  17.614  0.3615 -1.8433 -1.1562
 6407SOL    HW230684   2.907   2.615  17.554 -1.3008 -3.8828 -3.4667
 6408SOL     OW30685   3.008   2.297   0.668  0.2129  0.0769 -0.6898
 6408SOL    HW130686   3.081   2.359   0.667 -2.0978  2.8438 -0.8222
 6408SOL    HW230687   2.979   2.317   0.579  1.8690 -2.6255 -1.8177
 6409SOL     OW30688   2.114   2.032   2.090 -0.1871 -0.8477 -0.0028
 6409SOL    HW130689   2.026   2.014   2.124 -1.2800  0.7114 -1.9732
 6409SOL    HW230690   2.092   2.122   2.065 -1.1491 -1.7132 -2.2988
 6410SOL     OW30691   0.725   4.500   6.366 -0.1693 -0.1767  0.5468
 6410SOL    HW130692   0.745   4.584   6.327 -1.3447 -0.0247  0.2683
 6410SOL    HW230693   0.770   4.513   6.449 -0.0470 -1.0071  0.6162
 6411SOL     OW30694   4.271   0.498  11.891  0.0283 -0.6367  0.2065
 6411SOL    HW130695   4.331   0.569  11.869  1.1775 -1.9211 -0.7578
 6411SOL    HW230696   4.323   0.468  11.965  1.0647  1.7187  0.4306
 6412SOL     OW30697   1.184   0.677   5.820 -0.1055  0.0186  0.3265
 6412SOL    HW130698   1.154   0.711   5.736  0.0584  1.7341  0.9756
 6412SOL    HW230699   1.146   0.589   5.826 -2.9625  1.1466 -1.5562
 6413SOL     OW30700   3.596   0.613   6.159 -0.5432  0.1158 -1.1494
 6413SOL    HW130701   3.635   0.556   6.093  2.2265  1.0776 -0.3411
 6413SOL    HW230702   3.504   0.615   6.131 -0.1323  0.3054 -2.5037
 6414SOL     OW30703   3.923   1.968   7.028 -0.1097  0.0643  0.0118
 6414SOL    HW130704   4.015   1.961   7.002  0.0251 -0.2019  0.5682
 6414SOL    HW230705   3.874   1.930   6.955  1.3308 -0.8668 -0.4855
 6415SOL     OW30706   2.619   0.175   2.087 -0.5844 -0.0474  0.8225
 6415SOL    HW130707   2.524   0.171   2.081 -0.6079 -0.6235  1.6556
 6415SOL    HW230708   2.632   0.137   2.000 -1.8650 -1.1445  1.1075
 6416SOL     OW30709   1.349   3.742   6.514 -0.0918 -0.2465 -0.0866
 6416SOL    HW130710   1.428   3.793   6.533 -1.5947  1.8136  0.6592
 6416SOL    HW230711   1.281   3.777   6.572  0.8506  0.8365  0.3493
 6417SOL     OW30712   0.767   0.747   7.896 -0.4808 -0.0646  0.2902
 6417SOL    HW130713   0.682   0.767   7.935  0.7347  2.0372  1.8306
 6417SOL    HW230714   0.776   0.802   7.818 -1.2464  2.4396  1.9992
 6418SOL     OW30715   2.376   3.272   6.789  0.5192  0.0116  0.8740
 6418SOL    HW130716   2.282   3.276   6.775  0.7254 -0.4189 -0.5996
 6418SOL    HW230717   2.388   3.352   6.841  1.0914  0.0549  0.6790
 6419SOL     OW30718   2.403   2.089   9.332  0.3001  0.3316  0.4284
 6419SOL    HW130719   2.436   2.003   9.308 -0.4214  0.2659 -0.3302
 6419SOL    HW230720   2.486   2.137   9.339  0.4224  0.4633 -2.0725
 6420SOL     OW30721   2.002   4.433   5.618 -0.4762  0.2776  0.1311
 6420SOL    HW130722   2.077   4.380   5.592 -2.4742 -2.3467 -0.2362
 6420SOL    HW230723   1.931   4.369   5.613 -0.9218  0.8591 -0.9200
 6421SOL     OW30724   4.276   2.107   7.994  0.0975  0.0090 -0.2931
 6421SOL    HW130725   4.253   2.140   7.908 -2.0102 -1.8368 -0.4513
 6421SOL    HW230726   4.190   2.088   8.033 -0.5780  0.8187 -1.3965
 6422SOL     OW30727   4.038   2.751  17.268 -0.1242 -0.7410  0.2939
 6422SOL    HW130728   4.115   2.748  17.325 -0.0773  2.2449  0.4102
 6422SOL    HW230729   4.018   2.845  17.261  0.5338 -0.6119  0.1454
 6423SOL     OW30730   2.819   2.471   5.084 -0.3583  0.1761 -0.5656
 6423SOL    HW130731   2.739   2.521   5.096 -0.2479  0.2581 -0.1804
 6423SOL    HW230732   2.872   2.544   5.115 -1.9679  0.9451  0.3501
 6424SOL     OW30733   3.478   2.959  13.474 -0.1558  0.2092 -0.3213
 6424SOL    HW130734   3.539   3.009  13.527 -0.4364 -2.0668  2.1182
 6424SOL    HW230735   3.400   3.015  13.482 -0.2546 -0.0157  0.2682
 6425SOL     OW30736   3.435   3.201  14.147  0.3628 -0.0009  0.2179
 6425SOL    HW130737   3.461   3.126  14.200 -0.2988 -0.9117 -0.7595
 6425SOL    HW230738   3.506   3.260  14.173 -1.5285  2.6892 -0.6837
 6426SOL     OW30739   2.705   1.323   5.281  0.0477 -0.5041 -0.4154
 6426SOL    HW130740   2.783   1.317   5.226 -0.1086  1.3252 -0.8436
 6426SOL    HW230741   2.665   1.398   5.236  1.8191  0.6256 -0.0847
 6427SOL     OW30742   4.275   0.283  16.766 -0.1794  0.3875 -0.0347
 6427SOL    HW130743   4.285   0.374  16.736  1.8529  0.6088  1.3153
 6427SOL    HW230744   4.185   0.275  16.798  0.5955 -0.4282  1.8867
 6428SOL     OW30745   2.409   1.064   3.844 -0.0657  0.3126  0.0867
 6428SOL    HW130746   2.401   1.065   3.749  0.8722 -2.6407 -0.0414
 6428SOL    HW230747   2.326   1.106   3.865  0.6430  1.2487  1.0062
 6429SOL     OW30748   1.660   0.918   3.468  0.1359 -0.0789  0.0333
 6429SOL    HW130749   1.688   0.908   3.377  0.6572 -0.2496  0.2113
 6429SOL    HW230750   1.623   1.006   3.475  0.1238  0.1018 -2.0794
 6430SOL     OW30751   0.529   2.505   2.356  0.1199 -0.3432 -0.4274
 6430SOL    HW130752   0.449   2.454   2.370 -1.0711  1.2831 -1.3298
 6430SOL    HW230753   0.526   2.567   2.429  0.3233 -1.6970  0.7421
 6431SOL     OW30754   3.624   3.123   5.100  0.0209  1.1244 -0.1085
 6431SOL    HW130755   3.610   3.217   5.096  0.3133  1.1229 -1.2630
 6431SOL    HW230756   3.616   3.098   5.008 -0.3211 -3.0709  1.0673
 6432SOL     OW30757   4.276   1.257   3.917 -0.2211  0.5405 -0.1632
 6432SOL    HW130758   4.302   1.347   3.896  1.7987  0.1126  0.4902
 6432SOL    HW230759   4.355   1.234   3.965 -0.4979  0.2901  0.1647
 6433SOL     OW30760   2.327   0.796  10.838  0.4923 -0.2424  0.2899
 6433SOL    HW130761   2.290   0.773  10.924  0.4661 -1.2981 -0.0015
 6433SOL    HW230762   2.267   0.744  10.785 -0.8497  0.1803  1.3920
 6434SOL     OW30763   2.938   3.879   7.065  0.2778 -1.0218 -0.3397
 6434SOL    HW130764   2.988   3.889   7.146  0.4319  0.4486 -0.6070
 6434SOL    HW230765   2.854   3.912   7.097  2.0121  0.0588  3.0727
 6435SOL     OW30766   4.664   3.716   5.462  0.3376 -0.6997 -0.1228
 6435SOL    HW130767   4.618   3.766   5.395  1.7799 -0.9894 -1.3339
 6435SOL    HW230768   4.638   3.763   5.541  1.0408 -1.5737  0.6358
 6436SOL     OW30769   2.404   4.068   5.498 -0.3260  0.7432  0.0165
 6436SOL    HW130770   2.378   4.160   5.497 -3.0527 -0.0486 -0.5589
 6436SOL    HW230771   2.471   4.059   5.430  0.8409 -0.0928  1.2837
 6437SOL     OW30772   1.006   0.687  16.546 -0.8619 -0.2167  0.4716
 6437SOL    HW130773   0.927   0.651  16.505 -0.4199  0.1513 -0.6962
 6437SOL    HW230774   1.074   0.663  16.483 -0.2168  0.4334  0.9361
 6438SOL     OW30775   0.819   0.836   7.642  0.0338  0.2809 -0.0456
 6438SOL    HW130776   0.801   0.925   7.612 -2.2690 -0.5284 -1.0931
 6438SOL    HW230777   0.750   0.787   7.597 -1.1541 -0.3619  2.4440
 6439SOL     OW30778   1.079   4.223   7.885  0.2497 -0.0734  1.1151
 6439SOL    HW130779   1.037   4.138   7.899  0.2429 -0.4583 -1.2437
 6439SOL    HW230780   1.010   4.269   7.932 -1.6171 -0.6534 -1.0613
 6440SOL     OW30781   3.895   4.130   5.420 -0.6711  0.0961  0.5049
 6440SOL    HW130782   3.846   4.155   5.341  0.3305  0.0238 -0.1386
 6440SOL    HW230783   3.854   4.178   5.491 -2.0383  0.1723 -0.3369
 6441SOL     OW30784   2.558   0.260   0.711  0.5561 -0.3539 -0.3088
 6441SOL    HW130785   2.520   0.303   0.788  0.1873 -2.3494  0.6367
 6441SOL    HW230786   2.651   0.259   0.735  0.5457 -1.2885 -0.3052
 6442SOL     OW30787   2.588   1.260   4.473 -0.6215 -0.5202 -0.6204
 6442SOL    HW130788   2.528   1.236   4.402 -0.5953 -1.8384 -0.1967
 6442SOL    HW230789   2.568   1.194   4.541  0.2949 -1.6601 -1.4579
 6443SOL     OW30790   3.804   2.282   0.861 -0.1873  0.5571 -0.1455
 6443SOL    HW130791   3.896   2.263   0.843 -1.0839 -2.6472 -1.2348
 6443SOL    HW230792   3.816   2.367   0.904  2.6830 -0.4632  1.0839
 6444SOL     OW30793   4.614   2.170   5.836  0.8509  0.5268 -0.0487
 6444SOL    HW130794   4.571   2.141   5.755  1.8075  0.4417 -0.5165
 6444SOL    HW230795   4.644   2.260   5.823 -1.7808  1.4707  0.3800
 6445SOL     OW30796   3.655   4.620   1.152  0.2280  0.2160  0.5766
 6445SOL    HW130797   3.727   4.582   1.103  0.8559  1.2437  0.6999
 6445SOL    HW230798   3.695   4.696   1.194  0.3727 -0.1574  1.1069
 6446SOL     OW30799   3.114   1.588   8.790 -0.4734  0.0781  0.0816
 6446SOL    HW130800   3.103   1.669   8.740  2.9380 -0.0450 -0.8484
 6446SOL    HW230801   3.022   1.580   8.815 -1.4509  2.1134 -2.8471
 6447SOL     OW30802   2.227   4.284   5.681  0.1427 -0.3180 -0.4871
 6447SOL    HW130803   2.266   4.325   5.758 -0.6055 -3.1195  1.3549
 6447SOL    HW230804   2.157   4.239   5.727  0.3433  1.1116  1.2084
 6448SOL     OW30805   2.501   3.583   3.101  0.6614 -0.0494  0.3120
 6448SOL    HW130806   2.504   3.678   3.098 -2.7534  0.0877  1.9063
 6448SOL    HW230807   2.425   3.565   3.045 -0.0238  0.3997  1.1075
 6449SOL     OW30808   2.727   3.216   0.337 -0.0574 -0.5281 -0.0090
 6449SOL    HW130809   2.682   3.283   0.285 -1.4033 -1.1808  0.3232
 6449SOL    HW230810   2.769   3.266   0.407  0.0241 -0.2141 -0.2791
 6450SOL     OW30811   2.174   4.270   1.792  0.2266 -0.1937  0.0283
 6450SOL    HW130812   2.147   4.248   1.881  1.7470  0.1771  0.5785
 6450SOL    HW230813   2.194   4.363   1.804  2.3393 -0.5231 -1.0085
 6451SOL     OW30814   4.324   4.368  14.725 -0.0541 -0.0569 -0.3784
 6451SOL    HW130815   4.337   4.312  14.648 -1.5410  1.7117 -1.9391
 6451SOL    HW230816   4.296   4.443  14.672  0.7103  1.2129  1.0015
 6452SOL     OW30817   0.723   2.429   3.500 -0.1274  0.2926 -0.2891
 6452SOL    HW130818   0.719   2.375   3.580 -1.4186  0.7445 -0.0431
 6452SOL    HW230819   0.640   2.477   3.502 -0.9747 -1.1492 -0.7066
 6453SOL     OW30820   1.724   0.054   3.548 -0.5066 -0.3817 -0.1788
 6453SOL    HW130821   1.674   0.040   3.469 -0.3147 -2.4431  0.0728
 6453SOL    HW230822   1.729   4.691   3.589  2.5659 -0.0264  0.2660
 6454SOL     OW30823   2.611   0.238   3.619 -0.3822 -0.0504  0.5155
 6454SOL    HW130824   2.672   0.165   3.604  0.1030  0.2008  1.2833
 6454SOL    HW230825   2.533   0.203   3.576  1.0620 -1.4421 -0.9824
 6455SOL     OW30826   3.637   1.253   6.644 -0.0814  0.2707  0.5536
 6455SOL    HW130827   3.661   1.250   6.737 -1.4799  0.0208  0.9152
 6455SOL    HW230828   3.558   1.200   6.657  0.0423  0.1187  0.6833
 6456SOL     OW30829   0.538   1.169  14.783  0.2549 -0.1563  0.3056
 6456SOL    HW130830   0.546   1.098  14.846 -1.3872 -0.5434  0.0752
 6456SOL    HW230831   0.630   1.195  14.778  0.1323  0.0563 -0.7947
 6457SOL     OW30832   4.130   0.010   2.799 -0.1456  0.2401  0.7728
 6457SOL    HW130833   4.197   0.055   2.849  1.9861 -2.7881  0.6196
 6457SOL    HW230834   4.069   0.081   2.781 -0.3008  0.2631  1.4070
 6458SOL     OW30835   1.553   0.097   1.005  0.1094  0.1981 -0.2763
 6458SOL    HW130836   1.575   0.004   1.008 -0.3408  0.1939  2.2258
 6458SOL    HW230837   1.631   0.150   1.023  0.1878  0.0758 -0.2548
 6459SOL     OW30838   0.448   3.090  11.369  0.2852  0.7028 -0.2495
 6459SOL    HW130839   0.503   3.025  11.414 -0.4210 -2.8769 -4.5053
 6459SOL    HW230840   0.497   3.172  11.366  1.8759 -0.2613 -0.3605
 6460SOL     OW30841   1.425   4.005   6.212  0.4580  0.8861  0.1929
 6460SOL    HW130842   1.460   4.091   6.238 -0.4846  2.2438 -3.1063
 6460SOL    HW230843   1.493   3.985   6.148  2.2649 -0.2676  2.4778
 6461SOL     OW30844   0.331   1.981  17.469 -0.4068  0.2166  0.2345
 6461SOL    HW130845   0.414   1.977  17.517 -0.0390  0.6762 -0.3669
 6461SOL    HW230846   0.364   1.985  17.380  2.4760 -1.2365  1.2249
 6462SOL     OW30847   1.543   4.001   4.117 -0.1193 -0.0330 -0.4967
 6462SOL    HW130848   1.621   3.956   4.083  1.6348  1.8341  1.0404
 6462SOL    HW230849   1.567   3.997   4.210 -2.1986  0.9348  0.0801
 6463SOL     OW30850   2.185   2.715  15.909  0.0727  1.0071 -0.4746
 6463SOL    HW130851   2.269   2.693  15.868 -0.5790  2.7530 -2.7771
 6463SOL    HW230852   2.169   2.627  15.943 -0.6221  1.1255 -0.4969
 6464SOL     OW30853   3.913   1.270   8.444  0.2501 -0.1896 -0.2926
 6464SOL    HW130854   3.966   1.331   8.392 -0.9305 -0.6802 -2.0715
 6464SOL    HW230855   3.839   1.327   8.464 -0.2857 -0.4794 -1.4572
 6465SOL     OW30856   2.884   1.143   7.085  0.1968 -0.5518  0.5235
 6465SOL    HW130857   2.823   1.165   7.015 -0.4387 -0.3517  1.1421
 6465SOL    HW230858   2.849   1.192   7.160 -3.1307 -1.0711 -0.7162
 6466SOL     OW30859   3.220   2.756   3.481 -0.1881  0.6326  0.2792
 6466SOL    HW130860   3.218   2.750   3.386  0.5169  0.4729  0.2689
 6466SOL    HW230861   3.170   2.676   3.492  0.7706  0.0525  0.4802
 6467SOL     OW30862   0.278   3.345   3.223 -0.4128 -0.0930 -0.1974
 6467SOL    HW130863   0.314   3.260   3.248 -1.2726 -0.6996 -1.0715
 6467SOL    HW230864   0.188   3.317   3.236 -0.5431  0.7670  0.7578
 6468SOL     OW30865   0.293   2.834   3.882  0.1262  0.4232  0.1030
 6468SOL    HW130866   0.380   2.808   3.909 -0.4398 -0.0582  1.4212
 6468SOL    HW230867   0.315   2.877   3.799  0.3669 -1.5592 -0.8637
 6469SOL     OW30868   4.159   2.090  14.333  0.1062 -0.1504  0.2010
 6469SOL    HW130869   4.098   2.045  14.392  0.1877  0.8060  1.0280
 6469SOL    HW230870   4.100   2.164  14.317 -2.6163 -1.9758  1.7791
 6470SOL     OW30871   0.880   3.575   6.738  0.3559 -0.6339  0.5353
 6470SOL    HW130872   0.917   3.535   6.817  1.1696 -0.8891  0.0279
 6470SOL    HW230873   0.850   3.661   6.767 -0.0430 -1.0055  1.2221
 6471SOL     OW30874   1.335   0.207  15.462  0.0318 -0.2276 -0.0371
 6471SOL    HW130875   1.430   0.212  15.448  0.2097 -0.6361  1.0199
 6471SOL    HW230876   1.308   0.142  15.397  1.0288 -0.8242  0.1382
 6472SOL     OW30877   3.364   4.679   0.169 -0.0853 -0.3835 -0.0188
 6472SOL    HW130878   3.394   4.593   0.140  0.8409 -0.1327  0.2160
 6472SOL    HW230879   3.283   4.705   0.124 -1.3938 -1.9739  1.3941
 6473SOL     OW30880   3.539   1.928  10.065  0.0377  0.1667  0.0852
 6473SOL    HW130881   3.458   1.974  10.090  1.0865  2.2064 -0.2746
 6473SOL    HW230882   3.499   1.855  10.017  0.7901 -0.6416  0.6953
 6474SOL     OW30883   0.192   3.938   8.449  0.2789 -0.2480 -0.3802
 6474SOL    HW130884   0.195   3.968   8.540  0.9966 -2.1331  0.2112
 6474SOL    HW230885   0.106   3.898   8.443  0.9325 -2.0707  2.3767
 6475SOL     OW30886   2.558   3.772  14.621 -0.0797 -0.0388  0.2423
 6475SOL    HW130887   2.516   3.835  14.680  0.7593 -0.4774  1.3197
 6475SOL    HW230888   2.490   3.705  14.633  0.0996 -0.5136 -1.3627
 6476SOL     OW30889   4.393   2.711  10.136  0.2161 -0.1697  0.1184
 6476SOL    HW130890   4.436   2.746  10.214  2.1764  0.9410 -1.4480
 6476SOL    HW230891   4.399   2.787  10.077 -0.2183 -0.4195 -0.2469
 6477SOL     OW30892   1.883   2.519   0.633 -0.4863 -0.0673 -0.3736
 6477SOL    HW130893   1.905   2.603   0.593 -0.6263  0.2384  0.1912
 6477SOL    HW230894   1.808   2.502   0.576  0.1124 -3.6395 -0.0712
 6478SOL     OW30895   1.987   2.299   5.291 -0.6297 -0.1373  0.2243
 6478SOL    HW130896   2.056   2.251   5.336  0.2420 -0.3139 -1.3115
 6478SOL    HW230897   1.933   2.332   5.364 -0.5122 -0.1203  0.3038
 6479SOL     OW30898   2.143   0.258  16.748 -0.5343  0.1257 -0.0449
 6479SOL    HW130899   2.121   0.292  16.834  0.1622 -1.9920  0.9791
 6479SOL    HW230900   2.169   0.342  16.710  0.0545 -1.1211 -2.4180
 6480SOL     OW30901   3.301   0.668   4.326  0.2372  0.3536  0.1310
 6480SOL    HW130902   3.233   0.683   4.260  1.3897 -1.5752 -1.5020
 6480SOL    HW230903   3.343   0.754   4.332  2.7403 -0.9132  0.7191
 6481SOL     OW30904   3.801   3.033  12.962  0.3496 -0.5849  0.1028
 6481SOL    HW130905   3.795   2.993  12.875 -1.8278 -0.8888  0.3729
 6481SOL    HW230906   3.821   3.123  12.937  0.5002 -1.4831 -2.9136
 6482SOL     OW30907   2.271   0.680  14.949  0.1479  0.3684  0.2972
 6482SOL    HW130908   2.327   0.689  15.026 -0.9282  0.8805  1.0210
 6482SOL    HW230909   2.334   0.668  14.878  0.6802  0.6564  0.7171
 6483SOL     OW30910   3.142   1.433   5.352 -0.2130  0.6025  0.3836
 6483SOL    HW130911   3.165   1.434   5.445  1.5790 -0.6597 -0.0381
 6483SOL    HW230912   3.227   1.446   5.310 -1.6665  2.4391 -1.9708
 6484SOL     OW30913   0.508   3.459   1.445 -0.0191  0.3885  0.2510
 6484SOL    HW130914   0.578   3.437   1.383  0.9187  1.3859  0.9514
 6484SOL    HW230915   0.503   3.377   1.493 -0.3714 -0.4526 -1.2186
 6485SOL     OW30916   1.319   1.789   4.744  0.4112 -0.3776 -0.2426
 6485SOL    HW130917   1.319   1.786   4.648 -1.8311 -1.4969 -0.2074
 6485SOL    HW230918   1.247   1.852   4.756  0.1673 -0.6005 -0.5213
 6486SOL     OW30919   4.241   1.450   5.634  0.4097  0.3036  0.7759
 6486SOL    HW130920   4.291   1.370   5.617 -0.6456 -0.0346 -0.7870
 6486SOL    HW230921   4.155   1.427   5.598  0.7371 -0.5645  0.5468
 6487SOL     OW30922   4.374   2.474   5.910  0.4494  0.7291 -0.4639
 6487SOL    HW130923   4.403   2.403   5.967 -0.9981 -0.4902 -1.2371
 6487SOL    HW230924   4.279   2.472   5.926  0.8950  0.0322  2.0409
 6488SOL     OW30925   2.257   3.192   7.286 -0.1010  0.3233  0.0997
 6488SOL    HW130926   2.289   3.266   7.337  1.4245 -1.0119  1.0561
 6488SOL    HW230927   2.214   3.236   7.212  0.2526 -2.9528 -2.0665
 6489SOL     OW30928   2.238   0.986   8.067  0.1457 -0.6324  0.2292
 6489SOL    HW130929   2.227   0.910   8.011 -1.9137  0.2412 -0.5553
 6489SOL    HW230930   2.315   1.028   8.030 -1.3943  1.1741 -0.9164
 6490SOL     OW30931   4.447   1.540  15.917  0.5274 -0.1090  0.4194
 6490SOL    HW130932   4.449   1.492  15.834  0.8300 -1.5876  1.2753
 6490SOL    HW230933   4.449   1.629  15.882 -1.0490 -0.1972  0.0626
 6491SOL     OW30934   4.497   0.828  16.530  0.1415  0.2125  0.1177
 6491SOL    HW130935   4.525   0.869  16.448 -0.4191 -1.8755 -1.1159
 6491SOL    HW230936   4.521   0.739  16.505  1.2984  0.6013 -0.1529
 6492SOL     OW30937   2.435   0.106   1.185 -0.6507  0.2743 -0.5144
 6492SOL    HW130938   2.378   0.097   1.108  0.9932 -1.8060 -1.4894
 6492SOL    HW230939   2.450   0.011   1.187 -3.7070 -0.1352  1.6006
 6493SOL     OW30940   3.784   0.255  13.429 -0.4304  0.4194 -0.7241
 6493SOL    HW130941   3.876   0.229  13.438 -0.8751 -0.0303  2.5740
 6493SOL    HW230942   3.736   0.175  13.448 -0.8621  0.9294  0.3372
 6494SOL     OW30943   0.894   2.938   6.487 -0.4155 -0.5388  0.2964
 6494SOL    HW130944   0.813   2.981   6.458 -0.2181 -0.4047 -0.0553
 6494SOL    HW230945   0.860   2.870   6.545  0.2926 -0.8903  0.2999
 6495SOL     OW30946   1.068   0.548   0.603  0.0408 -0.4985 -0.3168
 6495SOL    HW130947   0.976   0.528   0.585 -0.3237  1.8944 -1.1140
 6495SOL    HW230948   1.051   0.563   0.696 -1.4336  0.3249 -0.7068
 6496SOL     OW30949   3.423   3.230   1.284  0.4807 -0.0592 -0.4287
 6496SOL    HW130950   3.473   3.193   1.356 -1.0942  0.2380  0.8030
 6496SOL    HW230951   3.370   3.286   1.341 -0.2014 -1.0737 -0.0513
 6497SOL     OW30952   3.508   1.103   3.320 -0.5962  0.4303  0.4293
 6497SOL    HW130953   3.460   1.113   3.237  0.2192  0.2270 -0.0695
 6497SOL    HW230954   3.483   1.177   3.375  2.3386  1.2139  0.7154
 6498SOL     OW30955   2.188   2.396   0.779  0.2315 -0.1560 -0.6379
 6498SOL    HW130956   2.284   2.397   0.785  0.2847 -1.1839 -1.2540
 6498SOL    HW230957   2.177   2.390   0.684  0.3370  0.1757 -0.6733
 6499SOL     OW30958   2.143   3.889  14.352  0.8111  0.2600 -0.0075
 6499SOL    HW130959   2.202   3.900  14.427  0.0780  0.0665  0.6000
 6499SOL    HW230960   2.127   3.984  14.346 -1.0917 -0.0004  0.9632
 6500SOL     OW30961   0.442   1.527   0.008  0.0464  0.3454  0.0139
 6500SOL    HW130962   0.535   1.507  17.692 -0.3658 -1.2810 -0.5303
 6500SOL    HW230963   0.415   1.503  17.613  0.0318  0.6807 -0.0721
 6501SOL     OW30964   1.235   3.688  10.519 -0.4593 -1.0192  0.6712
 6501SOL    HW130965   1.307   3.638  10.482 -0.0551  0.0545 -0.0004
 6501SOL    HW230966   1.270   3.699  10.608  1.1204  2.2190 -0.3830
 6502SOL     OW30967   2.488   3.995   8.861 -0.8770 -0.1643 -0.0940
 6502SOL    HW130968   2.405   3.949   8.873 -0.8929  0.1175  0.8900
 6502SOL    HW230969   2.465   4.088   8.850  1.9343  0.6352  0.7501
 6503SOL     OW30970   3.925   3.890   1.565 -0.0545 -0.1542  0.1925
 6503SOL    HW130971   4.000   3.949   1.556  0.9569 -1.5157 -0.4302
 6503SOL    HW230972   3.909   3.916   1.655 -1.0490 -0.7358  0.1800
 6504SOL     OW30973   3.189   4.362   9.344 -0.5718  0.5834 -0.4319
 6504SOL    HW130974   3.168   4.399   9.259  1.5782 -1.5619 -1.8916
 6504SOL    HW230975   3.099   4.342   9.368  0.8973 -4.1308  1.1393
 6505SOL     OW30976   0.411   1.850   2.411  0.1673 -0.1176 -0.7969
 6505SOL    HW130977   0.401   1.914   2.340  0.9784 -0.2656 -1.0450
 6505SOL    HW230978   0.447   1.777   2.361  2.4155  0.2076  0.3593
 6506SOL     OW30979   0.690   2.367   3.033  0.3062  0.3006  0.6855
 6506SOL    HW130980   0.720   2.384   2.944 -1.0752 -0.3026  0.1042
 6506SOL    HW230981   0.736   2.284   3.045 -0.9816 -0.5861 -0.4087
 6507SOL     OW30982   3.360   0.858   5.498 -0.2876  0.1314  0.4873
 6507SOL    HW130983   3.276   0.899   5.518 -0.4392  0.1028 -0.1058
 6507SOL    HW230984   3.424   0.916   5.540  1.4982 -1.2518 -0.2801
 6508SOL     OW30985   3.229   0.570   4.673 -0.1963  0.6413  0.3813
 6508SOL    HW130986   3.225   0.626   4.750  1.1045  0.2391  0.7510
 6508SOL    HW230987   3.168   0.599   4.606  0.0305 -2.5486 -1.2324
 6509SOL     OW30988   0.204   4.492   8.550 -0.2394  0.1991 -0.3089
 6509SOL    HW130989   0.269   4.532   8.607 -1.4258  1.7955 -0.0631
 6509SOL    HW230990   0.241   4.405   8.541 -2.1062 -0.6713  0.4069
 6510SOL     OW30991   1.583   0.205  16.117 -0.6041 -0.2148  0.4583
 6510SOL    HW130992   1.659   0.203  16.174  1.4463 -0.0574 -2.2415
 6510SOL    HW230993   1.539   0.287  16.138 -2.4066 -1.4827  1.5841
 6511SOL     OW30994   4.080   2.716   1.615 -0.4764 -0.2146 -0.5871
 6511SOL    HW130995   4.083   2.737   1.521 -1.1074  1.4733 -0.2415
 6511SOL    HW230996   4.026   2.637   1.619  0.0503 -0.5593 -0.3639
 6512SOL     OW30997   3.973   3.379   6.625  0.0790  0.4202  0.1511
 6512SOL    HW130998   3.934   3.449   6.573 -0.5417 -1.2418 -1.6103
 6512SOL    HW230999   3.901   3.321   6.649  0.3017  0.1042  0.0620
 6513SOL     OW31000   3.962   1.991   4.538  0.4200 -0.1239 -0.2095
 6513SOL    HW131001   4.017   1.983   4.615  0.9751 -1.5509 -0.7463
 6513SOL    HW231002   4.014   2.033   4.470 -0.7132 -0.7692 -1.4915
 6514SOL     OW31003   2.704   2.530  12.073 -0.0516 -0.1667 -0.4112
 6514SOL    HW131004   2.729   2.452  12.024  3.4173 -0.8259  2.3962
 6514SOL    HW231005   2.609   2.529  12.067 -0.1833 -0.1558  1.4377
 6515SOL     OW31006   4.599   0.922   3.247  0.5526  0.0886 -0.7272
 6515SOL    HW131007   4.626   0.899   3.337  2.3256 -1.1151 -1.5504
 6515SOL    HW231008   4.674   0.973   3.218  0.3797 -0.5077 -2.2298
 6516SOL     OW31009   1.746   0.049   4.699  0.5163 -0.0349  0.9607
 6516SOL    HW131010   1.794   0.051   4.616  0.2567  2.2617  0.8639
 6516SOL    HW231011   1.762   0.141   4.722 -1.0771  0.5497 -0.2873
 6517SOL     OW31012   4.019   0.321  14.216  0.2016 -0.2091 -0.1204
 6517SOL    HW131013   3.937   0.371  14.209  1.9195  2.5269 -0.7548
 6517SOL    HW231014   4.079   0.385  14.178  0.9309 -0.9697 -0.2341
 6518SOL     OW31015   3.553   4.292   3.896  0.5580  0.2328  0.4005
 6518SOL    HW131016   3.510   4.373   3.924 -1.1231 -0.4400 -0.2151
 6518SOL    HW231017   3.481   4.245   3.853  2.0543 -1.5519 -0.1348
 6519SOL     OW31018   2.113   3.809  16.902  0.3566 -0.0110 -0.1555
 6519SOL    HW131019   2.167   3.865  16.958 -1.4069  0.3223  1.2134
 6519SOL    HW231020   2.059   3.759  16.964  1.0727  2.3352  2.3513
 6520SOL     OW31021   2.673   3.136   7.230 -0.0816  0.1083  0.0024
 6520SOL    HW131022   2.762   3.168   7.245 -1.1805  2.5256  1.4167
 6520SOL    HW231023   2.622   3.216   7.241 -0.2753  0.1835 -1.4532
 6521SOL     OW31024   3.764   2.521   1.020 -0.1527  0.1418  0.4342
 6521SOL    HW131025   3.716   2.488   1.096  1.1244  1.2380  1.7161
 6521SOL    HW231026   3.706   2.578   0.969 -1.3798 -1.5742 -0.0853
 6522SOL     OW31027   3.891   0.064  14.995 -0.9561 -0.3986  0.2764
 6522SOL    HW131028   3.912   0.152  15.027  1.2975 -1.0267  0.5184
 6522SOL    HW231029   3.797   0.076  15.000 -0.8684  1.0279 -2.0044
 6523SOL     OW31030   3.208   1.223   4.407 -0.4575 -0.1338  0.3109
 6523SOL    HW131031   3.158   1.162   4.352 -0.8851  0.4531  0.0456
 6523SOL    HW231032   3.245   1.278   4.338  0.3411  1.1939  1.7973
 6524SOL     OW31033   3.525   3.268  10.136  0.0378  0.1330 -0.0120
 6524SOL    HW131034   3.536   3.239  10.226  0.0785  1.3334  0.3682
 6524SOL    HW231035   3.614   3.303  10.131  0.6576 -1.2732  0.9994
 6525SOL     OW31036   0.394   4.137  16.196  0.7836  0.4093 -0.3731
 6525SOL    HW131037   0.332   4.194  16.152 -1.0311 -1.3856 -0.1192
 6525SOL    HW231038   0.448   4.111  16.121 -0.1627 -0.4864 -0.7408
 6526SOL     OW31039   1.109   3.320   9.453 -0.1859 -0.5264  0.0322
 6526SOL    HW131040   1.199   3.308   9.422  0.1397 -0.3390  0.9078
 6526SOL    HW231041   1.095   3.413   9.433 -2.6839 -0.3291  2.7583
 6527SOL     OW31042   2.997   4.309   7.777 -0.3327 -0.0632  0.2398
 6527SOL    HW131043   3.044   4.369   7.720 -1.5432  0.2324 -0.4573
 6527SOL    HW231044   3.053   4.322   7.854 -0.2115 -0.2026  0.1746
 6528SOL     OW31045   2.630   0.103  11.896 -0.6429 -0.2559 -0.6303
 6528SOL    HW131046   2.599   0.016  11.868  0.8125 -0.9368 -0.1173
 6528SOL    HW231047   2.586   0.110  11.981  0.1631  1.1643 -0.3425
 6529SOL     OW31048   2.985   1.363   4.491 -0.0070  0.3081  0.2239
 6529SOL    HW131049   3.024   1.449   4.475  2.0348 -0.6622 -0.0522
 6529SOL    HW231050   3.072   1.326   4.474  0.8110  2.6667 -0.7621
 6530SOL     OW31051   2.267   4.505   6.387  0.4213 -0.2216 -0.2902
 6530SOL    HW131052   2.256   4.505   6.292 -0.3962 -1.7101 -0.2081
 6530SOL    HW231053   2.207   4.568   6.427  1.0758 -1.3580  2.4711
 6531SOL     OW31054   0.611   3.909   4.637  0.0556  0.6801  0.6373
 6531SOL    HW131055   0.606   3.905   4.541  4.1027  2.4353  0.3552
 6531SOL    HW231056   0.533   3.861   4.664  0.6032 -1.7408 -2.0120
 6532SOL     OW31057   2.524   2.987   7.034 -0.3302 -0.2805  0.0355
 6532SOL    HW131058   2.451   2.957   7.087  2.3838 -3.8275  1.7925
 6532SOL    HW231059   2.547   3.062   7.088  2.3040 -0.5529 -0.6823
 6533SOL     OW31060   0.652   4.361   5.142  0.0190 -0.0299 -0.2839
 6533SOL    HW131061   0.590   4.321   5.080 -1.5096  2.0000 -0.0894
 6533SOL    HW231062   0.714   4.289   5.140 -1.1883 -1.0371 -1.8909
 6534SOL     OW31063   3.859   3.636  16.385  0.4141  0.5259  0.5762
 6534SOL    HW131064   3.831   3.602  16.470 -0.6262 -0.6367 -0.2271
 6534SOL    HW231065   3.812   3.719  16.382 -2.4659 -1.0762  1.6176
 6535SOL     OW31066   3.386   1.105   6.435 -0.0238  0.4259 -0.4949
 6535SOL    HW131067   3.392   1.048   6.358 -0.0496  1.1922 -1.0727
 6535SOL    HW231068   3.442   1.180   6.413  1.5220 -0.6080 -0.1261
 6536SOL     OW31069   2.880   1.394   6.756 -0.0109  0.3486 -0.2915
 6536SOL    HW131070   2.872   1.423   6.665  3.8262  0.3554 -0.6331
 6536SOL    HW231071   2.934   1.316   6.754  2.2946  1.9208  0.4383
 6537SOL     OW31072   4.084   0.680   0.553  0.2524 -0.3017 -0.5274
 6537SOL    HW131073   4.167   0.634   0.558  0.7162  0.8291  1.9927
 6537SOL    HW231074   4.022   0.607   0.543  0.3269 -0.5435  0.7368
 6538SOL     OW31075   2.564   1.283   2.815 -0.2708  0.1076  0.7758
 6538SOL    HW131076   2.557   1.233   2.734  3.5062  0.6202  0.1468
 6538SOL    HW231077   2.612   1.226   2.874  0.6010 -3.0378 -2.9431
 6539SOL     OW31078   3.957   1.364   5.515  0.5470  0.6848 -0.0258
 6539SOL    HW131079   3.993   1.276   5.527 -0.9623  0.1963  0.9412
 6539SOL    HW231080   3.921   1.355   5.427  1.0583 -2.2622  0.0543
 6540SOL     OW31081   1.555   0.509   4.421  0.0873 -0.0456 -0.0214
 6540SOL    HW131082   1.591   0.562   4.350  0.3950 -1.8264 -1.2128
 6540SOL    HW231083   1.619   0.538   4.486  1.2542 -1.3453 -0.5761
 6541SOL     OW31084   0.724   4.113   5.002  0.2551  0.1427 -0.0943
 6541SOL    HW131085   0.759   4.032   4.964 -1.2637 -1.0897  1.1484
 6541SOL    HW231086   0.700   4.154   4.919  1.8511  4.6696  1.6619
 6542SOL     OW31087   3.212   3.485   2.162 -0.0884 -0.2910  0.1944
 6542SOL    HW131088   3.242   3.431   2.089  1.3294  0.8953 -0.1037
 6542SOL    HW231089   3.116   3.480   2.155 -0.1675 -0.1943  1.2681
 6543SOL     OW31090   3.184   0.825  16.479 -0.0634 -0.2977 -0.0518
 6543SOL    HW131091   3.214   0.878  16.553  1.9695 -0.0989 -1.0433
 6543SOL    HW231092   3.093   0.801  16.500  0.5507 -1.0216  1.8361
 6544SOL     OW31093   0.642   4.506  17.461 -0.0043  0.7264 -0.7780
 6544SOL    HW131094   0.638   4.584  17.405  0.6230  2.6666  1.8727
 6544SOL    HW231095   0.703   4.454  17.410  2.0364  0.2939  2.1334
 6545SOL     OW31096   0.499   3.738   4.017 -0.4021  0.1725  0.0810
 6545SOL    HW131097   0.565   3.673   4.040  0.4338  0.9636 -0.0822
 6545SOL    HW231098   0.547   3.820   4.009  0.0242 -0.1677 -0.8036
 6546SOL     OW31099   1.395   0.789   0.776 -0.0094  0.2593  0.1905
 6546SOL    HW131100   1.486   0.779   0.802  0.3140  0.7056 -0.7831
 6546SOL    HW231101   1.373   0.697   0.763 -0.6346  0.3809  0.3732
 6547SOL     OW31102   0.827   3.223   9.840 -0.0192 -0.0622  0.1938
 6547SOL    HW131103   0.860   3.292   9.898 -0.1608  0.8509 -0.8011
 6547SOL    HW231104   0.859   3.238   9.751 -0.2773  1.3799  0.3432
 6548SOL     OW31105   2.616   3.497   6.377  0.1698  0.4736  0.3631
 6548SOL    HW131106   2.586   3.426   6.434  0.3639 -1.0649 -1.4325
 6548SOL    HW231107   2.655   3.559   6.438  0.0625  0.8156  0.0831
 6549SOL     OW31108   2.937   0.841   6.362  0.5825  0.1403  0.0647
 6549SOL    HW131109   2.843   0.830   6.348  0.3692  0.4355  1.3070
 6549SOL    HW231110   2.941   0.931   6.330 -2.3963  0.1229 -0.3234
 6550SOL     OW31111   0.851   0.166  12.675  0.5313  0.0561  0.2410
 6550SOL    HW131112   0.931   0.152  12.726 -0.5372 -3.0274  1.0251
 6550SOL    HW231113   0.794   0.111  12.728  0.4060 -0.1081 -0.0630
 6551SOL     OW31114   2.827   3.438   0.490 -1.2505  0.3046 -0.2444
 6551SOL    HW131115   2.832   3.507   0.556  0.2674 -0.0763  0.0401
 6551SOL    HW231116   2.782   3.489   0.423 -0.7358  1.7387  0.4808
 6552SOL     OW31117   1.001   1.440   9.846  0.0765 -0.1301  0.1806
 6552SOL    HW131118   1.051   1.483   9.777 -0.0513 -0.6244 -0.2181
 6552SOL    HW231119   1.033   1.491   9.921  0.7195  1.2150 -1.0099
 6553SOL     OW31120   4.044   2.293   4.158  1.0590  0.0563 -0.0045
 6553SOL    HW131121   4.034   2.388   4.167  0.6616  0.0755 -0.6453
 6553SOL    HW231122   3.963   2.271   4.113  0.5065  0.3724  0.8271
 6554SOL     OW31123   2.884   0.548  17.013  0.0533 -0.2376 -0.1790
 6554SOL    HW131124   2.792   0.536  16.990  0.0155 -0.4753  0.0930
 6554SOL    HW231125   2.898   0.636  16.981  0.1682  0.7192  2.4567
 6555SOL     OW31126   1.030   0.150   3.716  0.2984  0.2037 -0.5692
 6555SOL    HW131127   0.960   0.150   3.650  1.0081 -1.3930 -1.3441
 6555SOL    HW231128   1.028   0.243   3.734  1.9596 -0.1669  1.4820
 6556SOL     OW31129   2.051   2.456   9.011  0.0301  0.6340 -0.8651
 6556SOL    HW131130   2.091   2.526   9.063 -1.3171 -0.0436  1.0881
 6556SOL    HW231131   2.015   2.401   9.081  1.5789  0.2166 -0.3869
 6557SOL     OW31132   3.237   4.183  10.876 -0.2440 -0.4033  0.2963
 6557SOL    HW131133   3.261   4.091  10.868 -0.4393 -0.3675 -0.6647
 6557SOL    HW231134   3.254   4.212  10.786 -0.3988 -0.1289  0.3570
 6558SOL     OW31135   3.968   3.734   8.748  0.4478  0.4740 -0.0079
 6558SOL    HW131136   3.876   3.753   8.768  0.3546  0.9779 -0.9261
 6558SOL    HW231137   4.003   3.823   8.753 -0.1901  0.7516 -0.5166
 6559SOL     OW31138   3.838   1.968  17.642 -0.3056  0.1255 -0.7165
 6559SOL    HW131139   3.790   2.044  17.673 -3.4358 -2.6398  1.2235
 6559SOL    HW231140   3.829   1.979  17.547 -0.0455  0.8641 -0.6568
 6560SOL     OW31141   1.411   1.422  14.557 -0.1936  0.8347  0.0072
 6560SOL    HW131142   1.389   1.440  14.465  0.1025 -2.1187 -0.6545
 6560SOL    HW231143   1.507   1.413  14.550 -0.1414  0.6873  1.0389
 6561SOL     OW31144   1.373   3.104   0.816 -0.3664  0.1865  0.1658
 6561SOL    HW131145   1.339   3.193   0.819  0.4560  0.5204 -0.3647
 6561SOL    HW231146   1.423   3.092   0.896 -1.4104  0.1048  0.8064
 6562SOL     OW31147   2.407   4.669   8.675  1.0388  0.6537  0.2220
 6562SOL    HW131148   2.377   4.709   8.757 -0.4622 -1.4195  0.6739
 6562SOL    HW231149   2.494   4.709   8.668  1.1325  0.1238 -1.5940
 6563SOL     OW31150   1.650   2.997   6.943  0.0939  0.0461  0.3047
 6563SOL    HW131151   1.668   3.025   7.033  0.2837  1.8613 -0.2864
 6563SOL    HW231152   1.718   2.931   6.938 -0.1123 -0.2204  1.0107
 6564SOL     OW31153   0.990   3.542  16.977  0.1857  0.2152 -0.3059
 6564SOL    HW131154   0.910   3.491  16.981  1.1342 -1.0425  2.7665
 6564SOL    HW231155   1.037   3.535  16.894  1.6496 -1.8714  0.7114
 6565SOL     OW31156   0.655   1.537  14.048  0.1637 -0.5452 -0.3951
 6565SOL    HW131157   0.626   1.488  13.971 -0.0440  0.8052 -1.1887
 6565SOL    HW231158   0.575   1.529  14.100 -0.0969 -2.7360 -1.1301
 6566SOL     OW31159   2.124   3.122   3.675 -0.1111 -0.9296  0.4720
 6566SOL    HW131160   2.197   3.170   3.636 -0.6252  0.0887  0.7541
 6566SOL    HW231161   2.176   3.044   3.694  0.5408 -0.7301 -0.5526
 6567SOL     OW31162   0.211   2.611   9.469 -0.4811  0.1663  0.5134
 6567SOL    HW131163   0.145   2.674   9.438 -0.3579 -0.4768 -1.0565
 6567SOL    HW231164   0.271   2.664   9.521  1.1289 -0.6470 -0.5197
 6568SOL     OW31165   1.523   0.702  15.130  0.4674 -0.0930  0.3565
 6568SOL    HW131166   1.570   0.776  15.091 -0.4131 -0.4643 -1.4394
 6568SOL    HW231167   1.488   0.749  15.206 -1.3611 -0.1053 -0.4586
 6569SOL     OW31168   0.720   2.893  15.485  0.4863  0.5017 -0.1851
 6569SOL    HW131169   0.756   2.959  15.546 -0.1586 -1.1785  2.0178
 6569SOL    HW231170   0.740   2.932  15.400 -0.5313 -1.5060 -1.3467
 6570SOL     OW31171   0.415   4.428   3.060  0.1167 -0.2292  0.3137
 6570SOL    HW131172   0.420   4.379   3.142 -1.1612  2.1783  1.8514
 6570SOL    HW231173   0.369   4.364   3.008 -0.8545 -0.0233  0.9237
 6571SOL     OW31174   1.039   3.397   3.408 -0.0247  0.4412  0.4714
 6571SOL    HW131175   1.114   3.369   3.355 -0.9355  1.9033 -1.5924
 6571SOL    HW231176   1.025   3.488   3.381  0.8192  0.3795 -0.1957
 6572SOL     OW31177   1.344   0.565   5.036 -0.2314 -0.0256  0.7744
 6572SOL    HW131178   1.332   0.657   5.015 -0.0436  0.2384  1.8304
 6572SOL    HW231179   1.255   0.543   5.063 -0.6410  1.7912  0.8893
 6573SOL     OW31180   3.275   4.158  10.565 -0.2174  0.1013  0.0431
 6573SOL    HW131181   3.194   4.189  10.523 -0.5567  1.7989  1.9711
 6573SOL    HW231182   3.337   4.198  10.504  1.0277 -0.2187  1.0979
 6574SOL     OW31183   4.349   2.790   9.220 -0.6367  0.2438 -0.2407
 6574SOL    HW131184   4.275   2.833   9.178  0.9463  0.1604 -3.1134
 6574SOL    HW231185   4.295   2.739   9.281 -0.8085  0.3064 -0.3411
 6575SOL     OW31186   4.676   2.552  17.504  0.4713 -0.3490 -0.4708
 6575SOL    HW131187   4.618   2.526  17.576  0.2175 -0.0415 -0.5629
 6575SOL    HW231188   4.608   2.574  17.439  1.2996  0.3064 -1.1104
 6576SOL     OW31189   2.888   1.902   6.754 -0.6073 -0.3298 -0.1544
 6576SOL    HW131190   2.859   1.818   6.790 -1.4521  0.5210  1.1295
 6576SOL    HW231191   2.806   1.943   6.728  0.6307  0.5128 -2.7256
 6577SOL     OW31192   1.520   3.136   7.865  0.2715  0.1139  0.7086
 6577SOL    HW131193   1.504   3.142   7.959  1.9340  0.9658  0.9343
 6577SOL    HW231194   1.513   3.230   7.848  0.4973  0.0288  0.1203
 6578SOL     OW31195   0.007   2.370  14.073 -0.6367 -0.0764 -1.0124
 6578SOL    HW131196   0.019   2.462  14.096 -0.6634 -0.6699  1.3657
 6578SOL    HW231197   0.098   2.343  14.059 -1.7088 -2.0052 -4.2745
 6579SOL     OW31198   1.051   1.475   9.332  0.0800  0.1647 -0.5060
 6579SOL    HW131199   0.992   1.483   9.407 -1.5861 -3.1478 -1.4443
 6579SOL    HW231200   1.003   1.518   9.262 -1.4120 -0.3205  0.2196
 6580SOL     OW31201   1.322   4.080   3.794 -0.6376  0.1740  0.4069
 6580SOL    HW131202   1.402   4.119   3.829 -0.8449  3.1469 -2.3991
 6580SOL    HW231203   1.282   4.053   3.877  0.1391 -0.0238  0.7200
 6581SOL     OW31204   0.612   4.660  14.121  0.5771  0.3802  0.0601
 6581SOL    HW131205   0.550   0.003  14.089  0.8018  2.2436  3.3741
 6581SOL    HW231206   0.564   4.579  14.108  1.2497 -0.1482  0.9080
 6582SOL     OW31207   0.250   1.170   6.774  0.4660  0.6542  0.0323
 6582SOL    HW131208   0.223   1.085   6.739 -3.1760  1.7562  0.1550
 6582SOL    HW231209   0.165   1.212   6.783 -0.5679 -1.5997  0.7956
 6583SOL     OW31210   4.209   0.265   3.958 -0.1108 -0.0944  0.3539
 6583SOL    HW131211   4.171   0.192   4.006 -0.9986 -0.1391 -0.4073
 6583SOL    HW231212   4.251   0.309   4.031  1.7928 -1.2150 -0.0425
 6584SOL     OW31213   1.036   0.004   1.765 -0.1173  0.3534 -0.3969
 6584SOL    HW131214   1.064   4.659   1.703  0.4906 -1.3804  1.7999
 6584SOL    HW231215   1.054   0.082   1.713 -1.0915  0.7315 -0.1667
 6585SOL     OW31216   2.646   2.731  16.820 -0.1570 -0.0090  0.2586
 6585SOL    HW131217   2.626   2.823  16.841  0.6087  0.0160  0.8705
 6585SOL    HW231218   2.572   2.715  16.762 -0.2037  1.6079 -0.1193
 6586SOL     OW31219   0.080   0.988  14.494  0.0623 -0.3270 -0.3333
 6586SOL    HW131220   0.020   0.963  14.563  1.3558 -0.5121  0.7155
 6586SOL    HW231221   0.029   1.017  14.419 -0.2707  2.3561  0.9363
 6587SOL     OW31222   4.383   0.366   9.635 -0.2378 -0.0959 -0.1272
 6587SOL    HW131223   4.463   0.394   9.678  1.1236 -2.6155 -1.0392
 6587SOL    HW231224   4.317   0.434   9.650  0.9634  0.9598  0.3569
 6588SOL     OW31225   4.692   4.242   4.733  0.0424 -0.4228 -0.1583
 6588SOL    HW131226   0.048   4.266   4.783  0.2357 -0.7160 -0.3215
 6588SOL    HW231227   4.615   4.226   4.787  0.4570  0.4676  0.7070
 6589SOL     OW31228   1.611   2.865  10.596 -0.2458  0.2875  0.2070
 6589SOL    HW131229   1.577   2.893  10.681 -1.0844  1.5933 -0.5639
 6589SOL    HW231230   1.675   2.933  10.580  2.9621 -2.8479 -0.3424
 6590SOL     OW31231   3.378   4.284   2.656  0.1589  0.0975 -0.0671
 6590SOL    HW131232   3.400   4.200   2.616  1.8893  0.2043  0.6550
 6590SOL    HW231233   3.461   4.296   2.701  0.3371  2.1240 -0.9561
 6591SOL     OW31234   1.487   4.185  13.608 -0.0166 -0.1898 -0.0236
 6591SOL    HW131235   1.545   4.203  13.682 -0.4398 -0.7420  0.4413
 6591SOL    HW231236   1.507   4.092  13.596  0.5291 -0.1520  0.6060
 6592SOL     OW31237   4.166   3.601   4.371 -0.8244  0.1431  0.1097
 6592SOL    HW131238   4.261   3.596   4.367 -1.0317 -1.7904 -3.1146
 6592SOL    HW231239   4.143   3.564   4.285 -2.0541  1.9608 -0.3369
 6593SOL     OW31240   0.839   1.996   5.226 -0.5549 -0.3240 -0.3551
 6593SOL    HW131241   0.747   1.968   5.226 -0.4331 -0.6904  1.7736
 6593SOL    HW231242   0.830   2.051   5.148  0.5958 -0.3484 -0.5021
 6594SOL     OW31243   3.657   2.909  15.471 -0.3512  0.1858  0.0052
 6594SOL    HW131244   3.588   2.885  15.533  1.0857 -3.9935 -0.0226
 6594SOL    HW231245   3.621   2.859  15.398 -0.3452  1.3363 -0.7827
 6595SOL     OW31246   1.723   3.457   8.085  0.6060 -0.3937 -0.0975
 6595SOL    HW131247   1.640   3.494   8.114  0.4664 -1.5099  0.9161
 6595SOL    HW231248   1.774   3.538   8.084 -0.5889  0.3333 -1.0110
 6596SOL     OW31249   4.291   1.702   5.742 -0.4459  0.2289 -0.1540
 6596SOL    HW131250   4.271   1.612   5.716 -1.3809  0.4595 -0.2238
 6596SOL    HW231251   4.371   1.701   5.795 -1.1239  1.5643  0.8957
 6597SOL     OW31252   1.708   3.055   7.214 -0.2585 -0.0081  0.1397
 6597SOL    HW131253   1.704   3.147   7.237  0.5925  0.4158 -1.4166
 6597SOL    HW231254   1.796   3.036   7.248 -0.2852  1.7134  1.1694
 6598SOL     OW31255   4.529   0.438   7.596 -0.2628  0.3480  0.0442
 6598SOL    HW131256   4.551   0.515   7.544 -0.3025 -0.5410 -1.2814
 6598SOL    HW231257   4.478   0.471   7.670 -1.0250 -2.7377  0.9021
 6599SOL     OW31258   0.920   1.909   8.740 -0.0196  0.0709 -0.1159
 6599SOL    HW131259   0.967   1.979   8.786  1.0257  0.7447 -2.2038
 6599SOL    HW231260   0.828   1.936   8.744  0.1942  0.9167 -0.6564
 6600SOL     OW31261   3.786   4.411   3.831 -0.1506  0.0745 -0.1879
 6600SOL    HW131262   3.797   4.343   3.764  2.3735  0.6238 -0.3224
 6600SOL    HW231263   3.714   4.373   3.881 -0.8581  0.5248 -0.8591
 6601SOL     OW31264   0.071   2.273   1.085 -0.5225  0.5675  0.3757
 6601SOL    HW131265   0.161   2.276   1.053 -1.3600  1.9373 -1.7892
 6601SOL    HW231266   0.037   2.330   1.017  0.9150 -0.6802 -1.3814
 6602SOL     OW31267   0.082   4.163   7.417 -0.2212  0.3460 -0.2955
 6602SOL    HW131268   0.016   4.149   7.349  0.3127 -3.0181 -0.0891
 6602SOL    HW231269   0.162   4.123   7.384 -1.0045 -1.2046 -0.3252
 6603SOL     OW31270   1.608   1.635  11.652 -0.0625  0.2332 -0.3872
 6603SOL    HW131271   1.574   1.576  11.719 -2.0684  0.4739 -1.2136
 6603SOL    HW231272   1.702   1.636  11.673 -0.2273 -0.0165  0.3476
 6604SOL     OW31273   4.456   1.907   1.262 -0.3548 -0.1624 -0.5066
 6604SOL    HW131274   4.544   1.870   1.268  0.0475  1.0146  0.6954
 6604SOL    HW231275   4.475   1.999   1.278  2.6335 -0.6485 -1.2887
 6605SOL     OW31276   3.768   2.496   7.219  0.2696 -0.5206 -0.1850
 6605SOL    HW131277   3.784   2.589   7.200 -0.0522 -0.5433 -0.5410
 6605SOL    HW231278   3.791   2.454   7.137  1.4634  0.0019 -0.1207
 6606SOL     OW31279   0.307   0.821   2.808 -0.3476  0.2586 -0.2470
 6606SOL    HW131280   0.290   0.876   2.731  3.6780  1.9633  0.0463
 6606SOL    HW231281   0.391   0.783   2.780 -0.7922 -0.8293 -0.0969
 6607SOL     OW31282   4.588   4.076   3.621 -0.2343  0.1632  0.2049
 6607SOL    HW131283   4.501   4.104   3.652  0.1259  1.1955  0.2871
 6607SOL    HW231284   4.611   4.020   3.695 -2.1909  1.7890  2.0617
 6608SOL     OW31285   3.987   0.856   5.189  0.1198  0.0067 -0.1307
 6608SOL    HW131286   3.900   0.890   5.165  0.3039 -0.1568 -1.0284
 6608SOL    HW231287   3.970   0.814   5.273  2.7175 -1.6908 -0.4659
 6609SOL     OW31288   3.002   1.847   9.114  0.1543  0.8359 -0.7207
 6609SOL    HW131289   3.054   1.895   9.178  1.0659  0.8019 -1.4341
 6609SOL    HW231290   2.954   1.781   9.164  3.1312 -0.7022  0.0998
 6610SOL     OW31291   3.809   2.919  11.501 -0.3589  0.0286 -0.0069
 6610SOL    HW131292   3.822   2.964  11.585 -0.9528 -1.8590  1.1143
 6610SOL    HW231293   3.721   2.886  11.521 -0.8435  0.6770 -1.1148
 6611SOL     OW31294   0.518   0.530   3.431 -0.1514  0.4529 -0.2987
 6611SOL    HW131295   0.594   0.516   3.488 -0.2837 -0.3823 -0.3400
 6611SOL    HW231296   0.507   0.619   3.465 -0.7500  0.4997 -0.6206
 6612SOL     OW31297   1.336   0.949   4.167  0.0873  0.9687  0.2609
 6612SOL    HW131298   1.413   0.998   4.196  1.8518 -0.4896 -1.9020
 6612SOL    HW231299   1.264   1.006   4.195 -0.5028  0.1545  0.3835
 6613SOL     OW31300   1.546   3.196   1.841  0.6310 -0.1218  0.0183
 6613SOL    HW131301   1.537   3.112   1.796  1.1711 -0.9732  1.5174
 6613SOL    HW231302   1.518   3.258   1.774  0.7353  1.3815  1.3837
 6614SOL     OW31303   2.332   1.067   3.332 -0.0331 -0.2653 -0.0661
 6614SOL    HW131304   2.407   1.032   3.284  1.4362  2.1807  0.4783
 6614SOL    HW231305   2.263   1.025   3.280  0.3858 -0.2431 -0.6475
 6615SOL     OW31306   1.081   2.323   5.073 -0.0487  0.3877  0.3360
 6615SOL    HW131307   1.076   2.233   5.106 -2.4294 -0.6138 -2.7857
 6615SOL    HW231308   1.140   2.367   5.134  0.2337  1.4094 -0.6767
 6616SOL     OW31309   3.382   4.411   5.250 -0.0475  0.4113  0.2991
 6616SOL    HW131310   3.329   4.351   5.303 -1.1033  2.0358  1.0893
 6616SOL    HW231311   3.460   4.360   5.228  1.4452  1.4379  3.2665
 6617SOL     OW31312   1.751   3.644   3.133 -0.1964  0.4958  0.2357
 6617SOL    HW131313   1.761   3.602   3.047 -0.2790  3.0439 -1.0179
 6617SOL    HW231314   1.727   3.569   3.188  0.8051 -1.6870 -2.3210
 6618SOL     OW31315   3.717   2.904   1.292  0.2068 -0.0393  0.1404
 6618SOL    HW131316   3.693   2.947   1.210  0.7915 -0.1272 -0.0734
 6618SOL    HW231317   3.811   2.919   1.293  0.3961 -1.2313 -0.1144
 6619SOL     OW31318   1.916   1.225   0.985  0.1287 -0.1409 -0.0100
 6619SOL    HW131319   1.917   1.129   0.985  0.3239 -0.1388 -0.3227
 6619SOL    HW231320   1.975   1.255   0.916 -1.2896 -1.6752 -1.8858
 6620SOL     OW31321   1.835   3.594   5.854 -0.5159 -0.0060 -0.3971
 6620SOL    HW131322   1.911   3.594   5.912  0.7486  2.4927 -2.0754
 6620SOL    HW231323   1.876   3.583   5.768 -0.2198 -2.1170  0.0013
 6621SOL     OW31324   4.595   2.012   3.487  0.4144 -0.1257  0.2000
 6621SOL    HW131325   4.510   1.970   3.495 -0.4467  1.6989  0.5701
 6621SOL    HW231326   4.581   2.084   3.549  0.9098  1.6022 -1.7009
 6622SOL     OW31327   3.722   2.805   8.516 -0.4268  0.1308 -0.3487
 6622SOL    HW131328   3.671   2.762   8.447 -0.1712 -0.6489 -0.0536
 6622SOL    HW231329   3.688   2.894   8.523  1.3859  0.8434 -0.7701
 6623SOL     OW31330   2.659   2.580   2.072  0.7731 -0.1364  0.4624
 6623SOL    HW131331   2.670   2.546   1.983  0.2731  0.5027  0.1547
 6623SOL    HW231332   2.729   2.534   2.117 -0.0611 -0.1369  1.7391
 6624SOL     OW31333   1.618   0.666   4.181 -0.2477 -0.2536  0.3076
 6624SOL    HW131334   1.566   0.614   4.120 -0.2381 -0.5889  0.5882
 6624SOL    HW231335   1.670   0.722   4.123 -1.5908  0.0281 -0.6183
 6625SOL     OW31336   3.305   2.013   3.799  0.0916 -0.2133 -0.0554
 6625SOL    HW131337   3.344   1.951   3.738 -1.2688 -0.7221 -0.4038
 6625SOL    HW231338   3.367   2.080   3.827  0.3433 -1.1337  1.5906
 6626SOL     OW31339   2.647   2.004   5.231  0.4861  0.6522 -0.4147
 6626SOL    HW131340   2.653   2.067   5.159 -1.7090  1.3767  0.0472
 6626SOL    HW231341   2.739   1.976   5.235 -0.3251 -1.7458  0.7316
 6627SOL     OW31342   4.200   3.640   8.455 -0.0416 -0.1973 -0.1714
 6627SOL    HW131343   4.152   3.585   8.516  0.9474  0.8157  1.5173
 6627SOL    HW231344   4.165   3.726   8.479 -1.4748 -0.9589  0.4477
 6628SOL     OW31345   3.934   3.225   5.337 -0.0728 -0.1910  0.0470
 6628SOL    HW131346   4.017   3.217   5.384  1.0897  1.4462 -1.7286
 6628SOL    HW231347   3.906   3.315   5.355 -0.4566 -0.4016  0.4943
 6629SOL     OW31348   2.794   4.585   1.826 -0.0757 -0.1847  0.6750
 6629SOL    HW131349   2.751   4.670   1.827 -0.1712 -0.2260  0.1572
 6629SOL    HW231350   2.886   4.612   1.837 -0.0935  0.1717 -0.0663
 6630SOL     OW31351   2.001   0.173   1.006  0.6697 -0.0898  0.2484
 6630SOL    HW131352   2.006   0.234   1.079 -1.3166  0.1263  0.2035
 6630SOL    HW231353   1.944   0.221   0.946  1.5094  2.2209  1.3015
 6631SOL     OW31354   2.888   2.686   3.449 -0.1695  0.4687 -0.0133
 6631SOL    HW131355   2.803   2.643   3.448 -0.7209  1.4915  2.9009
 6631SOL    HW231356   2.931   2.636   3.381  0.6856  0.5722  0.4529
 6632SOL     OW31357   2.002   0.911   3.332  0.0136 -0.0887  0.6470
 6632SOL    HW131358   2.001   0.919   3.237 -0.6476 -1.3552  0.5465
 6632SOL    HW231359   1.952   0.832   3.356 -0.8581 -0.3134 -1.9512
 6633SOL     OW31360   4.577   1.209   0.046 -0.5485  0.5019  0.5179
 6633SOL    HW131361   4.607   1.140   0.107 -0.0817 -1.0410 -1.4529
 6633SOL    HW231362   4.585   1.286   0.102 -3.9514 -0.4699  2.3764
 6634SOL     OW31363   4.513   1.226   8.759  0.2192  0.2433 -0.0983
 6634SOL    HW131364   4.435   1.276   8.735 -0.6010 -0.4370  1.1431
 6634SOL    HW231365   4.493   1.193   8.846 -2.0805  2.0827  0.0706
 6635SOL     OW31366   3.642   1.671   9.066 -0.5759 -0.1200  0.5196
 6635SOL    HW131367   3.652   1.759   9.030  0.0287  0.0510  1.1125
 6635SOL    HW231368   3.578   1.630   9.008  0.0985  1.4623 -1.3282
 6636SOL     OW31369   3.253   2.371   6.001  0.1589 -0.0122  0.5180
 6636SOL    HW131370   3.268   2.277   6.015  0.3947 -0.4468 -2.7417
 6636SOL    HW231371   3.266   2.373   5.907  0.0042  0.5744  0.5110
 6637SOL     OW31372   1.447   4.195   4.618 -0.1756 -0.2257  0.1025
 6637SOL    HW131373   1.516   4.134   4.590  0.0188  0.1014 -0.1412
 6637SOL    HW231374   1.403   4.207   4.533 -0.5657  1.0770  0.4904
 6638SOL     OW31375   2.351   0.337   2.745  0.2377 -0.6401 -0.0250
 6638SOL    HW131376   2.330   0.318   2.654  1.5592  0.3034 -0.5200
 6638SOL    HW231377   2.446   0.332   2.733  0.2195 -0.4752 -0.2371
 6639SOL     OW31378   0.111   1.694  16.661 -0.4625 -0.0804  0.1359
 6639SOL    HW131379   0.045   1.678  16.593 -1.0613 -0.3160  0.7741
 6639SOL    HW231380   0.145   1.606  16.679  0.3446  0.2089  0.0076
 6640SOL     OW31381   4.694   0.342  16.107 -0.6201  0.0776  0.2027
 6640SOL    HW131382   4.611   0.377  16.141 -1.8731 -2.3995 -0.2631
 6640SOL    HW231383   0.023   0.421  16.121 -0.1334  0.4163 -3.5775
 6641SOL     OW31384   2.609   4.616  16.274 -0.0733 -0.2749  0.2645
 6641SOL    HW131385   2.559   4.543  16.312  0.0565 -0.4123  0.1700
 6641SOL    HW231386   2.565   4.624  16.190 -0.8150  0.6456  0.7411
 6642SOL     OW31387   0.451   4.390  10.264  0.3190  0.5603  0.1554
 6642SOL    HW131388   0.479   4.298  10.270 -0.2859  0.3339 -0.5801
 6642SOL    HW231389   0.383   4.385  10.197  0.5176  0.8463 -0.0596
 6643SOL     OW31390   3.596   3.426  13.793 -0.1564 -0.1605  0.6974
 6643SOL    HW131391   3.569   3.493  13.730 -0.5223  0.1479  1.1831
 6643SOL    HW231392   3.681   3.458  13.822 -0.8718  1.8273  0.5523
 6644SOL     OW31393   4.125   0.012   3.784 -0.0650  0.0479  0.0038
 6644SOL    HW131394   4.177   4.669   3.830 -0.4363 -1.0057 -1.0796
 6644SOL    HW231395   4.038   0.002   3.823  0.5215 -3.5924  0.3268
 6645SOL     OW31396   2.589   4.715   4.907  0.6098 -0.0868  0.2603
 6645SOL    HW131397   2.530   4.666   4.965 -0.2961  0.6677 -0.0245
 6645SOL    HW231398   2.676   4.694   4.942  0.3343 -0.8995  0.4705
 6646SOL     OW31399   2.230   1.220  13.972  0.1981  0.0220 -0.3918
 6646SOL    HW131400   2.277   1.265  14.043 -1.9533 -0.3161  1.2601
 6646SOL    HW231401   2.250   1.130  13.998 -1.6189  0.3216  2.1174
 6647SOL     OW31402   3.644   2.335   8.485  0.0498 -0.1699  0.3473
 6647SOL    HW131403   3.631   2.423   8.449 -1.1320 -0.1409  0.8312
 6647SOL    HW231404   3.616   2.350   8.575  1.5078  0.5051  0.6730
 6648SOL     OW31405   1.507   3.455   7.128 -0.1279 -0.1954 -0.0226
 6648SOL    HW131406   1.574   3.418   7.185 -0.5905 -0.7141  0.1839
 6648SOL    HW231407   1.551   3.450   7.043  0.2487 -0.1748  0.1704
 6649SOL     OW31408   1.437   0.188  17.095 -0.9271  0.0508  0.2740
 6649SOL    HW131409   1.506   0.128  17.124 -0.4027  1.1966  1.4434
 6649SOL    HW231410   1.484   0.269  17.115 -0.6564  0.0861 -0.5041
 6650SOL     OW31411   4.628   2.940  10.611  0.2879  0.7840  0.2138
 6650SOL    HW131412   4.710   2.892  10.627  0.1115  0.3958 -0.0401
 6650SOL    HW231413   4.566   2.902  10.672 -0.7414  0.4745 -1.0134
 6651SOL     OW31414   3.582   2.054   1.776 -0.1355  0.2229 -0.4401
 6651SOL    HW131415   3.492   2.067   1.748 -0.0953  2.1034  0.3201
 6651SOL    HW231416   3.585   2.122   1.843  0.2301  0.5884 -0.8297
 6652SOL     OW31417   0.051   0.119  15.951 -0.6430 -0.4839  0.0904
 6652SOL    HW131418   0.039   0.180  16.023  2.1569  0.3745 -0.1806
 6652SOL    HW231419   0.029   0.161  15.867  0.4432 -1.5973 -0.7570
 6653SOL     OW31420   2.809   0.748   8.241  0.3367  0.2065  0.3851
 6653SOL    HW131421   2.762   0.746   8.158  2.1579  0.6199 -0.6306
 6653SOL    HW231422   2.896   0.770   8.210  0.7856 -1.8817  0.1776
 6654SOL     OW31423   3.870   1.679   2.183 -0.3496  0.2280  0.0900
 6654SOL    HW131424   3.941   1.742   2.192  0.7186 -1.3916  3.0018
 6654SOL    HW231425   3.831   1.714   2.103  0.6208 -0.8697 -0.8798
 6655SOL     OW31426   3.154   0.670   5.360 -0.0018  0.0527  0.0158
 6655SOL    HW131427   3.180   0.594   5.309  2.4131  2.5967 -2.5464
 6655SOL    HW231428   3.094   0.630   5.423 -0.3090 -0.0814 -0.3590
 6656SOL     OW31429   3.748   4.278   2.392 -0.2617 -0.0439 -0.6710
 6656SOL    HW131430   3.772   4.186   2.388 -0.2378 -0.0058 -1.3454
 6656SOL    HW231431   3.803   4.306   2.466 -0.9710 -3.0872  1.0041
 6657SOL     OW31432   0.126   0.935   7.057  0.3094 -0.2966 -0.2214
 6657SOL    HW131433   0.064   0.862   7.062  0.1063 -0.2543 -2.2780
 6657SOL    HW231434   0.082   1.011   7.095 -0.8063 -0.0320 -2.0799
 6658SOL     OW31435   0.605   3.340   7.954 -0.0589  0.0465  0.0348
 6658SOL    HW131436   0.580   3.339   8.046  0.1967 -0.6614  0.1001
 6658SOL    HW231437   0.572   3.423   7.919  1.3679  0.9320  0.7391
 6659SOL     OW31438   2.407   4.058   2.184 -0.7642  0.1429 -0.8893
 6659SOL    HW131439   2.348   4.110   2.240 -0.4306 -0.3001 -0.1229
 6659SOL    HW231440   2.377   4.085   2.098 -2.4461  0.2664 -0.2675
 6660SOL     OW31441   2.998   2.109   8.903 -0.1320  0.2242  0.3330
 6660SOL    HW131442   2.913   2.141   8.935 -0.6202 -1.7347  1.0019
 6660SOL    HW231443   2.973   2.020   8.879  0.9446 -0.0133  0.0994
 6661SOL     OW31444   0.293   1.256  14.050  0.8090 -0.1889  0.2634
 6661SOL    HW131445   0.242   1.292  13.978 -0.8647 -2.5297  0.2622
 6661SOL    HW231446   0.366   1.217  14.002  0.4962 -0.6455  0.1537
 6662SOL     OW31447   4.285   0.998  10.348 -0.1814 -0.1578 -0.0780
 6662SOL    HW131448   4.352   1.000  10.280 -1.3141 -1.5285 -1.2125
 6662SOL    HW231449   4.252   0.909  10.338  1.0681 -0.4151 -1.7789
 6663SOL     OW31450   1.932   0.237   5.032 -0.2520 -0.8891  0.2870
 6663SOL    HW131451   1.855   0.254   4.977  0.6605  0.0745 -0.6790
 6663SOL    HW231452   1.903   0.301   5.098  3.6843  0.6891  0.4717
 6664SOL     OW31453   3.781   0.800  17.562 -0.2451  0.4532  0.5757
 6664SOL    HW131454   3.806   0.888  17.532  0.5764 -0.7553 -2.2083
 6664SOL    HW231455   3.855   0.755  17.522 -0.4127 -0.1855  0.9930
 6665SOL     OW31456   4.040   3.129   0.272  0.4643  0.3505  0.1666
 6665SOL    HW131457   3.990   3.161   0.197 -1.1606 -0.0318  1.0949
 6665SOL    HW231458   4.130   3.158   0.255 -0.3545  2.5843 -0.2869
 6666SOL     OW31459   2.996   0.032  11.923  0.3896 -0.4782  0.3554
 6666SOL    HW131460   3.086   0.060  11.913  0.3829 -0.8377 -0.7261
 6666SOL    HW231461   2.974   0.046  11.831 -0.6463 -1.6247  0.4125
 6667SOL     OW31462   3.366   4.064   2.838 -0.0238 -0.8015 -0.5770
 6667SOL    HW131463   3.335   4.060   2.747 -2.1460  2.9708 -0.0168
 6667SOL    HW231464   3.451   4.107   2.831  0.4118 -1.8177 -1.7180
 6668SOL     OW31465   2.366   0.673   3.815  0.0916  0.1719  0.0021
 6668SOL    HW131466   2.337   0.667   3.724  1.8828 -1.3898 -0.4639
 6668SOL    HW231467   2.456   0.703   3.803 -0.0100  0.7273  0.6183
 6669SOL     OW31468   1.903   3.697   0.780  0.1372 -0.2740 -0.4234
 6669SOL    HW131469   1.879   3.757   0.851  0.7423 -0.9900  0.3889
 6669SOL    HW231470   1.987   3.659   0.806  1.5693  2.3097 -1.2648
 6670SOL     OW31471   1.467   0.337   6.396 -0.2576  0.2686  0.1166
 6670SOL    HW131472   1.519   0.292   6.462  0.1534  0.6515  0.0562
 6670SOL    HW231473   1.383   0.293   6.405  0.9845 -1.8860  1.1565
 6671SOL     OW31474   3.826   0.548   8.937 -0.4622 -0.0562 -0.2729
 6671SOL    HW131475   3.890   0.607   8.976  0.6654 -0.4391 -1.5292
 6671SOL    HW231476   3.798   0.595   8.859 -0.1132 -1.2872 -1.1464
 6672SOL     OW31477   3.222   4.449   3.684 -0.0535 -0.0220 -0.7568
 6672SOL    HW131478   3.216   4.359   3.651 -0.4955  0.2655 -1.4469
 6672SOL    HW231479   3.300   4.433   3.739 -0.2281  0.5649 -0.3458
 6673SOL     OW31480   0.289   2.985   9.015  0.5140  0.0538 -0.4404
 6673SOL    HW131481   0.229   2.934   9.070 -0.6090  2.1115  0.2261
 6673SOL    HW231482   0.259   2.957   8.929 -0.2851 -1.8855  0.4549
 6674SOL     OW31483   2.340   4.168  13.913  0.0387  0.3589  0.0538
 6674SOL    HW131484   2.411   4.162  13.977 -0.4819  1.2773  0.7138
 6674SOL    HW231485   2.371   4.234  13.851 -4.1803  0.6429 -1.7626
 6675SOL     OW31486   1.200   2.204   3.505 -0.2241 -0.2475  0.6987
 6675SOL    HW131487   1.117   2.207   3.457 -0.4018  2.0633  1.1631
 6675SOL    HW231488   1.229   2.292   3.479  0.0502 -0.4645  0.2639
 6676SOL     OW31489   4.405   4.636   1.676 -0.2925 -0.3171  0.3481
 6676SOL    HW131490   4.474   4.574   1.652 -0.4624 -0.6828  0.7879
 6676SOL    HW231491   4.422   4.654   1.769 -1.1477  0.1370  0.4150
 6677SOL     OW31492   3.178   0.018   8.583  0.4532 -0.2635  0.5072
 6677SOL    HW131493   3.168   4.706   8.671  1.0045 -0.2604  0.5678
 6677SOL    HW231494   3.273   0.014   8.573  0.4529 -1.8057  1.1454
 6678SOL     OW31495   1.613   4.314   1.533 -0.6444  0.6877 -0.0148
 6678SOL    HW131496   1.706   4.313   1.553 -0.2711  2.2837 -1.6107
 6678SOL    HW231497   1.584   4.315   1.624  0.4928 -2.1131  0.3908
 6679SOL     OW31498   4.481   2.738  11.130 -0.2750 -0.2345  0.4387
 6679SOL    HW131499   4.399   2.702  11.165  0.6182 -2.2534  0.4398
 6679SOL    HW231500   4.521   2.770  11.211  0.1791  1.6735 -0.5467
 6680SOL     OW31501   2.799   2.152   6.291  0.2865  0.2866 -0.3088
 6680SOL    HW131502   2.805   2.217   6.361  2.3236  1.4526 -1.5515
 6680SOL    HW231503   2.874   2.178   6.237 -0.0442  1.5456 -0.1690
 6681SOL     OW31504   2.360   0.235  12.636  0.0220 -0.6751  0.4913
 6681SOL    HW131505   2.419   0.160  12.649 -0.2967 -1.1629 -0.8493
 6681SOL    HW231506   2.408   0.292  12.696  0.5439 -0.2603 -0.3180
 6682SOL     OW31507   0.910   0.211   2.713 -0.4633  0.1495  0.7341
 6682SOL    HW131508   0.879   0.173   2.795  1.2530  0.5312  1.5605
 6682SOL    HW231509   0.833   0.238   2.663 -0.1990 -1.0577 -0.3268
 6683SOL     OW31510   1.478   2.964  11.219 -0.4520  0.5772  0.1992
 6683SOL    HW131511   1.512   2.981  11.307 -0.9186  2.3979  0.0190
 6683SOL    HW231512   1.552   2.955  11.158 -1.5971 -1.3604 -0.8946
 6684SOL     OW31513   3.970   3.806   6.419  0.2231  0.3576  0.1095
 6684SOL    HW131514   4.003   3.872   6.480  1.9257  0.4218 -0.8799
 6684SOL    HW231515   3.914   3.755   6.477  0.6545  0.4775  0.6247
 6685SOL     OW31516   1.727   4.240  13.771  0.0250  0.0962  0.0325
 6685SOL    HW131517   1.811   4.194  13.769  0.0660  0.1483  0.6295
 6685SOL    HW231518   1.716   4.258  13.864  0.0592  0.5400 -0.0486
 6686SOL     OW31519   0.503   1.166   5.094 -0.5404 -0.2853 -0.6059
 6686SOL    HW131520   0.539   1.086   5.055 -0.1850 -0.0344 -0.7913
 6686SOL    HW231521   0.408   1.154   5.089 -0.1861 -1.8194 -4.0728
 6687SOL     OW31522   4.563   3.480   2.525  0.4213  0.6906 -0.7149
 6687SOL    HW131523   4.621   3.556   2.531 -2.7436  3.3238 -3.5314
 6687SOL    HW231524   4.562   3.447   2.615 -1.2088  0.9803 -0.6198
 6688SOL     OW31525   0.586   2.315   8.279  0.6697 -0.4191  0.3068
 6688SOL    HW131526   0.497   2.281   8.276  0.3579  0.5769 -1.6231
 6688SOL    HW231527   0.599   2.338   8.372  0.3646  1.4762 -0.1027
 6689SOL     OW31528   2.661   1.596   2.404  0.4930 -0.1791  0.0045
 6689SOL    HW131529   2.572   1.602   2.368  0.3822  1.5010  0.5761
 6689SOL    HW231530   2.650   1.597   2.499  0.8285  1.7630  0.0161
 6690SOL     OW31531   0.905   3.315   1.786  0.4380  0.0047 -0.0502
 6690SOL    HW131532   0.869   3.231   1.811  0.4682  0.1164  0.3593
 6690SOL    HW231533   0.831   3.361   1.747  1.4770  0.6586 -1.2743
 6691SOL     OW31534   1.343   3.004  16.377  0.5585  0.4344 -0.3103
 6691SOL    HW131535   1.278   2.994  16.308 -2.1416  0.6742  2.2073
 6691SOL    HW231536   1.397   3.074  16.341 -2.0408  1.6020 -1.9153
 6692SOL     OW31537   1.832   3.244   7.523  0.1187  0.6560  0.0145
 6692SOL    HW131538   1.883   3.164   7.509 -0.1086  0.7389 -1.2914
 6692SOL    HW231539   1.845   3.268   7.614  1.2005  1.9673 -0.4868
 6693SOL     OW31540   1.271   4.561  16.062  0.6627 -0.2826  0.2953
 6693SOL    HW131541   1.251   4.603  16.146  3.2585  1.5328  0.0233
 6693SOL    HW231542   1.340   4.619  16.028 -0.5893 -0.2541 -2.2097
 6694SOL     OW31543   0.276   1.887   4.264  0.0548  0.1772  0.3593
 6694SOL    HW131544   0.315   1.895   4.177  1.3881  0.6746  1.0023
 6694SOL    HW231545   0.331   1.949   4.312 -0.1581  0.5299  0.1402
 6695SOL     OW31546   1.872   4.363  11.672 -0.0761  0.1536 -0.9096
 6695SOL    HW131547   1.870   4.443  11.619 -1.0310 -0.2563 -1.4900
 6695SOL    HW231548   1.895   4.400  11.757 -1.5906 -0.4140 -0.2541
 6696SOL     OW31549   0.728   2.955   5.208 -0.3181 -0.4804  0.2724
 6696SOL    HW131550   0.803   2.900   5.183  0.0782  0.0121  0.3575
 6696SOL    HW231551   0.769   3.038   5.182 -0.1386 -0.5919  0.1957
 6697SOL     OW31552   0.832   2.527   6.225 -0.1132  0.2415 -0.5333
 6697SOL    HW131553   0.908   2.520   6.167 -0.4533 -2.2152 -0.6727
 6697SOL    HW231554   0.851   2.613   6.263 -2.5989 -0.5018  2.4093
 6698SOL     OW31555   2.306   1.881   1.103  0.2220  0.9268  0.2151
 6698SOL    HW131556   2.211   1.882   1.117  0.5518  0.9441  2.5106
 6698SOL    HW231557   2.314   1.890   1.008  0.8750  1.6011  0.3339
 6699SOL     OW31558   2.910   2.206   2.070  0.3414 -0.4949  0.0642
 6699SOL    HW131559   2.894   2.112   2.059 -5.0354  0.1083  2.7027
 6699SOL    HW231560   3.004   2.207   2.052 -0.1033  0.4812 -2.2153
 6700SOL     OW31561   1.307   4.658  12.650  0.3059 -0.4026 -0.2754
 6700SOL    HW131562   1.252   0.002  12.690  0.6748 -0.7857  0.8814
 6700SOL    HW231563   1.391   4.700  12.630  0.7037 -0.9209  0.2828
 6701SOL     OW31564   0.160   1.156   1.851 -0.3289  0.7566 -0.1022
 6701SOL    HW131565   0.146   1.231   1.909 -1.4223  0.3067  0.2352
 6701SOL    HW231566   0.081   1.164   1.798 -1.7560  0.4722  1.9609
 6702SOL     OW31567   1.160   1.355   2.570 -0.4107  0.0756 -0.0758
 6702SOL    HW131568   1.065   1.362   2.558 -0.4103 -2.1645 -1.4730
 6702SOL    HW231569   1.187   1.444   2.549 -0.3317 -0.1001 -0.7258
 6703SOL     OW31570   2.120   4.145   4.078 -0.0107  0.1084 -0.5992
 6703SOL    HW131571   2.129   4.051   4.061  2.7643  0.4751 -1.2324
 6703SOL    HW231572   2.108   4.149   4.173  1.9930 -2.7034 -0.2387
 6704SOL     OW31573   0.318   0.912   5.351 -0.4013 -0.3672 -0.1788
 6704SOL    HW131574   0.299   0.819   5.356 -2.1522  0.0274  0.5100
 6704SOL    HW231575   0.412   0.910   5.332 -0.0606  1.6363  1.1516
 6705SOL     OW31576   3.872   1.033   4.817 -0.2936  0.1240  0.7927
 6705SOL    HW131577   3.845   1.078   4.737  0.0572  1.7498  1.5949
 6705SOL    HW231578   3.893   0.953   4.770 -1.5337  1.7238 -2.5047
 6706SOL     OW31579   0.865   0.554  10.276  0.4510 -0.2673 -0.1519
 6706SOL    HW131580   0.875   0.629  10.334 -1.2897 -0.3889  0.2970
 6706SOL    HW231581   0.885   0.589  10.189 -0.7019  0.0352 -0.2920
 6707SOL     OW31582   2.977   4.296   3.036  0.5722 -0.3093  0.0475
 6707SOL    HW131583   3.067   4.316   3.063  0.2289 -0.1550  1.0912
 6707SOL    HW231584   3.002   4.233   2.969  2.3296 -2.1433  2.4260
 6708SOL     OW31585   3.974   1.105   2.041  0.4292  0.0083 -0.0055
 6708SOL    HW131586   3.904   1.089   2.104  1.5203 -1.6272  0.7771
 6708SOL    HW231587   3.999   1.195   2.062  3.2530 -0.5918 -0.8206
 6709SOL     OW31588   0.914   0.123   1.971  0.2300 -0.1157  0.4832
 6709SOL    HW131589   0.960   0.060   1.915 -1.7849  0.3095 -1.6242
 6709SOL    HW231590   0.824   0.128   1.940  0.2304 -0.6235  0.3976
 6710SOL     OW31591   3.465   2.570   8.450 -0.4710 -0.1606  0.7008
 6710SOL    HW131592   3.432   2.658   8.467  0.5142  0.3173  0.1188
 6710SOL    HW231593   3.497   2.587   8.361 -0.2695  0.6183  0.9286
 6711SOL     OW31594   1.615   0.293   7.382 -0.5045  0.5011  0.5607
 6711SOL    HW131595   1.569   0.239   7.446 -1.7780 -0.9000 -1.5643
 6711SOL    HW231596   1.666   0.348   7.442 -1.9842  1.6486  0.7579
 6712SOL     OW31597   2.764   4.682  16.591 -0.0376  0.2848  0.0386
 6712SOL    HW131598   2.686   0.004  16.558 -0.6490  0.3629  1.5609
 6712SOL    HW231599   2.724   4.627  16.658  3.4694 -1.4294  0.7133
 6713SOL     OW31600   3.149   3.806   6.606  1.1172  0.4415  0.5918
 6713SOL    HW131601   3.197   3.888   6.594  1.8617  0.1904  1.8692
 6713SOL    HW231602   3.085   3.838   6.670  1.3226  3.3470 -0.6414
 6714SOL     OW31603   3.435   0.574  13.909 -0.2195 -0.7931 -0.6991
 6714SOL    HW131604   3.522   0.549  13.881  0.9110  0.2559  1.7998
 6714SOL    HW231605   3.458   0.661  13.943 -1.3513 -0.2018 -1.4142
 6715SOL     OW31606   1.702   3.485   6.619 -0.3192  0.0273  0.2723
 6715SOL    HW131607   1.754   3.416   6.577  1.6171  0.4207  2.0658
 6715SOL    HW231608   1.638   3.505   6.549 -0.4247 -2.1013 -0.2223
 6716SOL     OW31609   0.319   3.600   1.995 -0.4230  0.3245 -0.6240
 6716SOL    HW131610   0.322   3.634   1.905  2.2745  1.4791 -0.0884
 6716SOL    HW231611   0.398   3.643   2.027 -0.6795  0.7370 -0.5362
 6717SOL     OW31612   3.060   2.675   5.121 -0.2986  0.0352 -0.0953
 6717SOL    HW131613   3.072   2.758   5.168 -0.7536 -0.0034  0.0892
 6717SOL    HW231614   3.089   2.702   5.034  0.8419 -1.6224 -0.2319
 6718SOL     OW31615   1.564   0.511   5.218 -0.0121 -0.9942  0.0454
 6718SOL    HW131616   1.533   0.421   5.215  1.4769 -1.5369  1.2470
 6718SOL    HW231617   1.490   0.556   5.176  0.1520 -1.8019 -1.0995
 6719SOL     OW31618   2.280   1.920   5.659  0.0062 -0.1259  0.2503
 6719SOL    HW131619   2.365   1.933   5.703  1.0559 -0.9650 -1.5182
 6719SOL    HW231620   2.308   1.854   5.596 -1.4349  0.8422 -1.3837
 6720SOL     OW31621   2.933   3.441   8.082 -0.2429 -0.9049  0.3419
 6720SOL    HW131622   2.985   3.503   8.029  0.7986 -1.4817  0.6857
 6720SOL    HW231623   2.968   3.463   8.168 -1.0551 -0.3048  0.5158
 6721SOL     OW31624   3.196   1.233  10.966 -0.4904 -0.3911 -0.0469
 6721SOL    HW131625   3.216   1.253  10.875  0.3845  0.1279  0.2611
 6721SOL    HW231626   3.118   1.289  10.967  0.0842  0.4220 -1.3593
 6722SOL     OW31627   3.185   4.056   6.982  0.6323  0.1726  0.3209
 6722SOL    HW131628   3.230   4.136   7.009  1.8729 -1.2258  2.3906
 6722SOL    HW231629   3.155   4.015   7.064 -1.9979  1.1933 -0.1201
 6723SOL     OW31630   0.767   0.556   3.571  0.8729 -0.3365  0.4321
 6723SOL    HW131631   0.786   0.641   3.610  0.0293  0.5971 -1.1755
 6723SOL    HW231632   0.835   0.501   3.610  0.2605 -1.9667 -0.7634
 6724SOL     OW31633   3.132   3.702   1.820 -0.4152 -0.1088  0.0556
 6724SOL    HW131634   3.055   3.676   1.870 -0.8635  0.0612 -0.5465
 6724SOL    HW231635   3.102   3.665   1.737  0.3557 -2.3994  0.7959
 6725SOL     OW31636   3.566   3.132   8.930  0.2124  0.3769  0.2277
 6725SOL    HW131637   3.529   3.048   8.902 -1.6346  1.8397 -1.7221
 6725SOL    HW231638   3.650   3.115   8.887  1.3403  2.4528  1.6059
 6726SOL     OW31639   3.100   4.282  10.404  0.1419  0.1683 -0.3044
 6726SOL    HW131640   3.126   4.357  10.351  1.3605 -0.7166 -0.9606
 6726SOL    HW231641   3.010   4.283  10.373 -0.1290  0.7414  0.5003
 6727SOL     OW31642   1.646   4.304  16.372 -0.1038 -0.0091 -0.2651
 6727SOL    HW131643   1.701   4.366  16.323 -2.3152  0.7581 -1.7713
 6727SOL    HW231644   1.655   4.342  16.459 -1.7036 -0.5108  0.1223
 6728SOL     OW31645   4.670   1.660  12.320 -0.4481  0.5053  0.2002
 6728SOL    HW131646   4.682   1.701  12.406  1.2280  0.1941  0.1229
 6728SOL    HW231647   4.699   1.570  12.332  0.6559  0.5199 -2.4072
 6729SOL     OW31648   1.719   1.204   3.529  0.5479 -0.0728  0.3373
 6729SOL    HW131649   1.806   1.162   3.526 -0.4130 -1.9283 -1.8113
 6729SOL    HW231650   1.707   1.236   3.618  2.9356  0.9832  0.2872
 6730SOL     OW31651   0.172   0.967   3.541  0.3823 -0.3211  0.1889
 6730SOL    HW131652   0.167   0.910   3.465 -1.8863 -1.6236  1.3216
 6730SOL    HW231653   0.134   1.050   3.513  0.0601 -0.0609  1.3707
 6731SOL     OW31654   3.483   3.305   8.726 -0.0657  0.3879 -0.2976
 6731SOL    HW131655   3.493   3.255   8.807 -1.1420 -2.2447 -1.7764
 6731SOL    HW231656   3.575   3.330   8.724 -0.0068  0.1470 -0.5323
 6732SOL     OW31657   2.188   3.524   4.363 -0.1944 -0.5836 -0.1127
 6732SOL    HW131658   2.283   3.516   4.350 -0.6385 -2.0063 -2.4314
 6732SOL    HW231659   2.182   3.495   4.454 -2.9037  0.2914 -0.0187
 6733SOL     OW31660   1.463   3.214   3.542  0.3531 -0.2338  0.4217
 6733SOL    HW131661   1.396   3.280   3.560 -0.5231 -0.9597 -0.2053
 6733SOL    HW231662   1.464   3.210   3.447  0.5089  2.1433  0.3189
 6734SOL     OW31663   4.585   0.492   3.600 -0.4693 -0.0066  0.0254
 6734SOL    HW131664   4.496   0.525   3.587 -0.6854  0.2390  2.2339
 6734SOL    HW231665   4.572   0.397   3.592  0.8724  0.0677 -3.1671
 6735SOL     OW31666   1.058   3.433   4.459 -0.9713 -0.6626  0.5232
 6735SOL    HW131667   1.143   3.403   4.492 -0.9372 -0.2677  0.8039
 6735SOL    HW231668   1.006   3.439   4.540 -2.8703 -0.7143 -0.7034
 6736SOL     OW31669   0.058   0.115   0.802 -0.2987  0.3866  0.4286
 6736SOL    HW131670   0.042   0.159   0.719 -2.2226 -2.4788 -0.7397
 6736SOL    HW231671   4.694   0.129   0.839  0.7710  1.8498  2.3538
 6737SOL     OW31672   3.823   3.678   6.603  0.2417 -0.0944 -0.3967
 6737SOL    HW131673   3.751   3.624   6.634  1.8562 -2.3407 -0.4825
 6737SOL    HW231674   3.875   3.709   6.677  0.3789  0.6084 -0.7884
 6738SOL     OW31675   1.799   3.800   2.761 -0.1117 -0.2775 -0.2866
 6738SOL    HW131676   1.733   3.736   2.736 -2.3641  1.3598  1.5228
 6738SOL    HW231677   1.748   3.874   2.795  1.1028  0.4376  0.0208
 6739SOL     OW31678   2.625   0.361   3.303  0.0243  0.5699 -0.2788
 6739SOL    HW131679   2.578   0.302   3.244  0.8586 -0.4812  0.1106
 6739SOL    HW231680   2.708   0.382   3.261  0.5161 -1.6652 -0.4443
 6740SOL     OW31681   2.863   0.937   3.482  0.0962  0.4030 -0.3921
 6740SOL    HW131682   2.888   0.933   3.389  0.2117  0.8526 -0.3838
 6740SOL    HW231683   2.944   0.970   3.521  0.1968  1.3521 -1.3896
 6741SOL     OW31684   0.474   0.170   1.237  0.4604  0.2037  0.4030
 6741SOL    HW131685   0.477   0.222   1.318 -3.3665  0.0833  0.6474
 6741SOL    HW231686   0.517   0.086   1.255 -4.4470 -2.2426  0.5957
 6742SOL     OW31687   4.103   0.377   0.595  0.1723  0.0700 -0.2593
 6742SOL    HW131688   4.197   0.373   0.610  0.5051  0.4289 -2.2671
 6742SOL    HW231689   4.091   0.407   0.685  1.1882  2.6658 -1.0028
 6743SOL     OW31690   2.784   4.256   3.195  0.9256  0.2666  0.0834
 6743SOL    HW131691   2.847   4.277   3.126 -0.6323  1.5796 -0.9626
 6743SOL    HW231692   2.705   4.237   3.145  1.5712 -0.3259 -0.6967
 6744SOL     OW31693   1.447   1.876   3.620 -0.1389 -0.0913 -0.2955
 6744SOL    HW131694   1.388   1.864   3.545 -0.6851  0.0446  0.1149
 6744SOL    HW231695   1.438   1.970   3.636  1.7398  0.3247 -1.6754
 6745SOL     OW31696   1.380   3.677  10.773 -0.1729  0.0416 -0.3111
 6745SOL    HW131697   1.465   3.695  10.813  0.3431 -0.3622 -1.2375
 6745SOL    HW231698   1.378   3.583  10.758 -0.3126 -0.1588  0.9252
 6746SOL     OW31699   0.740   0.454   8.984  0.0706  0.2727 -0.6425
 6746SOL    HW131700   0.787   0.485   9.062 -3.2553  0.2397  1.3980
 6746SOL    HW231701   0.657   0.501   8.986 -0.9780 -1.6963  3.1720
 6747SOL     OW31702   3.255   1.344  10.051  0.7398 -0.3544  0.0800
 6747SOL    HW131703   3.266   1.389   9.967  3.1706  1.2252  1.2314
 6747SOL    HW231704   3.344   1.326  10.082  1.4267  0.8505 -1.1844
 6748SOL     OW31705   4.513   0.258   2.715  0.2240  0.6995 -0.3010
 6748SOL    HW131706   4.558   0.206   2.649 -2.0204  0.6515 -1.7772
 6748SOL    HW231707   4.589   0.274   2.771 -2.1781 -0.0504  3.1901
 6749SOL     OW31708   0.668   3.172  12.043 -0.0430 -0.0967  0.1317
 6749SOL    HW131709   0.627   3.259  12.045 -1.4593 -0.8058  1.8637
 6749SOL    HW231710   0.649   3.141  11.954 -1.0334 -0.5710  0.5107
 6750SOL     OW31711   2.998   2.566   7.756  0.0635  0.6973  0.2702
 6750SOL    HW131712   2.940   2.504   7.713  2.3550 -0.3511 -1.2674
 6750SOL    HW231713   3.010   2.539   7.847 -0.9248  0.3841  0.3118
 6751SOL     OW31714   1.131   3.235   5.128 -0.5837 -0.1164  0.6536
 6751SOL    HW131715   1.182   3.159   5.102 -2.6139 -0.2583 -2.9984
 6751SOL    HW231716   1.177   3.305   5.082  0.7197 -0.8969  0.7681
 6752SOL     OW31717   2.286   2.048   7.296 -0.2698 -0.2521  0.3457
 6752SOL    HW131718   2.231   1.974   7.270  1.2323 -1.1111 -0.4550
 6752SOL    HW231719   2.266   2.058   7.388  0.2576 -1.6396  0.6097
 6753SOL     OW31720   3.254   3.013   8.245  0.3957  0.3927  0.0542
 6753SOL    HW131721   3.200   3.066   8.303  0.8713  0.8516  0.0857
 6753SOL    HW231722   3.182   2.988   8.187  0.7734  0.4442 -0.4426
 6754SOL     OW31723   2.893   0.701  16.626  0.1808 -0.4641 -0.2054
 6754SOL    HW131724   2.812   0.650  16.619 -0.7682  1.1884 -1.3034
 6754SOL    HW231725   2.918   0.704  16.534 -2.1703  1.8539 -0.7896
 6755SOL     OW31726   3.239   4.046   6.539 -0.0060 -0.1319 -0.3382
 6755SOL    HW131727   3.200   4.124   6.579 -0.5578 -1.2999  1.3468
 6755SOL    HW231728   3.314   4.080   6.489  0.5567 -0.4886  0.2692
 6756SOL     OW31729   1.227   3.894  10.779 -0.1862 -0.8440 -0.0041
 6756SOL    HW131730   1.198   3.933  10.862  0.3095  0.7024 -0.5455
 6756SOL    HW231731   1.269   3.810  10.795  0.2539 -0.7707 -0.7804
 6757SOL     OW31732   2.953   1.073  12.680 -0.1082  0.0616 -0.3926
 6757SOL    HW131733   2.966   0.995  12.734 -1.0528  0.9362  1.0766
 6757SOL    HW231734   3.044   1.105  12.673 -0.6187  1.7148  0.5222
 6758SOL     OW31735   1.013   2.962   9.038  0.8105  0.1707  0.5402
 6758SOL    HW131736   1.090   2.940   9.091  1.5705 -2.2971 -1.5581
 6758SOL    HW231737   1.004   3.053   9.066  0.9737  0.5586 -0.6575
 6759SOL     OW31738   2.539   0.284   6.852  0.4815  0.3449  0.3662
 6759SOL    HW131739   2.597   0.360   6.854  0.6684  0.2020  0.3678
 6759SOL    HW231740   2.455   0.326   6.831  0.5787  1.1400  1.5754
 6760SOL     OW31741   3.410   2.147   9.125 -0.4128 -0.0510  0.9268
 6760SOL    HW131742   3.491   2.102   9.102 -0.5545  0.5806 -0.8483
 6760SOL    HW231743   3.439   2.203   9.198  0.8592 -2.1629  2.0277
 6761SOL     OW31744   2.268   3.987  12.767 -0.2949  0.4815 -0.5976
 6761SOL    HW131745   2.289   3.897  12.793  0.8792  0.6637 -0.9464
 6761SOL    HW231746   2.270   4.034  12.850 -2.6924 -1.7340  0.6993
 6762SOL     OW31747   0.198   4.074   8.200  0.1095  0.3097  0.6183
 6762SOL    HW131748   0.131   4.140   8.216  0.3795  0.9597 -1.0005
 6762SOL    HW231749   0.193   4.023   8.281  2.0979 -0.5999  0.1811
 6763SOL     OW31750   0.035   0.474  12.409  0.0431  0.1254 -0.1213
 6763SOL    HW131751   0.031   0.379  12.416 -1.2290  0.2981  1.5450
 6763SOL    HW231752   0.130   0.482  12.421 -0.1407  0.9825  0.8162
 6764SOL     OW31753   2.260   1.846   8.753  0.1491 -0.5865  0.3753
 6764SOL    HW131754   2.351   1.852   8.782  0.4753  0.9036 -0.9903
 6764SOL    HW231755   2.243   1.758   8.719 -0.9523 -0.6623  1.1101
 6765SOL     OW31756   3.100   0.294   5.580  0.1026  0.3455  0.1484
 6765SOL    HW131757   3.111   0.295   5.485 -1.2115  1.8349  0.0219
 6765SOL    HW231758   3.166   0.226   5.597  0.3751  0.9354  1.3881
 6766SOL     OW31759   2.892   1.941   7.136 -0.0237 -0.7778 -0.8179
 6766SOL    HW131760   2.903   1.859   7.184  0.8038  0.3489  0.9133
 6766SOL    HW231761   2.978   1.977   7.116  0.4318 -0.3047  2.1210
 6767SOL     OW31762   4.420   3.892   8.089 -0.5057 -0.3710 -0.2484
 6767SOL    HW131763   4.464   3.957   8.144  0.3035 -1.6099  0.5545
 6767SOL    HW231764   4.385   3.942   8.015  0.4510 -1.0335 -1.1510
 6768SOL     OW31765   2.505   3.956   6.305  0.3394  0.3384  0.0028
 6768SOL    HW131766   2.495   4.050   6.289  1.3913 -0.3055 -4.5025
 6768SOL    HW231767   2.547   3.933   6.221 -0.5160  1.5447 -0.7533
 6769SOL     OW31768   0.935   3.937   6.611  0.3480  0.1269  0.0163
 6769SOL    HW131769   0.861   3.958   6.554 -0.0161  1.2756  0.9387
 6769SOL    HW231770   0.995   4.011   6.602  0.4275 -0.2140 -2.4106
 6770SOL     OW31771   4.450   3.091  16.863 -0.0983 -0.2313  0.6884
 6770SOL    HW131772   4.461   3.135  16.947 -1.1623 -1.3211  1.4071
 6770SOL    HW231773   4.417   3.006  16.892 -1.1672 -0.0458  0.0178
 6771SOL     OW31774   3.934   3.269   4.935  0.5795 -0.6064  0.0952
 6771SOL    HW131775   3.885   3.187   4.924 -0.2806 -0.4431  2.6610
 6771SOL    HW231776   3.877   3.307   5.003  1.4940 -0.3708  0.7259
 6772SOL     OW31777   2.203   2.993   7.923 -0.0125  0.3810  0.0609
 6772SOL    HW131778   2.214   2.898   7.914  0.3583  0.6453 -2.1583
 6772SOL    HW231779   2.211   2.995   8.019  1.7479  0.6434 -0.0910
 6773SOL     OW31780   0.922   4.249  13.277  0.1372 -0.6995 -0.0248
 6773SOL    HW131781   0.835   4.214  13.258 -0.3276  1.2251 -1.4935
 6773SOL    HW231782   0.962   4.182  13.332 -0.1599 -0.4100  0.5535
 6774SOL     OW31783   2.990   4.464   1.620 -0.1174  0.5805 -0.0495
 6774SOL    HW131784   2.944   4.530   1.672 -1.1464 -1.0648  1.1060
 6774SOL    HW231785   2.928   4.393   1.634  1.3500 -0.9811 -1.5282
 6775SOL     OW31786   0.275   0.529   3.217 -0.0441 -0.1017  0.0854
 6775SOL    HW131787   0.369   0.531   3.196 -0.0953 -0.1426 -0.1508
 6775SOL    HW231788   0.280   0.467   3.289 -2.6984  0.4614  0.7451
 6776SOL     OW31789   1.444   3.807   9.196  0.8553 -0.0769  0.1266
 6776SOL    HW131790   1.456   3.758   9.278 -1.3505 -0.0594  0.4601
 6776SOL    HW231791   1.384   3.870   9.237  0.3668  0.2638 -1.1107
 6777SOL     OW31792   3.746   1.844  16.738  0.3476  0.0436 -0.4469
 6777SOL    HW131793   3.720   1.894  16.661 -0.7623  0.0137 -0.0896
 6777SOL    HW231794   3.834   1.869  16.768 -0.0529 -1.2127  1.8354
 6778SOL     OW31795   2.537   2.421  17.646  0.5575 -0.1748 -0.3384
 6778SOL    HW131796   2.614   2.373  17.616  0.0827 -0.3245 -1.3244
 6778SOL    HW231797   2.568   2.511  17.640 -2.7779  0.9081 -1.6348
 6779SOL     OW31798   2.176   2.883  10.882 -0.0449  0.2666 -0.2074
 6779SOL    HW131799   2.199   2.921  10.967 -0.8466  3.3808 -1.3853
 6779SOL    HW231800   2.240   2.815  10.860  1.8030  1.8846  0.1856
 6780SOL     OW31801   1.870   0.450  15.633 -0.5547 -0.0435 -0.6170
 6780SOL    HW131802   1.913   0.433  15.549 -0.3802 -0.9380 -0.3535
 6780SOL    HW231803   1.936   0.411  15.690 -0.0214 -0.2615 -1.3858
 6781SOL     OW31804   3.640   1.281   4.569  0.0628 -0.4582 -0.2212
 6781SOL    HW131805   3.576   1.227   4.522 -0.9648  0.1552  0.4826
 6781SOL    HW231806   3.671   1.207   4.622  2.4885  1.2986  0.7912
 6782SOL     OW31807   2.678   4.608   7.506 -0.0435 -0.2383 -0.2689
 6782SOL    HW131808   2.597   4.564   7.531  0.8380 -0.1770  2.6930
 6782SOL    HW231809   2.704   4.642   7.591  0.7527  2.1139 -1.4642
 6783SOL     OW31810   2.459   4.593  16.057 -0.1793  0.2404 -0.1361
 6783SOL    HW131811   2.431   4.676  16.019 -2.1449 -0.5152 -0.3372
 6783SOL    HW231812   2.425   4.532  15.991 -0.4050  0.9238 -0.6455
 6784SOL     OW31813   0.218   1.345   8.816  0.4072 -0.0068  0.4495
 6784SOL    HW131814   0.239   1.427   8.862  2.2257  0.2674 -0.8736
 6784SOL    HW231815   0.308   1.330   8.787  0.1277 -0.2484 -0.2847
 6785SOL     OW31816   3.722   4.170   6.292 -0.0209  0.5763  0.1010
 6785SOL    HW131817   3.732   4.123   6.209 -0.7089 -0.5310  0.6433
 6785SOL    HW231818   3.808   4.177   6.332 -0.0290 -0.1808  0.2546
 6786SOL     OW31819   3.003   0.036   2.349 -0.0819  0.2708 -0.4258
 6786SOL    HW131820   2.956   4.695   2.294 -0.8253  1.6964 -1.4416
 6786SOL    HW231821   3.072   0.066   2.291 -2.2566  0.5231 -2.9176
 6787SOL     OW31822   1.707   2.518   6.728  0.0494 -0.2060  0.3101
 6787SOL    HW131823   1.709   2.484   6.817  0.4147 -1.7725 -0.2943
 6787SOL    HW231824   1.795   2.499   6.698  0.9628 -0.0746  2.9125
 6788SOL     OW31825   2.902   0.976   5.974 -0.6512 -0.3762  0.2771
 6788SOL    HW131826   2.964   1.012   5.911 -2.1247  0.9145 -0.4340
 6788SOL    HW231827   2.910   0.882   5.959  0.1082 -0.2812  0.0982
 6789SOL     OW31828   4.418   1.259   8.103  0.6058  0.1792 -0.3977
 6789SOL    HW131829   4.443   1.341   8.144  0.7913 -0.6008  1.0677
 6789SOL    HW231830   4.324   1.249   8.122  0.9574 -1.2154  0.6945
 6790SOL     OW31831   1.473   1.179  10.601 -0.3378 -0.2539 -0.0557
 6790SOL    HW131832   1.480   1.271  10.624 -1.5085  0.0476 -0.9356
 6790SOL    HW231833   1.536   1.134  10.657 -0.0986  1.9258  1.4253
 6791SOL     OW31834   4.236   1.571  14.355  0.1399  0.3832 -0.4148
 6791SOL    HW131835   4.237   1.643  14.292  0.5959  0.3653 -0.4287
 6791SOL    HW231836   4.308   1.514  14.328 -0.0420 -1.1154  2.1858
 6792SOL     OW31837   1.683   4.262   3.642 -0.0873 -1.0126  0.1580
 6792SOL    HW131838   1.590   4.239   3.646 -0.1405 -0.5446  1.6895
 6792SOL    HW231839   1.738   4.197   3.685  2.1242 -0.4990 -1.9187
 6793SOL     OW31840   0.053   3.906   7.703  0.2520 -0.2136 -0.0782
 6793SOL    HW131841   0.011   3.928   7.620  0.2560  1.0147  0.2448
 6793SOL    HW231842   0.115   3.837   7.678 -0.4495 -1.0129  0.3779
 6794SOL     OW31843   2.274   2.919   4.758 -0.5161  0.1402 -0.2990
 6794SOL    HW131844   2.190   2.939   4.717 -0.5049  1.8802  0.5474
 6794SOL    HW231845   2.240   2.889   4.842  1.2414  0.1106  0.4171
 6795SOL     OW31846   2.826   0.243  11.378 -0.5773  0.1395 -0.4412
 6795SOL    HW131847   2.906   0.296  11.374  0.1774 -1.0494 -1.0310
 6795SOL    HW231848   2.757   0.304  11.351 -1.8758 -0.8238  0.7128
 6796SOL     OW31849   2.006   0.908  11.904 -0.0570  0.0681 -0.2526
 6796SOL    HW131850   1.958   0.836  11.864 -0.9404  0.2245  0.5434
 6796SOL    HW231851   2.010   0.872  11.993  0.2648 -3.7134 -1.8225
 6797SOL     OW31852   1.998   4.167  13.811  1.3040 -1.1283 -0.2357
 6797SOL    HW131853   2.007   4.128  13.898 -0.7379  2.0094  1.3718
 6797SOL    HW231854   2.020   4.255  13.840  1.7831 -2.1815  2.6023
 6798SOL     OW31855   0.635   0.906   4.047 -0.0417 -0.5094 -0.0430
 6798SOL    HW131856   0.553   0.877   4.007 -1.5750  0.0566  2.6745
 6798SOL    HW231857   0.609   0.955   4.125  2.5064  1.7732 -0.6523
 6799SOL     OW31858   4.545   0.757   0.547  0.2472  0.0971  0.2341
 6799SOL    HW131859   4.510   0.845   0.555 -0.3060 -0.1017  0.0075
 6799SOL    HW231860   4.611   0.752   0.615  0.7350  0.2252 -0.2286
 6800SOL     OW31861   1.663   3.918   3.690  0.3527  0.5508 -0.1991
 6800SOL    HW131862   1.717   3.950   3.763 -3.5579  0.6698  2.6675
 6800SOL    HW231863   1.575   3.915   3.726  0.7403  0.0257  0.7179
 6801SOL     OW31864   0.634   2.855   5.442 -0.1931  0.3987 -0.2506
 6801SOL    HW131865   0.721   2.864   5.480 -0.8505  1.2166  1.0265
 6801SOL    HW231866   0.646   2.902   5.359  1.6855 -0.2226 -0.3320
 6802SOL     OW31867   2.418   4.066   7.510 -0.0177 -0.5437  0.2994
 6802SOL    HW131868   2.439   4.070   7.604  1.9465  0.8282 -0.1761
 6802SOL    HW231869   2.323   4.058   7.505 -0.0964  0.6557 -0.2413
 6803SOL     OW31870   2.674   1.703   4.649 -0.0289 -0.4854  0.3095
 6803SOL    HW131871   2.676   1.744   4.563  1.2641 -0.3125  0.4224
 6803SOL    HW231872   2.625   1.623   4.632 -1.6516  0.8975 -1.5534
 6804SOL     OW31873   1.479   4.465  12.261  0.2300 -0.1528 -0.2075
 6804SOL    HW131874   1.478   4.392  12.323 -0.2995 -0.1144 -0.1677
 6804SOL    HW231875   1.517   4.533  12.317  3.0628 -2.0076  0.1387
 6805SOL     OW31876   2.320   1.632   4.268  0.0508  0.0077  0.4921
 6805SOL    HW131877   2.277   1.629   4.354 -2.0959 -0.8253 -0.5898
 6805SOL    HW231878   2.393   1.571   4.272 -0.1965 -0.2438  1.2049
 6806SOL     OW31879   4.023   0.353   3.787 -0.6055 -0.3381 -0.0819
 6806SOL    HW131880   4.089   0.317   3.847 -1.0312 -1.1417 -0.0937
 6806SOL    HW231881   3.989   0.268   3.759 -1.2683  1.0304 -3.3555
 6807SOL     OW31882   2.327   0.940   7.502 -0.3096 -0.1788  0.2110
 6807SOL    HW131883   2.262   1.010   7.493  0.0154  0.1327  0.2985
 6807SOL    HW231884   2.273   0.878   7.550 -2.0463  0.8344 -0.3733
 6808SOL     OW31885   2.862   0.043   6.303  0.5866  0.3372 -0.8211
 6808SOL    HW131886   2.895   0.114   6.248  0.4667 -0.4200 -1.8909
 6808SOL    HW231887   2.858   0.089   6.386 -1.6116  1.6522 -1.6539
 6809SOL     OW31888   1.105   2.930   8.758 -0.0061 -0.2341  0.8760
 6809SOL    HW131889   1.064   3.016   8.749  0.6511 -0.2012 -1.7350
 6809SOL    HW231890   1.095   2.920   8.853  0.6757 -4.2043  0.5018
 6810SOL     OW31891   2.619   0.707  11.218 -0.1987 -0.2811  0.1519
 6810SOL    HW131892   2.690   0.719  11.155 -0.6706  0.7060 -0.1869
 6810SOL    HW231893   2.604   0.612  11.223  1.0374 -0.2903  3.5835
 6811SOL     OW31894   3.793   3.687  14.799  0.5559  0.2348 -0.5203
 6811SOL    HW131895   3.862   3.686  14.733  2.0603 -2.4737  1.0926
 6811SOL    HW231896   3.791   3.597  14.833 -3.0968  0.8639  0.9706
 6812SOL     OW31897   4.654   1.689   3.018 -0.6163 -0.4294  0.2293
 6812SOL    HW131898   4.687   1.757   2.958  0.8102 -0.5301  0.8976
 6812SOL    HW231899   4.561   1.701   3.002 -0.1449  1.1974 -1.3396
 6813SOL     OW31900   1.944   2.690   7.216  0.1815  0.3372  0.2363
 6813SOL    HW131901   1.965   2.674   7.124  0.0340 -0.2831  0.3134
 6813SOL    HW231902   1.948   2.786   7.215 -0.9184  0.3806  0.1945
 6814SOL     OW31903   0.671   3.457   0.688  0.0015  0.3679 -0.5064
 6814SOL    HW131904   0.642   3.393   0.754  0.2890 -2.3565 -3.0243
 6814SOL    HW231905   0.734   3.517   0.728  0.6259  0.4473 -1.6279
 6815SOL     OW31906   1.314   0.408  10.915 -0.5514 -0.1803  0.0152
 6815SOL    HW131907   1.322   0.326  10.867  1.5022 -1.0248  1.7974
 6815SOL    HW231908   1.312   0.366  11.001 -1.9300  0.1166  0.1305
 6816SOL     OW31909   1.525   3.700  16.168 -0.2175 -0.4143 -0.7342
 6816SOL    HW131910   1.457   3.762  16.144  0.4356  0.5890  0.0176
 6816SOL    HW231911   1.519   3.691  16.263 -0.2249 -0.6406 -0.7564
 6817SOL     OW31912   1.042   1.891  14.722  0.7850 -0.4301 -0.4000
 6817SOL    HW131913   0.949   1.915  14.727  1.3053  1.2701  1.1219
 6817SOL    HW231914   1.070   1.926  14.807 -0.6831  0.0095 -0.0933
 6818SOL     OW31915   0.989   3.706   2.763 -0.1525  0.4120 -0.3909
 6818SOL    HW131916   0.903   3.748   2.763  0.5598  1.8399 -0.6097
 6818SOL    HW231917   1.052   3.776   2.751  0.5693 -0.0394  0.7356
 6819SOL     OW31918   1.849   1.033   6.155  0.2285  0.1918 -0.8652
 6819SOL    HW131919   1.883   1.122   6.168  1.8721 -0.1753 -2.6412
 6819SOL    HW231920   1.812   1.047   6.068 -0.2229  0.2357 -0.6668
 6820SOL     OW31921   1.810   1.254   2.724  0.3707  0.5046  0.3715
 6820SOL    HW131922   1.794   1.348   2.714 -0.5649  0.3268  0.1575
 6820SOL    HW231923   1.849   1.233   2.639  1.7863 -0.1794  1.1919
 6821SOL     OW31924   3.921   0.845   2.441  0.0062 -0.2973  0.2919
 6821SOL    HW131925   3.933   0.763   2.395 -0.5509  0.3577 -1.0189
 6821SOL    HW231926   3.828   0.857   2.419  0.3729  2.4526  0.2274
 6822SOL     OW31927   3.629   4.632   3.803  0.3400 -0.0791 -0.4179
 6822SOL    HW131928   3.586   4.604   3.884 -1.0899  2.6786 -0.2464
 6822SOL    HW231929   3.692   4.561   3.794  0.5622 -0.3284  3.1910
 6823SOL     OW31930   0.998   2.127   8.868 -0.1254 -0.2476 -0.7458
 6823SOL    HW131931   0.941   2.099   8.939 -0.8598  1.7392 -0.5418
 6823SOL    HW231932   0.963   2.216   8.862 -2.9696 -1.4116 -1.0597
 6824SOL     OW31933   0.752   0.391  13.901 -0.9229 -0.7775 -0.3781
 6824SOL    HW131934   0.816   0.462  13.899 -0.7985 -0.9064 -1.0161
 6824SOL    HW231935   0.664   0.428  13.902 -1.3325 -1.7493 -1.4213
 6825SOL     OW31936   2.657   0.122  16.395 -0.0663  0.2941 -0.3750
 6825SOL    HW131937   2.564   0.140  16.409  0.1044  0.7931  0.1161
 6825SOL    HW231938   2.649   0.039  16.349  3.8929  0.4277 -1.2474
 6826SOL     OW31939   0.078   4.382   6.496 -0.0524 -1.0091  0.3373
 6826SOL    HW131940   4.710   4.359   6.516  0.3123  0.1689  3.3499
 6826SOL    HW231941   0.070   4.462   6.444  3.8502 -0.1894  0.9897
 6827SOL     OW31942   2.817   0.661  12.497  0.0596 -0.2362  0.4214
 6827SOL    HW131943   2.873   0.738  12.497  0.0264 -0.2045 -2.6191
 6827SOL    HW231944   2.728   0.691  12.476  0.1516 -0.0744  0.2663
 6828SOL     OW31945   3.499   1.830   9.226 -0.4998 -0.0977  0.0079
 6828SOL    HW131946   3.506   1.743   9.186  1.2648  0.6313 -1.2555
 6828SOL    HW231947   3.592   1.840   9.243 -0.3787 -1.8585  0.4417
 6829SOL     OW31948   0.072   4.398   1.352  0.4354 -0.2861 -0.0970
 6829SOL    HW131949   0.003   4.397   1.418 -0.5060 -2.0649 -1.1066
 6829SOL    HW231950   0.025   4.438   1.279 -0.9131  2.1239  2.1055
 6830SOL     OW31951   0.092   2.609   8.980 -0.0186  0.0682  0.1339
 6830SOL    HW131952   0.037   2.655   8.916  1.1958  1.3392  0.0143
 6830SOL    HW231953   0.108   2.689   9.031  0.5183  0.7958 -1.1727
 6831SOL     OW31954   0.418   0.894  14.336 -0.4441  0.2155  0.3614
 6831SOL    HW131955   0.389   0.952  14.407  1.3423  0.2068  1.0920
 6831SOL    HW231956   0.348   0.830  14.325 -0.0069 -0.2934  0.5698
 6832SOL     OW31957   2.185   0.418   5.158 -0.5123 -0.1785 -0.2546
 6832SOL    HW131958   2.269   0.378   5.134  0.6631  1.3144  1.3897
 6832SOL    HW231959   2.143   0.355   5.217 -1.5344 -0.0078 -0.7923
 6833SOL     OW31960   4.157   3.280   6.092 -0.5454  0.0925 -0.0796
 6833SOL    HW131961   4.108   3.213   6.043  1.1974 -1.3453  0.1367
 6833SOL    HW231962   4.107   3.287   6.173  1.6078 -0.0352  1.2547
 6834SOL     OW31963   3.347   2.176   5.106  0.1612  0.7933  0.0424
 6834SOL    HW131964   3.405   2.141   5.038 -2.0161  0.9936 -1.9011
 6834SOL    HW231965   3.409   2.204   5.174  0.4443  0.6171 -0.1400
 6835SOL     OW31966   4.172   0.044   3.260 -0.0032  0.8861 -0.8738
 6835SOL    HW131967   4.123   4.715   3.196  0.6051 -2.1454  1.1225
 6835SOL    HW231968   4.155   4.720   3.341 -0.1382 -1.1238 -2.0416
 6836SOL     OW31969   3.957   3.815  11.419  1.0127  0.8006 -0.6200
 6836SOL    HW131970   3.914   3.840  11.338  1.7230  3.0367 -0.2922
 6836SOL    HW231971   4.012   3.739  11.398  0.5937  0.5382 -0.7607
 6837SOL     OW31972   2.494   0.931   4.071 -0.0212  0.3138 -0.2874
 6837SOL    HW131973   2.442   0.980   4.007 -1.6002  0.5023  1.1649
 6837SOL    HW231974   2.509   0.998   4.137  0.4757 -0.4861  0.4059
 6838SOL     OW31975   3.201   1.034   2.551  0.2041 -0.0699 -0.0080
 6838SOL    HW131976   3.243   1.120   2.551 -0.9262  0.4598  2.3356
 6838SOL    HW231977   3.130   1.044   2.487 -0.3105 -1.5587  0.3286
 6839SOL     OW31978   4.668   0.436  11.932  0.1582  0.1672  0.6870
 6839SOL    HW131979   4.682   0.514  11.984 -0.4571  1.2719 -0.7996
 6839SOL    HW231980   4.646   0.370  11.997 -1.9589 -1.0277 -1.2233
 6840SOL     OW31981   1.582   3.938  14.688  0.4603  0.7611 -0.0156
 6840SOL    HW131982   1.665   3.902  14.657  0.8352 -0.7266  2.6762
 6840SOL    HW231983   1.562   3.881  14.762  1.7156  0.1453 -0.1592
 6841SOL     OW31984   4.156   4.591   0.706 -0.2755  0.1050  0.5881
 6841SOL    HW131985   4.065   4.604   0.732  0.4726  0.3656  3.1048
 6841SOL    HW231986   4.164   4.496   0.703  1.3794  0.2593 -0.1578
 6842SOL     OW31987   2.664   1.250   2.041 -0.2897 -0.0601  0.0365
 6842SOL    HW131988   2.715   1.265   1.962 -1.3873  2.0711 -0.2720
 6842SOL    HW231989   2.584   1.297   2.017  0.0827  0.7640  0.4081
 6843SOL     OW31990   4.274   0.603  15.604  0.1430 -0.7055  0.0924
 6843SOL    HW131991   4.276   0.698  15.591 -2.2622 -0.5085  0.9930
 6843SOL    HW231992   4.224   0.585  15.524 -0.2015 -0.0284  0.1554
 6844SOL     OW31993   3.762   4.240   0.843  0.3572 -0.7703  0.0469
 6844SOL    HW131994   3.678   4.279   0.818  1.3541  0.0059 -2.1729
 6844SOL    HW231995   3.731   4.155   0.875 -1.1882 -1.0584 -2.2279
 6845SOL     OW31996   2.595   3.508  16.462 -0.0069 -0.0183 -0.2269
 6845SOL    HW131997   2.566   3.558  16.538 -1.9677 -1.3251 -0.1263
 6845SOL    HW231998   2.648   3.580  16.428 -0.5826 -0.1947 -1.4922
 6846SOL     OW31999   3.414   2.194  11.333  0.2665 -0.1105  0.2167
 6846SOL    HW132000   3.485   2.257  11.319  0.4132 -0.4922 -0.7672
 6846SOL    HW232001   3.439   2.149  11.252 -1.8786  0.1873 -0.6120
 6847SOL     OW32002   2.882   3.072   5.261 -0.1253  0.1448  0.4736
 6847SOL    HW132003   2.954   3.010   5.256 -1.3607 -1.3159  0.8193
 6847SOL    HW232004   2.902   3.113   5.177  1.1237  1.7015  1.5116
 6848SOL     OW32005   2.837   0.658   3.557 -0.1591  0.4207  0.8966
 6848SOL    HW132006   2.876   0.744   3.542 -2.6067  1.1423 -1.4489
 6848SOL    HW232007   2.913   0.601   3.570  1.1176  1.4369 -2.0278
 6849SOL     OW32008   1.781   4.207   2.449 -0.3058 -0.0621 -0.1007
 6849SOL    HW132009   1.796   4.283   2.393  0.4082 -0.9464 -1.1134
 6849SOL    HW232010   1.829   4.226   2.529 -0.0094  0.6188 -0.4485
 6850SOL     OW32011   3.342   2.615   1.877 -0.1683 -0.3730  0.5491
 6850SOL    HW132012   3.363   2.663   1.797  0.2949  0.7706  1.3680
 6850SOL    HW232013   3.248   2.633   1.888 -0.5173 -0.5410 -2.0179
 6851SOL     OW32014   2.436   2.749   8.337 -0.0339  0.1143  0.1031
 6851SOL    HW132015   2.374   2.772   8.406  0.4466 -0.7058  0.8038
 6851SOL    HW232016   2.501   2.702   8.388  0.2093  0.0043 -0.3027
 6852SOL     OW32017   0.852   0.883   5.651 -0.6493 -0.4312 -0.1468
 6852SOL    HW132018   0.940   0.912   5.673 -1.0352 -0.4149  1.3689
 6852SOL    HW232019   0.798   0.962   5.650 -0.9410 -0.6489 -2.3275
 6853SOL     OW32020   3.941   4.512  11.909 -0.0482  0.3210 -0.2284
 6853SOL    HW132021   3.960   4.526  11.817 -1.6462  2.7238 -0.1909
 6853SOL    HW232022   3.906   4.598  11.931 -2.0251  0.3406 -3.4556
 6854SOL     OW32023   4.496   0.863   4.984  0.1326 -0.2879  0.0771
 6854SOL    HW132024   4.426   0.855   5.049 -0.2685  0.0879 -0.3159
 6854SOL    HW232025   4.449   0.889   4.906  0.3615 -0.1469 -0.0132
 6855SOL     OW32026   1.347   4.153  11.562 -0.1929  0.2447  0.3275
 6855SOL    HW132027   1.283   4.178  11.628 -0.2992  0.6877  0.0539
 6855SOL    HW232028   1.292   4.099  11.505  0.5051 -0.4640  0.3152
 6856SOL     OW32029   3.714   3.734   3.522  0.0928  0.0869 -0.3820
 6856SOL    HW132030   3.662   3.756   3.444  0.2041 -0.9048 -0.7488
 6856SOL    HW232031   3.690   3.641   3.527 -0.3783  0.2506  0.4291
 6857SOL     OW32032   3.308   3.480   0.171  0.0625  0.1768  0.2450
 6857SOL    HW132033   3.246   3.551   0.153  0.1176  0.1587 -0.0095
 6857SOL    HW232034   3.258   3.437   0.240  0.5358 -1.0439 -0.1830
 6858SOL     OW32035   3.369   2.515   2.791 -0.0062 -0.2209 -0.3272
 6858SOL    HW132036   3.408   2.562   2.717  1.3015  0.5247  0.8228
 6858SOL    HW232037   3.335   2.437   2.749 -1.7859 -0.9377  2.4608
 6859SOL     OW32038   4.176   4.092   7.256  0.0552  0.4204 -0.2260
 6859SOL    HW132039   4.175   4.126   7.166 -1.0715 -0.7897 -0.6769
 6859SOL    HW232040   4.109   4.024   7.250  0.4719  0.0733 -1.0626
 6860SOL     OW32041   4.639   0.505  11.098 -0.0730  0.0783 -0.4826
 6860SOL    HW132042   4.589   0.425  11.080 -0.3906  0.5024 -1.4305
 6860SOL    HW232043   4.572   0.571  11.113 -0.7734 -1.0669  1.4722
 6861SOL     OW32044   3.548   3.859  12.480 -0.2293  0.4712 -0.5792
 6861SOL    HW132045   3.611   3.866  12.408 -0.3693 -1.1662 -0.8602
 6861SOL    HW232046   3.482   3.918  12.445  1.3026  0.2538 -3.7664
 6862SOL     OW32047   4.426   1.355   4.913 -0.2086 -0.3525  0.0345
 6862SOL    HW132048   4.352   1.396   4.869  0.0626  0.7685  0.6095
 6862SOL    HW232049   4.398   1.336   5.003 -0.4686  0.0956  0.0478
 6863SOL     OW32050   1.494   0.829   4.440 -0.0717 -0.2453 -0.1896
 6863SOL    HW132051   1.534   0.798   4.359  0.6020  1.9384 -0.6872
 6863SOL    HW232052   1.563   0.822   4.505  0.6703  1.6146 -0.7860
 6864SOL     OW32053   4.193   0.943  16.207  0.0715  0.2378 -0.6112
 6864SOL    HW132054   4.157   1.006  16.144  1.8402 -0.2065 -2.0585
 6864SOL    HW232055   4.188   0.996  16.286  1.1536 -0.7152  0.1010
 6865SOL     OW32056   2.354   2.014  10.875 -0.8318 -0.0298  0.6950
 6865SOL    HW132057   2.265   2.006  10.842 -0.4942  0.9135 -0.4156
 6865SOL    HW232058   2.335   1.990  10.966  0.7505 -2.4384  0.3986
 6866SOL     OW32059   3.818   4.438  11.371 -0.1561  0.0924 -0.2670
 6866SOL    HW132060   3.838   4.463  11.461  1.0074  0.7659 -0.7105
 6866SOL    HW232061   3.724   4.456  11.378 -0.4509 -1.1020 -1.0635
 6867SOL     OW32062   0.871   1.451   6.783 -0.1669 -0.1842 -0.4315
 6867SOL    HW132063   0.893   1.374   6.836  3.4237  1.4956  0.4869
 6867SOL    HW232064   0.811   1.413   6.718  0.7148  1.3338 -2.1411
 6868SOL     OW32065   1.366   3.972   9.850  0.3700  0.2429  0.0871
 6868SOL    HW132066   1.330   3.883   9.841 -1.9938  1.2079  0.0280
 6868SOL    HW232067   1.291   4.010   9.895 -0.2289 -0.4416 -0.3198
 6869SOL     OW32068   0.532   3.199   1.599 -0.1567  0.2188  0.2551
 6869SOL    HW132069   0.440   3.181   1.619  0.0242  0.3663  1.2202
 6869SOL    HW232070   0.559   3.114   1.564 -4.0635 -0.4406 -1.1253
 6870SOL     OW32071   3.117   0.269  11.438 -0.0834 -0.5426 -0.1078
 6870SOL    HW132072   3.081   0.182  11.454  0.8899 -0.3923  3.0111
 6870SOL    HW232073   3.202   0.235  11.414 -1.3036 -3.3347 -0.4774
 6871SOL     OW32074   3.649   1.599   5.734 -0.3255 -0.0965  0.0841
 6871SOL    HW132075   3.690   1.514   5.751  0.2804 -0.0552 -1.2303
 6871SOL    HW232076   3.624   1.620   5.824  0.1296  0.1929  0.1434
 6872SOL     OW32077   1.574   4.433  13.137 -0.6511 -0.5642 -0.4626
 6872SOL    HW132078   1.489   4.433  13.180 -1.0737  1.0439 -1.3018
 6872SOL    HW232079   1.604   4.345  13.161  2.2663  0.7356  0.6299
 6873SOL     OW32080   3.141   0.307   6.507  0.2973  0.2765 -0.1486
 6873SOL    HW132081   3.226   0.298   6.549  0.1164 -1.2407 -0.1038
 6873SOL    HW232082   3.176   0.293   6.419 -1.0648 -0.0395 -0.6484
 6874SOL     OW32083   1.216   3.850   5.978  0.3320 -0.5613 -0.0084
 6874SOL    HW132084   1.238   3.825   6.068  2.0106  2.4862  0.4340
 6874SOL    HW232085   1.129   3.811   5.977  0.4341 -0.7797 -1.0597
 6875SOL     OW32086   3.043   3.969   6.330 -0.2332  0.0009  0.5226
 6875SOL    HW132087   3.083   3.964   6.416  0.0035 -3.5745  0.1855
 6875SOL    HW232088   3.092   3.900   6.287  1.1674  0.3395  1.6023
 6876SOL     OW32089   1.614   2.186   7.212 -0.9477 -0.1278 -0.2600
 6876SOL    HW132090   1.632   2.163   7.121  2.9441 -0.9233  0.7277
 6876SOL    HW232091   1.518   2.183   7.208 -0.8580 -2.7857 -0.4821
 6877SOL     OW32092   4.603   2.291   2.524 -0.4194 -0.2798 -0.5596
 6877SOL    HW132093   4.599   2.384   2.546  0.5772  0.1274 -2.0482
 6877SOL    HW232094   4.583   2.296   2.430 -0.8954  0.0472 -0.4418
 6878SOL     OW32095   0.076   3.027   5.308 -0.2286 -0.2884 -0.4434
 6878SOL    HW132096   0.072   3.053   5.400  4.1017  3.2152 -1.2650
 6878SOL    HW232097   0.066   2.933   5.324 -0.3660 -0.1268  0.4217
 6879SOL     OW32098   2.211   0.492  16.640  0.2864  0.0086 -0.8105
 6879SOL    HW132099   2.162   0.564  16.601  1.5075  0.9096 -0.6558
 6879SOL    HW232100   2.279   0.541  16.686  0.9291 -0.7732 -0.9139
 6880SOL     OW32101   0.069   0.434   1.178  0.1589  0.6734 -0.3375
 6880SOL    HW132102   0.111   0.351   1.203 -2.2590 -0.3036  0.4361
 6880SOL    HW232103   0.055   0.423   1.084 -2.0405  0.7805 -0.0106
 6881SOL     OW32104   2.246   3.630   1.441  0.3182  0.1859  0.7479
 6881SOL    HW132105   2.319   3.640   1.503  0.3597 -0.5474  0.8199
 6881SOL    HW232106   2.241   3.714   1.396 -0.1856 -0.9836 -1.3519
 6882SOL     OW32107   3.693   3.710   1.585 -0.4572 -0.5263  0.5006
 6882SOL    HW132108   3.757   3.777   1.563  0.5944 -1.5839  0.3457
 6882SOL    HW232109   3.642   3.765   1.644  0.4223 -2.5363  3.1179
 6883SOL     OW32110   1.036   0.803   8.100 -0.2694  0.2932 -0.4793
 6883SOL    HW132111   0.940   0.811   8.094 -0.3327  0.6295  0.9200
 6883SOL    HW232112   1.062   0.854   8.023  1.8265  0.3734  0.2966
 6884SOL     OW32113   4.591   2.595  16.898  0.2297 -0.5130  0.3237
 6884SOL    HW132114   4.644   2.594  16.978  0.2853  0.5732  0.3035
 6884SOL    HW232115   4.589   2.500  16.884 -3.2511 -0.8333  3.1558
 6885SOL     OW32116   0.114   3.753  15.861 -0.2598 -0.1044 -0.1935
 6885SOL    HW132117   0.148   3.664  15.849  1.5345  0.2808  1.8997
 6885SOL    HW232118   0.044   3.748  15.926  0.3445 -0.9911  0.3916
 6886SOL     OW32119   3.413   2.863   9.643  0.0791 -0.0361  0.8066
 6886SOL    HW132120   3.361   2.925   9.592  0.6162 -0.2709 -0.0123
 6886SOL    HW232121   3.500   2.899   9.630  0.2691 -1.6929 -2.6529
 6887SOL     OW32122   1.906   1.357   5.227  0.0848 -0.1216 -0.1292
 6887SOL    HW132123   1.884   1.268   5.254  0.9979 -0.5792 -0.8750
 6887SOL    HW232124   1.826   1.366   5.175 -0.4888  0.7534  0.9186
 6888SOL     OW32125   1.759   0.167  11.278  0.0894  0.8760 -0.2483
 6888SOL    HW132126   1.675   0.213  11.275  0.7851  2.1488 -0.1248
 6888SOL    HW232127   1.736   0.087  11.326 -0.9966  0.3249 -1.6712
 6889SOL     OW32128   2.459   0.313   5.872  0.3744 -0.4035  0.5165
 6889SOL    HW132129   2.523   0.243   5.886  0.1098 -0.6228  0.6174
 6889SOL    HW232130   2.435   0.327   5.964 -1.6487 -0.8914  0.0501
 6890SOL     OW32131   4.179   0.924   0.523 -0.0024 -0.0315  0.5439
 6890SOL    HW132132   4.133   0.840   0.529  0.4917 -0.1794  2.2189
 6890SOL    HW232133   4.181   0.959   0.612  0.7232 -0.0406  0.5345
 6891SOL     OW32134   1.831   1.394   1.843 -0.2060  0.1174  0.5110
 6891SOL    HW132135   1.852   1.415   1.752 -3.7136 -0.8568 -0.4951
 6891SOL    HW232136   1.880   1.311   1.846  0.8624  0.7115 -0.7398
 6892SOL     OW32137   2.158   1.949  13.086 -0.2853  0.5396  0.6018
 6892SOL    HW132138   2.230   1.901  13.046 -0.2558 -0.1962  1.5455
 6892SOL    HW232139   2.085   1.931  13.026  1.7939  0.5170 -1.8995
 6893SOL     OW32140   2.402   1.876   3.724  0.5169  0.0108  0.2262
 6893SOL    HW132141   2.404   1.871   3.820 -0.3756 -0.6056  0.2067
 6893SOL    HW232142   2.372   1.786   3.713  1.6327 -0.2778 -0.5332
 6894SOL     OW32143   0.605   2.197  13.924  0.1777  0.1629  0.8593
 6894SOL    HW132144   0.655   2.277  13.909 -0.3191  0.6548  1.8255
 6894SOL    HW232145   0.543   2.209  13.851  1.1547 -1.1392 -0.1905
 6895SOL     OW32146   0.511   2.780   7.405  0.1392  0.2043  0.2131
 6895SOL    HW132147   0.569   2.774   7.481  0.4426  1.9946  0.1223
 6895SOL    HW232148   0.533   2.868   7.375 -0.8624  0.9655  1.6722
 6896SOL     OW32149   0.887   3.551   2.410  0.3691  0.4317  0.3666
 6896SOL    HW132150   0.936   3.541   2.329  3.2655 -0.7938  2.3016
 6896SOL    HW232151   0.897   3.462   2.444  2.3498  0.9258  1.0509
 6897SOL     OW32152   1.716   2.067   3.107 -0.6977  0.2877  0.2076
 6897SOL    HW132153   1.669   2.147   3.084  3.4284  2.1086 -1.6679
 6897SOL    HW232154   1.723   2.026   3.021  0.0236 -1.0642  0.9132
 6898SOL     OW32155   3.460   1.649   5.555  0.7402  0.3048  0.2028
 6898SOL    HW132156   3.535   1.625   5.610  0.7847 -0.9712 -0.4150
 6898SOL    HW232157   3.420   1.563   5.563 -1.2618  1.0786 -1.2175
 6899SOL     OW32158   3.827   2.302   4.004  0.1523 -0.0421  0.2922
 6899SOL    HW132159   3.854   2.221   3.961 -1.2325 -0.4513  0.1929
 6899SOL    HW232160   3.738   2.289   4.039  0.3243  0.3682  0.8938
 6900SOL     OW32161   1.065   1.868   7.960  0.5456  0.9675  0.6343
 6900SOL    HW132162   1.133   1.858   8.026  0.0364 -1.1468  0.8429
 6900SOL    HW232163   1.006   1.927   8.007  0.5828  1.2938  0.2776
 6901SOL     OW32164   0.912   0.703   6.647  0.1341 -0.5105  0.3126
 6901SOL    HW132165   0.936   0.654   6.725 -0.4352  1.5227  1.7512
 6901SOL    HW232166   0.958   0.784   6.667 -0.5098  0.2116 -1.1475
 6902SOL     OW32167   4.440   4.165   6.776  0.4136 -0.2713 -0.4303
 6902SOL    HW132168   4.401   4.136   6.858  1.2818  0.7430  0.3525
 6902SOL    HW232169   4.461   4.082   6.733  0.3305 -0.6223  0.2227
 6903SOL     OW32170   2.550   0.113   5.546  0.3420  0.4903 -0.5088
 6903SOL    HW132171   2.614   0.174   5.584  0.4390  0.4964 -0.6812
 6903SOL    HW232172   2.547   0.049   5.618  2.2636  0.2758 -0.5929
 6904SOL     OW32173   2.894   1.361   0.605  0.2605 -0.0333 -0.0120
 6904SOL    HW132174   2.949   1.325   0.675  2.0337  0.5760 -1.0921
 6904SOL    HW232175   2.935   1.348   0.519  0.6090  1.7980 -0.1168
 6905SOL     OW32176   3.905   4.563   5.867 -0.1473 -0.1833 -0.5288
 6905SOL    HW132177   3.965   4.610   5.810  0.1445  0.6775  0.4768
 6905SOL    HW232178   3.888   4.636   5.927 -0.6053 -1.1785  0.5587
 6906SOL     OW32179   3.853   3.568   2.283 -0.6278  0.4697 -0.0849
 6906SOL    HW132180   3.862   3.645   2.227  0.5725 -0.0122 -0.5466
 6906SOL    HW232181   3.762   3.569   2.315 -0.1972  2.4128  1.0633
 6907SOL     OW32182   1.553   3.168   8.139  0.4035 -0.1808  0.3517
 6907SOL    HW132183   1.566   3.253   8.180 -0.6104  0.3470 -0.4307
 6907SOL    HW232184   1.469   3.134   8.169  0.3498 -0.0326  0.3697
 6908SOL     OW32185   2.144   3.977   7.866  0.0184 -0.2646  0.1515
 6908SOL    HW132186   2.205   4.034   7.818 -0.3840 -0.1771 -0.2492
 6908SOL    HW232187   2.104   4.034   7.931 -1.9304  1.0800 -2.2113
 6909SOL     OW32188   2.178   0.336  12.179  0.1152  0.1538  0.0280
 6909SOL    HW132189   2.186   0.429  12.199 -0.7414  0.0873  0.6543
 6909SOL    HW232190   2.239   0.301  12.244 -1.3276 -2.8315 -0.2400
 6910SOL     OW32191   0.312   4.659   3.187 -0.2034  0.6634  0.2631
 6910SOL    HW132192   0.313   4.708   3.105 -0.8655 -0.6798 -0.5450
 6910SOL    HW232193   0.333   4.575   3.148  0.9906  1.9038 -1.7627
 6911SOL     OW32194   0.567   3.779   8.625  0.1641 -0.0541 -0.6635
 6911SOL    HW132195   0.519   3.859   8.603 -1.9624 -1.3200 -0.6321
 6911SOL    HW232196   0.523   3.756   8.707  0.3771  0.4227 -0.4208
 6912SOL     OW32197   0.636   4.681   5.072  0.1277  0.3862  0.0791
 6912SOL    HW132198   0.720   4.720   5.048 -0.7318  1.7305 -0.6854
 6912SOL    HW232199   0.624   4.615   5.004  4.4356 -0.1125 -0.1582
 6913SOL     OW32200   3.782   0.089   9.936 -0.0723 -0.2353 -0.4057
 6913SOL    HW132201   3.741   0.097  10.022  0.7573 -1.2168  0.0734
 6913SOL    HW232202   3.783   0.178   9.902 -0.2188  0.5069  1.5202
 6914SOL     OW32203   1.242   0.830   9.604 -0.1146  0.4345  0.0842
 6914SOL    HW132204   1.213   0.890   9.673  2.2147 -0.2756  1.7069
 6914SOL    HW232205   1.154   0.819   9.568  0.0543  0.9912 -0.4965
 6915SOL     OW32206   1.755   2.961   9.387  0.9019  0.3671 -0.5467
 6915SOL    HW132207   1.678   2.996   9.431  0.8613  1.5740 -1.5946
 6915SOL    HW232208   1.751   3.019   9.311  0.0735 -1.1083 -1.6365
 6916SOL     OW32209   3.251   2.211  14.112  0.0159 -0.1184 -0.5209
 6916SOL    HW132210   3.178   2.162  14.074  0.1742 -0.2074 -0.7112
 6916SOL    HW232211   3.235   2.200  14.205 -1.1346  0.9555 -0.5859
 6917SOL     OW32212   1.836   2.460   6.360 -0.0668 -0.1308 -0.0584
 6917SOL    HW132213   1.768   2.511   6.405  0.9777  0.2352  1.1169
 6917SOL    HW232214   1.882   2.539   6.333 -0.5075 -0.3432 -1.4410
 6918SOL     OW32215   3.670   4.166  14.467  0.9013  0.1574 -0.5766
 6918SOL    HW132216   3.710   4.104  14.528  2.1726  1.1329 -0.4173
 6918SOL    HW232217   3.718   4.128  14.393 -2.6982 -3.5035 -1.0279
 6919SOL     OW32218   3.916   1.830   3.895  0.3261 -0.0680 -0.1617
 6919SOL    HW132219   3.876   1.839   3.981 -0.9162  2.8122 -1.0759
 6919SOL    HW232220   4.008   1.815   3.917  1.0020 -0.7903 -3.4321
 6920SOL     OW32221   3.494   0.506   0.872 -0.0762 -0.2848  0.0004
 6920SOL    HW132222   3.529   0.470   0.954 -0.9410  0.9140  0.8919
 6920SOL    HW232223   3.561   0.477   0.810  0.6301 -1.4569  1.2846
 6921SOL     OW32224   2.329   3.417  12.433 -0.7231 -0.0114  0.1454
 6921SOL    HW132225   2.262   3.349  12.435  1.5563 -2.2114  1.1772
 6921SOL    HW232226   2.278   3.495  12.457 -1.9189 -0.8521  0.3438
 6922SOL     OW32227   2.548   2.799   5.497  0.8052 -0.5747 -0.3668
 6922SOL    HW132228   2.497   2.817   5.418 -0.5007  1.9415  1.0628
 6922SOL    HW232229   2.547   2.703   5.492  2.1227 -0.5417 -1.2517
 6923SOL     OW32230   3.308   4.589   3.117 -0.3377 -0.4959 -0.0641
 6923SOL    HW132231   3.269   4.531   3.183 -0.8476 -2.0596 -1.7471
 6923SOL    HW232232   3.295   4.672   3.162  0.5530 -0.9512  1.0357
 6924SOL     OW32233   3.377   0.713   2.575 -0.6915 -0.2748 -0.4787
 6924SOL    HW132234   3.282   0.716   2.562 -0.4032 -0.1798 -2.5394
 6924SOL    HW232235   3.412   0.745   2.492 -0.3657 -0.8128 -0.5499
 6925SOL     OW32236   0.203   2.158  13.540 -0.0843  0.4649  0.6616
 6925SOL    HW132237   0.272   2.091  13.538  0.4870  1.1261 -1.9888
 6925SOL    HW232238   0.258   2.229  13.573  2.2729 -1.0339  0.0116
 6926SOL     OW32239   3.117   2.928   5.217 -0.4810  0.0031 -0.0431
 6926SOL    HW132240   3.155   2.991   5.156 -1.0086  1.1062  0.7646
 6926SOL    HW232241   3.151   2.959   5.301 -0.6341 -1.6524  0.6404
 6927SOL     OW32242   2.918   0.268   6.113  0.1683 -0.7332 -0.1629
 6927SOL    HW132243   2.964   0.347   6.083 -0.4035 -0.9454 -1.5974
 6927SOL    HW232244   2.942   0.197   6.054 -0.8377 -2.0821  1.0611
 6928SOL     OW32245   4.619   1.831   5.043 -0.0425 -0.7353 -0.5900
 6928SOL    HW132246   4.569   1.777   4.982  1.2653  0.2515 -2.5175
 6928SOL    HW232247   4.543   1.857   5.096 -0.9437 -1.5944 -1.4666
 6929SOL     OW32248   0.181   0.721   1.954 -0.0297  0.0622 -0.3893
 6929SOL    HW132249   0.151   0.808   1.980  2.2301  0.6952  0.0920
 6929SOL    HW232250   0.156   0.736   1.863  0.4516  2.0376 -0.1954
 6930SOL     OW32251   2.513   1.219   8.228  0.1709  0.0700 -0.1525
 6930SOL    HW132252   2.456   1.180   8.295  0.0346 -0.7527 -0.7495
 6930SOL    HW232253   2.561   1.140   8.202  0.3516  0.4383 -0.9284
 6931SOL     OW32254   1.194   1.189   5.489 -0.2749  0.4096  0.1474
 6931SOL    HW132255   1.100   1.201   5.499 -0.3518  1.8367 -2.2567
 6931SOL    HW232256   1.221   1.240   5.565 -1.3971 -0.5278  1.1720
 6932SOL     OW32257   0.083   4.371   5.735 -0.4864 -0.0037 -0.7299
 6932SOL    HW132258   0.059   4.408   5.820  1.1596  1.4233 -0.8741
 6932SOL    HW232259   4.719   4.360   5.695  0.0703  2.4855 -2.6699
 6933SOL     OW32260   4.218   3.408   5.719  0.0683  0.2538 -0.5811
 6933SOL    HW132261   4.224   3.501   5.699  1.2388  0.5104  1.0631
 6933SOL    HW232262   4.141   3.417   5.775 -0.3432 -0.7373 -0.9844
 6934SOL     OW32263   4.217   3.433   4.754  0.1296 -0.1125  0.6042
 6934SOL    HW132264   4.135   3.393   4.727 -0.0102  0.1232  0.6823
 6934SOL    HW232265   4.242   3.379   4.829  0.6665 -2.2509 -1.1015
 6935SOL     OW32266   4.226   2.539   1.165  0.3049  0.3568 -0.1298
 6935SOL    HW132267   4.276   2.617   1.142 -0.0984  0.6288 -0.0792
 6935SOL    HW232268   4.149   2.555   1.111 -0.0920  0.8278  0.5728
 6936SOL     OW32269   1.481   1.309   2.606  0.4467  0.3007 -0.2424
 6936SOL    HW132270   1.505   1.223   2.571  2.5450  1.4716 -1.6034
 6936SOL    HW232271   1.476   1.359   2.525  1.1046 -1.5576 -1.4382
 6937SOL     OW32272   4.618   0.186   1.323  0.6911 -0.3751 -0.2385
 6937SOL    HW132273   4.694   0.243   1.311  0.3739  0.1673  0.3436
 6937SOL    HW232274   4.565   0.254   1.365 -1.6305 -1.4068 -1.4931
 6938SOL     OW32275   4.187   0.680   8.796 -0.1513  0.1288 -0.1425
 6938SOL    HW132276   4.182   0.605   8.737 -4.1987 -0.0670  0.4417
 6938SOL    HW232277   4.214   0.743   8.730  0.7165  1.0909  1.1453
 6939SOL     OW32278   0.906   3.509   0.534 -0.4075 -0.2330 -0.1826
 6939SOL    HW132279   0.819   3.491   0.570 -0.1709 -1.3815 -0.1736
 6939SOL    HW232280   0.926   3.417   0.516  1.7260  0.4866 -1.5214
 6940SOL     OW32281   2.473   2.954   3.736  0.0246 -0.4728 -0.3672
 6940SOL    HW132282   2.459   2.900   3.813  1.7962  0.0212  0.3145
 6940SOL    HW232283   2.405   2.922   3.677  0.3922 -0.5256 -0.7624
 6941SOL     OW32284   0.099   1.050   3.110 -0.4158 -0.3189  0.2478
 6941SOL    HW132285   0.171   0.988   3.125 -0.9552 -1.0487 -0.1744
 6941SOL    HW232286   0.151   1.128   3.092  1.4477 -1.1366  2.0102
 6942SOL     OW32287   2.893   3.709   1.542  0.1805 -0.1160 -0.6031
 6942SOL    HW132288   2.823   3.651   1.512  0.3101 -1.3913  1.6056
 6942SOL    HW232289   2.977   3.662   1.539  0.0909 -0.2906 -0.3374
 6943SOL     OW32290   2.781   3.831   3.211 -0.4056 -0.4034 -0.3780
 6943SOL    HW132291   2.737   3.813   3.128 -0.8695  1.7639 -0.5935
 6943SOL    HW232292   2.700   3.851   3.258 -0.2520 -3.0795  1.0299
 6944SOL     OW32293   3.422   2.613   1.546  0.2658 -0.4355 -0.2864
 6944SOL    HW132294   3.455   2.693   1.505  0.0958  0.1742  0.7545
 6944SOL    HW232295   3.329   2.603   1.526  0.8507 -1.0878 -2.7088
 6945SOL     OW32296   4.517   2.429   2.261 -0.5359 -0.1707 -0.9518
 6945SOL    HW132297   4.482   2.479   2.187  0.1752  1.0473 -0.4600
 6945SOL    HW232298   4.607   2.428   2.229 -0.4111 -4.0118 -0.3927
 6946SOL     OW32299   0.718   3.616   8.429 -0.7180 -0.0104  0.4172
 6946SOL    HW132300   0.713   3.532   8.475 -1.0689 -0.1773  0.0633
 6946SOL    HW232301   0.656   3.674   8.474 -0.7241 -0.5099  1.0502
 6947SOL     OW32302   2.959   0.108   4.317  0.1654  0.3748  0.4239
 6947SOL    HW132303   2.952   0.051   4.240 -0.5554 -1.7953  2.0889
 6947SOL    HW232304   2.934   0.054   4.392 -0.6392 -0.5876 -0.5296
 6948SOL     OW32305   3.612   0.112   0.601  0.5355  0.4953 -0.1157
 6948SOL    HW132306   3.564   0.134   0.521  0.0521  0.1895  0.0901
 6948SOL    HW232307   3.697   0.152   0.583 -0.0431  2.5520  1.7357
 6949SOL     OW32308   2.234   3.392  14.284 -0.0196 -0.3705 -0.3078
 6949SOL    HW132309   2.174   3.339  14.233  0.8731 -0.5212 -1.1965
 6949SOL    HW232310   2.300   3.422  14.221  1.0271 -2.1270 -0.0493
 6950SOL     OW32311   4.438   0.653   6.202  0.1352  0.0886  0.5642
 6950SOL    HW132312   4.426   0.598   6.124  2.0078  2.3850 -1.3472
 6950SOL    HW232313   4.520   0.698   6.186  0.7512 -1.4253 -0.5795
 6951SOL     OW32314   2.972   3.769   9.324  0.1365  0.0081  0.3803
 6951SOL    HW132315   2.894   3.775   9.379  0.6009 -0.3300  1.0810
 6951SOL    HW232316   3.051   3.746   9.374  0.4288  1.2236  0.4804
 6952SOL     OW32317   2.918   3.735   5.818  0.3781 -0.1001  0.0183
 6952SOL    HW132318   2.905   3.669   5.886 -0.9022  0.0312 -0.0906
 6952SOL    HW232319   2.955   3.804   5.873  0.0111  2.0621 -2.4453
 6953SOL     OW32320   2.208   2.964   5.417  0.0463 -0.0088 -0.4359
 6953SOL    HW132321   2.276   2.897   5.427  0.6407  0.0993 -3.7842
 6953SOL    HW232322   2.136   2.924   5.466 -0.8892 -0.6205 -2.3132
 6954SOL     OW32323   2.733   0.694   1.178 -0.3328 -0.2676  0.5630
 6954SOL    HW132324   2.766   0.609   1.207  0.8268  0.1374  0.4578
 6954SOL    HW232325   2.708   0.657   1.094  1.9963 -1.4330  0.3861
 6955SOL     OW32326   1.458   2.785   2.232  0.3317  0.2536  0.3829
 6955SOL    HW132327   1.363   2.779   2.235  0.3666 -0.2419  0.4488
 6955SOL    HW232328   1.471   2.838   2.153 -0.8924 -0.2901 -0.1737
 6956SOL     OW32329   2.562   2.399   6.924  0.0670 -0.0080 -0.3310
 6956SOL    HW132330   2.588   2.453   6.998 -0.6027 -2.3137  1.6260
 6956SOL    HW232331   2.466   2.404   6.926  0.1411  1.9622 -2.9775
 6957SOL     OW32332   1.704   2.292   8.114 -0.0252 -0.2385 -0.5328
 6957SOL    HW132333   1.722   2.302   8.020  3.9581  0.8525  0.3583
 6957SOL    HW232334   1.612   2.268   8.121  0.5982 -1.4460  3.4952
 6958SOL     OW32335   1.387   4.235   9.188 -0.7092 -0.2380 -0.0350
 6958SOL    HW132336   1.311   4.272   9.234 -1.0676  1.0473 -1.6710
 6958SOL    HW232337   1.375   4.266   9.098  0.1749 -3.3867 -1.2463
 6959SOL     OW32338   0.963   0.273  15.810  0.5066 -0.0750 -0.2703
 6959SOL    HW132339   0.915   0.192  15.830 -0.6768  1.1482  1.7847
 6959SOL    HW232340   1.053   0.240  15.819 -0.5208 -3.0430 -0.9080
 6960SOL     OW32341   1.098   0.545   4.413 -0.0607  0.2075  0.1138
 6960SOL    HW132342   1.145   0.461   4.414 -0.3095  0.0703  0.3313
 6960SOL    HW232343   1.146   0.588   4.342 -0.4207 -0.5514 -0.5932
 6961SOL     OW32344   1.389   3.349   9.384 -0.0585 -0.3179  0.4653
 6961SOL    HW132345   1.441   3.400   9.447  1.6415  1.2494 -2.2125
 6961SOL    HW232346   1.385   3.398   9.302  1.9285  2.1845  1.8674
 6962SOL     OW32347   4.409   1.297  12.020 -0.2978  0.6905 -0.1673
 6962SOL    HW132348   4.410   1.369  12.083  0.8871  0.5738 -0.0552
 6962SOL    HW232349   4.484   1.319  11.964 -0.8055  2.2957 -0.2182
 6963SOL     OW32350   2.588   3.368   0.601  0.5191 -0.0354  0.3506
 6963SOL    HW132351   2.560   3.451   0.562  0.8264 -0.2724 -0.3753
 6963SOL    HW232352   2.672   3.355   0.557  0.5715 -1.3335  0.8473
 6964SOL     OW32353   1.675   3.288   6.049 -0.7462  0.2380 -0.5279
 6964SOL    HW132354   1.618   3.232   6.101 -0.1101  0.3016  0.2368
 6964SOL    HW232355   1.724   3.221   6.001 -0.8171  0.3137 -0.7036
 6965SOL     OW32356   4.461   0.835  12.328  0.0627 -0.2862  0.0024
 6965SOL    HW132357   4.409   0.816  12.250  1.3799  3.7641 -1.8496
 6965SOL    HW232358   4.466   0.752  12.375  2.3289 -1.7590 -2.8084
 6966SOL     OW32359   1.017   1.458  16.780 -0.0418  0.3976  0.0819
 6966SOL    HW132360   1.083   1.489  16.842  0.5983  1.3708 -1.0888
 6966SOL    HW232361   0.997   1.542  16.739 -2.4396 -0.4050 -0.3916
 6967SOL     OW32362   1.344   0.640  12.162  0.1808  0.0992  0.2077
 6967SOL    HW132363   1.349   0.572  12.230  3.0063 -0.9235 -0.9758
 6967SOL    HW232364   1.417   0.698  12.185  0.0933 -0.6548  2.4462
 6968SOL     OW32365   2.307   1.775   5.151 -0.7086 -0.0994 -0.2608
 6968SOL    HW132366   2.227   1.793   5.200  1.8450  0.9292  3.4593
 6968SOL    HW232367   2.289   1.696   5.099 -1.9851  0.5025 -0.7495
 6969SOL     OW32368   2.162   4.168  16.832  0.7082  0.0278  0.5926
 6969SOL    HW132369   2.092   4.105  16.851  1.0459 -1.0276 -1.5797
 6969SOL    HW232370   2.235   4.123  16.875  0.9744 -0.6305 -0.5499
 6970SOL     OW32371   3.460   1.547   8.155 -0.6396 -0.2236  0.6247
 6970SOL    HW132372   3.391   1.513   8.212 -0.5155 -2.0379 -0.2869
 6970SOL    HW232373   3.497   1.469   8.113 -0.9611 -0.7274  1.2753
 6971SOL     OW32374   2.199   3.868   5.228 -0.3614 -0.3212 -0.3758
 6971SOL    HW132375   2.258   3.942   5.212 -0.5329  0.0752  0.8259
 6971SOL    HW232376   2.135   3.898   5.292  0.9493  2.8206 -0.5320
 6972SOL     OW32377   0.149   3.119   4.772  0.4063  0.0201 -0.3205
 6972SOL    HW132378   0.142   3.214   4.762 -1.3452  0.2050  2.3292
 6972SOL    HW232379   0.235   3.093   4.804 -0.5415 -2.6258  0.0762
 6973SOL     OW32380   3.956   0.167  16.623  0.5318  0.1430  0.1918
 6973SOL    HW132381   3.956   0.189  16.716 -0.0663 -0.6987  0.3875
 6973SOL    HW232382   3.863   0.165  16.601  0.2526  0.5025  1.3441
 6974SOL     OW32383   1.083   3.938   7.642  0.4227 -0.4001  0.5193
 6974SOL    HW132384   1.063   3.844   7.639  1.7057 -0.6967  1.1036
 6974SOL    HW232385   1.009   3.970   7.693  0.4704  1.1752 -0.3999
 6975SOL     OW32386   2.316   2.432   5.416  0.0553  0.1189  0.0172
 6975SOL    HW132387   2.409   2.442   5.395 -0.3828 -0.0314 -1.9671
 6975SOL    HW232388   2.316   2.369   5.489  0.1413  1.4207  1.1274
 6976SOL     OW32389   4.041   1.487   6.806  0.4858 -0.2146 -0.3770
 6976SOL    HW132390   3.977   1.445   6.748 -1.2920  2.7239 -0.5217
 6976SOL    HW232391   3.995   1.502   6.888  1.5127 -1.9875  0.5367
 6977SOL     OW32392   1.523   1.889   3.203  0.2779  0.0955  0.4024
 6977SOL    HW132393   1.612   1.919   3.218  0.6797 -0.5435 -0.7570
 6977SOL    HW232394   1.534   1.892   3.108  1.5936  2.0703  0.6266
 6978SOL     OW32395   1.052   1.838  10.570  0.2233 -0.6953 -0.2717
 6978SOL    HW132396   0.990   1.911  10.574  0.7177 -0.3655  1.4762
 6978SOL    HW232397   1.008   1.805  10.491  0.0068  0.7966 -0.7810
 6979SOL     OW32398   3.971   0.618   2.319  0.1913 -0.1055  0.1635
 6979SOL    HW132399   4.038   0.628   2.386 -0.7036 -0.8233  1.1547
 6979SOL    HW232400   3.951   0.525   2.311  1.8279 -0.3214 -1.4292
 6980SOL     OW32401   4.714   2.701   9.330  0.2609  0.3001 -0.1827
 6980SOL    HW132402   4.652   2.688   9.402 -1.6509 -0.2179 -1.9086
 6980SOL    HW232403   4.656   2.677   9.258 -0.0306  0.4444  0.0008
 6981SOL     OW32404   1.257   3.863   5.693  0.0606  0.2464  0.6974
 6981SOL    HW132405   1.180   3.827   5.649 -0.6714  1.0419  1.3204
 6981SOL    HW232406   1.230   3.855   5.785 -0.1408 -0.0162  0.6161
 6982SOL     OW32407   4.101   2.133   5.879 -0.0624 -0.4466 -0.2536
 6982SOL    HW132408   4.105   2.038   5.873 -1.3749 -0.5632  0.8452
 6982SOL    HW232409   4.185   2.154   5.836  0.1003  0.4152  0.4888
 6983SOL     OW32410   4.676   2.575   7.633  0.1137 -0.3971  0.0358
 6983SOL    HW132411   4.625   2.575   7.714 -1.7342 -1.7196 -1.1389
 6983SOL    HW232412   0.016   2.505   7.653  0.9198 -0.0086 -1.1242
 6984SOL     OW32413   3.163   0.073  17.693 -0.0646 -0.4390 -0.0802
 6984SOL    HW132414   3.090   0.127   0.030  0.4037  0.1766 -0.0499
 6984SOL    HW232415   3.154   0.067  17.597 -0.5176  0.0620 -0.0713
 6985SOL     OW32416   2.432   3.135   4.292  0.3470 -0.0566 -0.1248
 6985SOL    HW132417   2.508   3.183   4.259  0.8278 -1.4746 -1.0629
 6985SOL    HW232418   2.404   3.199   4.357  1.6319  1.4079 -0.9859
 6986SOL     OW32419   2.549   0.912   6.909  0.8732 -0.0629 -0.3665
 6986SOL    HW132420   2.462   0.920   6.869  0.2300  0.4086  1.1248
 6986SOL    HW232421   2.571   1.004   6.900 -0.0795  0.1826 -0.2414
 6987SOL     OW32422   3.974   1.091   5.479  0.4859  0.5983  0.0443
 6987SOL    HW132423   4.016   1.016   5.521  0.6824  0.6621 -0.0383
 6987SOL    HW232424   3.886   1.089   5.517  0.3382  0.2357 -0.3140
 6988SOL     OW32425   0.267   1.049   7.813  0.2108 -0.4625 -0.2440
 6988SOL    HW132426   0.266   1.013   7.902 -3.2999 -0.2570 -0.1946
 6988SOL    HW232427   0.226   1.134   7.824  0.6855 -0.2316 -0.2888
 6989SOL     OW32428   0.754   2.072   4.153 -0.2116  0.0647  0.0578
 6989SOL    HW132429   0.777   2.017   4.078  1.1789 -0.5424  0.9242
 6989SOL    HW232430   0.659   2.071   4.159 -0.2613  0.7338 -0.5470
 6990SOL     OW32431   4.317   4.620   9.802  0.3886 -0.1662  0.2437
 6990SOL    HW132432   4.259   4.603   9.876 -0.9351  2.7485 -0.1382
 6990SOL    HW232433   4.395   4.569   9.826  0.3035 -0.9158 -1.0235
 6991SOL     OW32434   1.153   0.595  14.632 -0.1627  0.4326  0.2935
 6991SOL    HW132435   1.143   0.623  14.541 -1.3489  0.7158  0.5130
 6991SOL    HW232436   1.213   0.658  14.672 -1.4475  0.9246  1.4485
 6992SOL     OW32437   0.940   4.021   4.076 -1.0579 -0.2154 -0.0681
 6992SOL    HW132438   0.951   4.113   4.055 -1.8713  0.0198  0.5336
 6992SOL    HW232439   0.955   3.982   3.990  2.5007 -0.5289  0.7155
 6993SOL     OW32440   2.096   2.302   7.347 -0.0691  0.0747  0.1224
 6993SOL    HW132441   2.101   2.251   7.428  0.9063 -1.0685 -0.6560
 6993SOL    HW232442   2.185   2.286   7.315  0.3074  1.3268  0.5540
 6994SOL     OW32443   0.244   4.116   7.771  0.2891  0.0985 -0.1312
 6994SOL    HW132444   0.203   4.196   7.805 -0.5579  0.0615 -1.0616
 6994SOL    HW232445   0.180   4.085   7.707  0.7042 -0.1703 -0.4143
 6995SOL     OW32446   3.230   0.642   8.614 -0.2606  0.2627  0.9265
 6995SOL    HW132447   3.312   0.661   8.568 -0.3759  0.7175  0.9100
 6995SOL    HW232448   3.201   0.730   8.638 -1.7743 -0.1673  0.6434
 6996SOL     OW32449   1.391   4.337   8.406  0.1174  0.4445  0.1275
 6996SOL    HW132450   1.406   4.429   8.384  0.9598  0.1957 -0.3420
 6996SOL    HW232451   1.312   4.325   8.353 -0.1332  2.4981  0.0392
 6997SOL     OW32452   4.551   0.496   1.356 -0.0097  0.0789  0.3983
 6997SOL    HW132453   4.603   0.483   1.436 -0.1114 -1.9917  0.1147
 6997SOL    HW232454   4.594   0.570   1.312 -0.4032 -0.9990 -1.7709
 6998SOL     OW32455   4.040   2.997   1.663  0.3237  0.3253 -0.2004
 6998SOL    HW132456   4.047   2.903   1.682  1.5726  0.2109 -1.1991
 6998SOL    HW232457   4.080   2.994   1.576 -1.8567 -0.5518 -1.1748
 6999SOL     OW32458   2.041   0.477  13.013  0.5483  0.3763 -0.2061
 6999SOL    HW132459   1.964   0.460  13.066 -0.2936  2.0396 -0.9011
 6999SOL    HW232460   2.037   0.572  13.001 -1.6079  0.2861 -0.2489
 7000SOL     OW32461   1.260   3.619   2.420 -0.2310 -0.0285  0.3737
 7000SOL    HW132462   1.191   3.581   2.365  1.1204  0.9938 -2.0097
 7000SOL    HW232463   1.332   3.628   2.358 -1.2142  1.0204 -0.6163
 7001SOL     OW32464   1.030   0.843   4.443 -0.2893 -0.5380  0.3051
 7001SOL    HW132465   1.101   0.886   4.490  0.6399 -2.9985  1.1775
 7001SOL    HW232466   1.067   0.754   4.436 -0.8460 -0.5416 -2.4636
 7002SOL     OW32467   0.681   4.211  16.959 -0.4215  0.0182 -0.6865
 7002SOL    HW132468   0.642   4.144  16.903 -1.3680  0.6766 -0.7936
 7002SOL    HW232469   0.746   4.154  17.003 -0.5707  1.3319  1.2321
 7003SOL     OW32470   0.482   1.863   2.690  0.1339  0.0389 -0.4675
 7003SOL    HW132471   0.459   1.881   2.598  2.4720 -0.0423 -1.0622
 7003SOL    HW232472   0.493   1.950   2.728 -0.3793 -1.1593  2.4228
 7004SOL     OW32473   3.305   1.784   2.577  0.0573  0.3481 -0.3382
 7004SOL    HW132474   3.395   1.770   2.547  0.0084  1.0747 -0.8324
 7004SOL    HW232475   3.261   1.758   2.496  0.4898 -1.1434 -0.0976
 7005SOL     OW32476   2.926   2.510   3.926 -0.0571  0.8240  0.5248
 7005SOL    HW132477   2.966   2.592   3.896 -0.2091  1.3001  1.6175
 7005SOL    HW232478   2.978   2.450   3.872  0.4462  0.4274  1.4489
 7006SOL     OW32479   2.086   3.293   7.084 -0.1661 -0.7156 -0.1497
 7006SOL    HW132480   2.039   3.368   7.049  0.5012 -0.4757 -0.5182
 7006SOL    HW232481   2.025   3.225   7.055 -1.1711 -0.7408  1.9873
 7007SOL     OW32482   1.953   4.651   7.967  0.5178 -0.4654 -0.1647
 7007SOL    HW132483   2.024   4.652   8.030 -0.1337  0.1823  0.5693
 7007SOL    HW232484   1.993   4.709   7.901  0.2822  0.1944  0.2680
 7008SOL     OW32485   0.964   4.034  11.059 -0.2988  0.3226  0.0354
 7008SOL    HW132486   1.052   3.997  11.050  0.3028  1.7416 -0.0335
 7008SOL    HW232487   0.963   4.072  11.148  0.4641  0.6595 -0.0942
 7009SOL     OW32488   0.284   2.336  16.142  0.1185 -0.0600 -0.9046
 7009SOL    HW132489   0.354   2.303  16.084 -0.0149  1.7249 -2.0817
 7009SOL    HW232490   0.252   2.403  16.081 -0.4754 -0.2820 -0.8372
 7010SOL     OW32491   3.449   3.956   6.974  0.3619 -0.0666 -0.4731
 7010SOL    HW132492   3.493   3.986   6.894  1.9904 -3.2536 -0.7651
 7010SOL    HW232493   3.359   3.984   6.957  0.1848  0.4223  1.3196
 7011SOL     OW32494   0.465   4.623   5.833 -0.1501 -0.2153 -0.0870
 7011SOL    HW132495   0.488   4.694   5.773  0.4067  1.0905  1.6695
 7011SOL    HW232496   0.417   4.567   5.772  0.4458 -1.0578  0.2082
 7012SOL     OW32497   0.778   1.350   4.754  0.0236  0.1060  0.2565
 7012SOL    HW132498   0.685   1.363   4.772  0.0586 -1.0080  1.2164
 7012SOL    HW232499   0.791   1.293   4.678 -2.7450 -0.8287  0.5088
 7013SOL     OW32500   3.831   4.575   1.487  0.0295 -0.4374 -0.7142
 7013SOL    HW132501   3.780   4.502   1.452 -0.1975 -0.1178 -1.0438
 7013SOL    HW232502   3.852   4.626   1.409 -1.0641  2.2379  0.7363
 7014SOL     OW32503   1.199   2.267   4.375  0.0216 -0.3406 -0.3934
 7014SOL    HW132504   1.211   2.216   4.455 -4.3471  0.8672  1.0420
 7014SOL    HW232505   1.182   2.199   4.310 -1.4998  0.4990 -0.8910
 7015SOL     OW32506   2.615   3.408   5.124  0.4179 -0.6501 -0.6855
 7015SOL    HW132507   2.638   3.477   5.185 -3.1282 -0.4629  0.4398
 7015SOL    HW232508   2.590   3.332   5.177  0.4261  1.0062  1.6905
 7016SOL     OW32509   3.024   2.164   4.049 -0.5906  0.0141 -0.2183
 7016SOL    HW132510   3.020   2.204   3.962 -1.6741 -1.4166 -0.8212
 7016SOL    HW232511   2.985   2.077   4.046  1.2990 -0.7988 -0.8812
 7017SOL     OW32512   3.617   2.173   3.565 -0.2071 -0.4285 -0.5943
 7017SOL    HW132513   3.674   2.161   3.489  1.0689  3.0246 -0.1741
 7017SOL    HW232514   3.539   2.212   3.526  1.1933  0.4920 -2.4829
 7018SOL     OW32515   1.503   4.083  12.224 -0.0161 -0.1312 -0.0461
 7018SOL    HW132516   1.513   4.134  12.304 -0.0684 -2.8024  1.6742
 7018SOL    HW232517   1.410   4.098  12.204  0.1125  0.6606 -0.0192
 7019SOL     OW32518   4.032   2.912  16.293  0.1707  0.2729 -0.0978
 7019SOL    HW132519   3.963   2.852  16.267 -2.4691  2.8673  0.8885
 7019SOL    HW232520   3.989   2.990  16.257  1.0308  0.9997  0.4325
 7020SOL     OW32521   3.062   2.576   4.167 -0.1469  0.2932 -0.1152
 7020SOL    HW132522   2.996   2.637   4.200 -1.6448 -0.9539 -0.8007
 7020SOL    HW232523   3.044   2.563   4.074  0.8652 -0.9824 -0.1438
 7021SOL     OW32524   2.683   2.216   5.058 -0.5692 -0.0259  0.2255
 7021SOL    HW132525   2.749   2.282   5.078  0.4416 -0.7754 -0.6063
 7021SOL    HW232526   2.673   2.245   4.968 -2.0308 -1.0830  0.0368
 7022SOL     OW32527   4.708   0.174  12.674 -0.3188 -0.1328  0.9271
 7022SOL    HW132528   0.039   0.096  12.687  1.7824  1.3352  0.9700
 7022SOL    HW232529   0.028   0.238  12.731 -0.3667  0.9921 -0.3063
 7023SOL     OW32530   1.290   3.950   9.364  0.4120 -0.6500  0.5549
 7023SOL    HW132531   1.205   3.913   9.387  0.1110 -0.9282 -1.0068
 7023SOL    HW232532   1.303   4.012   9.436 -1.2557 -3.5635  3.3648
 7024SOL     OW32533   4.506   0.234  17.523 -0.0832  0.1845  0.0522
 7024SOL    HW132534   4.433   0.174  17.511 -0.4164  1.0471 -2.0953
 7024SOL    HW232535   4.558   0.219  17.444  0.4289 -0.6175  0.5386
 7025SOL     OW32536   0.420   1.081   5.890  0.6591  0.0529 -0.2814
 7025SOL    HW132537   0.348   1.023   5.915  0.1527  1.2558  1.0424
 7025SOL    HW232538   0.418   1.066   5.795  2.1546 -0.1560 -0.2784
 7026SOL     OW32539   2.378   0.644  17.073  0.3492  0.4417 -0.1336
 7026SOL    HW132540   2.355   0.730  17.037  0.5410  0.7204  0.3964
 7026SOL    HW232541   2.289   0.621  17.099  0.4583  1.1787  0.9200
 7027SOL     OW32542   0.504   0.813   1.347  0.3591 -0.2752 -0.2774
 7027SOL    HW132543   0.409   0.800   1.351  0.4676 -0.5513  1.7085
 7027SOL    HW232544   0.537   0.734   1.389  1.8531 -0.3544 -1.6383
 7028SOL     OW32545   1.877   0.362   5.493 -0.4881  0.1804 -0.2602
 7028SOL    HW132546   1.948   0.333   5.550  0.6632  1.8434 -0.8489
 7028SOL    HW232547   1.806   0.308   5.528 -0.7198 -0.5337 -1.8276
 7029SOL     OW32548   3.102   1.947  15.840  0.4410  0.1114  0.1519
 7029SOL    HW132549   3.082   2.038  15.819  0.1005  0.0633  0.2561
 7029SOL    HW232550   3.196   1.949  15.857  0.7293 -2.2642 -1.2027
 7030SOL     OW32551   3.439   3.494   8.344  0.1151  0.0262  0.2599
 7030SOL    HW132552   3.519   3.512   8.394  0.3295 -0.4907  0.1044
 7030SOL    HW232553   3.381   3.476   8.418  0.5381  1.3949  0.9317
 7031SOL     OW32554   3.142   3.839  15.263  0.0637  0.1865  0.0275
 7031SOL    HW132555   3.063   3.800  15.225  1.2901 -1.1752 -1.1072
 7031SOL    HW232556   3.194   3.827  15.184 -1.6140 -1.4340 -0.8357
 7032SOL     OW32557   2.132   1.145   7.519 -0.1290 -0.5417  0.3869
 7032SOL    HW132558   2.066   1.155   7.449  0.8918  1.4244 -0.2947
 7032SOL    HW232559   2.086   1.174   7.598 -0.7148 -1.8173  0.5175
 7033SOL     OW32560   2.642   2.424   3.986 -0.2126  0.5785  0.9255
 7033SOL    HW132561   2.730   2.452   3.960  0.6919 -1.0004  2.2991
 7033SOL    HW232562   2.654   2.394   4.076 -0.3539  1.1533  1.1391
 7034SOL     OW32563   2.394   1.293   7.466 -0.4643  0.4633 -0.5090
 7034SOL    HW132564   2.435   1.252   7.390  0.1570 -2.0927  1.2123
 7034SOL    HW232565   2.324   1.227   7.464 -2.2818  2.3473  0.6747
 7035SOL     OW32566   1.340   1.231   8.181 -0.2998 -0.2392 -0.1788
 7035SOL    HW132567   1.351   1.326   8.179  0.7826 -0.3549  0.4317
 7035SOL    HW232568   1.252   1.212   8.214 -0.4554  3.5091  1.5539
 7036SOL     OW32569   0.951   2.989  11.963 -0.9426 -0.2526 -0.5870
 7036SOL    HW132570   0.960   2.981  11.868  0.3978 -0.0091 -0.4892
 7036SOL    HW232571   0.929   2.897  11.975  1.0402 -0.6213  0.3054
 7037SOL     OW32572   1.107   0.886  17.338 -0.1302  0.4580 -0.1114
 7037SOL    HW132573   1.089   0.870  17.245 -0.7339  1.8451 -0.2260
 7037SOL    HW232574   1.030   0.875  17.394  0.4969 -2.1256  0.2497
 7038SOL     OW32575   3.519   3.430   4.187  0.6155  0.3442  0.0656
 7038SOL    HW132576   3.520   3.395   4.097 -1.2204  0.3996  0.0334
 7038SOL    HW232577   3.475   3.360   4.234  0.8328  1.1143  1.4158
 7039SOL     OW32578   2.462   1.597   6.685 -0.8123  0.4667  0.5343
 7039SOL    HW132579   2.482   1.595   6.779  0.3280 -1.4751  0.2498
 7039SOL    HW232580   2.522   1.667   6.660 -0.4563  0.7104  2.0645
 7040SOL     OW32581   4.083   4.193   5.844  0.1818 -0.0671  0.0775
 7040SOL    HW132582   4.045   4.106   5.852 -0.3011  0.1700  0.4533
 7040SOL    HW232583   4.008   4.249   5.866  1.2844  1.4905 -0.0695
 7041SOL     OW32584   1.087   0.805   5.245 -0.3806  0.7907 -0.0075
 7041SOL    HW132585   1.089   0.709   5.252 -0.9856  0.7016 -1.0735
 7041SOL    HW232586   1.164   0.819   5.190 -0.0741 -1.2002 -0.1051
 7042SOL     OW32587   2.777   2.345   5.452 -0.1346  0.5722 -0.2704
 7042SOL    HW132588   2.794   2.285   5.526 -0.4021 -0.7525 -1.2826
 7042SOL    HW232589   2.859   2.345   5.404 -0.5203 -1.1518 -0.9505
 7043SOL     OW32590   0.775   1.989  16.284 -0.1514  0.4928 -0.3939
 7043SOL    HW132591   0.701   1.974  16.226  0.9236 -1.1489 -1.3327
 7043SOL    HW232592   0.855   1.953  16.245  0.4074  2.3875 -1.0070
 7044SOL     OW32593   2.053   1.629   0.587 -0.2330 -0.6205  0.5765
 7044SOL    HW132594   2.137   1.653   0.548 -0.4520 -0.3790  0.2556
 7044SOL    HW232595   1.999   1.707   0.582 -0.3161 -0.7367 -0.3526
 7045SOL     OW32596   2.880   2.029   8.635  0.3332 -1.0233 -0.7587
 7045SOL    HW132597   2.888   1.985   8.720 -0.2335 -0.2791 -0.3121
 7045SOL    HW232598   2.871   1.946   8.589 -0.3905 -1.4726  0.1902
 7046SOL     OW32599   4.256   1.329   8.751 -0.7918 -0.8066  0.5877
 7046SOL    HW132600   4.230   1.300   8.838  1.6382 -0.8772  1.2885
 7046SOL    HW232601   4.200   1.270   8.701 -0.9731 -1.0798  1.1100
 7047SOL     OW32602   1.033   3.431   2.780 -0.5943 -0.3146  0.1548
 7047SOL    HW132603   1.041   3.456   2.872 -3.8482 -0.2637  0.4412
 7047SOL    HW232604   1.003   3.518   2.752  0.3033  0.4735  1.6593
 7048SOL     OW32605   1.871   3.323   1.698 -0.1757  0.6223 -0.2283
 7048SOL    HW132606   1.920   3.295   1.621  0.0831  1.9071 -0.5268
 7048SOL    HW232607   1.783   3.294   1.671  0.3856 -0.6071 -0.7409
 7049SOL     OW32608   4.161   3.327  13.423  0.4887  0.7179  0.6964
 7049SOL    HW132609   4.162   3.232  13.411 -0.6897  1.0851 -2.2011
 7049SOL    HW232610   4.144   3.357  13.334  0.3277  1.5405  1.0092
 7050SOL     OW32611   3.195   1.003   7.803  0.5169 -0.3991  0.1339
 7050SOL    HW132612   3.133   0.972   7.869  2.1731 -2.5176  0.7009
 7050SOL    HW232613   3.215   0.919   7.762 -1.6741 -0.8974  0.1275
 7051SOL     OW32614   2.038   3.580   3.699 -0.2091  0.0896  0.4976
 7051SOL    HW132615   2.103   3.558   3.633 -0.1695 -0.8177  0.8302
 7051SOL    HW232616   1.977   3.508   3.679 -0.4445  0.3505  0.2801
 7052SOL     OW32617   1.152   4.715   8.374 -0.2045 -0.1920 -0.3271
 7052SOL    HW132618   1.125   4.673   8.293  0.1077 -0.9775 -0.0269
 7052SOL    HW232619   1.162   0.083   8.346  0.8984 -0.3073 -0.3318
 7053SOL     OW32620   3.583   4.210   3.118  0.3594  0.7817  0.4533
 7053SOL    HW132621   3.608   4.301   3.101 -1.0246  0.8109 -1.4225
 7053SOL    HW232622   3.525   4.221   3.193 -0.0168 -0.8397  0.3836
 7054SOL     OW32623   4.506   1.949   4.317 -0.0400  0.7333 -0.4565
 7054SOL    HW132624   4.510   2.020   4.254  1.2935  2.5380  1.6561
 7054SOL    HW232625   4.601   1.948   4.330 -0.5742  0.3572  3.3912
 7055SOL     OW32626   0.832   0.186   3.959 -0.4237  0.1965  0.1913
 7055SOL    HW132627   0.909   0.138   3.928  0.0385  0.6175  0.7058
 7055SOL    HW232628   0.788   0.114   4.005  0.9244 -1.4159 -1.0034
 7056SOL     OW32629   4.717   3.071   5.579  0.2194  0.1346 -0.6835
 7056SOL    HW132630   4.674   3.109   5.656 -0.6604  2.5635 -2.3678
 7056SOL    HW232631   4.684   2.981   5.574 -0.8191  0.4523  0.2934
 7057SOL     OW32632   3.765   1.606   1.359  0.0695  0.4501  0.0004
 7057SOL    HW132633   3.841   1.664   1.370  1.1520 -0.7992 -0.8818
 7057SOL    HW232634   3.803   1.527   1.322  2.7516  0.4412  2.7497
 7058SOL     OW32635   4.301   0.012   5.887 -0.2706  0.1397  0.6377
 7058SOL    HW132636   4.242   4.703   5.956 -1.3309  1.4522  0.3499
 7058SOL    HW232637   4.351   0.080   5.932  1.6915  0.6130 -2.2812
 7059SOL     OW32638   2.885   0.876  13.867  0.1394  0.4892 -0.4060
 7059SOL    HW132639   2.912   0.791  13.903 -0.6369  1.2925  2.0231
 7059SOL    HW232640   2.960   0.904  13.814  1.9638 -0.6346  1.5895
 7060SOL     OW32641   2.296   4.603   2.757  0.0562 -0.0378  0.2539
 7060SOL    HW132642   2.252   4.660   2.821 -1.3304 -0.6295 -0.1587
 7060SOL    HW232643   2.383   4.641   2.765  0.0390  0.9558 -3.9828
 7061SOL     OW32644   0.827   0.043  14.771  0.6370  0.7898 -0.1612
 7061SOL    HW132645   0.835   0.065  14.678  0.3721  0.1279 -0.3359
 7061SOL    HW232646   0.814   0.128  14.813 -0.7135  0.2124  0.5901
 7062SOL     OW32647   1.081   2.526   3.709  0.0982 -0.1959  0.1583
 7062SOL    HW132648   1.132   2.606   3.715  1.7736 -1.2907  0.4950
 7062SOL    HW232649   1.088   2.521   3.614  0.0916 -0.3531  0.1656
 7063SOL     OW32650   4.265   0.828   5.924 -0.1528 -0.4259  0.6114
 7063SOL    HW132651   4.358   0.828   5.946  0.2834 -0.1592 -1.2714
 7063SOL    HW232652   4.246   0.914   5.886  3.0292  0.5725  1.2632
 7064SOL     OW32653   0.956   3.394   8.561 -0.0176 -0.1700 -0.1995
 7064SOL    HW132654   1.009   3.470   8.538  0.2284  0.5798  2.8198
 7064SOL    HW232655   0.937   3.354   8.476 -1.4126 -0.7522  0.3903
 7065SOL     OW32656   3.661   2.421   1.573 -0.5128 -0.1571  0.2254
 7065SOL    HW132657   3.579   2.371   1.569 -0.0680 -0.6290 -2.7768
 7065SOL    HW232658   3.625   2.505   1.545  1.1768  1.2784  2.4052
 7066SOL     OW32659   3.813   1.709   8.511  0.2699 -0.1544 -0.2451
 7066SOL    HW132660   3.791   1.625   8.470  0.2704  0.3019 -1.1797
 7066SOL    HW232661   3.893   1.676   8.554 -0.4973 -0.6139  0.8380
 7067SOL     OW32662   2.567   2.977   9.085 -0.5931 -0.7390 -0.0493
 7067SOL    HW132663   2.614   3.033   9.023 -0.5907 -1.7937 -0.9937
 7067SOL    HW232664   2.523   3.039   9.144 -0.2811 -0.4027 -0.1710
 7068SOL     OW32665   2.311   2.009  17.097 -0.4753 -0.5357  0.5335
 7068SOL    HW132666   2.338   2.038  17.184  0.8231  1.5022 -0.5610
 7068SOL    HW232667   2.314   1.913  17.101  0.7215 -0.6171 -2.7277
 7069SOL     OW32668   0.326   2.775  17.386 -0.4619  0.3063  0.3486
 7069SOL    HW132669   0.412   2.776  17.428  0.1584 -1.2060 -0.8915
 7069SOL    HW232670   0.272   2.807  17.458 -1.8970  2.0463 -1.5098
 7070SOL     OW32671   2.568   2.490   5.533  0.1871 -0.0160 -0.5746
 7070SOL    HW132672   2.597   2.480   5.624 -1.2528 -0.6494 -0.1864
 7070SOL    HW232673   2.629   2.437   5.481 -0.5780 -1.3459 -0.1212
 7071SOL     OW32674   3.062   4.033  16.056 -0.5607  0.7054 -0.3354
 7071SOL    HW132675   3.002   4.104  16.081 -1.8733  0.0882 -1.7506
 7071SOL    HW232676   3.005   3.983  15.998  0.4932  0.8658 -1.5168
 7072SOL     OW32677   0.738   0.967   9.215  0.4023 -0.2023 -0.1287
 7072SOL    HW132678   0.727   1.032   9.284  0.4121  1.5750 -1.8058
 7072SOL    HW232679   0.830   0.942   9.224  0.8327  1.2159 -0.5703
 7073SOL     OW32680   1.427   1.741   8.367  0.4162  0.1365  0.0833
 7073SOL    HW132681   1.351   1.738   8.423 -0.5294  2.3056 -1.0889
 7073SOL    HW232682   1.467   1.657   8.388  0.5057 -0.2837 -1.7012
 7074SOL     OW32683   3.978   1.983   9.000 -0.2004 -0.3832  0.2778
 7074SOL    HW132684   3.952   1.930   8.925 -0.3909 -0.2401  0.2427
 7074SOL    HW232685   4.018   2.056   8.953 -0.7700  0.1789  0.6636
 7075SOL     OW32686   4.669   1.665  16.435 -0.0990  0.5260 -0.0613
 7075SOL    HW132687   4.574   1.651  16.431  0.2716 -2.1779  0.3322
 7075SOL    HW232688   4.694   1.600  16.369  0.6892  0.9040 -0.1242
 7076SOL     OW32689   4.149   2.946   1.409 -0.1280  0.5720 -0.0259
 7076SOL    HW132690   4.107   2.870   1.370  2.0995 -1.3742  1.4317
 7076SOL    HW232691   4.238   2.937   1.376 -0.1938 -0.4765  0.0957
 7077SOL     OW32692   3.797   3.350   6.010 -0.0683  0.1541  0.2036
 7077SOL    HW132693   3.713   3.309   5.987 -1.5878  1.5035  3.2579
 7077SOL    HW232694   3.770   3.379   6.097  0.7312 -1.9038  1.1239
 7078SOL     OW32695   1.529   3.093   2.692 -0.8026 -0.3027  0.1279
 7078SOL    HW132696   1.590   3.034   2.647 -0.1016 -0.5485  1.4048
 7078SOL    HW232697   1.539   3.171   2.639  0.2146 -1.1540 -0.9324
 7079SOL     OW32698   0.148   3.696   4.840  0.1941 -0.4501 -0.4509
 7079SOL    HW132699   0.164   3.602   4.848 -1.0364 -0.4930  1.3146
 7079SOL    HW232700   0.087   3.698   4.766  1.0968  0.8884 -1.1558
 7080SOL     OW32701   1.941   1.034   2.040 -0.1776 -0.4780  0.4314
 7080SOL    HW132702   1.887   0.984   1.978 -0.6282 -1.1460  1.3643
 7080SOL    HW232703   1.974   1.104   1.983  0.0374 -1.2697 -0.4189
 7081SOL     OW32704   0.222   3.214   6.736 -0.0215 -0.2516 -0.3357
 7081SOL    HW132705   0.204   3.150   6.668 -2.1222  1.8572 -1.7436
 7081SOL    HW232706   0.179   3.293   6.704 -0.2049 -1.0862 -2.1174
 7082SOL     OW32707   2.094   2.798  11.820 -0.0626 -0.0557 -0.0115
 7082SOL    HW132708   2.164   2.862  11.807 -0.2514  0.4623  1.5323
 7082SOL    HW232709   2.047   2.843  11.890 -1.3481 -2.6647  0.8130
 7083SOL     OW32710   0.092   2.910  13.188  0.2640  0.2889 -0.0098
 7083SOL    HW132711   0.137   2.875  13.111 -1.3758 -1.4774 -0.1749
 7083SOL    HW232712   0.000   2.887  13.173  0.4032  0.5101 -1.1779
 7084SOL     OW32713   3.968   2.901  11.268 -0.7538 -0.4130 -0.6684
 7084SOL    HW132714   3.917   2.893  11.349 -0.5181 -0.7105 -0.5494
 7084SOL    HW232715   3.910   2.946  11.207 -0.9122 -0.5772 -0.6389
 7085SOL     OW32716   3.657   2.015   2.605  0.1067 -0.3574 -0.2717
 7085SOL    HW132717   3.682   2.004   2.513 -0.5214 -1.6670 -0.2848
 7085SOL    HW232718   3.723   1.962   2.650 -0.1701  0.7362  1.4397
 7086SOL     OW32719   1.021   4.612   0.199  0.0884 -0.0555  0.5247
 7086SOL    HW132720   1.074   4.544   0.240  0.5500  0.5434  0.9386
 7086SOL    HW232721   1.044   4.694   0.245  1.9285 -0.3701  0.1729
 7087SOL     OW32722   1.718   0.017   7.519 -0.7445 -0.1658 -0.3976
 7087SOL    HW132723   1.662   0.061   7.583  0.2385 -1.4034  1.3041
 7087SOL    HW232724   1.798   0.068   7.514  0.3346 -1.8731 -0.5575
 7088SOL     OW32725   1.219   1.309   7.229 -0.5704  0.0047  0.2857
 7088SOL    HW132726   1.290   1.358   7.272 -1.2377  0.6159  0.6900
 7088SOL    HW232727   1.249   1.307   7.138 -0.0363  1.5838  0.4203
 7089SOL     OW32728   1.823   4.661  13.828 -0.1493  0.1062  0.5084
 7089SOL    HW132729   1.801   4.629  13.916 -2.8634 -0.0255 -0.2269
 7089SOL    HW232730   1.749   4.632  13.775  0.3132 -2.0380  1.0554
 7090SOL     OW32731   0.071   2.492  13.491  0.3393 -0.0232  0.2687
 7090SOL    HW132732   0.134   2.423  13.511 -1.1856 -1.6528 -0.5990
 7090SOL    HW232733   0.123   2.561  13.450 -0.0506 -0.8195 -1.5210
 7091SOL     OW32734   4.495   4.208   8.673  0.3100 -0.0539  0.3365
 7091SOL    HW132735   4.590   4.204   8.678  0.2953 -0.0691  0.5999
 7091SOL    HW232736   4.462   4.288   8.630 -1.0636 -0.4792  0.5943
 7092SOL     OW32737   3.988   1.383  13.276 -0.2387  0.3593  0.1814
 7092SOL    HW132738   3.995   1.429  13.193 -3.1885  2.1616  0.9343
 7092SOL    HW232739   3.937   1.309  13.243 -0.5177  0.2719  0.8121
 7093SOL     OW32740   1.537   0.653  14.241 -0.4633  0.2019  0.1202
 7093SOL    HW132741   1.579   0.724  14.193 -0.4147  0.9275  1.2437
 7093SOL    HW232742   1.579   0.572  14.211 -0.6330  0.8892 -2.0082
 7094SOL     OW32743   2.162   3.759   6.542 -0.4834 -0.5597 -0.1800
 7094SOL    HW132744   2.244   3.800   6.567  0.1550 -1.7292 -0.3235
 7094SOL    HW232745   2.146   3.693   6.609 -1.7187 -0.6898 -0.6025
 7095SOL     OW32746   2.689   0.630   3.319 -0.3580 -0.4043 -0.6455
 7095SOL    HW132747   2.631   0.558   3.346 -1.2243  1.1031  1.5642
 7095SOL    HW232748   2.750   0.634   3.392  1.0623  0.9640 -1.9266
 7096SOL     OW32749   4.681   2.135   9.760 -0.0328 -0.1424 -0.4557
 7096SOL    HW132750   4.646   2.219   9.728  0.3996  0.5152  0.8043
 7096SOL    HW232751   4.722   2.158   9.843  0.2751  2.3064 -1.2814
 7097SOL     OW32752   3.467   4.452   6.604 -0.0309 -0.2894  0.2727
 7097SOL    HW132753   3.406   4.462   6.530  0.9357 -0.8906 -0.6097
 7097SOL    HW232754   3.541   4.508   6.583 -0.8517  0.3134 -0.9999
 7098SOL     OW32755   3.940   0.776   8.566  0.2304  0.4526 -0.0709
 7098SOL    HW132756   4.035   0.785   8.555 -0.1524  2.9489 -1.3696
 7098SOL    HW232757   3.913   0.825   8.488 -3.3720 -1.0677  0.1926
 7099SOL     OW32758   2.820   0.684  12.911  0.2389 -0.0783  0.1857
 7099SOL    HW132759   2.766   0.640  12.846  1.3382 -3.9159  1.8472
 7099SOL    HW232760   2.844   0.612  12.969 -1.3649  1.9960  3.4846
 7100SOL     OW32761   4.585   3.257   4.552  0.1433  0.2141  0.4190
 7100SOL    HW132762   4.528   3.216   4.618 -2.3027  0.8481 -1.3419
 7100SOL    HW232763   4.539   3.340   4.540  0.6606  0.6539  1.4083
 7101SOL     OW32764   1.350   1.985   5.884  0.0961  0.4635  0.5380
 7101SOL    HW132765   1.375   2.061   5.936  0.4173  1.5019 -1.1480
 7101SOL    HW232766   1.341   2.029   5.799 -2.2348 -1.3971 -0.2117
 7102SOL     OW32767   3.168   2.295   4.895  0.2773  0.0626  0.1370
 7102SOL    HW132768   3.111   2.255   4.829  0.7334  1.6558 -1.2067
 7102SOL    HW232769   3.170   2.241   4.974  2.4448 -0.7545 -0.4724
 7103SOL     OW32770   0.756   3.016   2.783  0.4914 -0.3068  0.2295
 7103SOL    HW132771   0.801   3.090   2.743  0.9380 -2.2875 -2.9787
 7103SOL    HW232772   0.801   2.939   2.747 -0.0681  0.1133 -1.3369
 7104SOL     OW32773   1.318   3.380   6.109 -0.2414 -0.1189 -0.5541
 7104SOL    HW132774   1.296   3.304   6.055  2.0743 -0.3168 -1.1983
 7104SOL    HW232775   1.286   3.453   6.056  0.0829 -0.0073 -0.5965
 7105SOL     OW32776   4.431   3.095   8.162  0.2347 -0.0250 -0.0980
 7105SOL    HW132777   4.345   3.107   8.202 -0.7532  1.7724 -2.7486
 7105SOL    HW232778   4.406   3.144   8.083 -0.3794 -0.7387 -0.3497
 7106SOL     OW32779   3.469   3.488   7.191 -0.0785  0.3207 -0.7693
 7106SOL    HW132780   3.402   3.435   7.148  0.4135  1.5323 -3.0553
 7106SOL    HW232781   3.419   3.562   7.227  2.4663  1.0433  1.2766
 7107SOL     OW32782   2.889   4.185   5.993 -0.3069 -0.3685  0.2939
 7107SOL    HW132783   2.959   4.192   6.058 -0.6684 -1.4784  0.7929
 7107SOL    HW232784   2.821   4.245   6.024  1.9990  1.5438  1.6753
 7108SOL     OW32785   2.607   0.188   7.593  0.0066  0.2760 -0.2243
 7108SOL    HW132786   2.677   0.214   7.532  0.3978 -0.5831 -0.1446
 7108SOL    HW232787   2.663   0.128   7.643  1.9749  1.7979 -0.5787
 7109SOL     OW32788   2.415   4.058   1.903 -0.3094  0.9246  0.0484
 7109SOL    HW132789   2.469   4.095   1.833 -0.0322 -0.8640 -0.6844
 7109SOL    HW232790   2.335   4.057   1.851  1.0446  1.4528 -2.0477
 7110SOL     OW32791   0.034   0.205  12.390 -0.3123 -0.3717  0.2635
 7110SOL    HW132792   0.024   0.122  12.344  0.6013 -0.0714 -0.4704
 7110SOL    HW232793   0.006   0.176  12.477  0.5796 -3.1100 -0.3623
 7111SOL     OW32794   3.285   0.884   0.077 -0.1254  0.1387 -0.1334
 7111SOL    HW132795   3.380   0.881   0.090 -0.3394 -1.1528  1.1759
 7111SOL    HW232796   3.257   0.816   0.137  2.1838 -1.2731 -0.6640
 7112SOL     OW32797   0.144   0.709  12.072 -0.0714 -0.0806 -0.5352
 7112SOL    HW132798   0.104   0.650  12.136 -0.2023  1.4527  0.8089
 7112SOL    HW232799   0.069   0.765  12.050 -0.5078 -0.7368 -0.7119
 7113SOL     OW32800   0.133   2.240  16.356  0.6104  0.0990  0.4624
 7113SOL    HW132801   0.197   2.267  16.291  1.2890 -0.0444  1.0695
 7113SOL    HW232802   0.175   2.162  16.393  1.2842 -0.4734 -1.4811
 7114SOL     OW32803   2.338   4.001  14.540  0.1818 -0.2111 -0.0440
 7114SOL    HW132804   2.398   4.073  14.521  2.4488 -1.1879  3.3461
 7114SOL    HW232805   2.383   3.981  14.622 -2.1684  1.9143  1.7472
 7115SOL     OW32806   2.093   2.012  10.741  0.0825  0.2579 -0.2168
 7115SOL    HW132807   2.003   1.983  10.728 -0.4930  2.6095 -1.5023
 7115SOL    HW232808   2.081   2.106  10.728 -0.7024  0.2837  0.7776
 7116SOL     OW32809   4.533   3.228   7.461 -0.3647 -0.1775  0.0089
 7116SOL    HW132810   4.491   3.311   7.484 -0.3581 -0.2788  0.3828
 7116SOL    HW232811   4.587   3.211   7.538  0.1902  0.2356 -0.2879
 7117SOL     OW32812   3.774   1.068   7.349 -0.1173 -0.3921 -0.1278
 7117SOL    HW132813   3.851   1.019   7.377  0.7585  0.6912 -0.6012
 7117SOL    HW232814   3.699   1.010   7.356 -0.7460  0.3412 -0.7483
 7118SOL     OW32815   4.698   2.151   1.814 -0.3990  0.2110  0.2172
 7118SOL    HW132816   4.719   2.231   1.766  0.1015 -1.4160 -2.2685
 7118SOL    HW232817   4.605   2.137   1.798 -0.4249  1.2404 -0.5287
 7119SOL     OW32818   3.608   1.702   2.524  0.2810 -0.0235  0.1190
 7119SOL    HW132819   3.661   1.766   2.477  0.3034  1.4704  2.1370
 7119SOL    HW232820   3.654   1.688   2.607  2.3942  0.6695 -0.9575
 7120SOL     OW32821   3.231   1.303   7.109  0.8851 -0.0450 -0.3237
 7120SOL    HW132822   3.246   1.220   7.063 -3.1378 -0.4595 -0.9462
 7120SOL    HW232823   3.231   1.274   7.200 -0.5152 -0.0615 -0.3291
 7121SOL     OW32824   1.145   4.647   4.893  0.0660 -0.3459 -0.1609
 7121SOL    HW132825   1.182   4.594   4.964  1.5075  1.1335  0.2131
 7121SOL    HW232826   1.218   4.710   4.892 -0.4694  0.3059  1.0870
 7122SOL     OW32827   2.817   0.302   7.791  0.1000  0.2813  0.2112
 7122SOL    HW132828   2.723   0.292   7.798  0.2229 -1.5426 -0.8494
 7122SOL    HW232829   2.843   0.305   7.883 -0.3525 -2.5864  0.4522
 7123SOL     OW32830   0.456   2.638   5.678  0.7518 -0.0123  0.0801
 7123SOL    HW132831   0.448   2.733   5.685  1.8057  0.2375 -1.9787
 7123SOL    HW232832   0.365   2.613   5.690  0.7218 -0.2732 -0.7084
 7124SOL     OW32833   3.324   1.619   9.245 -0.3019 -0.9875  0.2110
 7124SOL    HW132834   3.308   1.713   9.235 -2.6950 -1.6583 -1.9375
 7124SOL    HW232835   3.338   1.605   9.152  0.1984  0.7756  0.0259
 7125SOL     OW32836   3.211   0.670  17.566 -0.3430 -0.1425 -0.0722
 7125SOL    HW132837   3.238   0.618  17.642  0.8476  0.1547 -0.3013
 7125SOL    HW232838   3.119   0.677  17.590 -0.9596 -3.3625 -1.3935
 7126SOL     OW32839   1.315   3.830   3.001 -0.1056  0.1977 -0.5115
 7126SOL    HW132840   1.342   3.888   3.073 -0.7061 -1.6294  1.1976
 7126SOL    HW232841   1.246   3.878   2.956 -1.3063  0.4559  1.5720
 7127SOL     OW32842   4.398   1.876   8.129 -0.2991  0.5209  0.3033
 7127SOL    HW132843   4.359   1.953   8.088  0.1426  0.4317 -0.2747
 7127SOL    HW232844   4.410   1.818   8.054 -0.0578 -0.3197  0.9932
 7128SOL     OW32845   0.145   0.374  17.649  0.4546  0.1089  0.4180
 7128SOL    HW132846   0.102   0.316   0.018  0.2588 -0.9959 -0.7473
 7128SOL    HW232847   0.088   0.450  17.658  1.9375  1.2638  0.1864
 7129SOL     OW32848   3.506   3.552   1.418 -0.0017  0.7715 -0.1874
 7129SOL    HW132849   3.560   3.556   1.339  1.1929 -0.4727  0.5611
 7129SOL    HW232850   3.562   3.606   1.475 -0.1767 -0.4333  1.1294
 7130SOL     OW32851   0.741   3.761  16.962 -0.4382 -0.4026 -0.1426
 7130SOL    HW132852   0.763   3.699  16.893 -0.7128 -2.0057  1.2231
 7130SOL    HW232853   0.698   3.708  17.029  0.0080 -1.5273 -0.7515
 7131SOL     OW32854   0.261   0.479   2.575  0.8208  0.6354  0.3264
 7131SOL    HW132855   0.342   0.483   2.626  1.3803 -1.4884 -0.3899
 7131SOL    HW232856   0.251   0.572   2.554  1.5922  0.8350  0.8243
 7132SOL     OW32857   0.335   4.556   8.771  0.5207  0.4688 -0.1005
 7132SOL    HW132858   0.398   4.537   8.841  0.3429 -1.5806 -0.4958
 7132SOL    HW232859   0.402   4.606   8.726  0.0400  0.1017 -1.2131
 7133SOL     OW32860   0.683   3.607   5.823  0.0330 -0.4204  0.0216
 7133SOL    HW132861   0.645   3.554   5.893 -2.6680  0.3228 -0.8725
 7133SOL    HW232862   0.678   3.551   5.745  1.0489  0.1042 -0.4184
 7134SOL     OW32863   3.219   0.843   1.411  0.4303  0.1855 -0.0190
 7134SOL    HW132864   3.252   0.899   1.480  1.2987 -0.0132 -0.2655
 7134SOL    HW232865   3.301   0.797   1.395  0.3252 -0.7774  2.2830
 7135SOL     OW32866   1.068   1.194   8.306  0.3860 -0.6951 -0.0953
 7135SOL    HW132867   1.123   1.222   8.380 -0.7458 -0.5636  0.7056
 7135SOL    HW232868   1.038   1.108   8.335 -0.6881 -1.3365 -3.1464
 7136SOL     OW32869   0.496   0.112   3.279  1.0272 -0.0452  0.3754
 7136SOL    HW132870   0.486   0.110   3.184 -0.6538  0.5147  0.5441
 7136SOL    HW232871   0.440   0.041   3.309  0.4946  0.4900  0.6626
 7137SOL     OW32872   0.115   3.271  15.133  0.4433 -0.0177 -0.6153
 7137SOL    HW132873   0.031   3.310  15.157  0.4726 -0.4852  0.2375
 7137SOL    HW232874   0.101   3.236  15.045 -1.6074 -0.5488 -0.0859
 7138SOL     OW32875   0.894   0.030   6.797  0.3095 -0.0382  0.4554
 7138SOL    HW132876   0.835   0.098   6.764 -1.8281 -1.6637  0.9078
 7138SOL    HW232877   0.880   0.041   6.891  3.9144  0.0135  0.9952
 7139SOL     OW32878   1.508   1.503   8.171  0.2947 -0.2684  0.3091
 7139SOL    HW132879   1.530   1.505   8.078  1.3126 -0.1137  0.5526
 7139SOL    HW232880   1.597   1.514   8.204  0.1760  0.9952  0.1870
 7140SOL     OW32881   2.581   4.073   4.833 -0.2490  0.6780 -0.0854
 7140SOL    HW132882   2.495   4.114   4.826 -0.1147  0.4864 -2.9706
 7140SOL    HW232883   2.568   3.990   4.879 -2.4560 -0.1241 -2.1647
 7141SOL     OW32884   1.545   1.873   2.930  0.4870 -0.2370  0.7193
 7141SOL    HW132885   1.509   1.917   2.853 -0.9963  0.5527  1.8594
 7141SOL    HW232886   1.585   1.792   2.900  0.8465  0.2501 -0.1213
 7142SOL     OW32887   4.649   2.093  17.389  0.3905 -0.0375 -0.3650
 7142SOL    HW132888   4.645   2.014  17.337  1.9814 -0.6571  0.4635
 7142SOL    HW232889   4.616   2.062  17.474  0.4008  1.8792  0.3600
 7143SOL     OW32890   3.794   0.624  12.062 -0.1797  0.0934  0.3728
 7143SOL    HW132891   3.879   0.581  12.049  0.0275  0.2792  1.1016
 7143SOL    HW232892   3.791   0.694  11.996 -1.4502 -1.1322 -0.8594
 7144SOL     OW32893   0.437   1.565   7.723 -0.4012 -0.2872 -0.2968
 7144SOL    HW132894   0.501   1.523   7.666  1.5500  1.8845  0.2636
 7144SOL    HW232895   0.473   1.654   7.720 -0.6802 -0.1044  1.3678
 7145SOL     OW32896   0.438   2.187   7.842  0.3028  0.3777 -0.0775
 7145SOL    HW132897   0.443   2.143   7.757 -0.6646  0.3641 -0.1309
 7145SOL    HW232898   0.381   2.127   7.889  2.4106 -1.1947  0.4894
 7146SOL     OW32899   1.664   1.259  13.163 -0.3839  0.4268  0.0808
 7146SOL    HW132900   1.690   1.181  13.113 -0.1325  0.7153 -0.2351
 7146SOL    HW232901   1.746   1.276  13.209 -0.1501 -1.1597  0.2602
 7147SOL     OW32902   4.114   0.087   5.393 -0.3009  0.6788 -0.2155
 7147SOL    HW132903   4.064   0.090   5.311  0.4209 -0.6425 -0.7044
 7147SOL    HW232904   4.201   0.080   5.353 -0.7094  1.4377 -1.2612
 7148SOL     OW32905   1.051   4.117   4.733  1.2395 -0.1477  0.5505
 7148SOL    HW132906   1.050   4.122   4.638 -2.3716  0.0075  0.5839
 7148SOL    HW232907   0.968   4.161   4.751  0.5708 -1.6022  1.1060
 7149SOL     OW32908   4.304   3.903   1.353  0.3896  0.0825  0.3471
 7149SOL    HW132909   4.321   3.815   1.319 -0.8866 -0.6782  1.6739
 7149SOL    HW232910   4.301   3.876   1.445  0.0039 -0.5556  0.1462
 7150SOL     OW32911   0.381   0.443  15.286  0.2438  0.4894 -0.3357
 7150SOL    HW132912   0.310   0.492  15.328  0.6897  1.2592 -0.4933
 7150SOL    HW232913   0.320   0.378  15.251 -1.3643  2.3357 -0.9862
 7151SOL     OW32914   3.587   2.261   7.641  0.2764 -0.2860  0.7388
 7151SOL    HW132915   3.639   2.258   7.560  2.1273  0.2563  1.9125
 7151SOL    HW232916   3.560   2.353   7.651  1.8283  0.3572 -0.9277
 7152SOL     OW32917   2.228   3.836   1.848 -0.0763  0.4558  0.0943
 7152SOL    HW132918   2.275   3.859   1.767 -0.2018 -0.5462 -0.2672
 7152SOL    HW232919   2.296   3.797   1.903  1.1976 -0.6349 -2.2189
 7153SOL     OW32920   2.473   3.159   3.965  0.3957  0.0610  0.2661
 7153SOL    HW132921   2.440   3.083   4.014  0.7192  0.7971  1.6315
 7153SOL    HW232922   2.395   3.200   3.926 -1.8159 -2.2167  2.2993
 7154SOL     OW32923   0.016   2.495   5.441 -0.0087  0.1459  0.0987
 7154SOL    HW132924   4.646   2.476   5.425  0.7072 -2.9676 -0.2816
 7154SOL    HW232925   0.059   2.410   5.431 -0.1159  0.0473  0.4839
 7155SOL     OW32926   0.765   2.844   7.260 -0.2477  0.5783  0.2522
 7155SOL    HW132927   0.680   2.880   7.286 -0.4542  0.5603 -0.3793
 7155SOL    HW232928   0.793   2.906   7.193 -0.0502  1.6026  1.2908
 7156SOL     OW32929   1.745   0.039  12.829 -0.0011  1.1140  0.6933
 7156SOL    HW132930   1.817   0.059  12.889  0.6603  2.3386 -0.4994
 7156SOL    HW232931   1.745   0.120  12.778  1.9270  0.9410  0.4197
 7157SOL     OW32932   3.617   3.851   0.713  0.3922 -0.1750 -0.1955
 7157SOL    HW132933   3.645   3.790   0.780 -1.1849  1.8433  2.3266
 7157SOL    HW232934   3.562   3.916   0.758 -0.6421 -0.7507 -0.6316
 7158SOL     OW32935   2.649   4.287   2.451 -0.3363 -0.0834  0.0798
 7158SOL    HW132936   2.556   4.304   2.435 -0.6439 -0.6584  1.2701
 7158SOL    HW232937   2.685   4.264   2.365 -0.5329  0.8876 -0.2701
 7159SOL     OW32938   2.407   2.530   2.559 -0.0623 -0.2276 -0.3433
 7159SOL    HW132939   2.336   2.595   2.555  0.2500  0.1625  0.4632
 7159SOL    HW232940   2.472   2.592   2.526 -0.4253  0.1970 -0.2814
 7160SOL     OW32941   4.296   1.481   6.959  0.3676  0.1816  0.0390
 7160SOL    HW132942   4.267   1.522   6.878 -0.3536 -2.2175 -0.9325
 7160SOL    HW232943   4.231   1.513   7.021  2.0010  0.9031  1.3855
 7161SOL     OW32944   1.031   3.589  14.164 -0.4307  0.1049  0.4028
 7161SOL    HW132945   1.044   3.513  14.108 -3.1222 -0.6493  0.8167
 7161SOL    HW232946   0.987   3.645  14.099 -3.2288 -0.2674  2.0128
 7162SOL     OW32947   4.689   0.185   7.454  1.0240 -0.0602  0.0934
 7162SOL    HW132948   4.687   0.279   7.440  2.7215  0.1699  1.4038
 7162SOL    HW232949   0.049   0.170   7.499  0.7109 -1.1277  0.3233
 7163SOL     OW32950   0.813   0.606   1.770 -0.2330 -0.6813 -0.5379
 7163SOL    HW132951   0.757   0.682   1.783  0.0923 -0.4292 -0.6093
 7163SOL    HW232952   0.870   0.614   1.846  1.1866 -2.5056 -1.3966
 7164SOL     OW32953   0.581   4.150   6.157 -0.1429 -0.4639  0.2544
 7164SOL    HW132954   0.573   4.178   6.248  0.8000  0.3557  0.0874
 7164SOL    HW232955   0.554   4.232   6.115  1.8114  0.4375  0.7504
 7165SOL     OW32956   4.112   0.664   1.484  0.7712  0.0161  0.3597
 7165SOL    HW132957   4.057   0.742   1.494  0.2618 -0.1848 -0.8011
 7165SOL    HW232958   4.200   0.696   1.503  0.1727  1.1817  1.1338
 7166SOL     OW32959   4.374   1.041   9.272  0.1284  0.0339  0.7623
 7166SOL    HW132960   4.332   1.096   9.338  1.7595  1.8191  0.2913
 7166SOL    HW232961   4.439   0.993   9.323 -0.9189 -1.6345  0.5391
 7167SOL     OW32962   0.424   1.577   6.144  0.2074 -0.0223 -0.6205
 7167SOL    HW132963   0.406   1.638   6.072  2.9257 -0.1223 -1.4126
 7167SOL    HW232964   0.430   1.639   6.216 -0.4489 -0.9245  0.2068
 7168SOL     OW32965   0.907   1.148  15.176  0.1467  0.0596  0.3559
 7168SOL    HW132966   0.999   1.123  15.182 -0.1179 -1.2180 -0.9684
 7168SOL    HW232967   0.922   1.221  15.117  0.7493 -1.0726 -0.8857
 7169SOL     OW32968   3.886   0.155   4.056 -0.7602  0.1070 -0.0561
 7169SOL    HW132969   3.843   0.177   3.973  0.2995  0.4211 -0.5238
 7169SOL    HW232970   3.910   0.064   4.038 -2.0490 -0.6362  1.9647
 7170SOL     OW32971   2.846   1.225   4.056  0.3985 -0.7126 -0.0071
 7170SOL    HW132972   2.927   1.176   4.043  1.6399  1.3918 -0.2377
 7170SOL    HW232973   2.798   1.198   3.978  1.7452 -0.9717 -0.7500
 7171SOL     OW32974   1.224   1.591   1.130  0.8359 -0.1974  0.3339
 7171SOL    HW132975   1.300   1.585   1.072 -0.2812  0.4396 -1.1634
 7171SOL    HW232976   1.172   1.660   1.090  1.6999  0.2516 -0.0077
 7172SOL     OW32977   2.118   2.956  15.787 -0.7566 -0.7216  0.2930
 7172SOL    HW132978   2.174   2.960  15.709 -1.0575 -0.0372  0.1179
 7172SOL    HW232979   2.137   2.869  15.824 -0.8113 -0.3412  1.2016
 7173SOL     OW32980   2.264   3.883   6.184  0.0731  0.5339 -0.0145
 7173SOL    HW132981   2.346   3.886   6.234  1.3430 -0.9979 -2.0007
 7173SOL    HW232982   2.297   3.836   6.107 -1.6086 -0.7333  0.0437
 7174SOL     OW32983   1.527   2.398   8.936  0.4128  0.2371  0.5115
 7174SOL    HW132984   1.600   2.457   8.913  0.6405  0.6073  2.1345
 7174SOL    HW232985   1.559   2.371   9.022 -0.6678 -1.6076  0.3239
 7175SOL     OW32986   2.887   1.703   5.588  0.0396  0.2675 -0.1641
 7175SOL    HW132987   2.974   1.738   5.570 -0.4628  1.8407  0.4342
 7175SOL    HW232988   2.875   1.652   5.508 -2.3049 -0.5726  0.7002
 7176SOL     OW32989   1.165   3.199   3.856  0.3555  0.1225  0.9230
 7176SOL    HW132990   1.256   3.220   3.836  0.0494  1.5482  0.9870
 7176SOL    HW232991   1.147   3.196   3.762 -3.3677  0.0210  1.6129
 7177SOL     OW32992   0.395   4.100   5.831  0.3935 -0.2076 -0.4553
 7177SOL    HW132993   0.451   4.025   5.850 -0.6399 -0.1674  2.7445
 7177SOL    HW232994   0.449   4.154   5.773 -0.3915 -0.4904 -1.4464
 7178SOL     OW32995   0.609   3.436   3.124 -0.5954  0.4294 -0.5789
 7178SOL    HW132996   0.538   3.372   3.133 -0.2873  0.3958  1.7269
 7178SOL    HW232997   0.686   3.383   3.103  0.5391  3.2043 -3.4546
 7179SOL     OW32998   2.702   0.015  14.962 -0.2164 -0.2584  0.7311
 7179SOL    HW132999   2.678   0.061  14.882  2.0385  1.1792  0.8692
 7179SOL    HW233000   2.765   4.668  14.947 -0.7228 -0.0194 -2.4469
 7180SOL     OW33001   4.608   0.900   3.709 -0.3792 -0.1436  0.3186
 7180SOL    HW133002   4.623   0.855   3.626  0.6574 -0.3186  0.6105
 7180SOL    HW233003   4.515   0.919   3.694 -0.2259  0.3468  0.0231
 7181SOL     OW33004   0.022   3.263   3.623 -0.1800  0.5002  0.4144
 7181SOL    HW133005   0.116   3.265   3.605 -0.1790  0.5269  0.4233
 7181SOL    HW233006   0.030   3.197   3.693  0.5359 -0.5519 -0.6492
 7182SOL     OW33007   1.696   3.721  16.522  0.3715 -0.2527  0.2817
 7182SOL    HW133008   1.752   3.770  16.582  0.1160  1.5446 -0.9562
 7182SOL    HW233009   1.734   3.634  16.537  0.4252 -0.2838 -0.0327
 7183SOL     OW33010   4.091   2.685  10.965 -0.1648  0.8287  0.6090
 7183SOL    HW133011   4.014   2.630  10.978 -1.8616  2.6389 -1.7728
 7183SOL    HW233012   4.052   2.771  10.980  0.2714  1.2454 -0.6048
 7184SOL     OW33013   1.940   2.513   2.708 -0.3545  0.0141  0.3779
 7184SOL    HW133014   1.991   2.437   2.680 -0.2912  0.0013  0.5290
 7184SOL    HW233015   1.923   2.555   2.623  0.5173 -0.0960  0.1556
 7185SOL     OW33016   1.076   4.528   5.629  0.8846 -0.4277  0.2487
 7185SOL    HW133017   1.132   4.468   5.580  2.3050 -0.8199  2.3683
 7185SOL    HW233018   0.989   4.500   5.600  1.5284 -1.8942 -0.2628
 7186SOL     OW33019   1.640   1.939   7.957  0.2437  0.1981  0.2807
 7186SOL    HW133020   1.716   1.881   7.950 -0.6787 -1.0005  0.1887
 7186SOL    HW233021   1.663   1.998   8.029 -0.5581 -0.0789  0.7690
 7187SOL     OW33022   0.861   2.068   7.408 -0.2597 -0.2442 -0.0582
 7187SOL    HW133023   0.879   2.126   7.333 -0.8721 -0.8951 -0.7066
 7187SOL    HW233024   0.929   2.088   7.473 -2.0627  0.3930  1.6277
 7188SOL     OW33025   1.733   1.323   4.291 -0.1674  0.6072  0.2746
 7188SOL    HW133026   1.773   1.343   4.206 -0.1301  2.6725  0.7761
 7188SOL    HW233027   1.666   1.390   4.296 -0.5907  0.0374  2.1954
 7189SOL     OW33028   0.151   3.651   9.184 -0.0268  0.5224  0.3004
 7189SOL    HW133029   0.224   3.637   9.245 -1.6054 -2.3410  1.5242
 7189SOL    HW233030   0.075   3.604   9.219  0.3658 -0.2065  0.1784
 7190SOL     OW33031   1.444   2.568   6.693 -0.5743 -0.5600 -0.4001
 7190SOL    HW133032   1.527   2.525   6.675  1.2513  1.9693  1.9835
 7190SOL    HW233033   1.435   2.530   6.781 -2.8232  1.9379  0.4479
 7191SOL     OW33034   4.217   1.080   5.818  0.1701  0.3173 -0.5810
 7191SOL    HW133035   4.199   1.136   5.894 -2.6691 -1.7630  0.2625
 7191SOL    HW233036   4.282   1.126   5.765  0.8074 -0.3536 -0.3855
 7192SOL     OW33037   4.433   2.357  15.642 -0.1359 -0.2478 -0.2326
 7192SOL    HW133038   4.507   2.318  15.688 -0.6308  0.1851  0.9230
 7192SOL    HW233039   4.474   2.365  15.556 -0.3900 -1.7343 -0.4909
 7193SOL     OW33040   4.497   1.047  10.584 -0.5639 -0.1162 -0.3551
 7193SOL    HW133041   4.429   1.054  10.517 -1.1939 -0.3143  0.2729
 7193SOL    HW233042   4.579   1.060  10.535 -0.4590  2.2781  0.4534
 7194SOL     OW33043   0.720   4.156   1.427  0.4553  0.1079  0.4533
 7194SOL    HW133044   0.793   4.163   1.489  0.7414  3.8491 -0.3388
 7194SOL    HW233045   0.710   4.243   1.389  0.8069 -0.6681 -1.3896
 7195SOL     OW33046   0.577   3.580  10.494 -0.5249 -0.6360 -0.0028
 7195SOL    HW133047   0.637   3.650  10.468 -0.8888 -1.0697 -2.0557
 7195SOL    HW233048   0.567   3.594  10.588  2.3641  1.5850 -0.0050
 7196SOL     OW33049   3.133   2.514   3.521 -0.2064 -0.1994  0.3635
 7196SOL    HW133050   3.188   2.443   3.488  1.7469  0.7812  1.5245
 7196SOL    HW233051   3.080   2.475   3.590 -1.3642 -0.5452 -0.7262
 7197SOL     OW33052   3.457   2.287   3.822  0.2261  0.2832 -0.5131
 7197SOL    HW133053   3.513   2.255   3.892  1.8930 -0.6648 -2.2864
 7197SOL    HW233054   3.520   2.291   3.750  0.8735  2.0843  0.1616
 7198SOL     OW33055   0.833   3.591   6.448 -0.1333  0.4942 -0.0292
 7198SOL    HW133056   0.858   3.603   6.540  0.3667  2.6212 -0.4561
 7198SOL    HW233057   0.913   3.608   6.399  0.6672 -0.9426  0.7817
 7199SOL     OW33058   0.632   1.708   3.691 -0.1363  0.8702  0.0607
 7199SOL    HW133059   0.712   1.728   3.643 -1.3983  2.9377 -1.1980
 7199SOL    HW233060   0.571   1.781   3.683 -0.0428  0.9549  0.1309
 7200SOL     OW33061   1.105   0.924  16.601  0.0588  0.1884 -0.1641
 7200SOL    HW133062   1.071   0.844  16.561  2.9606 -0.2338 -1.7831
 7200SOL    HW233063   1.040   0.944  16.668 -0.6297  0.6752 -0.9874
 7201SOL     OW33064   3.521   0.492  16.563  0.7531 -0.4592  0.8914
 7201SOL    HW133065   3.607   0.452  16.561  1.6084  1.3688  1.4619
 7201SOL    HW233066   3.503   0.504  16.657  2.2286 -0.2368  1.1452
 7202SOL     OW33067   4.718   3.360   6.094 -0.0304  0.3299 -0.7940
 7202SOL    HW133068   0.072   3.332   6.143 -0.4363 -0.1504 -0.4393
 7202SOL    HW233069   4.650   3.313   6.142 -1.3423 -0.2036 -3.1524
 7203SOL     OW33070   2.202   2.810   6.060 -0.2762  0.5504  0.0724
 7203SOL    HW133071   2.128   2.870   6.060 -0.0690  0.8037  1.2125
 7203SOL    HW233072   2.267   2.848   6.001 -0.5431  0.6835 -0.1377
 7204SOL     OW33073   0.744   4.368  11.228  0.4242 -0.1482  0.1373
 7204SOL    HW133074   0.687   4.427  11.277 -0.5191 -1.1728  0.2784
 7204SOL    HW233075   0.692   4.350  11.150 -1.9656 -2.7657  2.2982
 7205SOL     OW33076   3.745   3.282   7.996 -0.0991  0.0256  0.1660
 7205SOL    HW133077   3.724   3.329   7.916  0.6625 -1.5544 -0.9520
 7205SOL    HW233078   3.653   3.265   8.015 -0.4708  1.9711  0.1977
 7206SOL     OW33079   3.122   1.798   0.912 -0.4028  0.6134  0.2666
 7206SOL    HW133080   3.128   1.810   0.817  1.7098 -0.4880  0.2725
 7206SOL    HW233081   3.214   1.794   0.936 -0.8403  1.1115  2.0283
 7207SOL     OW33082   4.299   2.681   8.833  0.0793  0.1849 -0.4803
 7207SOL    HW133083   4.262   2.672   8.745  0.5182 -0.0577 -0.6379
 7207SOL    HW233084   4.238   2.624   8.881  0.1925  0.0179 -0.5352
 7208SOL     OW33085   2.841   0.875   5.433 -0.1257 -0.4737 -0.6102
 7208SOL    HW133086   2.832   0.780   5.439  1.5395 -0.5363  0.9990
 7208SOL    HW233087   2.803   0.916   5.510  2.1692  0.2668  0.1343
 7209SOL     OW33088   0.964   3.930   0.551  0.2907  0.2800  0.4011
 7209SOL    HW133089   0.951   3.872   0.626 -0.6419  1.5508  1.2383
 7209SOL    HW233090   0.924   3.876   0.483 -0.0217 -1.0102  1.6225
 7210SOL     OW33091   0.324   1.432   5.102 -0.0119  0.3237 -0.3543
 7210SOL    HW133092   0.282   1.480   5.031  0.4556  0.9495 -0.2068
 7210SOL    HW233093   0.348   1.347   5.065  1.2528 -0.2860  1.8690
 7211SOL     OW33094   3.291   3.916   3.988 -0.9537  0.3192 -0.5001
 7211SOL    HW133095   3.339   3.882   3.913 -1.8813 -0.1856 -0.8732
 7211SOL    HW233096   3.367   3.942   4.039 -1.9455 -1.7691  2.0899
 7212SOL     OW33097   0.200   0.200  14.789  0.3407 -0.3889 -0.6026
 7212SOL    HW133098   0.216   0.240  14.875  0.2167  0.3605 -0.9257
 7212SOL    HW233099   0.109   0.174  14.803 -0.4352  2.2311 -0.6084
 7213SOL     OW33100   3.506   4.328   6.846 -0.2768  0.1982  0.1276
 7213SOL    HW133101   3.497   4.239   6.814 -0.8314 -0.5968  2.5411
 7213SOL    HW233102   3.471   4.379   6.773 -0.7299 -2.0475 -1.2148
 7214SOL     OW33103   1.021   0.800  15.183  0.0104 -0.6062  0.8074
 7214SOL    HW133104   1.044   0.889  15.208 -2.8032 -0.1973  1.9431
 7214SOL    HW233105   0.942   0.791  15.236  0.2353 -0.4700  1.1648
 7215SOL     OW33106   3.152   3.955   7.267 -0.3566 -0.0877  0.1275
 7215SOL    HW133107   3.176   3.888   7.330  1.4583 -1.5153 -2.1039
 7215SOL    HW233108   3.163   4.039   7.311 -2.7149 -0.8708  2.2014
 7216SOL     OW33109   0.625   1.412   5.062  0.4594  0.1929  0.1240
 7216SOL    HW133110   0.579   1.338   5.022  1.5415  0.1567 -1.1033
 7216SOL    HW233111   0.671   1.370   5.134 -2.4791 -4.1022 -0.4652
 7217SOL     OW33112   1.807   0.448   1.631  0.2306 -0.1003 -0.2230
 7217SOL    HW133113   1.873   0.506   1.593  0.4848 -0.5296 -0.4368
 7217SOL    HW233114   1.867   0.375   1.648 -1.1873 -1.6659 -1.8105
 7218SOL     OW33115   2.273   0.549   4.308  0.5641 -0.3483 -0.7571
 7218SOL    HW133116   2.355   0.528   4.264  1.3755 -0.9083  1.0156
 7218SOL    HW233117   2.214   0.492   4.257  0.5128  0.4372 -1.5683
 7219SOL     OW33118   3.151   4.492   8.329  0.0107  0.3388 -0.1688
 7219SOL    HW133119   3.216   4.467   8.395 -0.8339  0.3024  0.6463
 7219SOL    HW233120   3.080   4.430   8.349 -1.0821  1.6526 -0.0100
 7220SOL     OW33121   1.392   3.824   7.814 -0.2910 -0.1629 -0.5710
 7220SOL    HW133122   1.353   3.908   7.788 -0.8594 -0.7291 -1.5495
 7220SOL    HW233123   1.377   3.776   7.733  0.3624  1.5736 -1.7176
 7221SOL     OW33124   4.520   0.421   5.026  0.1864 -0.0462 -0.3040
 7221SOL    HW133125   4.530   0.479   5.102 -0.6231  2.1899 -1.8949
 7221SOL    HW233126   4.575   0.462   4.959  1.2117 -1.2116 -0.1756
 7222SOL     OW33127   1.173   4.344  15.093 -0.1790  0.1334 -0.2968
 7222SOL    HW133128   1.166   4.400  15.016 -0.0193  1.3246  0.5592
 7222SOL    HW233129   1.262   4.370  15.117  0.6947 -0.1145 -3.2653
 7223SOL     OW33130   3.634   4.075   5.655 -0.0307  0.0104  0.3377
 7223SOL    HW133131   3.676   3.989   5.641 -0.1480  0.0941 -0.4949
 7223SOL    HW233132   3.542   4.049   5.656 -0.0955  0.1933 -1.2803
 7224SOL     OW33133   1.970   4.698   9.191 -0.0061 -0.4738 -0.0361
 7224SOL    HW133134   1.938   4.711   9.280  0.4124 -0.8067  0.1630
 7224SOL    HW233135   2.062   4.722   9.200  0.1431 -0.8849 -0.4556
 7225SOL     OW33136   2.927   2.789   4.303 -0.6929  0.1408 -0.5349
 7225SOL    HW133137   2.894   2.855   4.242  0.2361 -1.4571 -2.7847
 7225SOL    HW233138   2.852   2.781   4.363  0.4240  0.4844  0.8934
 7226SOL     OW33139   4.376   3.173   9.379  0.7072  0.0020 -0.5557
 7226SOL    HW133140   4.363   3.147   9.470  3.6257  2.1832  0.5016
 7226SOL    HW233141   4.301   3.231   9.363  0.5190  0.4979  2.0621
 7227SOL     OW33142   2.193   4.442   7.331 -0.0220  0.0536  0.3168
 7227SOL    HW133143   2.195   4.347   7.337  1.0670 -0.0085 -1.0795
 7227SOL    HW233144   2.245   4.464   7.408  2.3372 -0.0499 -1.2488
 7228SOL     OW33145   2.610   2.174   7.259 -0.3630 -0.2486 -0.0826
 7228SOL    HW133146   2.526   2.131   7.276 -0.3809 -0.2791 -0.2473
 7228SOL    HW233147   2.651   2.110   7.199 -0.1740 -0.6864  0.5158
 7229SOL     OW33148   1.532   1.011   6.414 -0.4116 -0.1526  0.0132
 7229SOL    HW133149   1.457   0.978   6.365 -0.3414 -1.4010  0.7327
 7229SOL    HW233150   1.607   0.961   6.383  0.1880  1.3128 -0.8690
 7230SOL     OW33151   2.161   0.182   9.530 -0.1030  0.8293 -0.3877
 7230SOL    HW133152   2.182   0.218   9.617  0.8557  1.4626 -0.8852
 7230SOL    HW233153   2.069   0.156   9.542 -0.5500  1.5052 -2.2902
 7231SOL     OW33154   0.454   2.118  16.245  0.4028 -0.4207 -0.2644
 7231SOL    HW133155   0.484   2.041  16.197 -0.6203 -1.3591  0.6030
 7231SOL    HW233156   0.387   2.152  16.185  0.5799  1.1477  0.4243
 7232SOL     OW33157   1.448   4.324   8.679 -0.3656 -0.1313  0.8996
 7232SOL    HW133158   1.488   4.242   8.709  1.5592 -0.9083 -3.8193
 7232SOL    HW233159   1.403   4.292   8.601 -0.7771 -0.8467  1.4314
 7233SOL     OW33160   3.177   2.714  11.510 -0.4179  0.4293 -0.3218
 7233SOL    HW133161   3.102   2.740  11.563 -1.3979  2.0798 -2.5313
 7233SOL    HW233162   3.141   2.732  11.423 -0.2398 -2.0517 -0.9151
 7234SOL     OW33163   4.625   3.742   3.316  0.1676 -0.0407 -0.2751
 7234SOL    HW133164   4.656   3.706   3.399  1.5618 -0.2352 -0.8725
 7234SOL    HW233165   4.694   3.717   3.254 -0.8880 -1.1138 -1.0217
 7235SOL     OW33166   3.000   2.045   0.177  0.1968  0.0776  0.0373
 7235SOL    HW133167   2.967   1.993   0.250  1.0012  0.0299  0.3621
 7235SOL    HW233168   3.083   2.075   0.214  0.3092  0.4319 -0.4928
 7236SOL     OW33169   0.053   3.248  17.085  0.3019 -0.2046  0.3325
 7236SOL    HW133170   0.078   3.227  16.995 -0.2530 -1.2196  0.4075
 7236SOL    HW233171   0.062   3.343  17.083 -0.6488 -0.0738  2.2865
 7237SOL     OW33172   1.236   0.164  12.951 -0.2756  0.6032 -0.0283
 7237SOL    HW133173   1.315   0.202  12.988  1.8512 -2.7258 -1.1671
 7237SOL    HW233174   1.169   0.212  13.001  1.3490 -0.4464  3.2008
 7238SOL     OW33175   3.559   1.497   2.886 -0.6153 -0.2018 -0.3579
 7238SOL    HW133176   3.507   1.419   2.906  1.1006 -1.2833 -0.1117
 7238SOL    HW233177   3.529   1.552   2.957  0.0975 -0.2408 -0.0267
 7239SOL     OW33178   0.177   3.428   4.883 -0.0229 -0.0942 -0.3679
 7239SOL    HW133179   0.245   3.402   4.820 -0.0356 -0.7856 -0.0869
 7239SOL    HW233180   0.229   3.438   4.963  1.0946 -0.0813 -1.0855
 7240SOL     OW33181   1.027   3.600   1.632 -0.0331 -0.2686 -1.3725
 7240SOL    HW133182   0.949   3.566   1.589  0.4900 -2.1527 -0.8486
 7240SOL    HW233183   1.033   3.689   1.599 -0.0119  0.5351  0.7694
 7241SOL     OW33184   3.830   4.528   3.546 -0.2445  0.4704 -0.3802
 7241SOL    HW133185   3.883   4.501   3.621  0.9570  0.2712 -1.3021
 7241SOL    HW233186   3.873   4.465   3.488  0.3648  0.3878  0.1475
 7242SOL     OW33187   0.597   1.861   5.274 -0.7986  0.2667 -0.2668
 7242SOL    HW133188   0.532   1.792   5.261  0.3285 -0.8922  0.1547
 7242SOL    HW233189   0.555   1.916   5.339  0.2582  0.5522  0.1774
 7243SOL     OW33190   1.961   2.727   3.520 -0.4805 -0.2685 -0.0663
 7243SOL    HW133191   2.049   2.696   3.497 -0.8622 -1.9945  0.7701
 7243SOL    HW233192   1.904   2.673   3.464  0.1688 -1.4422  0.3921
 7244SOL     OW33193   3.199   1.271  17.455  0.0498  0.4844  0.4736
 7244SOL    HW133194   3.173   1.196  17.509 -0.8501  2.4540  2.7355
 7244SOL    HW233195   3.291   1.259  17.475 -0.3116 -0.4211  1.6022
 7245SOL     OW33196   4.649   2.964  16.212  0.7038 -0.0167 -0.6565
 7245SOL    HW133197   0.015   2.967  16.248  1.0648  0.9168 -1.6397
 7245SOL    HW233198   4.630   3.057  16.223  2.6472  0.2292  0.7241
 7246SOL     OW33199   0.270   1.042  15.277 -0.0998  0.0581 -0.3647
 7246SOL    HW133200   0.309   1.001  15.354  0.4619  0.1969 -0.5707
 7246SOL    HW233201   0.329   1.007  15.210 -1.0249 -0.4399 -0.9256
 7247SOL     OW33202   1.651   1.501   4.800 -0.3110  0.4803  0.5094
 7247SOL    HW133203   1.701   1.470   4.725  0.6959 -1.6884  2.0953
 7247SOL    HW233204   1.660   1.595   4.785 -1.3559  0.8412  2.1920
 7248SOL     OW33205   4.628   2.196   1.306  0.0553 -0.5265  0.4147
 7248SOL    HW133206   4.601   2.286   1.287  0.7328 -0.6051 -0.8929
 7248SOL    HW233207   4.694   2.187   1.238  0.7952  1.4918  0.8608
 7249SOL     OW33208   4.479   3.677   9.309 -0.2276 -0.3727 -0.2129
 7249SOL    HW133209   4.494   3.630   9.390 -1.3933 -0.2024  0.0979
 7249SOL    HW233210   4.539   3.629   9.252  0.5599 -0.8595  1.0366
 7250SOL     OW33211   3.722   2.899   6.253  0.1326 -0.7553 -0.0700
 7250SOL    HW133212   3.747   2.858   6.336  0.3788 -1.6125 -0.5698
 7250SOL    HW233213   3.784   2.854   6.196  0.9299 -0.8362  0.8634
 7251SOL     OW33214   3.503   0.318  16.285 -0.0706 -0.0377 -0.8387
 7251SOL    HW133215   3.571   0.384  16.300  0.8856 -1.3339  0.6271
 7251SOL    HW233216   3.532   0.274  16.205 -0.2815 -2.4538  0.3844
 7252SOL     OW33217   3.316   4.701   1.978 -0.3747  0.3141 -0.4446
 7252SOL    HW133218   3.274   0.059   2.005 -2.4100 -1.4570  1.6970
 7252SOL    HW233219   3.354   4.664   2.057 -0.7606  0.4359 -0.2059
 7253SOL     OW33220   4.500   1.988   8.372 -0.4492  0.8430 -0.3132
 7253SOL    HW133221   4.560   1.927   8.329 -0.7701 -1.0604  1.9186
 7253SOL    HW233222   4.422   1.980   8.317 -1.4403 -1.0148  1.3662
 7254SOL     OW33223   4.452   4.507   5.768 -0.3271  0.0776  0.4692
 7254SOL    HW133224   4.383   4.569   5.792 -1.4126 -0.9950  0.1178
 7254SOL    HW233225   4.452   4.462   5.852  1.3560 -0.2173  0.3209
 7255SOL     OW33226   2.340   3.303  13.908  0.1643 -0.0135  0.3055
 7255SOL    HW133227   2.313   3.360  13.835 -0.2018 -0.1888  0.3075
 7255SOL    HW233228   2.336   3.362  13.983 -0.8264  0.1825  0.0997
 7256SOL     OW33229   4.146   3.421  16.045  0.1719 -0.0733 -0.0869
 7256SOL    HW133230   4.222   3.477  16.035  0.7387 -0.5037  1.7768
 7256SOL    HW233231   4.105   3.429  15.959 -0.1402 -1.4765 -0.0680
 7257SOL     OW33232   0.888   4.265   6.020 -0.0969 -0.5144  0.4839
 7257SOL    HW133233   0.959   4.216   6.061  2.1521  2.1025 -0.2620
 7257SOL    HW233234   0.846   4.310   6.093  4.0465  0.4040  2.2533
 7258SOL     OW33235   1.037   1.882   3.842  0.2555 -0.1546 -0.4661
 7258SOL    HW133236   1.013   1.903   3.752  0.7870  1.1806 -0.2877
 7258SOL    HW233237   1.128   1.912   3.843  0.3385 -0.4256  0.2662
 7259SOL     OW33238   1.832   0.963  16.070 -0.9720  0.2875  0.0005
 7259SOL    HW133239   1.792   0.927  15.990  0.1789  0.7866 -0.8004
 7259SOL    HW233240   1.845   1.053  16.042  0.3580  0.1053  0.0591
 7260SOL     OW33241   4.199   0.225  13.375 -0.3302  0.0992 -0.4226
 7260SOL    HW133242   4.166   0.293  13.434 -3.4669 -0.9659 -0.9206
 7260SOL    HW233243   4.181   0.142  13.418 -1.2784  1.7447  2.3347
 7261SOL     OW33244   3.286   2.468   4.191 -0.0885 -0.3710  0.0637
 7261SOL    HW133245   3.193   2.490   4.190 -0.4648 -1.8869  0.9931
 7261SOL    HW233246   3.329   2.524   4.127  0.3792  0.0503  0.7486
 7262SOL     OW33247   3.035   2.608   8.341  0.0655  0.0260  0.4723
 7262SOL    HW133248   2.985   2.687   8.319 -1.2319 -0.9985 -0.2757
 7262SOL    HW233249   2.964   2.555   8.379  0.2810 -2.2714 -2.3413
 7263SOL     OW33250   2.900   0.371   2.671  0.2939 -0.4480  0.2615
 7263SOL    HW133251   2.896   0.423   2.591 -1.1263  1.1808  1.3932
 7263SOL    HW233252   2.946   0.288   2.657  0.7257 -0.1115 -0.2981
 7264SOL     OW33253   3.014   0.389   4.436  0.1353  0.1667  0.5278
 7264SOL    HW133254   3.024   0.297   4.413 -1.0857 -0.2878  1.7839
 7264SOL    HW233255   3.104   0.415   4.417 -0.1365 -1.1879 -2.4968
 7265SOL     OW33256   1.379   4.423  13.325  0.1329  0.7424 -0.0750
 7265SOL    HW133257   1.427   4.349  13.361 -1.8901 -0.9092 -0.7272
 7265SOL    HW233258   1.312   4.439  13.392 -0.1950 -3.0631  0.4902
 7266SOL     OW33259   0.553   4.682   7.556  0.0717  0.0203  0.2704
 7266SOL    HW133260   0.634   4.704   7.509  0.3149  2.5701  1.8585
 7266SOL    HW233261   0.567   4.588   7.558 -0.4225 -0.1003 -2.1098
 7267SOL     OW33262   0.532   4.415  14.925  0.0000  0.4498 -0.2476
 7267SOL    HW133263   0.527   4.482  14.994  0.6666  0.4968 -0.2488
 7267SOL    HW233264   0.514   4.474  14.852  0.2376  1.7944  0.7657
 7268SOL     OW33265   3.394   2.492   2.450  0.2929  0.6310  0.0164
 7268SOL    HW133266   3.425   2.405   2.477  0.9953  0.9764  0.3215
 7268SOL    HW233267   3.306   2.486   2.487 -0.1418  0.3477 -1.0591
 7269SOL     OW33268   2.012   2.564   6.981  0.4705  0.0993 -0.2999
 7269SOL    HW133269   1.993   2.478   6.944  1.4034 -0.5402  0.6821
 7269SOL    HW233270   2.096   2.587   6.941  0.9435  0.5786  0.9488
 7270SOL     OW33271   3.566   2.974   8.184 -0.5845  0.1638 -0.3434
 7270SOL    HW133272   3.636   2.950   8.123 -0.6321 -0.8733  0.0182
 7270SOL    HW233273   3.541   3.063   8.157  2.3017  1.4752  1.3444
 7271SOL     OW33274   0.583   1.549   8.647 -0.0589 -0.9736 -0.1791
 7271SOL    HW133275   0.517   1.581   8.585  0.2101 -0.7839 -0.3670
 7271SOL    HW233276   0.654   1.549   8.582 -0.6508  1.6841 -0.8074
 7272SOL     OW33277   3.226   0.942  13.931  0.0644  0.1922 -0.2477
 7272SOL    HW133278   3.300   0.968  13.876  0.9281  3.3674  2.4199
 7272SOL    HW233279   3.182   1.027  13.932 -1.0224 -0.3613 -0.3529
 7273SOL     OW33280   3.042   4.633   1.925  0.1188 -0.5212 -0.2427
 7273SOL    HW133281   3.045   4.721   1.961  0.4636 -1.0942  1.1549
 7273SOL    HW233282   3.135   4.612   1.930 -0.1002 -1.3239  0.6838
 7274SOL     OW33283   4.407   1.924   3.128 -0.2522  0.1043 -0.4401
 7274SOL    HW133284   4.422   1.872   3.206 -0.2593 -0.3832 -0.7621
 7274SOL    HW233285   4.409   1.861   3.056 -2.3210 -1.1065  0.5631
 7275SOL     OW33286   2.451   1.219   7.948  0.2719 -0.5267 -0.3455
 7275SOL    HW133287   2.450   1.287   8.016 -0.9285 -1.9179  1.0516
 7275SOL    HW233288   2.381   1.260   7.897  0.5444  2.7812  1.8951
 7276SOL     OW33289   4.592   1.631   4.865  0.2624 -0.0226 -0.3128
 7276SOL    HW133290   4.571   1.538   4.852  2.0697 -0.4510 -0.3078
 7276SOL    HW233291   4.688   1.631   4.855  0.4264  0.5028  1.2921
 7277SOL     OW33292   2.932   1.906   4.029  0.2237 -0.1340  0.8012
 7277SOL    HW133293   2.963   1.889   3.939 -0.7110  1.9613  0.0952
 7277SOL    HW233294   2.839   1.889   4.013 -0.0946  0.9361  1.5421
 7278SOL     OW33295   0.866   2.522   5.429  0.2192  0.2098  0.1182
 7278SOL    HW133296   0.818   2.522   5.512  1.0925 -0.5856  0.6387
 7278SOL    HW233297   0.799   2.470   5.385 -1.3574  1.0119  1.5665
 7279SOL     OW33298   1.418   3.243   7.424 -0.0233  0.2182 -0.3490
 7279SOL    HW133299   1.364   3.187   7.368  1.9462 -2.2089  0.1704
 7279SOL    HW233300   1.479   3.279   7.360 -0.6258 -0.4944 -1.3326
 7280SOL     OW33301   2.766   1.744  14.229 -0.3079  0.0445 -0.3140
 7280SOL    HW133302   2.744   1.688  14.303  2.4648  1.0198  1.2461
 7280SOL    HW233303   2.861   1.747  14.239 -0.3166 -2.0539  0.3140
 7281SOL     OW33304   4.552   0.559  12.568  0.2451  0.8021 -0.2355
 7281SOL    HW133305   4.621   0.524  12.513  0.9540  1.9692 -0.0761
 7281SOL    HW233306   4.480   0.544  12.507  0.7619  1.6509 -1.0440
 7282SOL     OW33307   2.893   3.213   9.427  0.0388 -0.2067 -0.3263
 7282SOL    HW133308   2.917   3.207   9.334  2.7592 -3.3368  0.5737
 7282SOL    HW233309   2.870   3.121   9.441 -1.1843 -0.0440 -1.3300
 7283SOL     OW33310   0.591   1.959  15.053  0.0832  0.5526  0.0376
 7283SOL    HW133311   0.665   1.897  15.056 -1.8826 -1.6909  1.9772
 7283SOL    HW233312   0.508   1.913  15.059 -0.6115  2.0296  1.6172
 7284SOL     OW33313   2.270   3.832   8.976 -0.4810 -0.0231  0.8534
 7284SOL    HW133314   2.210   3.896   8.937 -0.1335  1.0708  2.1178
 7284SOL    HW233315   2.237   3.833   9.066 -1.3077  0.2360  0.5504
 7285SOL     OW33316   0.967   1.836  17.296 -0.4434  0.0256 -0.5370
 7285SOL    HW133317   0.905   1.791  17.239 -1.1622  2.2658 -1.5149
 7285SOL    HW233318   0.999   1.761  17.346  0.5014 -0.3101 -1.6800
 7286SOL     OW33319   1.604   3.450   9.532  0.0993 -0.6319  0.2393
 7286SOL    HW133320   1.654   3.375   9.566  0.2201 -1.4522 -1.7704
 7286SOL    HW233321   1.678   3.499   9.496  0.0447 -0.6864  0.0532
 7287SOL     OW33322   0.516   2.770   6.891 -0.3349  0.3242 -0.7523
 7287SOL    HW133323   0.508   2.747   6.984  0.3399 -1.5043 -1.1530
 7287SOL    HW233324   0.561   2.692   6.860  1.0379  1.4991 -1.7124
 7288SOL     OW33325   0.074   2.078   7.698  0.0098 -0.2050  0.4672
 7288SOL    HW133326   0.114   2.165   7.689 -0.4736  0.1073  1.2483
 7288SOL    HW233327   0.146   2.018   7.677 -0.6030 -0.7286 -0.1102
 7289SOL     OW33328   2.601   3.202   7.978  0.1650 -0.1850 -0.6041
 7289SOL    HW133329   2.669   3.223   7.913  0.5459 -0.1903 -0.2126
 7289SOL    HW233330   2.640   3.123   8.015  1.2050  1.0469  0.9195
 7290SOL     OW33331   4.707   2.038  12.147  0.1835 -0.0610 -0.7692
 7290SOL    HW133332   4.651   1.960  12.146 -2.0505  1.5638  0.1456
 7290SOL    HW233333   0.008   2.028  12.239 -0.7235 -0.9877 -0.6395
 7291SOL     OW33334   0.300   3.304   3.602 -0.6698  0.1320 -0.3419
 7291SOL    HW133335   0.355   3.279   3.528 -0.9196 -0.2459 -0.4040
 7291SOL    HW233336   0.355   3.290   3.679  1.8848  3.3578 -1.6228
 7292SOL     OW33337   2.963   4.713  14.428  0.0855  0.0371 -0.2294
 7292SOL    HW133338   3.049   4.671  14.425  0.3429  0.4630  1.1249
 7292SOL    HW233339   2.950   0.023  14.339 -0.9289  0.7053  0.1597
 7293SOL     OW33340   0.960   4.314   9.628 -0.4735 -0.1079  0.5686
 7293SOL    HW133341   0.962   4.409   9.612 -2.7257 -0.2366 -0.4475
 7293SOL    HW233342   0.894   4.285   9.566 -0.4624  0.2304  0.3954
 7294SOL     OW33343   0.133   4.672   2.430  0.8703 -0.4161 -0.2982
 7294SOL    HW133344   0.041   4.644   2.440  0.6127  0.8146  0.6690
 7294SOL    HW233345   0.122   0.042   2.449  0.9287 -0.4331 -0.1860
 7295SOL     OW33346   2.672   0.703  13.480 -0.1921  0.5719  0.2763
 7295SOL    HW133347   2.601   0.716  13.543  0.1748 -2.1415  1.2894
 7295SOL    HW233348   2.666   0.778  13.421  1.2925  0.1660 -0.4055
 7296SOL     OW33349   3.774   2.648  11.435 -0.4532  0.9148 -0.0710
 7296SOL    HW133350   3.811   2.734  11.417  1.7631  0.2628  1.3545
 7296SOL    HW233351   3.712   2.665  11.506 -3.9558  0.0546 -2.9221
 7297SOL     OW33352   1.238   2.594   3.172  0.2105 -0.2963 -0.4053
 7297SOL    HW133353   1.288   2.564   3.096 -1.1946  0.1323 -1.5075
 7297SOL    HW233354   1.251   2.689   3.167  1.1595 -0.3320  1.4429
 7298SOL     OW33355   1.803   0.303   2.752  0.3549 -0.1237  0.1401
 7298SOL    HW133356   1.800   0.280   2.659  2.5376  2.2096 -0.5231
 7298SOL    HW233357   1.799   0.399   2.745  0.9742 -0.3044 -2.4417
 7299SOL     OW33358   2.488   3.691   8.562 -0.3055 -0.0469 -1.0079
 7299SOL    HW133359   2.556   3.758   8.562  0.4454 -0.8086 -1.1674
 7299SOL    HW233360   2.462   3.677   8.653 -1.6114 -0.2515 -1.4102
 7300SOL     OW33361   0.411   3.817   3.679  0.8258 -0.0154  0.1351
 7300SOL    HW133362   0.459   3.734   3.675 -1.4518 -1.2792 -0.8042
 7300SOL    HW233363   0.485   3.871   3.709  0.0411 -1.1275  3.9297
 7301SOL     OW33364   3.038   4.084   5.191 -0.0966 -0.4147  0.1903
 7301SOL    HW133365   3.088   4.116   5.266  0.1153  1.0300 -0.5628
 7301SOL    HW233366   3.045   4.151   5.123  0.1276 -0.4321  0.1951
 7302SOL     OW33367   1.892   1.152   5.449  0.6058 -0.6747  0.1332
 7302SOL    HW133368   1.877   1.246   5.459 -2.5580 -1.1097 -0.5107
 7302SOL    HW233369   1.848   1.115   5.525 -0.7525 -0.7791 -0.7037
 7303SOL     OW33370   0.284   2.592  17.194  0.0437 -0.3508 -0.4948
 7303SOL    HW133371   0.301   2.638  17.276 -0.7372 -2.5586  0.9285
 7303SOL    HW233372   0.349   2.522  17.186  1.4092  0.9444 -0.6679
 7304SOL     OW33373   4.376   0.038   8.768  0.1954 -0.0148  0.0312
 7304SOL    HW133374   4.410   4.713   8.844 -3.4815 -1.4082  0.7915
 7304SOL    HW233375   4.445   0.031   8.701  0.6254  0.5638  0.4118
 7305SOL     OW33376   4.451   1.004   0.512 -0.7549 -0.0359 -0.1849
 7305SOL    HW133377   4.364   0.968   0.493 -0.5026 -1.5599  1.6664
 7305SOL    HW233378   4.439   1.096   0.488 -1.8872 -0.1829 -0.2070
 7306SOL     OW33379   1.273   3.085   7.178  0.2250 -0.5183  0.6480
 7306SOL    HW133380   1.277   2.997   7.217 -0.2199 -0.2299  1.3368
 7306SOL    HW233381   1.325   3.061   7.102  1.2021 -1.1801  1.5353
 7307SOL     OW33382   2.877   0.960  17.582 -0.5747 -0.8616  0.4018
 7307SOL    HW133383   2.821   0.972  17.658 -0.0451 -1.9666  0.9613
 7307SOL    HW233384   2.899   0.867  17.591 -1.5220 -1.0165  1.0635
 7308SOL     OW33385   3.086   1.490   6.933 -0.1804 -0.4724 -0.2749
 7308SOL    HW133386   3.121   1.424   6.993 -0.9951  0.0378  0.7607
 7308SOL    HW233387   3.114   1.459   6.847 -3.2641 -1.5971 -0.8597
 7309SOL     OW33388   2.906   3.541   1.275 -0.2118  0.2950  0.1582
 7309SOL    HW133389   2.811   3.556   1.281 -0.2326  0.0903  0.3411
 7309SOL    HW233390   2.907   3.467   1.335 -2.2609 -0.9362 -1.3044
 7310SOL     OW33391   1.001   2.093   8.112 -0.1041  0.1869 -0.4630
 7310SOL    HW133392   0.944   2.130   8.179 -0.1456  2.3315 -1.6857
 7310SOL    HW233393   1.089   2.113   8.145 -0.1428 -0.4713  0.0473
 7311SOL     OW33394   0.196   1.785  12.461 -0.6764  0.2015 -0.7989
 7311SOL    HW133395   0.175   1.877  12.445  1.4134  0.4857 -1.9571
 7311SOL    HW233396   0.229   1.800  12.549 -1.6008  1.2952 -0.6296
 7312SOL     OW33397   2.070   2.104  16.766  0.1148  0.3147  0.3521
 7312SOL    HW133398   2.017   2.144  16.835 -1.4348  0.4447 -0.9212
 7312SOL    HW233399   2.001   2.077  16.705  1.8317  0.0748 -1.4641
 7313SOL     OW33400   2.162   3.997   4.632  0.0859 -0.4733 -0.0571
 7313SOL    HW133401   2.225   4.058   4.671 -0.6554  0.5670 -0.4763
 7313SOL    HW233402   2.224   3.940   4.585  0.7421  0.1212  0.0897
 7314SOL     OW33403   0.064   2.151   6.715  0.4181 -0.8944  0.3995
 7314SOL    HW133404   4.706   2.116   6.751  0.2783  1.9326  2.8299
 7314SOL    HW233405   0.129   2.128   6.781  2.0072  1.4023 -0.3524
 7315SOL     OW33406   4.664   1.835   3.929  0.6152  0.4147  0.2951
 7315SOL    HW133407   4.702   1.809   4.013  1.9789  0.3725 -0.3384
 7315SOL    HW233408   0.005   1.901   3.900  1.6295  0.3661  2.3645
 7316SOL     OW33409   3.132   4.265   6.213 -0.2068 -0.2996 -0.0370
 7316SOL    HW133410   3.116   4.195   6.275  1.6167 -0.1190  0.6390
 7316SOL    HW233411   3.197   4.230   6.151  1.1467  0.5234  0.9151
 7317SOL     OW33412   3.300   1.397   8.309  0.6771 -0.0798  0.0373
 7317SOL    HW133413   3.213   1.435   8.301  0.3890 -1.1893 -2.0497
 7317SOL    HW233414   3.298   1.329   8.242  1.4724  2.0133 -2.1401
 7318SOL     OW33415   2.809   4.507   2.579 -0.4237 -0.0779  0.6353
 7318SOL    HW133416   2.865   4.498   2.502 -0.8833  0.1418  0.2749
 7318SOL    HW233417   2.740   4.449   2.547 -0.9783 -0.0063  1.6947
 7319SOL     OW33418   2.040   1.505   3.894 -0.1785  0.4706 -0.2099
 7319SOL    HW133419   2.130   1.523   3.920 -1.0745  1.0632  2.4552
 7319SOL    HW233420   2.047   1.424   3.844 -1.5915  0.5457 -0.5525
 7320SOL     OW33421   0.571   3.241   2.556  0.9954  0.0345  0.5979
 7320SOL    HW133422   0.652   3.240   2.607  0.9267 -0.4164  0.6997
 7320SOL    HW233423   0.522   3.287   2.624 -0.4434  3.0247 -2.4683
 7321SOL     OW33424   0.700   2.182  14.947  0.8333  0.6763 -0.0086
 7321SOL    HW133425   0.632   2.247  14.962  1.2650  0.8625  1.1745
 7321SOL    HW233426   0.660   2.099  14.974  0.1448 -0.3277 -4.0995
 7322SOL     OW33427   3.806   3.740   2.077 -0.0060  0.0859  0.3308
 7322SOL    HW133428   3.716   3.772   2.086  0.3132  1.0497  0.1057
 7322SOL    HW233429   3.796   3.679   2.005  0.6905  2.9285 -2.1841
 7323SOL     OW33430   2.879   4.375  14.710 -0.0788 -0.9528 -0.5662
 7323SOL    HW133431   2.948   4.325  14.754  0.4546  0.2363 -0.0726
 7323SOL    HW233432   2.811   4.307  14.715 -0.5244 -0.5239 -0.7473
 7324SOL     OW33433   1.149   2.029   1.927  0.3232  0.1376 -0.3963
 7324SOL    HW133434   1.070   2.058   1.972 -1.0875 -2.5956 -1.0856
 7324SOL    HW233435   1.183   1.955   1.978 -1.4468 -0.0993  0.4619
 7325SOL     OW33436   0.378   2.802   7.962  0.1295  0.0292 -0.0889
 7325SOL    HW133437   0.324   2.742   7.911  0.3418  1.1476 -1.5972
 7325SOL    HW233438   0.329   2.807   8.044 -1.3445 -0.2331 -0.9621
 7326SOL     OW33439   3.074   1.582  11.197  0.0950 -0.2235 -0.1448
 7326SOL    HW133440   3.052   1.502  11.246  1.4285  0.3048  1.2770
 7326SOL    HW233441   3.043   1.656  11.248  0.3975  0.4755 -0.9805
 7327SOL     OW33442   2.529   3.899  10.853  1.0835 -0.0972 -0.3473
 7327SOL    HW133443   2.620   3.928  10.838  1.3942 -1.4912 -1.1202
 7327SOL    HW233444   2.504   3.863  10.768 -0.3891  2.7596 -1.1350
 7328SOL     OW33445   0.761   3.021   5.985 -0.3533 -0.3198  0.3697
 7328SOL    HW133446   0.837   2.987   6.032  0.6456  0.2908 -0.7669
 7328SOL    HW233447   0.681   2.975   6.010  1.5373 -2.6266  2.1922
 7329SOL     OW33448   2.763   2.716   3.701  0.3376  0.6403 -0.2690
 7329SOL    HW133449   2.723   2.639   3.660  0.6602  0.8719 -1.0177
 7329SOL    HW233450   2.854   2.688   3.710 -0.6166 -1.9273  1.1627
 7330SOL     OW33451   4.628   0.228   0.076  0.2610 -0.1376 -0.2970
 7330SOL    HW133452   4.559   0.275   0.123  0.4729  0.7187 -0.8571
 7330SOL    HW233453   4.587   0.231  17.683 -0.6776 -1.2076  0.1210
 7331SOL     OW33454   0.362   1.045   0.317 -0.1007  0.2418  0.3602
 7331SOL    HW133455   0.379   1.093   0.398  0.2926 -1.4697  1.2931
 7331SOL    HW233456   0.275   1.084   0.306 -1.4176 -2.2726  1.8724
 7332SOL     OW33457   1.315   1.116   3.361 -0.6320  0.5028 -0.3189
 7332SOL    HW133458   1.327   1.044   3.299 -3.5289  0.7096 -1.1268
 7332SOL    HW233459   1.359   1.092   3.442  1.6093  0.1533 -1.6159
 7333SOL     OW33460   0.238   1.143  14.933  0.4001  0.4179  0.1570
 7333SOL    HW133461   0.266   1.054  14.955 -0.7172  0.2017  0.6980
 7333SOL    HW233462   0.172   1.157  15.001 -0.9711 -0.0570 -1.0617
 7334SOL     OW33463   3.076   1.819   4.618 -0.0434  0.0569 -0.6034
 7334SOL    HW133464   3.109   1.892   4.566 -1.2873 -0.3985 -2.0367
 7334SOL    HW233465   3.137   1.805   4.690 -0.2095  2.5291 -0.0134
 7335SOL     OW33466   1.321   3.950  13.243  0.3571 -0.5326  0.5992
 7335SOL    HW133467   1.341   3.867  13.201 -1.8123 -0.0947 -1.3661
 7335SOL    HW233468   1.249   3.981  13.187  1.1158 -1.2477 -0.7894
 7336SOL     OW33469   0.663   2.033   0.327 -0.4388 -0.5165  0.1543
 7336SOL    HW133470   0.634   2.124   0.324 -0.5850 -0.5387  0.8989
 7336SOL    HW233471   0.591   1.982   0.290  0.1430 -0.6979 -0.7293
 7337SOL     OW33472   2.902   3.893   2.365  0.8008 -0.0863 -0.0638
 7337SOL    HW133473   2.867   3.865   2.280 -6.4645  0.3105  2.7749
 7337SOL    HW233474   2.830   3.856   2.417 -0.5129  0.1465 -1.6986
 7338SOL     OW33475   3.061   2.715  10.392  0.5756  0.1070 -0.0269
 7338SOL    HW133476   3.127   2.778  10.421  1.9215 -0.6673 -1.4571
 7338SOL    HW233477   2.983   2.770  10.405  0.2224 -0.4472  0.1710
 7339SOL     OW33478   4.462   2.077  10.967  0.2844  0.2139  0.5694
 7339SOL    HW133479   4.500   2.133  11.035  0.5727  2.3685 -1.3821
 7339SOL    HW233480   4.418   2.012  11.022 -2.7785  0.9568 -1.0494
 7340SOL     OW33481   2.713   1.609   3.867 -1.0118 -0.2246  0.5260
 7340SOL    HW133482   2.764   1.579   3.943 -3.3000  0.6492  2.4026
 7340SOL    HW233483   2.705   1.699   3.897 -1.2963 -0.6232  1.6652
 7341SOL     OW33484   3.177   4.560   4.337 -0.2831  0.0475 -0.0766
 7341SOL    HW133485   3.214   4.645   4.363 -0.1310 -0.3643  1.0684
 7341SOL    HW233486   3.251   4.512   4.301  0.0907  0.5716 -0.0082
 7342SOL     OW33487   1.193   3.850  13.997 -0.0253  0.2844  0.7123
 7342SOL    HW133488   1.257   3.857  14.068  0.7709  1.4380 -0.1127
 7342SOL    HW233489   1.212   3.757  13.989 -2.4022  0.0092 -1.5900
 7343SOL     OW33490   2.012   4.115   5.753 -0.2654  0.3880  0.7284
 7343SOL    HW133491   2.053   4.064   5.823 -1.0341  1.3026  1.8717
 7343SOL    HW233492   1.925   4.128   5.793  0.5405  3.6055  1.4562
 7344SOL     OW33493   0.106   3.672   8.633 -0.4739  0.2947 -0.4503
 7344SOL    HW133494   0.067   3.643   8.550  1.1128 -0.0333 -1.0844
 7344SOL    HW233495   0.183   3.617   8.645 -0.6771  0.1437  0.1825
 7345SOL     OW33496   2.476   3.737  11.382 -0.6610  0.3405 -0.0556
 7345SOL    HW133497   2.491   3.718  11.289 -1.4482  0.7387 -0.2640
 7345SOL    HW233498   2.452   3.829  11.392 -0.2786  0.1349  2.6562
 7346SOL     OW33499   2.529   0.304  15.525  0.2607  1.0923  0.2051
 7346SOL    HW133500   2.558   0.282  15.613  1.7797  0.4084 -0.4676
 7346SOL    HW233501   2.583   0.382  15.514  1.1228  0.7903  2.4317
 7347SOL     OW33502   3.344   4.283   7.042 -0.0463 -0.6669  0.2142
 7347SOL    HW133503   3.341   4.377   7.062 -3.8723 -0.1159 -2.8963
 7347SOL    HW233504   3.397   4.292   6.962 -1.4159  0.3105 -0.5847
 7348SOL     OW33505   1.436   3.172   3.806 -0.5477 -0.0180  0.1216
 7348SOL    HW133506   1.447   3.187   3.712 -3.0447  2.2901  0.1935
 7348SOL    HW233507   1.520   3.153   3.846 -0.7664  0.3270  0.7279
 7349SOL     OW33508   0.585   1.480   6.966  0.0617 -0.1876  0.7380
 7349SOL    HW133509   0.543   1.411   6.914 -2.3161  1.9269 -0.1467
 7349SOL    HW233510   0.590   1.551   6.902  1.0167  0.4541  1.5326
 7350SOL     OW33511   2.453   3.297   8.425 -0.1500  0.2104  0.4771
 7350SOL    HW133512   2.418   3.214   8.391  0.4779 -0.6040  1.7917
 7350SOL    HW233513   2.412   3.301   8.512  0.5900  0.2098  0.8235
 7351SOL     OW33514   1.978   1.142  10.995  0.1023  0.3269 -0.6922
 7351SOL    HW133515   2.009   1.070  10.941  1.2478  0.8965 -0.8158
 7351SOL    HW233516   2.067   1.162  11.027  0.3794 -0.0262 -1.2470
 7352SOL     OW33517   1.810   4.698   6.135  0.3513  0.1251  0.0478
 7352SOL    HW133518   1.897   4.718   6.169  1.7481 -2.0229 -2.3354
 7352SOL    HW233519   1.802   0.034   6.060 -2.3967 -2.1236 -1.4472
 7353SOL     OW33520   2.254   1.060   3.615  0.1270  0.1085 -0.1272
 7353SOL    HW133521   2.298   1.017   3.541  1.4262 -2.0853  1.9062
 7353SOL    HW233522   2.188   1.116   3.576 -0.0782 -0.3908 -0.4919
 7354SOL     OW33523   4.564   2.821   7.145  0.0012  0.4614  0.1004
 7354SOL    HW133524   4.512   2.804   7.224  0.6322  0.5368  0.5332
 7354SOL    HW233525   4.634   2.881   7.172 -0.6795  1.0088  0.6566
 7355SOL     OW33526   1.693   3.668   8.780  0.6162 -0.1272  0.0752
 7355SOL    HW133527   1.623   3.708   8.831  0.7306  1.1085 -0.7448
 7355SOL    HW233528   1.645   3.622   8.712  0.9581  2.0898 -1.6575
 7356SOL     OW33529   1.269   4.597   5.911 -0.1681  0.0584  0.3424
 7356SOL    HW133530   1.181   4.590   5.875 -0.7480 -0.8483  1.8950
 7356SOL    HW233531   1.325   4.531   5.871 -1.0817  0.0062 -0.8359
 7357SOL     OW33532   1.081   1.376  13.756 -0.0613 -0.8385  0.3288
 7357SOL    HW133533   1.011   1.358  13.819  0.3239  1.4855  1.4156
 7357SOL    HW233534   1.162   1.346  13.797 -1.7230 -2.7354  2.2167
 7358SOL     OW33535   2.926   0.320   8.046 -0.6763 -0.1152 -0.5477
 7358SOL    HW133536   2.989   0.391   8.036 -0.5771  0.0181  1.0664
 7358SOL    HW233537   2.903   0.329   8.138  0.1307 -1.1963 -0.2468
 7359SOL     OW33538   4.407   1.351   5.197  0.4057 -0.0023 -0.5809
 7359SOL    HW133539   4.502   1.366   5.192  0.4955  0.6284  3.1704
 7359SOL    HW233540   4.374   1.436   5.228  1.2395  0.4766 -0.9861
 7360SOL     OW33541   1.832   3.702   4.301  0.3966  0.2317 -0.4741
 7360SOL    HW133542   1.792   3.790   4.299 -0.3595 -0.0652  1.3608
 7360SOL    HW233543   1.818   3.682   4.394  0.0016 -1.9269 -0.9983
 7361SOL     OW33544   0.634   3.991   4.048 -0.8671 -0.2157  0.0874
 7361SOL    HW133545   0.719   4.035   4.053 -1.1227  0.1693  1.2173
 7361SOL    HW233546   0.612   3.996   4.141  0.4408 -1.7300  0.4724
 7362SOL     OW33547   3.954   0.863   5.947  0.1848 -0.1044  0.3151
 7362SOL    HW133548   4.019   0.854   5.877 -0.9022  2.5528 -1.0501
 7362SOL    HW233549   3.895   0.792   5.923 -0.0365  0.5384 -1.0562
 7363SOL     OW33550   2.034   0.684   6.405 -0.1866 -0.0289  0.2513
 7363SOL    HW133551   2.026   0.590   6.421  0.4210 -0.2534 -0.7233
 7363SOL    HW233552   2.022   0.722   6.492  0.7369  1.4024 -0.2424
 7364SOL     OW33553   1.507   3.452   7.569 -0.1208  0.0453  0.0227
 7364SOL    HW133554   1.477   3.366   7.540 -0.0207 -0.3822  1.1853
 7364SOL    HW233555   1.591   3.432   7.609 -1.2344 -2.1228  1.2791
 7365SOL     OW33556   3.848   4.704   7.385 -0.2493 -0.5126  0.2557
 7365SOL    HW133557   3.886   4.620   7.412  1.8004  0.0707 -0.7933
 7365SOL    HW233558   3.804   0.013   7.464  0.6591  2.6298 -0.5112
 7366SOL     OW33559   0.029   1.222   6.481 -0.0659  0.5435  0.1765
 7366SOL    HW133560   0.112   1.174   6.480 -0.8675 -0.8520  0.7790
 7366SOL    HW233561   0.009   1.231   6.388  1.4012  0.4288 -0.1591
 7367SOL     OW33562   2.886   0.602   7.210  0.3350  0.6341  0.2538
 7367SOL    HW133563   2.809   0.655   7.191  0.3816  1.1031  1.4244
 7367SOL    HW233564   2.948   0.667   7.241  2.8628 -1.5638 -0.1231
 7368SOL     OW33565   3.656   3.317   9.350 -0.2125  0.0228  0.1839
 7368SOL    HW133566   3.633   3.237   9.303 -0.4724  1.3549 -1.9654
 7368SOL    HW233567   3.699   3.366   9.279  0.6106 -2.8113 -1.2980
 7369SOL     OW33568   2.915   3.441  13.903  0.5295  0.5329  0.5188
 7369SOL    HW133569   2.947   3.531  13.916 -0.4947  0.6757  2.1123
 7369SOL    HW233570   2.953   3.398  13.980 -0.0469  0.3160  0.6847
 7370SOL     OW33571   3.571   3.230   3.228  0.3550  0.3322 -0.1916
 7370SOL    HW133572   3.609   3.247   3.314  2.3020  0.1846 -1.0178
 7370SOL    HW233573   3.484   3.199   3.253  0.6744 -0.1678  0.3042
 7371SOL     OW33574   1.957   1.453   4.501 -0.1619  0.4094 -0.0310
 7371SOL    HW133575   1.980   1.386   4.437 -3.2395  0.3190 -0.9910
 7371SOL    HW233576   1.962   1.406   4.584 -1.8776  2.2741  1.1216
 7372SOL     OW33577   0.084   4.116   9.197 -0.5840  0.4614 -0.6939
 7372SOL    HW133578   0.018   4.153   9.139  0.8456  0.7652 -2.1369
 7372SOL    HW233579   0.064   4.139   9.287  3.4107  0.3113  0.2441
 7373SOL     OW33580   1.356   4.060   2.442  0.0823  0.2705 -1.1693
 7373SOL    HW133581   1.410   4.001   2.496  1.4065  1.8963 -0.6849
 7373SOL    HW233582   1.359   4.139   2.497  1.1210 -1.7426  1.7056
 7374SOL     OW33583   2.159   2.323   3.616  0.5818  0.0551  0.5367
 7374SOL    HW133584   2.190   2.233   3.604 -1.3785 -0.3671 -1.4953
 7374SOL    HW233585   2.091   2.338   3.550 -0.0575  1.7991  1.5901
 7375SOL     OW33586   1.834   0.432   7.790 -0.2029 -0.1573 -0.0828
 7375SOL    HW133587   1.799   0.361   7.844  1.4842 -2.0847 -1.5368
 7375SOL    HW233588   1.926   0.433   7.814 -0.3029 -0.1682  0.3070
 7376SOL     OW33589   2.083   3.402   4.956 -0.6275  0.3608 -0.4627
 7376SOL    HW133590   2.101   3.331   5.018  1.0832  2.3020  1.2691
 7376SOL    HW233591   2.153   3.460   4.987  0.3868 -1.3815  0.4732
 7377SOL     OW33592   2.672   4.205   6.736  0.5458  0.0924  0.3324
 7377SOL    HW133593   2.720   4.204   6.819  0.9069  1.0996  0.1429
 7377SOL    HW233594   2.611   4.279   6.743  0.1075 -0.3007  0.6027
 7378SOL     OW33595   0.332   0.303   3.364  0.5511  0.3773 -0.3146
 7378SOL    HW133596   0.375   0.250   3.297  0.7404 -0.2668  0.3272
 7378SOL    HW233597   0.402   0.336   3.420  0.2499 -1.3232  1.0579
 7379SOL     OW33598   4.543   2.576   4.055  0.3280 -0.9427 -0.6490
 7379SOL    HW133599   4.605   2.646   4.074 -1.8267  0.5305  0.9171
 7379SOL    HW233600   4.575   2.532   3.976 -0.6990 -0.4052 -1.3733
 7380SOL     OW33601   0.869   1.113   3.542  0.1738  0.2097  0.2893
 7380SOL    HW133602   0.890   1.160   3.622 -0.9531 -0.6313  1.0756
 7380SOL    HW233603   0.945   1.142   3.492 -0.1382  1.3965  0.5105
 7381SOL     OW33604   1.105   0.694   8.883  0.1815  0.1161  0.1204
 7381SOL    HW133605   1.185   0.732   8.847  1.1765 -1.3998  0.7321
 7381SOL    HW233606   1.120   0.712   8.975  1.4873  4.9377 -1.0308
 7382SOL     OW33607   3.156   1.013   8.991  0.0955 -0.3107  0.6718
 7382SOL    HW133608   3.190   1.013   9.080  1.2752 -2.4029  0.2019
 7382SOL    HW233609   3.113   1.098   9.003  2.6027  0.9563  0.5800
 7383SOL     OW33610   1.719   3.000   3.045 -0.4381  0.6603 -0.4058
 7383SOL    HW133611   1.697   3.093   3.053  0.9027  0.9417 -0.0198
 7383SOL    HW233612   1.798   2.996   3.099  0.5918  1.9242 -1.8352
 7384SOL     OW33613   0.443   0.754  12.551  0.0926  0.9125 -0.6301
 7384SOL    HW133614   0.374   0.755  12.485  0.7613 -0.2593 -1.3369
 7384SOL    HW233615   0.528   0.751  12.507  0.1484  0.0899 -0.4557
 7385SOL     OW33616   1.528   3.913   5.789 -0.5634 -0.8971  0.6655
 7385SOL    HW133617   1.573   3.842   5.742 -2.0101 -0.6878 -1.0600
 7385SOL    HW233618   1.438   3.894   5.760  0.4047  1.2348 -3.7843
 7386SOL     OW33619   1.473   1.769   0.845 -0.1834  0.6641 -0.2302
 7386SOL    HW133620   1.442   1.825   0.916  0.8750 -0.7983  1.4099
 7386SOL    HW233621   1.459   1.682   0.882 -0.5989  2.1707  3.1825
 7387SOL     OW33622   1.442   4.080   3.092 -0.0748  0.6079  0.4628
 7387SOL    HW133623   1.415   4.147   3.029  0.9012  1.2579  0.7364
 7387SOL    HW233624   1.384   4.107   3.164 -0.1550 -0.3443  0.7577
 7388SOL     OW33625   1.841   4.440   7.833 -0.2358  0.2090 -0.3546
 7388SOL    HW133626   1.852   4.519   7.887 -1.9385 -1.2740  2.1694
 7388SOL    HW233627   1.745   4.441   7.830 -0.2685  0.4338  0.6111
 7389SOL     OW33628   4.125   3.742   6.010 -0.0293 -0.3573  0.0701
 7389SOL    HW133629   4.209   3.698   6.029  0.3299 -0.0315 -0.7676
 7389SOL    HW233630   4.112   3.691   5.930 -0.7005  2.5429 -1.6523
 7390SOL     OW33631   2.699   1.396   9.034  0.4123 -0.2126 -0.0339
 7390SOL    HW133632   2.606   1.408   9.048  0.3815 -0.3628 -0.1106
 7390SOL    HW233633   2.733   1.392   9.123  0.7055 -0.6730 -0.1638
 7391SOL     OW33634   3.309   2.362   8.043 -0.1404 -0.0720  0.4986
 7391SOL    HW133635   3.366   2.310   8.099  2.6235  2.2736 -0.1476
 7391SOL    HW233636   3.306   2.445   8.091 -0.4202 -0.1263  0.5771
 7392SOL     OW33637   0.455   4.200   4.422  0.4487 -0.5696  0.0266
 7392SOL    HW133638   0.408   4.197   4.339  0.3957  1.1189  0.0007
 7392SOL    HW233639   0.540   4.163   4.400  1.0411  0.9800 -0.2828
 7393SOL     OW33640   2.085   2.326  10.718  0.5098  0.3683  0.1147
 7393SOL    HW133641   2.081   2.397  10.782 -1.4932  0.3366  0.0312
 7393SOL    HW233642   2.048   2.363  10.637 -2.2463  1.2551  1.7673
 7394SOL     OW33643   4.285   2.849   6.765 -0.1436 -0.5208 -0.4492
 7394SOL    HW133644   4.265   2.896   6.846  1.3662 -0.0820 -0.3280
 7394SOL    HW233645   4.376   2.880   6.759 -0.2597 -0.1041 -0.0714
 7395SOL     OW33646   3.688   4.257   0.423 -0.0908  0.3540  0.1202
 7395SOL    HW133647   3.668   4.169   0.392 -0.7369  0.4618  0.2199
 7395SOL    HW233648   3.650   4.249   0.510 -0.3199  0.0062 -0.0130
 7396SOL     OW33649   2.098   0.646   1.956  0.1876  0.0549 -0.7023
 7396SOL    HW133650   2.085   0.692   1.873  0.7439  1.3914 -0.0632
 7396SOL    HW233651   2.167   0.684   2.011  0.4376 -0.5505 -0.5948
 7397SOL     OW33652   3.704   3.987   8.131 -0.1853 -0.3704 -0.6017
 7397SOL    HW133653   3.774   3.935   8.093 -0.5088 -0.6450 -0.8227
 7397SOL    HW233654   3.725   4.064   8.077  0.2251  1.2751  1.9086
 7398SOL     OW33655   3.139   0.647  10.415 -0.1862  0.0959 -0.1318
 7398SOL    HW133656   3.173   0.558  10.406 -1.7769 -0.5842  0.4229
 7398SOL    HW233657   3.217   0.702  10.413 -0.2030  0.1435  0.3865
 7399SOL     OW33658   2.277   0.428  13.651  0.1915  0.6938  0.4537
 7399SOL    HW133659   2.359   0.391  13.682 -0.0661  2.3474  3.0626
 7399SOL    HW233660   2.264   0.515  13.689  1.5221  0.3047  1.7728
 7400SOL     OW33661   0.333   0.439   5.746  0.2681  0.0241  0.5434
 7400SOL    HW133662   0.381   0.384   5.683  0.4476 -2.2428  2.6842
 7400SOL    HW233663   0.403   0.465   5.805  0.8529 -0.5283  0.0915
 7401SOL     OW33664   1.921   3.139   5.929  0.0764  0.3552  0.2264
 7401SOL    HW133665   1.917   3.177   5.842  0.2509  0.7401  0.3883
 7401SOL    HW233666   1.932   3.046   5.908 -0.3620  0.5413 -0.7995
 7402SOL     OW33667   2.812   1.897   4.449  0.4836 -0.4871  0.4653
 7402SOL    HW133668   2.749   1.953   4.494  0.0720  0.0537 -0.8126
 7402SOL    HW233669   2.874   1.886   4.522  1.5426  1.9274 -0.0669
 7403SOL     OW33670   1.255   0.364  14.772  0.3461 -0.0277 -0.2283
 7403SOL    HW133671   1.221   0.335  14.687 -0.2562 -1.5022  0.5062
 7403SOL    HW233672   1.212   0.448  14.786 -2.1232 -0.6781 -3.9158
 7404SOL     OW33673   3.411   3.614   1.823 -0.3729  0.2333  0.0624
 7404SOL    HW133674   3.455   3.699   1.826 -1.6919  0.8439  2.0383
 7404SOL    HW233675   3.320   3.641   1.819 -0.4078  0.2790  1.0135
 7405SOL     OW33676   3.821   0.348   9.295  0.4673  0.1587 -0.1407
 7405SOL    HW133677   3.798   0.437   9.320 -1.7627 -0.5930  0.4761
 7405SOL    HW233678   3.783   0.339   9.207 -2.1889 -1.2243  1.1341
 7406SOL     OW33679   2.451   4.364  12.097 -0.4394 -0.2796  0.0530
 7406SOL    HW133680   2.413   4.435  12.148 -3.5605 -0.5225 -1.8710
 7406SOL    HW233681   2.378   4.329  12.045 -1.6169 -0.0428  1.5445
 7407SOL     OW33682   4.320   1.894   4.510 -0.4699  0.1564  0.7905
 7407SOL    HW133683   4.389   1.920   4.449 -2.0431  0.4824 -0.8477
 7407SOL    HW233684   4.288   1.975   4.550 -1.2638  0.0452  0.3913
 7408SOL     OW33685   0.319   3.561   5.075  0.1178  0.1015 -0.5345
 7408SOL    HW133686   0.368   3.576   5.156  2.0558  0.3758 -1.7581
 7408SOL    HW233687   0.269   3.642   5.083 -3.4399 -2.0336 -1.3435
 7409SOL     OW33688   0.278   3.942   2.127 -0.5790  0.1285 -0.4670
 7409SOL    HW133689   0.288   3.983   2.041 -0.9489  0.3527 -0.4010
 7409SOL    HW233690   0.365   3.902   2.135 -0.8962 -0.3656  0.4770
 7410SOL     OW33691   1.522   0.003   2.606 -0.2826  0.3853  0.3761
 7410SOL    HW133692   1.514   4.713   2.701 -0.9448  2.4821  0.6221
 7410SOL    HW233693   1.501   0.097   2.607 -0.1834  0.4161 -0.3878
 7411SOL     OW33694   1.671   1.290   3.767 -0.9949  0.2141  0.3143
 7411SOL    HW133695   1.628   1.228   3.826 -0.8708  1.4278  1.6794
 7411SOL    HW233696   1.655   1.371   3.815  1.1158  0.5360  0.4608
 7412SOL     OW33697   2.959   0.005   8.427 -0.1644 -0.8715 -0.1757
 7412SOL    HW133698   3.051   4.716   8.447 -0.1769  2.4117  1.9443
 7412SOL    HW233699   2.928   4.706   8.514 -0.5836  0.8766  0.1246
 7413SOL     OW33700   3.601   3.747  12.119 -0.5850  0.0854 -0.0050
 7413SOL    HW133701   3.632   3.833  12.148 -2.5258  1.2917 -1.4980
 7413SOL    HW233702   3.639   3.686  12.182 -0.3182 -0.3300 -0.5667
 7414SOL     OW33703   4.713   2.571  17.152 -0.1040  0.3992  0.2257
 7414SOL    HW133704   0.077   2.551  17.116  0.1144 -0.6669  1.3306
 7414SOL    HW233705   4.704   2.492  17.206  1.1825 -0.6678 -1.1218
 7415SOL     OW33706   1.401   1.114   4.671  0.4731 -0.1204 -0.0082
 7415SOL    HW133707   1.386   1.204   4.701  1.5703  0.3403 -0.8394
 7415SOL    HW233708   1.495   1.111   4.686  1.0748  0.9933 -3.3986
 7416SOL     OW33709   4.040   1.029   7.441 -0.1772  0.1894 -0.1499
 7416SOL    HW133710   4.008   0.998   7.526 -0.3298 -1.0164 -0.6427
 7416SOL    HW233711   4.130   0.998   7.452 -1.5931 -3.2618  1.8989
 7417SOL     OW33712   2.767   3.512   4.579 -0.4820 -0.2326  0.2219
 7417SOL    HW133713   2.765   3.418   4.563  1.2646 -0.0686 -0.9129
 7417SOL    HW233714   2.740   3.516   4.671  0.2574 -1.4650  0.4860
 7418SOL     OW33715   3.174   1.145   4.091 -0.1393 -0.6785 -0.7112
 7418SOL    HW133716   3.163   1.240   4.102 -0.5868 -0.8841  0.6532
 7418SOL    HW233717   3.144   1.147   4.000 -0.9921 -1.1498 -0.4360
 7419SOL     OW33718   1.009   2.959  16.572 -0.0387  0.1694  0.1706
 7419SOL    HW133719   0.939   2.900  16.599 -1.5160  1.0379 -1.7657
 7419SOL    HW233720   0.948   3.025  16.538  0.1666  0.1026 -0.3220
 7420SOL     OW33721   2.777   2.716  13.345 -0.3217  0.0008  0.0447
 7420SOL    HW133722   2.713   2.752  13.283 -1.1638 -0.8306  0.4350
 7420SOL    HW233723   2.821   2.653  13.289  0.8646 -0.0455  1.0206
 7421SOL     OW33724   0.865   4.674   2.562 -0.4835  0.0166  0.4943
 7421SOL    HW133725   0.870   0.044   2.586 -1.2672  0.4689 -1.0901
 7421SOL    HW233726   0.771   4.663   2.562 -0.6084  1.0139  0.5730
 7422SOL     OW33727   1.791   1.255   7.502  0.6586 -0.2258 -0.1292
 7422SOL    HW133728   1.764   1.241   7.411  1.0516  0.5973 -0.3761
 7422SOL    HW233729   1.803   1.163   7.526  0.6739 -0.1942 -0.0131
 7423SOL     OW33730   1.738   3.966  17.617  0.4601  0.5273  0.0300
 7423SOL    HW133731   1.734   3.916   0.005  1.4025  1.2395  0.5126
 7423SOL    HW233732   1.832   3.967  17.599  0.1429 -1.9158 -1.6617
 7424SOL     OW33733   0.569   0.817   6.273 -0.6347 -0.1050 -0.6051
 7424SOL    HW133734   0.534   0.827   6.362  0.1268  2.3495 -0.5725
 7424SOL    HW233735   0.618   0.736   6.286  0.3725  0.6846  0.5354
 7425SOL     OW33736   1.505   1.032   6.697 -0.0318  0.0888 -0.6789
 7425SOL    HW133737   1.510   1.025   6.601  0.3882  0.5476 -0.6926
 7425SOL    HW233738   1.548   1.115   6.722 -2.5447  0.2834  2.9204
 7426SOL     OW33739   1.284   2.732  16.413  0.2408  0.0954  0.4865
 7426SOL    HW133740   1.225   2.703  16.343 -3.0188 -0.0182  3.2967
 7426SOL    HW233741   1.358   2.671  16.417  0.1010 -0.1192 -0.1476
 7427SOL     OW33742   2.742   2.595  13.591  0.0840 -0.2209  0.6629
 7427SOL    HW133743   2.697   2.654  13.652  1.6302  1.5712  0.0791
 7427SOL    HW233744   2.743   2.633  13.503  0.4652 -1.0451  0.3165
 7428SOL     OW33745   3.411   3.296   0.677  0.5807  0.9633 -0.1184
 7428SOL    HW133746   3.406   3.372   0.735 -2.1138  0.7880 -0.1322
 7428SOL    HW233747   3.326   3.306   0.634  0.7098  0.7908 -0.4146
 7429SOL     OW33748   1.803   2.530   9.474 -0.1658  0.1167 -0.0176
 7429SOL    HW133749   1.872   2.550   9.537 -0.7701  1.0575  0.3417
 7429SOL    HW233750   1.735   2.596   9.486 -1.6362 -1.1444 -1.4764
 7430SOL     OW33751   2.922   1.090  14.247  0.1740  0.0599 -0.2227
 7430SOL    HW133752   3.010   1.057  14.226  0.8899 -0.0288  2.9250
 7430SOL    HW233753   2.858   1.037  14.200 -0.3255  1.4066 -1.0580
 7431SOL     OW33754   1.816   0.556  12.626 -0.2880 -0.0165 -0.2624
 7431SOL    HW133755   1.834   0.641  12.665 -1.8665 -0.4290  1.3664
 7431SOL    HW233756   1.867   0.573  12.547 -0.1967  1.1762  0.0461
 7432SOL     OW33757   0.763   4.436  15.109 -0.5480 -0.1895 -0.2138
 7432SOL    HW133758   0.790   4.508  15.166 -0.2743 -1.5683  1.4196
 7432SOL    HW233759   0.817   4.434  15.030 -0.7338  0.0181 -0.3428
 7433SOL     OW33760   0.336   1.608   3.108  0.3559 -0.3628  1.0071
 7433SOL    HW133761   0.297   1.686   3.146  0.9614  0.5468 -0.2288
 7433SOL    HW233762   0.327   1.620   3.014 -1.0277  0.6336  1.2695
 7434SOL     OW33763   0.934   3.335   5.970 -0.0363  0.4241 -0.4226
 7434SOL    HW133764   0.934   3.241   5.953  0.5080  0.6448 -1.6499
 7434SOL    HW233765   0.918   3.356   5.878 -1.4750 -1.5200 -0.6185
 7435SOL     OW33766   1.117   0.559  15.236  0.5712 -0.6581 -0.4718
 7435SOL    HW133767   1.161   0.551  15.151 -1.6646 -1.1986 -1.5709
 7435SOL    HW233768   1.093   0.651  15.234  0.2314 -0.7516 -0.6918
 7436SOL     OW33769   3.276   2.793   4.973  0.5044  0.6531 -0.0520
 7436SOL    HW133770   3.328   2.835   5.043  2.0830  1.1861 -1.5345
 7436SOL    HW233771   3.350   2.760   4.921 -0.8991  1.4790 -2.5524
 7437SOL     OW33772   3.132   1.809   1.889  0.2648 -0.3123  0.3935
 7437SOL    HW133773   3.079   1.735   1.858  0.2767 -0.5445  0.9264
 7437SOL    HW233774   3.186   1.767   1.956  0.0467 -1.8496 -0.3878
 7438SOL     OW33775   3.690   0.331   9.057  0.0041 -0.2823 -0.6620
 7438SOL    HW133776   3.730   0.404   9.009 -3.5321  1.1323 -1.4466
 7438SOL    HW233777   3.598   0.344   9.037 -0.3276  0.9858  1.7848
 7439SOL     OW33778   1.407   0.503   2.273  0.6528 -0.0042  0.0371
 7439SOL    HW133779   1.442   0.415   2.291  4.7365  1.6485  0.1449
 7439SOL    HW233780   1.492   0.545   2.275  0.9157 -0.4771 -1.6797
 7440SOL     OW33781   2.486   4.556   3.537  0.3656  0.3176 -0.3082
 7440SOL    HW133782   2.558   4.526   3.593  0.0877  1.6502  0.7632
 7440SOL    HW233783   2.480   4.485   3.473  2.8982 -0.5108  0.3504
 7441SOL     OW33784   3.485   0.236   5.472 -0.3100 -0.0787 -0.1318
 7441SOL    HW133785   3.410   0.185   5.504 -1.5545  0.6479 -1.8980
 7441SOL    HW233786   3.539   0.165   5.437 -0.6227 -0.7964  0.8240
 7442SOL     OW33787   2.706   1.989   2.220  0.0730 -0.5152 -0.1470
 7442SOL    HW133788   2.788   1.959   2.258  0.1616  1.1875  1.0521
 7442SOL    HW233789   2.680   1.916   2.164  1.0386  0.2495 -1.5700
 7443SOL     OW33790   3.070   3.996  14.890  0.2660  0.3729 -0.3966
 7443SOL    HW133791   3.040   3.985  14.980  0.9932  0.2231 -0.1726
 7443SOL    HW233792   3.027   3.918  14.853  1.5611  0.6056 -2.3542
 7444SOL     OW33793   3.664   0.154   4.508 -0.0980 -0.0070  0.4499
 7444SOL    HW133794   3.656   0.105   4.426 -0.5043  1.0474 -0.1389
 7444SOL    HW233795   3.657   0.244   4.476  0.0665  0.7504  2.5392
 7445SOL     OW33796   0.094   1.182   0.391  1.1311 -0.7202 -0.3886
 7445SOL    HW133797   0.067   1.192   0.483  1.5043 -1.7765 -0.1523
 7445SOL    HW233798   0.011   1.153   0.354  0.4182  1.4582 -0.4575
 7446SOL     OW33799   2.124   3.240  12.433  0.3031  0.5698  0.0152
 7446SOL    HW133800   2.047   3.234  12.491 -0.2471 -0.2383 -0.8038
 7446SOL    HW233801   2.129   3.156  12.388 -1.1454 -0.4238  1.6858
 7447SOL     OW33802   1.442   2.035   2.594  0.3624 -0.5056 -0.3073
 7447SOL    HW133803   1.427   2.076   2.509  0.2009 -0.5559 -0.3019
 7447SOL    HW233804   1.436   1.942   2.572  2.5576 -0.4471 -1.2007
 7448SOL     OW33805   1.626   2.843   4.042  0.3340  0.6498  0.2136
 7448SOL    HW133806   1.640   2.748   4.051 -1.1384  0.3175 -1.0140
 7448SOL    HW233807   1.709   2.883   4.016 -0.6558  2.7726  0.3271
 7449SOL     OW33808   2.654   2.153   5.977 -0.7546  0.8139  0.0584
 7449SOL    HW133809   2.580   2.097   6.000  1.2047 -1.5334  0.6521
 7449SOL    HW233810   2.718   2.107   6.031 -0.5266  0.4650 -0.4973
 7450SOL     OW33811   2.777   2.986  13.221 -0.2959  0.0495  0.1620
 7450SOL    HW133812   2.802   3.041  13.295  1.2724 -0.0504 -0.2807
 7450SOL    HW233813   2.841   3.020  13.158  0.3644  1.7596  1.7266
 7451SOL     OW33814   4.349   4.112   9.182  0.0950 -0.1243 -0.2886
 7451SOL    HW133815   4.350   4.151   9.095 -1.8959 -0.1303 -0.3141
 7451SOL    HW233816   4.389   4.025   9.175  1.1976  0.3714 -0.1428
 7452SOL     OW33817   1.751   0.135  15.838  0.0907  0.8272  0.1624
 7452SOL    HW133818   1.687   0.206  15.844 -0.0967  0.7089 -0.4444
 7452SOL    HW233819   1.786   0.144  15.749 -2.9465  0.9637 -1.0231
 7453SOL     OW33820   4.352   4.721   2.238  0.0095 -0.2389  0.0143
 7453SOL    HW133821   4.258   4.701   2.248 -0.2764  1.0323 -0.1394
 7453SOL    HW233822   4.351   0.091   2.261 -0.2609 -0.4230  0.7563
 7454SOL     OW33823   3.852   4.505   6.380 -0.2458 -0.0278 -0.1437
 7454SOL    HW133824   3.891   4.500   6.467  0.5075  3.6352 -0.2810
 7454SOL    HW233825   3.907   4.440   6.337  1.1847  0.6302  0.7155
 7455SOL     OW33826   2.630   2.757   3.940  0.2525  0.2918  0.0568
 7455SOL    HW133827   2.667   2.749   3.853 -2.7774  0.4240 -1.2304
 7455SOL    HW233828   2.616   2.663   3.948 -2.0907  0.4966 -1.8498
 7456SOL     OW33829   0.015   0.644   5.891  0.1771 -0.2059  0.2382
 7456SOL    HW133830   0.057   0.638   5.806 -1.7882 -3.7602 -0.4897
 7456SOL    HW233831   0.090   0.617   5.944  1.3311  1.2874 -0.6549
 7457SOL     OW33832   3.659   2.609   2.362 -0.0013 -0.5102 -0.2981
 7457SOL    HW133833   3.597   2.543   2.331 -1.0217 -0.2137  1.0695
 7457SOL    HW233834   3.613   2.659   2.430 -0.8208 -0.4955 -0.8685
 7458SOL     OW33835   1.355   0.278   0.222 -0.4982 -0.3170 -0.0264
 7458SOL    HW133836   1.395   0.227   0.292  1.5178  0.2960 -0.7186
 7458SOL    HW233837   1.305   0.338   0.277 -2.5934 -0.0766 -2.1818
 7459SOL     OW33838   3.033   4.519   4.810 -0.4574  0.6141 -0.0437
 7459SOL    HW133839   3.090   4.540   4.884 -1.3283  0.6572  0.6221
 7459SOL    HW233840   3.102   4.500   4.747 -1.0526  0.0957 -0.5372
 7460SOL     OW33841   4.494   3.174  17.105 -0.3556 -0.5676 -0.1264
 7460SOL    HW133842   4.554   3.117  17.154  0.1171 -1.4528 -1.7305
 7460SOL    HW233843   4.518   3.264  17.127 -1.0583 -0.5772  0.6907
 7461SOL     OW33844   0.653   0.753  14.381  0.1106 -0.4865  0.6076
 7461SOL    HW133845   0.587   0.820  14.361  0.0956 -0.1426  1.8286
 7461SOL    HW233846   0.727   0.807  14.409 -0.4712  0.5723  0.1247
 7462SOL     OW33847   2.732   4.440   8.560 -0.2873 -0.3103  0.1514
 7462SOL    HW133848   2.759   4.381   8.630 -1.7427 -0.5301  0.5372
 7462SOL    HW233849   2.758   4.396   8.479 -0.8054 -0.2458 -0.0496
 7463SOL     OW33850   0.613   0.330   8.241  0.1410  0.1116 -0.5380
 7463SOL    HW133851   0.567   0.395   8.294  1.6499  0.0472  0.8174
 7463SOL    HW233852   0.553   0.330   8.166 -1.4262 -0.5391  0.7148
 7464SOL     OW33853   4.586   2.500   7.878 -0.2003 -0.2481  0.0942
 7464SOL    HW133854   4.633   2.541   7.950  0.5434  2.1751 -1.7579
 7464SOL    HW233855   4.527   2.440   7.923 -0.6152  0.8507  1.0180
 7465SOL     OW33856   3.824   0.649   7.610 -0.1762 -0.3322 -0.5896
 7465SOL    HW133857   3.808   0.662   7.516  0.8180 -1.3765 -0.9151
 7465SOL    HW233858   3.743   0.602   7.630  0.8295 -1.6855  0.3064
 7466SOL     OW33859   0.474   3.416   0.493 -0.2751 -0.0113  0.1778
 7466SOL    HW133860   0.533   3.423   0.418 -0.5625  2.9572  0.2430
 7466SOL    HW233861   0.531   3.437   0.567  0.9324  0.8588 -1.0048
 7467SOL     OW33862   3.971   4.431   6.165  0.3443  0.3246 -0.2475
 7467SOL    HW133863   3.906   4.500   6.156  2.4413  2.2985 -0.4120
 7467SOL    HW233864   4.045   4.472   6.120 -0.4897  1.1330 -0.8867
 7468SOL     OW33865   4.112   2.651  10.457  0.1384  0.3170  0.0892
 7468SOL    HW133866   4.181   2.586  10.443 -0.4389 -0.5735  1.3679
 7468SOL    HW233867   4.054   2.604  10.518  0.3315  1.2931  1.0160
 7469SOL     OW33868   0.038   0.042   1.517 -0.0787 -0.7262 -0.1964
 7469SOL    HW133869   0.016   4.672   1.516 -4.1606  0.2091  0.0625
 7469SOL    HW233870   4.702   0.080   1.451 -0.6469  0.5849  1.0650
 7470SOL     OW33871   1.136   0.538  17.032 -0.2591  0.4804  0.2265
 7470SOL    HW133872   1.185   0.598  16.976  1.8493 -1.1850  0.3092
 7470SOL    HW233873   1.188   0.458  17.032  1.4732  1.6055 -2.2919
 7471SOL     OW33874   1.199   0.610   4.732 -0.1682 -0.1046 -0.3877
 7471SOL    HW133875   1.190   0.632   4.639 -0.0685 -2.1457 -0.8645
 7471SOL    HW233876   1.267   0.544   4.719 -1.7625 -1.6246 -0.8368
 7472SOL     OW33877   1.936   3.528  13.236  0.3377 -0.4541 -0.2758
 7472SOL    HW133878   1.917   3.547  13.328 -2.1287 -0.1648 -0.8539
 7472SOL    HW233879   1.957   3.610  13.191  0.7968  0.4687  1.6400
 7473SOL     OW33880   3.984   2.586   5.811 -0.2331 -0.3200  0.0152
 7473SOL    HW133881   4.031   2.657   5.853 -0.5760 -1.2764  2.0317
 7473SOL    HW233882   3.917   2.566   5.876  0.8499 -0.8396  0.9705
 7474SOL     OW33883   4.235   4.490   5.344 -0.5132  0.3343  0.6144
 7474SOL    HW133884   4.322   4.530   5.343  0.2681 -1.4123 -0.5195
 7474SOL    HW233885   4.245   4.428   5.416  3.5090  2.1126  1.5835
 7475SOL     OW33886   1.325   4.092   5.544  0.0976 -0.0497  0.2545
 7475SOL    HW133887   1.308   4.040   5.623 -0.1621  1.8232  1.4481
 7475SOL    HW233888   1.322   4.027   5.474 -0.3074 -1.0121  1.1712
 7476SOL     OW33889   3.053   3.492   4.860 -0.4149  0.4999  0.3533
 7476SOL    HW133890   3.141   3.456   4.874 -0.8495 -1.0920 -0.9608
 7476SOL    HW233891   3.016   3.497   4.948 -0.9821 -1.0240  0.1900
 7477SOL     OW33892   3.001   3.774   8.812 -0.1900  0.0953  0.1953
 7477SOL    HW133893   3.029   3.719   8.886  0.9252  1.5193  0.8244
 7477SOL    HW233894   2.925   3.819   8.849  0.6570  0.3023  1.7029
 7478SOL     OW33895   2.163   3.034   8.610  0.2636  0.4107  0.5764
 7478SOL    HW133896   2.175   3.023   8.704 -0.9226 -0.4111  0.6376
 7478SOL    HW233897   2.139   3.127   8.606 -0.7956  0.2062  2.0191
 7479SOL     OW33898   2.115   0.187  10.247 -0.4055  0.1346 -0.4509
 7479SOL    HW133899   2.147   0.270  10.284 -0.0618 -0.3056  0.2348
 7479SOL    HW233900   2.071   0.146  10.322  2.5569 -1.6752  0.2939
 7480SOL     OW33901   4.567   2.906   8.294  0.0982  0.3940  0.2352
 7480SOL    HW133902   4.502   2.972   8.268 -0.2467 -0.4577 -1.0388
 7480SOL    HW233903   4.521   2.833   8.254 -0.1950 -0.1766  1.6109
 7481SOL     OW33904   0.635   1.960   7.462  0.2045  0.2233  0.0052
 7481SOL    HW133905   0.727   1.967   7.439 -0.1002  0.4374 -1.1551
 7481SOL    HW233906   0.610   2.052   7.476  0.6920  0.1294  1.5132
 7482SOL     OW33907   0.657   2.754   7.668 -0.0251 -0.1279 -0.2416
 7482SOL    HW133908   0.675   2.661   7.676  2.0778  0.3509  0.5265
 7482SOL    HW233909   0.591   2.776   7.734 -0.6331  0.6242 -1.1052
 7483SOL     OW33910   3.303   2.164   4.178  0.0648 -0.1289 -0.5710
 7483SOL    HW133911   3.280   2.255   4.198 -0.6549 -0.0665 -1.6514
 7483SOL    HW233912   3.210   2.139   4.176  0.0347 -0.1481  1.4874
 7484SOL     OW33913   2.617   3.955   2.315 -0.2145 -0.3717 -0.5523
 7484SOL    HW133914   2.547   4.018   2.301  0.3343  0.3097 -0.2133
 7484SOL    HW233915   2.569   3.874   2.296  0.0411 -0.6622  0.0504
 7485SOL     OW33916   3.072   4.717   8.096 -1.1248  0.1230  0.6280
 7485SOL    HW133917   3.114   4.646   8.143  0.7718  2.0956  1.9416
 7485SOL    HW233918   3.022   0.041   8.163  1.1156  1.1787  1.5671
 7486SOL     OW33919   3.641   3.131   9.182  0.2366  0.9445 -0.0423
 7486SOL    HW133920   3.624   3.160   9.092  0.2145 -2.6028 -1.1654
 7486SOL    HW233921   3.608   3.042   9.176 -1.3228  1.5331 -0.1173
 7487SOL     OW33922   4.397   4.417  10.524  0.0682  0.0693 -0.4039
 7487SOL    HW133923   4.304   4.397  10.534  0.0762 -0.7549 -1.8983
 7487SOL    HW233924   4.399   4.513  10.530 -2.7642  0.0941  0.1019
 7488SOL     OW33925   0.322   0.030   6.046  0.0498 -1.0868 -0.5079
 7488SOL    HW133926   0.345   4.683   6.107 -1.2777 -0.9126  0.2079
 7488SOL    HW233927   0.350   4.717   5.962  2.8828 -0.3590  0.1517
 7489SOL     OW33928   4.512   1.977   7.767 -0.1150 -0.0908  0.4155
 7489SOL    HW133929   4.587   1.981   7.707  0.9428 -0.6132  1.6913
 7489SOL    HW233930   4.525   1.887   7.797  1.1377  0.4018  1.3575
 7490SOL     OW33931   2.059   3.167  11.089 -0.4196  0.2579  0.1487
 7490SOL    HW133932   1.990   3.204  11.144 -0.1251  1.0434 -0.0097
 7490SOL    HW233933   2.010   3.172  11.007  0.4496 -0.3988 -0.4158
 7491SOL     OW33934   3.807   3.306   6.971  0.5219 -0.3148 -0.0616
 7491SOL    HW133935   3.745   3.266   7.032 -1.4152  2.8935  0.0647
 7491SOL    HW233936   3.886   3.281   7.020 -0.5236 -2.1898  0.6659
 7492SOL     OW33937   3.658   0.488   5.489 -0.3833  0.0960 -0.9481
 7492SOL    HW133938   3.743   0.485   5.444 -1.6159 -1.4864 -3.1533
 7492SOL    HW233939   3.664   0.401   5.528  0.8640  1.3062  1.5122
 7493SOL     OW33940   4.700   0.775   4.386  0.9440 -0.5508 -0.0990
 7493SOL    HW133941   4.632   0.840   4.369  2.3871 -0.0719 -3.9292
 7493SOL    HW233942   4.700   0.728   4.302  1.3938 -1.3830  0.3665
 7494SOL     OW33943   0.824   3.472   7.731  0.5211 -0.4087 -0.2644
 7494SOL    HW133944   0.755   3.532   7.760 -1.0854 -1.2172 -2.4561
 7494SOL    HW233945   0.888   3.526   7.685 -0.0002  1.1599  0.8524
 7495SOL     OW33946   2.122   2.297  16.538 -0.2029 -0.1804 -0.2909
 7495SOL    HW133947   2.198   2.248  16.568 -0.7290 -0.8815 -0.0926
 7495SOL    HW233948   2.053   2.235  16.562  0.8868 -0.6151  1.6638
 7496SOL     OW33949   4.090   0.557  12.497 -0.1608 -0.0112  0.1475
 7496SOL    HW133950   4.037   0.480  12.479  0.2011 -0.0326 -0.8122
 7496SOL    HW233951   4.026   0.628  12.492  0.3154  0.4723  0.9371
 7497SOL     OW33952   2.735   2.077   2.869  0.7448  0.0312 -0.2662
 7497SOL    HW133953   2.758   2.043   2.782 -0.2821 -0.3873 -0.3656
 7497SOL    HW233954   2.685   2.001   2.898 -0.1356  1.7681  2.6711
 7498SOL     OW33955   0.064   4.637   2.988 -0.8343  0.4797  0.3220
 7498SOL    HW133956   0.001   4.566   2.996  2.1492 -2.1741  0.4186
 7498SOL    HW233957   0.079   4.654   3.082  0.5317 -0.8566  0.3466
 7499SOL     OW33958   1.074   3.939   8.357 -0.0136  0.0861  0.2375
 7499SOL    HW133959   1.026   3.856   8.360  1.2016 -0.5607  1.5853
 7499SOL    HW233960   1.068   3.968   8.448  2.3081 -0.6911  0.6427
 7500SOL     OW33961   3.651   1.724  14.776 -0.5246  0.0351 -0.1986
 7500SOL    HW133962   3.569   1.760  14.742 -0.4904  0.3615  0.0699
 7500SOL    HW233963   3.694   1.798  14.818  1.4181 -1.7071  0.8844
 7501SOL     OW33964   2.517   1.981   2.513  0.9866  0.1183 -0.2038
 7501SOL    HW133965   2.608   2.004   2.530  0.9960  1.2182 -1.7664
 7501SOL    HW233966   2.496   2.048   2.449 -1.2626 -1.2508 -0.9047
 7502SOL     OW33967   3.858   0.017   7.077 -0.1266 -0.1440 -0.2246
 7502SOL    HW133968   3.827   4.699   6.996  0.8303  0.9273 -1.1327
 7502SOL    HW233969   3.779   0.008   7.130  0.9483 -3.3584  0.8339
 7503SOL     OW33970   1.026   4.367   3.897 -0.5783 -0.0945  0.1260
 7503SOL    HW133971   1.010   4.431   3.829 -2.8922 -1.2252 -0.4031
 7503SOL    HW233972   1.010   4.296   3.835  1.2744 -0.9710  0.6574
 7504SOL     OW33973   3.722   2.131  11.046  0.3119 -0.1236 -0.1313
 7504SOL    HW133974   3.738   2.168  10.959 -1.4865 -0.9230 -0.7877
 7504SOL    HW233975   3.629   2.116  11.060  0.2587  1.2138  0.9668
 7505SOL     OW33976   3.017   1.106   2.375 -0.5010 -0.0959  0.0372
 7505SOL    HW133977   3.027   1.139   2.285  2.8589 -0.8412  0.1507
 7505SOL    HW233978   2.960   1.173   2.412 -1.3280 -0.9398  0.2938
 7506SOL     OW33979   2.272   0.576   8.443 -0.8002 -0.2215 -0.6711
 7506SOL    HW133980   2.267   0.656   8.391  0.7897 -0.3920 -1.0885
 7506SOL    HW233981   2.343   0.583   8.506  0.2118  4.9524 -2.3755
 7507SOL     OW33982   0.948   2.534   2.077  0.3849 -0.1197 -0.3497
 7507SOL    HW133983   1.034   2.565   2.048 -0.4586  0.9146 -1.7653
 7507SOL    HW233984   0.971   2.463   2.137 -0.9994 -0.2906 -0.0091
 7508SOL     OW33985   0.172   0.908   5.935  0.0132  0.3503 -0.0773
 7508SOL    HW133986   0.210   0.848   5.871  0.2999 -1.1994  1.5421
 7508SOL    HW233987   0.088   0.934   5.896  0.1897  1.8341  0.4951
 7509SOL     OW33988   3.883   0.655   5.768  0.5769  0.2282 -0.2063
 7509SOL    HW133989   3.825   0.596   5.816  0.6993  0.4508  0.2197
 7509SOL    HW233990   3.965   0.607   5.771 -0.7932 -1.9930  1.1076
 7510SOL     OW33991   1.264   0.407  13.691  0.3317 -0.8283  0.1062
 7510SOL    HW133992   1.251   0.361  13.774 -0.3341  1.1618  1.0911
 7510SOL    HW233993   1.186   0.380  13.644 -0.7252  2.6235 -0.1131
 7511SOL     OW33994   2.079   2.322   3.001 -0.7887 -0.2074 -0.0966
 7511SOL    HW133995   2.041   2.261   3.065  1.2274  0.1116  1.4126
 7511SOL    HW233996   2.014   2.392   2.995 -1.1578 -0.6316 -1.0236
 7512SOL     OW33997   2.893   2.298   8.713 -0.1525  0.2948 -0.2848
 7512SOL    HW133998   2.815   2.308   8.769 -0.0483  0.6072 -0.1958
 7512SOL    HW233999   2.890   2.203   8.704 -1.6623  0.2144  0.9727
 7513SOL     OW34000   3.039   1.398   6.294 -0.1162 -0.0770  0.2604
 7513SOL    HW134001   2.997   1.410   6.210 -0.2287  0.1442  0.3495
 7513SOL    HW234002   3.125   1.431   6.267 -0.1897  0.9263  1.2457
 7514SOL     OW34003   2.178   3.025  14.299 -0.6560 -0.5514  0.2867
 7514SOL    HW134004   2.171   2.993  14.209  0.1937 -2.0395  0.7457
 7514SOL    HW234005   2.086   3.035  14.323  0.7941  2.8337  4.3652
 7515SOL     OW34006   0.340   2.391  13.585 -0.2116  0.0253 -0.2069
 7515SOL    HW134007   0.420   2.396  13.638  0.6125 -1.1722 -1.3283
 7515SOL    HW234008   0.361   2.454  13.517 -1.7215  0.3091 -0.3903
 7516SOL     OW34009   0.192   2.282   5.384 -0.1917 -1.0687  0.6126
 7516SOL    HW134010   0.153   2.198   5.362 -0.8535 -0.3826 -0.9091
 7516SOL    HW234011   0.255   2.259   5.452 -0.6116  1.2634  1.7831
 7517SOL     OW34012   1.545   3.960   1.943 -0.2978 -0.2432 -0.1221
 7517SOL    HW134013   1.638   3.938   1.931 -0.4743 -2.3335  2.1314
 7517SOL    HW234014   1.524   3.901   2.016 -0.7485 -0.2873 -0.2883
 7518SOL     OW34015   0.475   2.891   2.775  0.3450  0.4220 -0.7621
 7518SOL    HW134016   0.388   2.930   2.771 -0.7924 -1.8929  1.1808
 7518SOL    HW234017   0.534   2.961   2.747 -0.9313  1.7496 -0.1011
 7519SOL     OW34018   2.470   1.030   4.548 -0.1522  0.2866 -0.1751
 7519SOL    HW134019   2.540   1.004   4.608  1.2821  0.4885 -1.7506
 7519SOL    HW234020   2.388   1.006   4.590  0.1049  1.2773  0.9139
 7520SOL     OW34021   0.299   1.906  10.927  0.0713  0.6533  0.2355
 7520SOL    HW134022   0.277   1.899  11.020 -0.1010  0.6821  0.1972
 7520SOL    HW234023   0.348   1.988  10.927  1.4140 -0.1536  0.4784
 7521SOL     OW34024   0.778   1.883   3.966  0.2422 -0.3310 -0.0194
 7521SOL    HW134025   0.743   1.804   3.926  4.3234 -1.2488 -1.8279
 7521SOL    HW234026   0.873   1.879   3.950  0.6462  0.5552  2.2198
 7522SOL     OW34027   1.963   2.066  11.414  0.2059 -0.2514 -0.4530
 7522SOL    HW134028   1.953   2.153  11.452 -0.1597  0.2590 -1.6840
 7522SOL    HW234029   1.884   2.055  11.360 -0.1080 -0.8887  0.1442
 7523SOL     OW34030   4.404   2.347   0.955  0.6481 -0.2172  0.1085
 7523SOL    HW134031   4.432   2.435   0.978  0.2380 -0.4130  1.3367
 7523SOL    HW234032   4.490   2.316   0.926  0.6430  1.1388 -1.3537
 7524SOL     OW34033   0.468   4.129   8.792 -0.1052 -0.1633  0.4235
 7524SOL    HW134034   0.386   4.089   8.818  0.7335 -2.6199 -0.6904
 7524SOL    HW234035   0.532   4.087   8.849 -1.9030 -3.2139  0.1528
 7525SOL     OW34036   2.582   4.301   2.024 -0.0023  0.0273  0.6487
 7525SOL    HW134037   2.616   4.212   2.031  1.2534  0.4594  0.0384
 7525SOL    HW234038   2.664   4.345   2.000  1.8446 -3.1076  1.1913
 7526SOL     OW34039   3.153   2.968  10.528 -0.2995  0.0462  0.0596
 7526SOL    HW134040   3.246   2.991  10.537  0.1005 -1.5669  0.1616
 7526SOL    HW234041   3.114   3.031  10.589 -0.6894 -0.3280  0.1940
 7527SOL     OW34042   2.119   1.647   7.001  0.1651  0.0978 -0.2809
 7527SOL    HW134043   2.169   1.671   6.922 -0.8978  0.4161 -0.8649
 7527SOL    HW234044   2.155   1.561   7.021 -0.1427  0.2045  0.7054
 7528SOL     OW34045   1.581   1.923   4.781  0.2763 -0.2866  0.0871
 7528SOL    HW134046   1.567   1.829   4.770 -1.7695  0.2538 -1.9664
 7528SOL    HW234047   1.531   1.935   4.862  0.7905  3.6750 -0.2027
 7529SOL     OW34048   2.602   0.113   8.695 -0.3526 -0.0219 -0.1870
 7529SOL    HW134049   2.637   0.087   8.780 -0.0514  2.7936  0.5488
 7529SOL    HW234050   2.629   0.204   8.689  2.6420 -0.8685  0.6893
 7530SOL     OW34051   2.496   3.514  12.648  0.0263 -0.4972 -0.3725
 7530SOL    HW134052   2.435   3.487  12.579  1.6411  1.1293 -2.4544
 7530SOL    HW234053   2.571   3.524  12.590 -0.2582  0.3353 -0.6094
 7531SOL     OW34054   4.106   3.843  14.252 -0.0379  0.1263  0.1702
 7531SOL    HW134055   4.018   3.819  14.283 -0.0883 -0.1698 -0.1937
 7531SOL    HW234056   4.140   3.763  14.212 -2.0420 -0.0458 -1.2071
 7532SOL     OW34057   4.278   1.075  17.590 -0.0073  0.3530 -0.1173
 7532SOL    HW134058   4.263   1.170  17.589  0.8194  0.4898 -0.0417
 7532SOL    HW234059   4.219   1.054  17.518 -0.0388 -0.6354  0.2090
 7533SOL     OW34060   2.366   1.965   6.021  0.0974  0.6989  0.3793
 7533SOL    HW134061   2.345   2.058   6.012  1.3885  0.8169 -1.6341
 7533SOL    HW234062   2.402   1.948   5.933 -0.4757 -1.2686  0.5378
 7534SOL     OW34063   0.028   1.582  11.997  0.4575  0.7271 -0.2147
 7534SOL    HW134064   4.699   1.594  12.077  0.6948 -1.0687  0.1930
 7534SOL    HW234065   0.096   1.521  12.024  1.3859  1.9921  0.3345
 7535SOL     OW34066   1.774   2.581  17.292 -0.6908  0.4598 -0.3137
 7535SOL    HW134067   1.786   2.600  17.199 -0.5457 -1.6739 -0.7421
 7535SOL    HW234068   1.840   2.640  17.328  1.0692 -0.8349 -1.4055
 7536SOL     OW34069   0.202   0.800   3.313 -0.2431 -0.9155 -0.6025
 7536SOL    HW134070   0.240   0.828   3.230 -1.0507  1.5151 -0.1499
 7536SOL    HW234071   0.232   0.711   3.327 -3.3491 -1.9346 -0.3203
 7537SOL     OW34072   3.283   1.378   2.126  0.8592  0.5101  0.3344
 7537SOL    HW134073   3.268   1.310   2.061  0.1346 -0.4990  1.5494
 7537SOL    HW234074   3.364   1.354   2.171  0.1053 -1.3034  0.6892
 7538SOL     OW34075   4.365   0.543  16.704  0.3999  0.2583 -0.1248
 7538SOL    HW134076   4.423   0.557  16.630 -0.0094  0.3876 -0.4162
 7538SOL    HW234077   4.328   0.630  16.721  0.8332  0.3551  0.3588
 7539SOL     OW34078   1.960   1.403  10.004  0.6048 -0.2824 -0.5760
 7539SOL    HW134079   2.040   1.409  10.056 -0.5852  0.8023  1.1347
 7539SOL    HW234080   1.903   1.453  10.062  1.7568 -0.1923  0.4836
 7540SOL     OW34081   0.343   3.482  15.301 -0.1658  0.6607 -0.0092
 7540SOL    HW134082   0.381   3.439  15.378 -0.2039  0.5061 -0.0753
 7540SOL    HW234083   0.288   3.416  15.258  1.8950  0.4925 -2.4530
 7541SOL     OW34084   0.274   3.537   5.588  0.3777 -0.3815 -0.1632
 7541SOL    HW134085   0.246   3.453   5.623  2.6943 -0.4403  1.5608
 7541SOL    HW234086   0.216   3.537   5.512 -1.6900  0.0213  1.4170
 7542SOL     OW34087   2.580   3.872   4.547 -0.3919 -0.6386  0.2669
 7542SOL    HW134088   2.524   3.844   4.474  0.5036 -1.1082 -0.2393
 7542SOL    HW234089   2.531   3.841   4.623  1.2610  0.3691  1.7629
 7543SOL     OW34090   4.393   0.628   6.842  0.1579 -0.3263  0.0335
 7543SOL    HW134091   4.320   0.646   6.783 -0.7423  0.3040  1.3272
 7543SOL    HW234092   4.404   0.541   6.805  0.3137  0.4013 -1.5923
 7544SOL     OW34093   0.601   0.223  13.755  0.1586 -0.2411 -0.1560
 7544SOL    HW134094   0.673   0.257  13.808 -0.0660  0.5585 -0.3561
 7544SOL    HW234095   0.612   0.130  13.773 -2.9687 -0.7319 -0.8509
 7545SOL     OW34096   1.320   0.525   0.697  0.3781  0.1593  0.3324
 7545SOL    HW134097   1.361   0.438   0.701 -0.2965 -0.1271  1.0362
 7545SOL    HW234098   1.253   0.504   0.632  0.7686 -0.4446  0.1174
 7546SOL     OW34099   0.213   3.229   8.220  0.3768 -0.5104 -0.1950
 7546SOL    HW134100   0.144   3.287   8.251  1.5315  0.9750 -0.4215
 7546SOL    HW234101   0.234   3.268   8.135  1.1523  2.7554  1.5106
 7547SOL     OW34102   0.325   3.379   6.275 -0.1003 -0.6022 -0.0177
 7547SOL    HW134103   0.321   3.287   6.249 -1.7998 -1.3581  2.8529
 7547SOL    HW234104   0.384   3.361   6.349  0.0124 -1.2706 -0.2682
 7548SOL     OW34105   4.100   0.705   3.006  0.0003 -0.5853 -0.1601
 7548SOL    HW134106   4.128   0.666   2.923  0.7682 -1.0485  0.3317
 7548SOL    HW234107   4.106   0.625   3.058 -0.3986 -1.2799 -1.1867
 7549SOL     OW34108   4.467   1.222   9.031 -0.2023  0.4493 -0.0207
 7549SOL    HW134109   4.406   1.192   9.099 -0.2835 -1.9487 -1.1571
 7549SOL    HW234110   4.453   1.317   9.037 -0.3626  0.5577 -2.2586
 7550SOL     OW34111   1.928   3.775  16.717  0.3167 -0.3116 -0.2243
 7550SOL    HW134112   1.969   3.804  16.799 -1.1841 -1.6256  0.9703
 7550SOL    HW234113   1.914   3.683  16.737 -0.0611  0.0405  1.1522
 7551SOL     OW34114   4.314   3.238  11.788  0.1802 -0.2148  0.1113
 7551SOL    HW134115   4.318   3.322  11.742 -0.1951  2.1072  4.3933
 7551SOL    HW234116   4.246   3.195  11.736  0.4375 -1.1988  0.5989
 7552SOL     OW34117   4.088   2.125   9.702  0.2804 -0.0504  0.1659
 7552SOL    HW134118   4.083   2.203   9.757  1.9148  0.3823 -0.2875
 7552SOL    HW234119   4.055   2.063   9.766  1.7020 -1.5875 -0.6083
 7553SOL     OW34120   4.389   1.760   6.797  0.1409 -0.5763 -0.1738
 7553SOL    HW134121   4.313   1.733   6.745 -0.5417 -0.5337  0.7989
 7553SOL    HW234122   4.432   1.674   6.799  2.4505  0.5808 -0.2656
 7554SOL     OW34123   2.211   1.552   4.518  0.0928 -0.3624 -0.4502
 7554SOL    HW134124   2.250   1.489   4.579 -0.1372  1.5749  1.6683
 7554SOL    HW234125   2.132   1.501   4.502  1.1407 -1.0903 -3.4209
 7555SOL     OW34126   3.910   1.927   6.198  0.7042 -0.1585  0.0431
 7555SOL    HW134127   3.873   1.976   6.272 -0.6824 -0.4102 -0.4743
 7555SOL    HW234128   3.905   1.839   6.236 -1.5057 -0.3134 -0.5667
 7556SOL     OW34129   4.386   0.657  12.117 -0.8822  0.7597 -0.2079
 7556SOL    HW134130   4.472   0.698  12.108 -1.8411  2.5121 -1.5405
 7556SOL    HW234131   4.372   0.652  12.022  1.6505  2.5014 -0.6824
 7557SOL     OW34132   4.151   3.428   1.795  0.1883 -0.2482 -0.2255
 7557SOL    HW134133   4.235   3.450   1.756  0.0589  1.6795  0.5469
 7557SOL    HW234134   4.167   3.334   1.800  1.9998  0.1530  1.5881
 7558SOL     OW34135   1.527   1.944   6.709  0.2406  0.3593  0.7154
 7558SOL    HW134136   1.441   1.910   6.730  0.6037 -1.6147 -0.9656
 7558SOL    HW234137   1.505   2.036   6.702 -1.0783  0.0096  0.2901
 7559SOL     OW34138   0.497   4.059  16.838  0.1184  0.4478 -0.1534
 7559SOL    HW134139   0.434   4.108  16.785  2.5109  0.5183 -2.9424
 7559SOL    HW234140   0.458   3.974  16.854 -1.3533  1.1442 -0.0501
 7560SOL     OW34141   3.908   3.874   3.320  0.7274  0.2524  0.3542
 7560SOL    HW134142   3.827   3.833   3.290  0.2536  2.5714 -1.4655
 7560SOL    HW234143   3.915   3.838   3.408 -0.6781  0.3907  0.5232
 7561SOL     OW34144   0.839   4.325   8.356  0.1254  0.1887  0.7715
 7561SOL    HW134145   0.931   4.318   8.382  1.0369  0.6545 -2.3708
 7561SOL    HW234146   0.808   4.400   8.406  0.2842  0.9983 -0.3496
 7562SOL     OW34147   2.982   4.231  10.990 -0.3804  0.3554  0.0524
 7562SOL    HW134148   3.071   4.202  10.970 -0.3577  1.0413 -0.7945
 7562SOL    HW234149   2.991   4.218  11.085 -1.0811 -0.2783  0.0314
 7563SOL     OW34150   0.381   1.595   0.285 -0.5770  0.3619 -0.0255
 7563SOL    HW134151   0.420   1.576   0.200 -2.6213  1.8242 -1.3214
 7563SOL    HW234152   0.362   1.688   0.272 -1.3386  0.3225  0.7876
 7564SOL     OW34153   3.107   0.235   7.291  0.2329 -0.2162  0.2059
 7564SOL    HW134154   3.086   0.234   7.385  1.2034 -1.8267  0.4054
 7564SOL    HW234155   3.037   0.294   7.262 -0.3724  0.4902  2.9948
 7565SOL     OW34156   4.214   1.183   3.259 -0.0466 -0.2054  0.0353
 7565SOL    HW134157   4.211   1.173   3.354 -0.2015  0.6904  0.1276
 7565SOL    HW234158   4.239   1.091   3.246 -0.8051 -0.6624  1.7234
 7566SOL     OW34159   3.168   4.574   8.800 -0.2891  0.7932 -0.0292
 7566SOL    HW134160   3.136   4.539   8.884  1.3943  0.2401  0.3803
 7566SOL    HW234161   3.209   4.494   8.766  1.4825  1.5623  0.3116
 7567SOL     OW34162   1.961   2.078   3.842  0.8712  0.3409  0.1322
 7567SOL    HW134163   1.891   2.050   3.901  1.3543 -2.4079 -0.5700
 7567SOL    HW234164   1.917   2.139   3.783  0.4750  0.6730  0.7683
 7568SOL     OW34165   3.494   2.351  10.243  0.2566 -0.1153  0.4561
 7568SOL    HW134166   3.514   2.319  10.331  0.3101 -2.2620 -0.3234
 7568SOL    HW234167   3.579   2.377  10.209 -0.7564  0.2683 -1.7941
 7569SOL     OW34168   4.626   3.802   6.026  0.1983 -0.0304 -0.0644
 7569SOL    HW134169   4.648   3.886   6.066  0.0952  0.9606 -2.0918
 7569SOL    HW234170   4.690   3.795   5.955 -0.4383  1.7230 -0.8036
 7570SOL     OW34171   0.035   4.358  11.767 -0.1136  0.8853 -0.2548
 7570SOL    HW134172   4.706   4.397  11.696  1.2204 -3.3113 -3.5374
 7570SOL    HW234173   0.126   4.371  11.740  0.7217  0.5592  2.3555
 7571SOL     OW34174   2.001   0.934   9.081  0.0679  0.1025 -0.0006
 7571SOL    HW134175   2.007   0.933   8.986 -0.0581 -1.8415  0.0194
 7571SOL    HW234176   1.997   1.030   9.090  0.1806 -0.0077  1.2671
 7572SOL     OW34177   4.304   3.171   6.543 -0.1386  0.1435 -0.1244
 7572SOL    HW134178   4.254   3.171   6.624 -1.4389 -0.2646 -0.9275
 7572SOL    HW234179   4.267   3.090   6.508  0.5182 -0.2104  0.0029
 7573SOL     OW34180   1.887   1.639   2.828  0.3033 -0.3645  0.2718
 7573SOL    HW134181   1.855   1.561   2.873  1.3209 -0.5811  0.6100
 7573SOL    HW234182   1.821   1.632   2.759 -0.2418 -0.0420  0.7573
 7574SOL     OW34183   3.667   0.342   5.186  0.3713 -0.1605  0.1687
 7574SOL    HW134184   3.711   0.331   5.102  1.5823 -0.6768  0.8754
 7574SOL    HW234185   3.664   0.257   5.232  1.2065  0.3003  1.0664
 7575SOL     OW34186   0.725   2.049   2.594 -0.6211  0.5804 -0.2389
 7575SOL    HW134187   0.760   2.131   2.562  1.8258 -0.2944  0.1412
 7575SOL    HW234188   0.647   2.047   2.539 -1.5198  0.0690  1.0323
 7576SOL     OW34189   1.535   2.338   8.535 -0.1205  0.3094  0.3198
 7576SOL    HW134190   1.494   2.417   8.569  0.7935 -0.2530  2.6990
 7576SOL    HW234191   1.497   2.325   8.448  0.0339  0.4569  0.2303
 7577SOL     OW34192   4.722   0.471   5.422  0.2194  0.2637  0.1363
 7577SOL    HW134193   4.657   0.407   5.452  1.1742 -2.8039 -4.3345
 7577SOL    HW234194   0.061   0.465   5.495 -1.3875 -2.4361  1.2921
 7578SOL     OW34195   0.172   3.357  13.703  0.1754 -0.1858 -0.1889
 7578SOL    HW134196   0.178   3.289  13.770  3.1884 -0.9262 -1.1958
 7578SOL    HW234197   0.166   3.304  13.623 -2.3101 -1.0606  0.5780
 7579SOL     OW34198   0.583   1.948  17.597  0.5098 -0.2724 -0.3226
 7579SOL    HW134199   0.620   2.036  17.593  0.9326 -0.4882 -1.1353
 7579SOL    HW234200   0.659   1.901  17.564 -0.1100 -0.4052 -1.5288
 7580SOL     OW34201   0.809   1.012  11.808  0.1383 -0.0544  0.3323
 7580SOL    HW134202   0.770   0.938  11.761  0.0515 -0.5947  1.2396
 7580SOL    HW234203   0.881   0.978  11.862 -0.6196  0.4393  1.6616
 7581SOL     OW34204   0.218   1.551   2.176  0.0844  0.4069 -0.6676
 7581SOL    HW134205   0.211   1.577   2.268 -1.0295 -0.6377 -0.4458
 7581SOL    HW234206   0.199   1.640   2.146  2.3897  0.2141 -2.6985
 7582SOL     OW34207   4.014   3.331   2.330 -0.3055  0.0035  0.0491
 7582SOL    HW134208   3.962   3.308   2.407  0.1158  1.5846  0.8130
 7582SOL    HW234209   3.979   3.419   2.316 -0.7082 -0.7342 -3.5653
 7583SOL     OW34210   2.250   2.035  15.843 -0.4529  0.0445  0.7730
 7583SOL    HW134211   2.183   2.099  15.866  0.4404  1.8870 -1.8119
 7583SOL    HW234212   2.243   2.022  15.748 -0.7991 -1.2430  0.9686
 7584SOL     OW34213   1.687   2.370   5.234  0.2525  0.3937 -0.0272
 7584SOL    HW134214   1.725   2.323   5.309 -1.4322  0.9647  1.1815
 7584SOL    HW234215   1.676   2.301   5.168 -4.2463  1.1258 -0.0168
 7585SOL     OW34216   3.258   1.796   0.675  0.0161  0.0660  0.0718
 7585SOL    HW134217   3.348   1.824   0.659  0.3472 -0.9545  0.1401
 7585SOL    HW234218   3.268   1.702   0.661  0.1492 -0.0530  0.9543
 7586SOL     OW34219   3.597   3.901  14.788 -0.6397 -0.4680  0.1724
 7586SOL    HW134220   3.642   3.959  14.849 -1.0813  0.6534 -0.5584
 7586SOL    HW234221   3.649   3.821  14.792  2.1023  1.3192  0.2846
 7587SOL     OW34222   4.036   2.681   7.128 -0.4524 -0.0121  0.3501
 7587SOL    HW134223   4.031   2.644   7.039  1.1639 -3.4275  1.6816
 7587SOL    HW234224   4.123   2.719   7.122  0.6281 -2.1411  2.3822
 7588SOL     OW34225   1.319   3.324   6.913 -0.3869  0.3371  0.4034
 7588SOL    HW134226   1.325   3.229   6.899  0.3255  0.4962 -0.4416
 7588SOL    HW234227   1.411   3.350   6.908 -0.1479 -0.5590  0.1733
 7589SOL     OW34228   0.293   0.436  10.372  0.0527  0.2330 -0.0811
 7589SOL    HW134229   0.332   0.481  10.446  0.6181  0.2199 -0.3730
 7589SOL    HW234230   0.357   0.364  10.370 -1.5015 -1.1471 -0.4517
 7590SOL     OW34231   1.311   3.122   2.079 -0.2190  0.0549 -0.2040
 7590SOL    HW134232   1.397   3.156   2.103 -0.1132 -0.2584 -0.1353
 7590SOL    HW234233   1.282   3.137   2.169  0.0624 -2.6595  0.3315
 7591SOL     OW34234   1.653   0.603   6.645 -0.0236 -0.2291  0.2458
 7591SOL    HW134235   1.568   0.609   6.601 -0.4583 -0.1979  1.0880
 7591SOL    HW234236   1.667   0.690   6.681 -1.1942  0.0333  0.0632
 7592SOL     OW34237   0.837   4.156   3.099 -0.1774  0.0342 -0.1044
 7592SOL    HW134238   0.822   4.239   3.055  1.4163  2.0343  3.1706
 7592SOL    HW234239   0.768   4.151   3.165  0.7619  0.0236  0.8845
 7593SOL     OW34240   3.796   3.955  12.887 -0.3547  0.0949  0.1007
 7593SOL    HW134241   3.874   3.994  12.928 -0.1961  1.4921 -1.5162
 7593SOL    HW234242   3.749   4.031  12.851  1.1535  1.5590  1.2176
 7594SOL     OW34243   4.351   3.077  12.725 -0.2726 -0.8745  0.1681
 7594SOL    HW134244   4.305   3.030  12.795 -0.8432 -1.2875 -0.4835
 7594SOL    HW234245   4.281   3.123  12.679  0.0247  1.0078  1.5899
 7595SOL     OW34246   0.891   0.551   7.319  0.5623 -0.5087  0.4507
 7595SOL    HW134247   0.923   0.641   7.314 -0.8221 -0.0897 -0.6344
 7595SOL    HW234248   0.902   0.532   7.413  2.8043 -1.1596  0.0648
 7596SOL     OW34249   3.371   3.007  16.696  0.1274  0.2487 -0.0336
 7596SOL    HW134250   3.397   2.942  16.632 -0.3677 -2.2214  2.2718
 7596SOL    HW234251   3.288   2.973  16.729  1.0698 -1.0717  0.9700
 7597SOL     OW34252   1.872   4.041   7.483  0.2332 -0.1434  0.4525
 7597SOL    HW134253   1.870   4.132   7.513  1.5817 -0.2520  0.8670
 7597SOL    HW234254   1.877   4.054   7.388 -0.8460  0.5518  0.4889
 7598SOL     OW34255   0.653   1.809  15.666 -0.4843 -0.2795 -0.3346
 7598SOL    HW134256   0.705   1.842  15.740 -0.2808 -2.9904  0.7567
 7598SOL    HW234257   0.566   1.818  15.704 -0.7503 -1.6797 -0.6202
 7599SOL     OW34258   2.731   2.116   7.653  0.7074  0.1058  0.1363
 7599SOL    HW134259   2.719   2.050   7.584  0.4625  0.3263 -0.0282
 7599SOL    HW234260   2.671   2.084   7.721  0.9780  1.0072  0.7924
 7600SOL     OW34261   2.822   0.535   4.322  0.0062  0.2625 -0.4063
 7600SOL    HW134262   2.896   0.481   4.352  0.3701  1.2760  0.5344
 7600SOL    HW234263   2.767   0.459   4.305 -1.2354  0.9467  0.5500
 7601SOL     OW34264   1.945   3.045   6.921 -0.2517  0.1305 -0.1001
 7601SOL    HW134265   2.037   3.061   6.897  0.2378 -0.7997  1.1916
 7601SOL    HW234266   1.906   3.102   6.855  1.7206  0.0733 -1.3040
 7602SOL     OW34267   0.306   2.115  15.122 -0.7364 -0.0684 -0.3265
 7602SOL    HW134268   0.385   2.125  15.175 -0.1998 -0.1249 -1.1277
 7602SOL    HW234269   0.284   2.028  15.157 -0.2329  0.6441  1.7591
 7603SOL     OW34270   0.195   2.001   3.510 -0.0834  0.1137 -0.3939
 7603SOL    HW134271   0.106   1.999   3.544  0.7175  2.1176  1.8011
 7603SOL    HW234272   0.194   2.075   3.449  0.7471  0.4296 -0.0186
 7604SOL     OW34273   1.802   3.265  12.359  0.0112 -0.3738 -0.0828
 7604SOL    HW134274   1.710   3.259  12.386 -0.5791  2.3828 -1.4160
 7604SOL    HW234275   1.839   3.272  12.447  0.2664 -1.5826 -0.0942
 7605SOL     OW34276   1.961   4.487   5.890 -0.3060 -0.6459  0.4049
 7605SOL    HW134277   1.893   4.554   5.890  0.6956  0.3761  0.0958
 7605SOL    HW234278   1.958   4.454   5.800 -0.6003  1.2740 -0.2877
 7606SOL     OW34279   3.758   2.056   3.370 -0.0724  0.4468 -0.4822
 7606SOL    HW134280   3.835   2.037   3.424 -0.1165  2.0180  0.1450
 7606SOL    HW234281   3.724   1.974   3.334  0.1520  0.8001 -1.5163
 7607SOL     OW34282   2.823   3.953   8.217  0.2495 -0.1028  0.5525
 7607SOL    HW134283   2.840   3.980   8.308  0.0971  0.0490  0.5343
 7607SOL    HW234284   2.767   3.877   8.235  1.0570 -0.8971 -0.2868
 7608SOL     OW34285   2.011   2.268   7.658 -0.0189 -0.0916 -0.2548
 7608SOL    HW134286   2.020   2.234   7.747  0.4418 -0.2491 -0.3619
 7608SOL    HW234287   2.102   2.287   7.635 -0.0068 -0.9043 -0.8517
 7609SOL     OW34288   0.242   2.867   5.017  0.1090 -0.0745  0.5252
 7609SOL    HW134289   0.323   2.894   5.060 -0.6132  3.3205 -0.2797
 7609SOL    HW234290   0.214   2.795   5.075 -2.5543  2.4302  2.3481
 7610SOL     OW34291   0.071   3.997   3.311 -0.3400 -0.4574 -0.1630
 7610SOL    HW134292   4.700   4.005   3.295 -0.2009  1.6825  0.1267
 7610SOL    HW234293   0.086   3.919   3.364  1.1848 -1.3336 -1.8736
 7611SOL     OW34294   4.025   3.465   0.961 -0.2693 -0.1846 -0.0775
 7611SOL    HW134295   4.100   3.412   0.987 -0.5316 -0.9340 -0.8798
 7611SOL    HW234296   4.076   3.502   0.889  1.1993  1.1663  1.6419
 7612SOL     OW34297   2.485   0.902  16.575 -0.2755  0.3398 -0.1878
 7612SOL    HW134298   2.549   0.881  16.506  0.8851 -0.5504  1.1732
 7612SOL    HW234299   2.447   0.971  16.520  0.3536  0.8944  0.0738
 7613SOL     OW34300   0.870   4.590   8.066 -0.0284  0.7540 -0.0922
 7613SOL    HW134301   0.815   4.588   8.144  2.5638  0.2017  1.7587
 7613SOL    HW234302   0.900   4.499   8.055  0.4054  0.9432 -0.5114
 7614SOL     OW34303   3.397   2.213   8.338 -0.1031  0.1871  0.2837
 7614SOL    HW134304   3.478   2.259   8.318 -1.0304  0.2271 -3.3741
 7614SOL    HW234305   3.426   2.136   8.387 -2.3170 -1.4728 -1.0147
 7615SOL     OW34306   0.048   3.581   1.919  0.1523 -0.1820 -0.2551
 7615SOL    HW134307   0.039   3.649   1.986  2.0672  1.4729 -1.6822
 7615SOL    HW234308   0.142   3.566   1.931  0.0739 -1.8153 -1.6716
 7616SOL     OW34309   3.130   1.302   9.377 -0.2181 -0.3431 -0.0326
 7616SOL    HW134310   3.203   1.351   9.414  0.2854 -0.9160 -0.2861
 7616SOL    HW234311   3.074   1.371   9.340 -1.3296 -0.0517  2.1603
 7617SOL     OW34312   0.660   1.049   7.393  0.1874 -0.4647  0.2057
 7617SOL    HW134313   0.685   1.078   7.481  0.0109  1.6924 -0.4546
 7617SOL    HW234314   0.591   1.113   7.374 -0.7063 -1.0895  1.3626
 7618SOL     OW34315   1.963   0.202   3.203  0.0048 -0.8539 -0.0077
 7618SOL    HW134316   1.897   0.270   3.221  0.4653 -0.8978  1.8535
 7618SOL    HW234317   1.969   0.212   3.108  0.7732  0.6781  0.2096
 7619SOL     OW34318   3.138   1.059  17.612  0.3758 -0.1869  0.2043
 7619SOL    HW134319   3.192   0.986  17.644  1.5424  0.9913  0.9624
 7619SOL    HW234320   3.056   1.019  17.584 -0.0752 -0.7626  2.3319
 7620SOL     OW34321   4.021   1.706  13.544  0.5127 -0.3898  0.0531
 7620SOL    HW134322   4.115   1.722  13.550  0.5479 -1.0077  1.1003
 7620SOL    HW234323   3.990   1.764  13.614 -0.8920 -0.1943 -0.7284
 7621SOL     OW34324   4.047   0.822   6.933 -0.3865  0.0992  0.0036
 7621SOL    HW134325   4.082   0.844   7.019 -0.6840 -0.7531  0.3464
 7621SOL    HW234326   3.979   0.889   6.924 -0.6265 -0.2908 -1.1184
 7622SOL     OW34327   0.800   0.210   4.998  0.0833 -0.6102 -0.1743
 7622SOL    HW134328   0.832   0.256   4.920 -3.7500  0.5885 -1.0628
 7622SOL    HW234329   0.732   0.271   5.029  1.8275  0.8293  0.8312
 7623SOL     OW34330   4.663   1.320  11.871 -0.5605  0.2593  0.2401
 7623SOL    HW134331   0.035   1.323  11.874 -0.3953 -1.8842 -2.1610
 7623SOL    HW234332   4.636   1.406  11.840 -1.8486 -0.5687 -0.9581
 7624SOL     OW34333   3.230   2.146  12.952  0.6394  0.1152 -0.5842
 7624SOL    HW134334   3.213   2.236  12.926  0.1451  0.0981 -0.3103
 7624SOL    HW234335   3.200   2.146  13.043 -2.9716 -1.7062 -1.7700
 7625SOL     OW34336   0.385   3.448   2.207 -0.6830  0.0879  0.1804
 7625SOL    HW134337   0.303   3.461   2.256 -1.0174  3.0059 -1.1351
 7625SOL    HW234338   0.375   3.503   2.130  0.3024 -0.4626 -0.3319
 7626SOL     OW34339   1.309   1.797   6.832  0.6380 -0.4668  0.0809
 7626SOL    HW134340   1.298   1.731   6.764 -0.8391 -1.5238  1.3180
 7626SOL    HW234341   1.258   1.751   6.899  1.5631 -2.1043 -0.3605
 7627SOL     OW34342   3.532   3.159   1.540  0.3650 -0.0379  0.9038
 7627SOL    HW134343   3.489   3.226   1.592 -0.9892 -0.5662  0.4615
 7627SOL    HW234344   3.624   3.173   1.559  0.6388 -0.4482 -0.0821
 7628SOL     OW34345   2.189   0.412   2.143  0.5763 -0.2983 -0.2703
 7628SOL    HW134346   2.270   0.449   2.109  1.0929  1.2377  2.6558
 7628SOL    HW234347   2.173   0.483   2.204  0.9476 -1.8021  1.5734
 7629SOL     OW34348   3.067   0.555   7.992  0.2494  0.2819 -0.0235
 7629SOL    HW134349   3.023   0.637   7.972  0.5530  0.2349 -0.8624
 7629SOL    HW234350   3.156   0.585   8.008  0.5962 -0.1470 -1.1895
 7630SOL     OW34351   3.779   3.115   7.432  0.7058 -0.4714 -0.1776
 7630SOL    HW134352   3.865   3.154   7.450 -0.1422  1.6494 -0.7619
 7630SOL    HW234353   3.788   3.021   7.447  0.9426 -0.6917 -1.6511
 7631SOL     OW34354   4.039   4.209   1.220 -0.0868 -0.0745  0.1664
 7631SOL    HW134355   4.092   4.273   1.173  0.0683 -0.4839 -0.2178
 7631SOL    HW234356   4.036   4.148   1.146  4.5599 -2.1977  1.7051
 7632SOL     OW34357   0.094   2.182  13.830 -0.5634 -0.2306 -0.5654
 7632SOL    HW134358   0.054   2.226  13.755 -1.2398 -0.7877 -0.5364
 7632SOL    HW234359   0.142   2.249  13.879 -1.2388  0.2841 -0.6117
 7633SOL     OW34360   4.362   1.472   7.687  0.4426  0.0199  0.4451
 7633SOL    HW134361   4.318   1.448   7.768 -1.0284 -2.5835 -1.1389
 7633SOL    HW234362   4.312   1.436   7.614 -0.5612  0.5637  0.8742
 7634SOL     OW34363   1.036   4.099  16.034  0.1111  0.7076 -0.2529
 7634SOL    HW134364   0.964   4.103  15.971 -1.0161 -2.6850  0.8025
 7634SOL    HW234365   0.989   4.136  16.109 -0.0073  0.1930 -0.0707
 7635SOL     OW34366   2.397   0.313  12.367  0.1354 -0.3611 -0.3211
 7635SOL    HW134367   2.367   0.310  12.458  0.8812  1.7903 -0.0053
 7635SOL    HW234368   2.436   0.400  12.359  2.9883 -1.6839 -0.6773
 7636SOL     OW34369   3.511   3.065   6.165  0.3183  0.2837 -0.1367
 7636SOL    HW134370   3.457   2.995   6.129 -0.4727  1.0919 -0.5310
 7636SOL    HW234371   3.579   3.009   6.201 -0.5531 -0.2012  0.7399
 7637SOL     OW34372   4.605   1.059  12.463 -0.2005  0.0186 -0.1465
 7637SOL    HW134373   4.523   1.013  12.443  0.0118  0.1582 -1.3790
 7637SOL    HW234374   4.568   1.101  12.540  2.6771  1.2127  0.5892
 7638SOL     OW34375   0.923   3.631   4.643 -0.1796 -0.1410  0.1373
 7638SOL    HW134376   0.888   3.718   4.626  2.2743  0.7718 -0.2836
 7638SOL    HW234377   1.000   3.654   4.695 -1.1467  0.5429  1.2622
 7639SOL     OW34378   3.205   3.266   1.463  0.0775  0.0545 -0.2062
 7639SOL    HW134379   3.165   3.180   1.479 -1.5486  0.5545 -1.6304
 7639SOL    HW234380   3.264   3.281   1.537  1.2322  2.5462 -1.6294
 7640SOL     OW34381   4.439   2.337  13.906  0.2908  0.1837 -0.3518
 7640SOL    HW134382   4.402   2.290  13.981  0.6515 -2.9997 -2.2037
 7640SOL    HW234383   4.528   2.345  13.938  0.6734 -3.1975 -0.6483
 7641SOL     OW34384   1.537   2.311   3.332 -0.0701 -0.3762  0.3993
 7641SOL    HW134385   1.566   2.301   3.241 -0.2669  0.1757  0.2726
 7641SOL    HW234386   1.596   2.251   3.377  1.4374 -0.5839 -1.8774
 7642SOL     OW34387   1.497   1.531   9.002  0.2219  0.1468  0.3767
 7642SOL    HW134388   1.569   1.529   9.065  0.3678 -0.6190  0.1870
 7642SOL    HW234389   1.426   1.522   9.065 -0.8567  0.2690 -0.8256
 7643SOL     OW34390   0.221   2.328   2.870  0.2707 -0.1436  0.1794
 7643SOL    HW134391   0.234   2.259   2.805 -0.3242  1.0397 -1.1983
 7643SOL    HW234392   0.276   2.297   2.942 -0.4042 -1.5486  0.0819
 7644SOL     OW34393   2.716   4.186   8.378  0.3175  0.8697 -0.2625
 7644SOL    HW134394   2.643   4.172   8.317  0.6785  0.2326 -0.5505
 7644SOL    HW234395   2.668   4.155   8.455 -0.6352  2.2889 -0.2930
 7645SOL     OW34396   1.185   2.735  15.615  0.1800 -0.1088  0.0248
 7645SOL    HW134397   1.147   2.668  15.558 -0.2144 -1.4948  1.9091
 7645SOL    HW234398   1.120   2.739  15.686  0.9931  0.5468  0.7258
 7646SOL     OW34399   4.460   4.526  14.929  0.0315 -0.0155 -0.2300
 7646SOL    HW134400   4.414   4.475  14.862  1.0808  0.3455 -1.2243
 7646SOL    HW234401   4.425   4.472  15.000 -1.5517  0.8075 -0.3712
 7647SOL     OW34402   1.276   2.428   3.394  0.3507 -0.6368 -0.0454
 7647SOL    HW134403   1.364   2.399   3.373  0.4299  0.0072 -0.6017
 7647SOL    HW234404   1.265   2.496   3.327 -0.4630  1.6898  2.4188
 7648SOL     OW34405   4.487   1.236   6.809 -0.4201 -0.1412  0.3090
 7648SOL    HW134406   4.467   1.270   6.896  1.2801  0.3719  0.5103
 7648SOL    HW234407   4.406   1.191   6.787 -1.1251  1.8133 -1.0395
 7649SOL     OW34408   2.027   4.000  16.532 -0.1321  0.2564  0.1944
 7649SOL    HW134409   1.978   3.940  16.588  0.9116 -0.6151  0.1659
 7649SOL    HW234410   2.115   3.975  16.561 -0.2312  0.0590  0.3210
 7650SOL     OW34411   1.009   3.160   4.387 -0.1595 -0.0287 -0.2239
 7650SOL    HW134412   1.025   3.251   4.413  1.5598 -0.5466  0.5246
 7650SOL    HW234413   1.000   3.175   4.293  1.7481  1.8627 -0.1136
 7651SOL     OW34414   3.919   3.923  16.651 -0.2879  0.0190 -0.2648
 7651SOL    HW134415   3.943   3.997  16.595 -0.5736  0.5790  0.3500
 7651SOL    HW234416   3.827   3.919  16.626 -0.0487  0.0775 -1.1577
 7652SOL     OW34417   2.137   1.038   9.313  0.2294 -0.3171  0.2058
 7652SOL    HW134418   2.100   1.127   9.312  0.3906 -0.2382  1.3904
 7652SOL    HW234419   2.124   1.002   9.225  1.1311 -3.8700  1.5259
 7653SOL     OW34420   2.681   2.570  17.059 -0.1230 -0.4348 -0.0426
 7653SOL    HW134421   2.666   2.485  17.018 -0.1338  0.7824 -2.5312
 7653SOL    HW234422   2.675   2.633  16.988 -0.7641 -1.3004 -0.7612
 7654SOL     OW34423   0.870   0.279   7.002  0.4257  0.0968 -0.1029
 7654SOL    HW134424   0.904   0.348   6.944  0.0526  0.2951 -0.0821
 7654SOL    HW234425   0.822   0.327   7.069  0.7824  0.1659  0.1081
 7655SOL     OW34426   3.752   0.590  14.187  0.0445  0.0054 -0.0744
 7655SOL    HW134427   3.751   0.494  14.194  0.0171  0.0221  0.1503
 7655SOL    HW234428   3.809   0.610  14.261 -0.9215  1.2040  0.3388
 7656SOL     OW34429   0.419   2.282   9.144  0.2423  0.3345 -0.1467
 7656SOL    HW134430   0.377   2.341   9.082  1.1058  0.5121 -0.5593
 7656SOL    HW234431   0.362   2.302   9.218  1.6014  2.6112  0.2660
 7657SOL     OW34432   4.209   1.251   2.767  0.2550  0.5809  0.1186
 7657SOL    HW134433   4.175   1.273   2.680 -0.3406  0.2477  0.2615
 7657SOL    HW234434   4.267   1.177   2.748 -1.2238 -0.5152 -0.2421
 7658SOL     OW34435   2.376   0.677  16.755 -0.0134  0.2878  0.0428
 7658SOL    HW134436   2.409   0.741  16.692 -0.1641  0.3128 -0.0098
 7658SOL    HW234437   2.356   0.740  16.824  3.2069  0.3507  0.9606
 7659SOL     OW34438   0.397   3.833  12.608  0.3714 -0.0743  0.1624
 7659SOL    HW134439   0.366   3.923  12.607  0.0369 -0.1808  0.7159
 7659SOL    HW234440   0.458   3.838  12.535 -0.5533 -1.1112 -0.6983
 7660SOL     OW34441   0.966   4.267   1.488  0.1996 -0.2810 -0.1606
 7660SOL    HW134442   1.049   4.283   1.533 -0.1944 -2.9472  1.4942
 7660SOL    HW234443   0.931   4.356   1.484  0.4317 -0.2136 -0.6887
 7661SOL     OW34444   3.549   2.659  13.140  0.3986  0.3390 -0.3956
 7661SOL    HW134445   3.559   2.578  13.191 -1.7840 -0.4526 -1.2056
 7661SOL    HW234446   3.478   2.700  13.190  0.9597  0.4683  0.2975
 7662SOL     OW34447   2.365   2.717  17.260  0.3629 -0.2468  0.2315
 7662SOL    HW134448   2.367   2.731  17.355 -1.4135  0.5477  0.1379
 7662SOL    HW234449   2.401   2.796  17.221 -0.7453  1.7111  3.1908
 7663SOL     OW34450   4.264   4.588  10.136  0.5412  0.2224  0.7320
 7663SOL    HW134451   4.224   4.551  10.057  0.1346 -1.4969  1.7302
 7663SOL    HW234452   4.306   4.508  10.168 -2.2284 -0.9310  1.4973
 7664SOL     OW34453   1.682   0.938   5.321  0.5206 -0.1748  0.2103
 7664SOL    HW134454   1.753   0.873   5.323 -1.4611 -2.3669 -0.3891
 7664SOL    HW234455   1.721   1.007   5.375  2.0067 -1.3477  0.6388
 7665SOL     OW34456   0.856   2.671  13.578 -0.0588 -0.0789  0.0293
 7665SOL    HW134457   0.775   2.721  13.576 -0.7136 -1.0860  1.6154
 7665SOL    HW234458   0.829   2.581  13.560 -0.1047 -0.2503  0.9696
 7666SOL     OW34459   4.470   4.479   2.833 -0.9488 -0.4230  0.2847
 7666SOL    HW134460   4.475   4.506   2.925 -1.6043  0.9364 -0.0823
 7666SOL    HW234461   4.449   4.386   2.843  1.8510 -1.2730 -1.8670
 7667SOL     OW34462   0.303   2.275   2.290 -0.5861  0.4028 -0.0211
 7667SOL    HW134463   0.320   2.201   2.231  0.6203  0.4621  0.2646
 7667SOL    HW234464   0.287   2.347   2.229 -0.4563  1.3959  1.1308
 7668SOL     OW34465   3.471   2.246   9.997 -0.0785 -0.2731  0.3826
 7668SOL    HW134466   3.485   2.277  10.086  0.8738 -2.1449  0.8817
 7668SOL    HW234467   3.418   2.319   9.964  2.5501  0.9998 -1.0614
 7669SOL     OW34468   1.136   4.364  15.948 -0.1195  0.7355  0.1726
 7669SOL    HW134469   1.200   4.408  16.004  0.9044 -0.0971 -0.3287
 7669SOL    HW234470   1.139   4.271  15.970  0.7198  0.3004 -1.7713
 7670SOL     OW34471   3.303   4.278  16.212  0.2870 -0.0996  0.4579
 7670SOL    HW134472   3.219   4.292  16.169  0.1572  0.6787  0.9701
 7670SOL    HW234473   3.292   4.321  16.297  1.1791  1.2679 -0.1341
 7671SOL     OW34474   3.511   2.982  13.041 -0.0395  0.0670 -0.3802
 7671SOL    HW134475   3.537   3.072  13.021 -0.5156  0.2631 -0.1021
 7671SOL    HW234476   3.553   2.963  13.124 -2.5862  0.0112  0.8873
 7672SOL     OW34477   1.681   0.947   3.162  0.2069  0.0728  0.4168
 7672SOL    HW134478   1.705   0.989   3.079 -0.0764  0.7314  0.6737
 7672SOL    HW234479   1.702   0.854   3.149 -0.9964 -0.3497  1.4915
 7673SOL     OW34480   0.325   0.564   8.622 -0.6004 -0.6157 -0.8788
 7673SOL    HW134481   0.419   0.557   8.632 -0.3912  4.5091  0.6850
 7673SOL    HW234482   0.290   0.549   8.710 -0.1986  0.9175 -0.4592
 7674SOL     OW34483   1.940   3.418   4.464  0.3471  0.0085 -0.5911
 7674SOL    HW134484   1.852   3.442   4.437  0.5732 -0.2310 -1.5415
 7674SOL    HW234485   1.950   3.468   4.545  0.8609 -1.1454  0.0594
 7675SOL     OW34486   3.464   4.339  13.229  0.2416 -0.5097 -0.2584
 7675SOL    HW134487   3.378   4.319  13.190  0.2689  1.0397 -1.1177
 7675SOL    HW234488   3.484   4.261  13.280  1.8314  0.4732  0.6094
 7676SOL     OW34489   0.754   4.566   9.069 -0.2679 -0.6515 -0.1245
 7676SOL    HW134490   0.843   4.590   9.043  0.2898 -0.9998  1.5072
 7676SOL    HW234491   0.772   4.519   9.151  2.3924 -0.6173 -0.6959
 7677SOL     OW34492   0.841   1.629   0.092  0.3239  0.9638 -0.2531
 7677SOL    HW134493   0.778   1.620   0.164  0.7986  0.0669  0.0512
 7677SOL    HW234494   0.835   1.724   0.082 -1.8324  0.9056  0.5141
 7678SOL     OW34495   0.523   0.075   5.622 -0.0384  0.1814 -0.2932
 7678SOL    HW134496   0.593   0.042   5.567  0.4057  0.3157  0.1895
 7678SOL    HW234497   0.518   0.163   5.585  0.8116  0.3629  0.0218
 7679SOL     OW34498   1.906   2.884  12.471  0.3917 -0.0174  0.2296
 7679SOL    HW134499   1.904   2.791  12.496  0.4372  0.2481  1.2225
 7679SOL    HW234500   1.853   2.879  12.392  1.6127  0.7006 -0.6247
 7680SOL     OW34501   2.532   3.055  16.653 -0.0917  0.4489  0.0484
 7680SOL    HW134502   2.611   3.009  16.626 -0.6797  0.8962 -2.5003
 7680SOL    HW234503   2.476   3.039  16.577  0.4514 -2.1101  0.1923
 7681SOL     OW34504   1.321   3.648   5.495  0.3929  0.0018  0.0013
 7681SOL    HW134505   1.250   3.712   5.503 -0.5675 -0.6900 -3.2791
 7681SOL    HW234506   1.275   3.568   5.519  0.2971 -0.0561 -0.3783
 7682SOL     OW34507   2.240   2.768   2.640 -0.1320  0.4967 -0.0626
 7682SOL    HW134508   2.303   2.834   2.669  0.3810  0.9952 -2.3238
 7682SOL    HW234509   2.198   2.741   2.722 -0.6414  0.8372 -0.2086
 7683SOL     OW34510   3.982   0.824  10.014  0.7019  0.5978 -0.5362
 7683SOL    HW134511   4.034   0.879   9.955  2.0196 -0.8100 -0.7049
 7683SOL    HW234512   4.035   0.744  10.019 -1.9625 -1.0587  1.0551
 7684SOL     OW34513   2.732   0.984  14.077  0.6613  0.0184  0.0272
 7684SOL    HW134514   2.763   0.950  13.993 -3.9661 -0.6278 -1.4537
 7684SOL    HW234515   2.719   0.896  14.113  1.1588  0.5940  1.6121
 7685SOL     OW34516   3.472   2.115   6.914 -0.2118 -0.0294  0.0698
 7685SOL    HW134517   3.444   2.204   6.936 -1.6605 -0.4607  0.0106
 7685SOL    HW234518   3.564   2.130   6.892 -0.3787 -0.4867 -0.9815
 7686SOL     OW34519   2.446   4.430  16.339 -0.2373  0.1649 -0.0446
 7686SOL    HW134520   2.361   4.448  16.298 -0.0124  2.6776  0.5690
 7686SOL    HW234521   2.417   4.385  16.419 -1.9387  1.5986  0.1555
 7687SOL     OW34522   3.913   4.643   0.409 -0.3080 -0.6592 -0.3735
 7687SOL    HW134523   3.864   4.699   0.348  0.3279  0.4670  0.1638
 7687SOL    HW234524   4.001   4.680   0.412 -1.0766  1.0025  1.5918
 7688SOL     OW34525   2.447   4.266   8.818 -0.0743 -0.3527  0.3253
 7688SOL    HW134526   2.515   4.318   8.774 -2.5103  1.7258 -1.0122
 7688SOL    HW234527   2.391   4.327   8.866 -0.5548 -0.3812 -0.2049
 7689SOL     OW34528   4.396   2.743   1.095  0.4019 -0.1150 -0.3878
 7689SOL    HW134529   4.363   2.796   1.022  1.7154  1.1361 -0.0538
 7689SOL    HW234530   4.464   2.687   1.058  0.5282  0.1535 -0.5618
 7690SOL     OW34531   4.081   0.495   3.203  0.0276 -0.4471  0.3013
 7690SOL    HW134532   4.048   0.559   3.265  0.4511  0.8271 -0.7759
 7690SOL    HW234533   4.151   0.446   3.244  2.7760  1.2106 -2.3729
 7691SOL     OW34534   3.961   1.738  12.886  0.0793 -0.1999 -0.4163
 7691SOL    HW134535   3.890   1.685  12.849  0.5809 -2.6981  2.2434
 7691SOL    HW234536   3.998   1.773  12.804 -0.4732 -0.5777 -0.8262
 7692SOL     OW34537   3.322   4.069   0.545  0.1421 -0.3489  0.2383
 7692SOL    HW134538   3.342   3.982   0.511  1.7532 -0.2017  0.8390
 7692SOL    HW234539   3.316   4.058   0.640 -2.3537  0.8048  0.2297
 7693SOL     OW34540   3.409   0.280   6.949 -0.2868 -0.2666 -0.1419
 7693SOL    HW134541   3.372   0.315   7.030  2.1283 -1.3442  1.4423
 7693SOL    HW234542   3.362   0.332   6.885  1.0966  0.4962 -0.5307
 7694SOL     OW34543   4.200   1.652   6.645 -0.2910  0.1972  0.1709
 7694SOL    HW134544   4.117   1.647   6.693  1.4827  0.3153  3.1858
 7694SOL    HW234545   4.195   1.576   6.587 -1.6820 -1.5586  2.5685
 7695SOL     OW34546   0.341   4.378   1.305  0.4996 -0.3575  0.4780
 7695SOL    HW134547   0.246   4.387   1.295  0.6210  1.2554  0.8029
 7695SOL    HW234548   0.353   4.450   1.367  2.6753 -0.3124  0.0269
 7696SOL     OW34549   4.091   0.192   7.015  0.1398 -0.2837  0.2104
 7696SOL    HW134550   4.142   0.154   7.087  0.3181  0.1708  0.3231
 7696SOL    HW234551   4.150   0.179   6.941  1.7836  0.3911  1.3793
 7697SOL     OW34552   1.866   4.579   7.075 -0.6409  0.0405  0.2108
 7697SOL    HW134553   1.931   4.509   7.069 -2.4430 -1.6831  0.8495
 7697SOL    HW234554   1.797   4.542   7.020  1.1559  0.9525 -2.6674
 7698SOL     OW34555   2.123   0.413   4.130 -0.1239  0.0277  0.7307
 7698SOL    HW134556   2.091   0.344   4.073 -1.6188  1.2803  0.0562
 7698SOL    HW234557   2.068   0.486   4.102 -0.1955 -0.0307  0.7197
 7699SOL     OW34558   1.341   1.740   1.855 -0.2987  0.5303 -0.1477
 7699SOL    HW134559   1.390   1.674   1.805 -0.1302 -1.0902  2.1569
 7699SOL    HW234560   1.398   1.816   1.845  0.0223  0.3777  0.5254
 7700SOL     OW34561   2.042   4.508   5.169 -0.6197  0.5894  0.0482
 7700SOL    HW134562   2.058   4.503   5.074  0.3495  1.9027  0.1478
 7700SOL    HW234563   2.029   4.603   5.172  0.5811  0.7254  0.5595
 7701SOL     OW34564   0.257   2.653   4.825 -0.0569  0.1551 -0.3724
 7701SOL    HW134565   0.294   2.694   4.747  0.0465  2.3501  0.8268
 7701SOL    HW234566   0.226   2.729   4.875  1.9280 -0.4015  1.6568
 7702SOL     OW34567   3.117   0.303  11.711 -0.1102  0.2850 -0.4492
 7702SOL    HW134568   3.114   0.316  11.616  0.9533 -0.4140 -0.5808
 7702SOL    HW234569   3.152   0.387  11.740 -0.8104  0.2001  0.6055
 7703SOL     OW34570   2.787   0.825  14.396  0.5776  0.9616 -0.1992
 7703SOL    HW134571   2.830   0.755  14.444  1.7521 -0.4451 -3.3328
 7703SOL    HW234572   2.772   0.788  14.310  0.5547 -1.2265  0.7573
 7704SOL     OW34573   0.149   1.716  15.232 -0.3638  0.0524 -0.2512
 7704SOL    HW134574   0.125   1.626  15.212  0.5402 -0.4563  0.9292
 7704SOL    HW234575   0.066   1.762  15.219  0.2924  1.2115 -0.3263
 7705SOL     OW34576   2.740   2.399  13.796 -0.2129 -1.0854 -0.2633
 7705SOL    HW134577   2.655   2.395  13.839  0.0805  2.2524  0.6476
 7705SOL    HW234578   2.711   2.455  13.724 -1.3144 -2.8906 -1.1957
 7706SOL     OW34579   1.449   1.719  10.743  0.1769  0.0458  0.3562
 7706SOL    HW134580   1.544   1.711  10.757  0.1552 -0.7446  0.0371
 7706SOL    HW234581   1.411   1.674  10.818  0.2358 -0.7143 -0.0733
 7707SOL     OW34582   3.637   0.606   8.600 -0.1428  0.0205  0.0862
 7707SOL    HW134583   3.562   0.658   8.570  1.0747  2.5370  1.3913
 7707SOL    HW234584   3.682   0.661   8.664  0.8794  0.4040 -0.9578
 7708SOL     OW34585   2.950   3.206   4.072 -0.0531  0.5304  0.0814
 7708SOL    HW134586   2.982   3.140   4.011 -0.1099  0.3028  0.2993
 7708SOL    HW234587   2.863   3.222   4.036  0.1121  3.6373  1.0675
 7709SOL     OW34588   2.885   2.335   9.200  0.6141  0.6020  0.1854
 7709SOL    HW134589   2.842   2.266   9.149  0.9713  0.8850 -0.4909
 7709SOL    HW234590   2.922   2.282   9.270 -1.5553 -1.1442  0.0197
 7710SOL     OW34591   3.298   2.824   3.936 -0.3458  0.1021  0.2065
 7710SOL    HW134592   3.384   2.796   3.968  0.8170  3.7510  0.2303
 7710SOL    HW234593   3.322   2.916   3.939  0.3479 -0.1518  2.0765
 7711SOL     OW34594   4.665   2.257  15.757  0.0203  0.0614  0.3569
 7711SOL    HW134595   4.673   2.165  15.730  1.1747  0.2430  0.0627
 7711SOL    HW234596   4.632   2.255  15.847 -0.6786  2.5419  0.1400
 7712SOL     OW34597   4.458   0.015   8.323  0.2353  0.6122 -0.4862
 7712SOL    HW134598   4.525   0.076   8.292  2.5431  1.0970  5.3391
 7712SOL    HW234599   4.427   0.063   8.400 -1.3577 -2.1433  0.6167
 7713SOL     OW34600   3.516   2.227   0.890 -0.0694 -0.0671  0.7483
 7713SOL    HW134601   3.604   2.206   0.859 -0.1329  0.5022  0.1981
 7713SOL    HW234602   3.518   2.181   0.974 -0.5669  0.0480  0.8215
 7714SOL     OW34603   4.169   0.928   1.336 -0.4158 -0.0758  0.0918
 7714SOL    HW134604   4.197   1.003   1.389 -3.2533  1.7683 -1.0181
 7714SOL    HW234605   4.074   0.932   1.346 -0.6098 -0.5120 -1.5676
 7715SOL     OW34606   3.400   0.986   2.755 -0.8609 -0.3032 -0.0234
 7715SOL    HW134607   3.324   0.984   2.698  0.3295 -0.1000 -1.6233
 7715SOL    HW234608   3.448   1.062   2.720  1.7149 -0.6180  2.7597
 7716SOL     OW34609   1.773   2.861   0.193 -0.3620 -0.9385  0.3363
 7716SOL    HW134610   1.865   2.839   0.213  0.2854  0.3054 -1.2427
 7716SOL    HW234611   1.745   2.898   0.276  0.5456 -1.8491  1.0437
 7717SOL     OW34612   1.476   1.640   7.083 -0.1592 -0.5579 -0.2456
 7717SOL    HW134613   1.506   1.698   7.014 -4.2428  2.6546  0.6669
 7717SOL    HW234614   1.431   1.696   7.147 -0.1244 -1.3846  0.5066
 7718SOL     OW34615   2.039   4.688  12.588  0.3268  0.3329  0.1758
 7718SOL    HW134616   2.113   4.705  12.530 -1.5055  2.2116 -1.5794
 7718SOL    HW234617   2.068   0.013  12.666  0.2266 -1.7998  1.5170
 7719SOL     OW34618   3.086   0.603   4.138  0.2180 -0.5665  0.2611
 7719SOL    HW134619   3.020   0.672   4.137  0.9897  0.1548 -0.5087
 7719SOL    HW234620   3.050   0.557   4.063 -1.2137 -0.8043  1.0782
 7720SOL     OW34621   3.829   3.556   5.111  0.1328 -0.3022 -0.0511
 7720SOL    HW134622   3.895   3.551   5.043  0.4587 -1.4331  0.3528
 7720SOL    HW234623   3.819   3.650   5.129  1.1661 -0.0920 -0.6303
 7721SOL     OW34624   1.924   0.100   4.516 -0.1284  0.0496 -0.0363
 7721SOL    HW134625   1.918   0.132   4.425  1.2244 -0.5180 -0.3258
 7721SOL    HW234626   2.007   0.053   4.504  1.4902  2.4459  1.6609
 7722SOL     OW34627   3.974   1.443  11.385  0.2567  0.8506  0.4934
 7722SOL    HW134628   3.968   1.365  11.440 -3.1860  1.1277  0.5043
 7722SOL    HW234629   3.909   1.508  11.411  1.4762  1.8261  1.0863
 7723SOL     OW34630   3.658   0.114   6.307 -0.0154  0.3143  0.3534
 7723SOL    HW134631   3.610   0.189   6.341 -0.3366 -0.2653  1.1761
 7723SOL    HW234632   3.595   0.076   6.245  0.3936 -0.7821  0.6159
 7724SOL     OW34633   4.439   4.477   7.056 -0.3340  0.2238  0.4332
 7724SOL    HW134634   4.398   4.537   6.994 -1.1176  1.6710  2.3457
 7724SOL    HW234635   4.369   4.469   7.121 -0.5506 -1.1244  0.0242
 7725SOL     OW34636   2.157   1.078   4.633  0.2738 -0.3732  0.2681
 7725SOL    HW134637   2.097   1.005   4.646  0.2467 -0.0938  1.7367
 7725SOL    HW234638   2.217   1.055   4.704  2.5303  0.0330 -1.4747
 7726SOL     OW34639   4.351   3.554  10.708 -0.3914  0.1774 -0.5751
 7726SOL    HW134640   4.319   3.644  10.722 -1.6337 -0.2774 -0.4903
 7726SOL    HW234641   4.311   3.511  10.783  2.0665 -1.2161 -0.0849
 7727SOL     OW34642   0.646   4.509   0.710 -0.8987  0.2810 -0.0187
 7727SOL    HW134643   0.618   4.589   0.666  0.5843  1.3909  1.0752
 7727SOL    HW234644   0.681   4.534   0.795 -1.2212  1.6218 -0.2920
 7728SOL     OW34645   4.468   1.815   2.206  0.1504  0.5174  0.1885
 7728SOL    HW134646   4.448   1.737   2.154  1.9385 -0.4868  0.9772
 7728SOL    HW234647   4.480   1.888   2.145  0.8585 -1.4697 -2.0526
 7729SOL     OW34648   0.055   3.414   7.547 -0.1540  0.7989  0.3628
 7729SOL    HW134649   0.080   3.385   7.635  1.5025  1.7853  0.2213
 7729SOL    HW234650   4.710   3.477   7.573 -2.0116 -1.6601  1.4116
 7730SOL     OW34651   3.004   2.460  10.312 -0.8204 -0.0932  0.5934
 7730SOL    HW134652   3.077   2.436  10.254  0.9939  2.4151  1.8595
 7730SOL    HW234653   3.037   2.543  10.345  0.9988 -0.3561 -0.5640
 7731SOL     OW34654   4.526   4.316   6.567  0.5065 -0.5471 -0.0333
 7731SOL    HW134655   4.490   4.276   6.645  0.4710  1.5916  1.0420
 7731SOL    HW234656   4.512   4.239   6.513 -1.3514  0.2104 -0.6135
 7732SOL     OW34657   2.872   0.715  11.107 -0.5963  0.4045  0.4799
 7732SOL    HW134658   2.850   0.761  11.026 -2.8075  0.0549  0.8953
 7732SOL    HW234659   2.934   0.646  11.083  1.0747  2.0240  0.0698
 7733SOL     OW34660   4.363   2.274   1.984 -0.1458 -0.3243 -0.0505
 7733SOL    HW134661   4.405   2.300   1.902 -0.8124  1.4792  0.1776
 7733SOL    HW234662   4.442   2.237   2.023 -0.9757 -2.3105 -0.2354
 7734SOL     OW34663   1.678   1.400   5.978  0.1209  0.1279 -0.1504
 7734SOL    HW134664   1.600   1.449   5.954 -0.7157 -1.9221 -1.6234
 7734SOL    HW234665   1.744   1.469   5.985  0.5289  0.1605 -4.2959
 7735SOL     OW34666   3.225   2.503   5.596  0.2760 -0.1180 -0.1871
 7735SOL    HW134667   3.254   2.465   5.513 -0.6657  1.4356 -1.2377
 7735SOL    HW234668   3.173   2.580   5.571 -0.8469 -0.6188  0.5860
 7736SOL     OW34669   2.413   3.645   8.824 -0.5568 -0.3009 -0.2104
 7736SOL    HW134670   2.381   3.724   8.866 -2.0266  1.2169 -4.1551
 7736SOL    HW234671   2.343   3.581   8.840 -0.9788  0.1700 -0.2004
 7737SOL     OW34672   2.521   0.120   0.460  0.5799 -0.3264  0.2659
 7737SOL    HW134673   2.468   0.049   0.495  0.7101 -0.8662 -0.6352
 7737SOL    HW234674   2.502   0.185   0.528 -1.5501  0.7290 -1.3466
 7738SOL     OW34675   1.156   0.528   6.119 -0.6773  0.6377 -0.6755
 7738SOL    HW134676   1.240   0.483   6.127 -1.1377 -0.2091 -0.6997
 7738SOL    HW234677   1.099   0.453   6.105 -0.9799  0.7085  0.2010
 7739SOL     OW34678   2.171   0.520   5.717  0.1834  0.1807  0.2788
 7739SOL    HW134679   2.139   0.431   5.702  1.1052 -0.1621  0.3279
 7739SOL    HW234680   2.223   0.509   5.797  0.2973 -0.7548  0.0749
 7740SOL     OW34681   3.242   2.759   3.213  0.1362  1.2196  0.0001
 7740SOL    HW134682   3.275   2.818   3.146 -0.4663  1.4762 -0.0761
 7740SOL    HW234683   3.229   2.680   3.162 -0.1026 -0.3912  2.5249
 7741SOL     OW34684   0.803   2.055   4.633  0.5439  0.3675  0.0124
 7741SOL    HW134685   0.884   2.056   4.583 -0.2663  3.0673 -1.2688
 7741SOL    HW234686   0.754   2.033   4.553  1.4487 -4.4576  0.7926
 7742SOL     OW34687   3.564   2.692   2.947  0.4572  0.1800  0.1316
 7742SOL    HW134688   3.593   2.611   2.905 -0.8513  0.1363 -0.6893
 7742SOL    HW234689   3.471   2.684   2.965  0.1204  0.5959 -1.4205
 7743SOL     OW34690   1.072   4.672   7.291 -0.7715 -0.1790 -0.3922
 7743SOL    HW134691   1.115   4.670   7.376 -0.7763  0.6752 -0.3621
 7743SOL    HW234692   1.023   4.590   7.286 -0.4100 -0.6610  4.3155
 7744SOL     OW34693   1.366   3.454   8.819 -0.3072 -0.0346  0.0928
 7744SOL    HW134694   1.314   3.502   8.755  0.4258 -0.4449 -0.8171
 7744SOL    HW234695   1.321   3.491   8.894  0.2795  1.2523 -0.1851
 7745SOL     OW34696   4.049   4.449   3.702  0.3068 -0.1505 -0.3464
 7745SOL    HW134697   4.133   4.451   3.657  0.3964  0.7604 -0.1385
 7745SOL    HW234698   4.070   4.436   3.794  0.7364 -1.4160 -0.6285
 7746SOL     OW34699   0.817   3.927  13.763  0.1243  0.0352  0.2246
 7746SOL    HW134700   0.823   3.997  13.828  2.2534 -0.8966  1.0470
 7746SOL    HW234701   0.739   3.953  13.715  0.4257 -1.5534 -1.1197
 7747SOL     OW34702   0.557   0.913   2.010  0.0151 -0.4768 -0.0472
 7747SOL    HW134703   0.585   0.973   2.079  0.5590  0.2336 -0.8886
 7747SOL    HW234704   0.532   0.838   2.064 -2.3587  1.0165  0.9320
 7748SOL     OW34705   1.496   4.405  11.686 -0.3475 -0.5337  0.6574
 7748SOL    HW134706   1.516   4.314  11.664  1.8059  0.1178 -0.1132
 7748SOL    HW234707   1.554   4.422  11.760  0.3130 -0.1808  0.0588
 7749SOL     OW34708   2.011   2.972   4.617 -0.1437  0.0781 -0.1539
 7749SOL    HW134709   1.962   3.030   4.676  1.8923  1.0692  0.5721
 7749SOL    HW234710   2.036   3.036   4.551 -0.3050  0.1192 -0.1752
 7750SOL     OW34711   0.995   1.868   6.603 -0.2580  0.3604 -0.1952
 7750SOL    HW134712   0.984   1.864   6.698 -0.6704 -0.1639 -0.2640
 7750SOL    HW234713   1.014   1.777   6.580  0.9263  0.0612  1.9379
 7751SOL     OW34714   4.641   1.689  12.741 -0.1734 -0.0902 -0.3703
 7751SOL    HW134715   0.000   1.680  12.788 -0.0462 -1.0019 -0.7708
 7751SOL    HW234716   4.599   1.617  12.788 -0.5238  0.3793  0.0351
 7752SOL     OW34717   1.314   1.929   0.310  0.7214  0.5545  0.3481
 7752SOL    HW134718   1.378   1.905   0.243  0.7312 -0.5250  0.7399
 7752SOL    HW234719   1.230   1.911   0.268  0.7345  1.3805 -0.0183
 7753SOL     OW34720   2.774   1.710   7.276  0.5426 -0.2686 -0.3075
 7753SOL    HW134721   2.730   1.647   7.332 -0.0071 -0.1840 -0.6503
 7753SOL    HW234722   2.806   1.649   7.209  1.6530  0.8396 -0.7935
 7754SOL     OW34723   2.633   1.050   2.227 -0.5610  0.0876 -0.3355
 7754SOL    HW134724   2.686   1.013   2.156 -0.3381  0.2699 -0.2617
 7754SOL    HW234725   2.643   1.144   2.215 -1.6656  0.2377 -0.0985
 7755SOL     OW34726   1.255   2.936   3.908 -0.5984 -0.0041 -0.1802
 7755SOL    HW134727   1.314   2.959   3.836 -0.4015  0.2855  0.0754
 7755SOL    HW234728   1.209   3.020   3.907  0.0451  0.3612  1.7961
 7756SOL     OW34729   2.277   1.723   3.341 -0.0442 -0.0927 -0.1249
 7756SOL    HW134730   2.355   1.736   3.395 -0.5506 -1.0693  0.8455
 7756SOL    HW234731   2.301   1.650   3.284 -0.6295  1.3475 -2.2270
 7757SOL     OW34732   3.962   1.920  12.040  0.1765 -0.1143 -0.1349
 7757SOL    HW134733   3.887   1.973  12.013  1.1852  0.9654 -0.8195
 7757SOL    HW234734   4.024   1.990  12.062 -0.4450  0.5952 -0.6034
 7758SOL     OW34735   2.478   0.578   8.630 -0.7541 -0.5796  0.0002
 7758SOL    HW134736   2.569   0.602   8.611 -0.8336 -0.2280  0.0648
 7758SOL    HW234737   2.451   0.660   8.672 -0.3224 -1.1280  1.3557
 7759SOL     OW34738   2.879   1.487   4.079  0.0491  0.0126 -0.3514
 7759SOL    HW134739   2.879   1.391   4.074  1.2134  0.0349 -1.0055
 7759SOL    HW234740   2.794   1.504   4.119  0.2981  1.7277 -0.5837
 7760SOL     OW34741   0.033   0.825   2.893 -0.1337  0.3788 -0.1955
 7760SOL    HW134742   0.047   0.896   2.956 -1.0980  1.3345 -1.0486
 7760SOL    HW234743   0.120   0.802   2.861  0.2869  3.0637 -1.0018
 7761SOL     OW34744   0.266   1.593  11.748 -0.3001 -0.4078 -0.0506
 7761SOL    HW134745   0.228   1.521  11.799 -1.4965  0.4354  0.2275
 7761SOL    HW234746   0.298   1.547  11.670 -2.3405 -0.4913 -0.8300
 7762SOL     OW34747   0.065   1.251   8.115 -0.3923 -0.1165  0.1947
 7762SOL    HW134748   0.061   1.158   8.137  1.2860 -0.8270 -2.4588
 7762SOL    HW234749   0.080   1.248   8.021  4.4627  2.6127  0.8844
 7763SOL     OW34750   0.714   4.466  16.831  0.5583  0.3180 -0.6677
 7763SOL    HW134751   0.631   4.511  16.814  0.4846  0.2078 -0.5947
 7763SOL    HW234752   0.686   4.384  16.871 -3.2928  1.0399 -1.8240
 7764SOL     OW34753   0.599   4.541   4.295 -0.3955  0.2780 -0.6253
 7764SOL    HW134754   0.558   4.583   4.371 -0.4117 -0.3611 -0.2737
 7764SOL    HW234755   0.528   4.502   4.244 -0.2259 -1.9339  0.7832
 7765SOL     OW34756   3.118   0.230   5.308  0.0284 -0.1072  0.1809
 7765SOL    HW134757   3.153   0.183   5.233  2.6847  1.9696  0.0964
 7765SOL    HW234758   3.134   0.321   5.280  0.3013 -0.3708 -0.5199
 7766SOL     OW34759   0.544   3.406   8.216  0.1252  0.0579 -0.2400
 7766SOL    HW134760   0.570   3.376   8.304  1.5280  1.5788 -0.1373
 7766SOL    HW234761   0.464   3.455   8.234  0.2694  0.4034 -0.5383
 7767SOL     OW34762   3.338   1.099  15.549  0.2759  0.8675  0.0126
 7767SOL    HW134763   3.399   1.029  15.570  1.1680  1.4294 -0.7498
 7767SOL    HW234764   3.398   1.172  15.564  3.6009 -2.0634  0.8217
 7768SOL     OW34765   2.458   2.848   0.208 -0.6954 -0.0009  0.3675
 7768SOL    HW134766   2.441   2.885   0.294  1.8361 -3.4455  2.3364
 7768SOL    HW234767   2.435   2.926   0.157  1.4134 -1.2294 -2.5003
 7769SOL     OW34768   3.261   0.760   7.717  0.2120  0.2598 -0.5247
 7769SOL    HW134769   3.318   0.734   7.644  2.3743  1.3865  0.7811
 7769SOL    HW234770   3.278   0.688   7.777  0.6295  0.4932 -0.3655
 7770SOL     OW34771   2.601   4.068   5.289  0.7252  0.3134 -0.2480
 7770SOL    HW134772   2.667   4.000   5.305 -0.8026 -0.7454  1.5384
 7770SOL    HW234773   2.652   4.140   5.252  2.7365 -0.4292  1.0897
 7771SOL     OW34774   2.877   0.264   6.481 -0.1736  0.3103  0.5923
 7771SOL    HW134775   2.968   0.291   6.496  1.0956 -2.8398 -1.4916
 7771SOL    HW234776   2.847   0.353   6.461 -1.3150 -0.6373 -1.8508
 7772SOL     OW34777   0.341   3.496  10.418 -0.2665  0.1478 -0.0923
 7772SOL    HW134778   0.303   3.458  10.497  0.0580 -2.5627 -1.2184
 7772SOL    HW234779   0.430   3.506  10.453 -1.0499  0.1088  1.8842
 7773SOL     OW34780   2.418   0.775   5.712  0.4378 -0.5173  0.2457
 7773SOL    HW134781   2.445   0.696   5.666 -0.0550  0.3711 -1.5648
 7773SOL    HW234782   2.498   0.779   5.764  1.0549  0.9447 -0.8321
 7774SOL     OW34783   2.915   1.613   5.314  0.3766 -0.1885 -0.0201
 7774SOL    HW134784   2.984   1.554   5.345  0.2036 -0.2730  0.1995
 7774SOL    HW234785   2.901   1.569   5.230  0.8364  2.3471 -1.4277
 7775SOL     OW34786   0.553   4.690  11.787  0.6654 -0.1262 -0.2417
 7775SOL    HW134787   0.624   0.028  11.768  0.5884 -0.7363 -2.5665
 7775SOL    HW234788   0.528   4.681  11.695  0.2173 -0.5693 -0.0763
 7776SOL     OW34789   1.307   0.576   6.777  0.8510 -0.0973  0.3104
 7776SOL    HW134790   1.334   0.496   6.731 -1.6930 -1.7567  1.6424
 7776SOL    HW234791   1.355   0.636   6.720  0.7490  0.8838  1.2648
 7777SOL     OW34792   0.858   0.558   2.796  0.5365  0.2439 -0.6765
 7777SOL    HW134793   0.812   0.483   2.833 -1.5242  1.2287 -1.2740
 7777SOL    HW234794   0.932   0.513   2.757 -0.9280 -0.7808 -2.2236
 7778SOL     OW34795   0.562   3.236  16.629  0.1503 -0.0605 -0.4863
 7778SOL    HW134796   0.483   3.228  16.576 -0.2714  1.4544 -0.0703
 7778SOL    HW234797   0.522   3.238  16.716  0.3236  0.5868 -0.4233
 7779SOL     OW34798   3.260   3.235  13.205 -0.7664  0.1724 -0.1726
 7779SOL    HW134799   3.188   3.174  13.222  0.1881 -1.1994 -1.1049
 7779SOL    HW234800   3.302   3.212  13.122 -0.2073 -0.3640  0.2595
 7780SOL     OW34801   3.777   3.819   5.140 -0.4004  0.0330  0.0583
 7780SOL    HW134802   3.722   3.897   5.144  0.5487  0.7372 -0.5560
 7780SOL    HW234803   3.855   3.846   5.189 -0.0478 -0.7188 -0.0875
 7781SOL     OW34804   0.476   3.160   2.968  0.6286 -0.4357  0.1644
 7781SOL    HW134805   0.554   3.109   2.992 -0.7626 -2.7249 -0.1969
 7781SOL    HW234806   0.505   3.222   2.901  0.4249 -1.3100 -0.7231
 7782SOL     OW34807   3.666   0.975   4.359 -0.1867  0.5284  0.5984
 7782SOL    HW134808   3.683   1.044   4.295  2.2332  0.3247  0.9919
 7782SOL    HW234809   3.579   1.010   4.379 -0.8463 -0.5538 -0.4187
 7783SOL     OW34810   0.138   3.671  11.943  0.3634 -0.0043  0.4024
 7783SOL    HW134811   0.197   3.690  12.015 -0.3512 -1.9278  1.5055
 7783SOL    HW234812   0.048   3.698  11.962  0.5845  0.7681  0.3597
 7784SOL     OW34813   1.363   0.113   0.446 -0.1100  0.2790 -0.1827
 7784SOL    HW134814   1.410   0.031   0.432 -0.4832 -0.0044  0.2468
 7784SOL    HW234815   1.270   0.094   0.435  0.0087 -0.2593 -0.2582
 7785SOL     OW34816   0.042   2.284   3.476  0.7028  0.4597  0.4792
 7785SOL    HW134817   0.048   2.370   3.434  1.1974  0.5726  0.7827
 7785SOL    HW234818   0.083   2.237   3.404  2.1071  0.4684  1.2824
 7786SOL     OW34819   1.292   3.028   2.496 -0.1763  0.1518 -0.3307
 7786SOL    HW134820   1.355   2.957   2.510  0.3678  0.6737 -0.1284
 7786SOL    HW234821   1.341   3.095   2.545  0.7161 -0.6630 -0.1113
 7787SOL     OW34822   2.162   1.556   8.412  0.2331 -0.6967  0.1428
 7787SOL    HW134823   2.165   1.562   8.317 -1.9775  1.1308  0.1842
 7787SOL    HW234824   2.177   1.647   8.438 -1.7822 -0.2111 -0.3896
 7788SOL     OW34825   0.826   0.529  16.464 -0.2559  0.9757  0.5705
 7788SOL    HW134826   0.826   0.465  16.393 -0.0134  0.8453  0.6898
 7788SOL    HW234827   0.841   0.477  16.542 -0.2500  0.9363  0.5430
 7789SOL     OW34828   2.774   4.137   3.642 -0.5506  0.1594 -0.4603
 7789SOL    HW134829   2.812   4.114   3.557 -0.0582 -0.8290  0.0335
 7789SOL    HW234830   2.804   4.227   3.649 -2.6417  0.7827  0.5643
 7790SOL     OW34831   3.944   0.882   7.658  0.0549  0.0481 -0.2253
 7790SOL    HW134832   3.970   0.880   7.750  2.0863 -0.4130 -0.8070
 7790SOL    HW234833   3.896   0.799   7.652  1.6281 -0.8596 -0.2083
 7791SOL     OW34834   3.286   0.300  15.687 -0.1440 -0.2774 -0.0172
 7791SOL    HW134835   3.201   0.314  15.645 -1.8238 -1.7015  2.9312
 7791SOL    HW234836   3.254   0.247  15.760  1.2935 -0.3782  0.5290
 7792SOL     OW34837   3.755   1.776   3.693  0.3852  0.1260  0.5621
 7792SOL    HW134838   3.798   1.794   3.777  1.3733  0.3343  0.0228
 7792SOL    HW234839   3.830   1.730   3.654 -0.2334 -1.1483  0.8762
 7793SOL     OW34840   4.694   2.963   0.387  0.1012 -0.3052 -0.8429
 7793SOL    HW134841   0.059   2.971   0.425  0.3690 -0.3738 -1.4398
 7793SOL    HW234842   4.684   2.869   0.395  0.2903 -0.1784  0.9696
 7794SOL     OW34843   2.967   3.196   7.996 -0.2906  0.0805 -0.3363
 7794SOL    HW134844   2.900   3.186   7.927  0.2588 -0.7157 -0.7484
 7794SOL    HW234845   2.962   3.288   8.021 -0.3582 -0.4052  1.4499
 7795SOL     OW34846   2.919   1.812   8.324 -0.8513  0.4458  0.6596
 7795SOL    HW134847   2.956   1.833   8.239 -2.9505 -0.9289 -0.5946
 7795SOL    HW234848   2.840   1.867   8.324 -1.5090 -0.5073 -0.4250
 7796SOL     OW34849   0.027   2.493   3.327 -0.2612  0.3475  0.0251
 7796SOL    HW134850   0.098   2.491   3.263 -0.5585 -1.0053 -0.2529
 7796SOL    HW234851   4.674   2.524   3.278  1.1701 -0.4287 -2.6511
 7797SOL     OW34852   2.337   0.543  12.559  0.1135  0.4564  0.6073
 7797SOL    HW134853   2.363   0.635  12.559  1.6597  0.0328 -2.5915
 7797SOL    HW234854   2.397   0.511  12.627  2.4029  1.4781 -0.8953
 7798SOL     OW34855   0.897   2.006  10.262 -0.1075 -0.3850 -0.3008
 7798SOL    HW134856   0.889   2.054  10.344  3.5119  1.5589 -1.0779
 7798SOL    HW234857   0.885   1.917  10.293 -0.0113 -0.1469  0.4081
 7799SOL     OW34858   3.913   1.589   3.065  0.4364 -0.0240  0.0410
 7799SOL    HW134859   3.967   1.510   3.055  2.6702  1.6004 -0.9798
 7799SOL    HW234860   3.977   1.656   3.040  0.5944 -0.7592 -1.5650
 7800SOL     OW34861   2.557   2.898   6.618 -0.1259 -0.2706 -0.5678
 7800SOL    HW134862   2.539   2.940   6.533 -1.9179  1.1310  0.5148
 7800SOL    HW234863   2.469   2.911   6.652 -0.3218 -1.6239 -0.5605
 7801SOL     OW34864   1.749   0.849   4.572  0.5968  0.1937  0.4163
 7801SOL    HW134865   1.718   0.937   4.592  0.5995 -0.0255  1.3599
 7801SOL    HW234866   1.775   0.865   4.481 -0.5013 -1.6549 -0.2307
 7802SOL     OW34867   0.217   4.256   6.696  0.2700  0.3455 -0.1115
 7802SOL    HW134868   0.171   4.176   6.669  0.0082  0.4712 -0.0414
 7802SOL    HW234869   0.180   4.324   6.639 -0.6423 -1.3567 -1.5570
 7803SOL     OW34870   0.223   1.075   6.307 -0.1026 -0.4231 -0.7478
 7803SOL    HW134871   0.318   1.080   6.321 -0.4924  2.3452  0.8950
 7803SOL    HW234872   0.223   1.141   6.237  0.8249 -0.6748 -0.9815
 7804SOL     OW34873   1.090   2.322  13.016  0.1531 -0.5033 -0.0995
 7804SOL    HW134874   1.035   2.361  13.083  0.4329  1.2793 -0.9225
 7804SOL    HW234875   1.068   2.229  13.025 -1.3124 -0.2451 -0.9684
 7805SOL     OW34876   1.796   3.788   9.974  0.4801 -0.0929 -0.5146
 7805SOL    HW134877   1.854   3.715   9.997  0.6029  0.1512 -0.0512
 7805SOL    HW234878   1.736   3.795  10.047  0.0031  0.3428 -0.9449
 7806SOL     OW34879   4.408   0.342  13.012 -0.7747 -0.5508  0.0177
 7806SOL    HW134880   4.389   0.386  12.929  3.7786  0.2116 -0.6122
 7806SOL    HW234881   4.496   0.376  13.027 -1.7956  1.6988  0.8421
 7807SOL     OW34882   4.090   2.093   5.530 -0.4042  0.1231 -0.2643
 7807SOL    HW134883   4.139   2.093   5.612  0.5501 -0.5874 -0.8326
 7807SOL    HW234884   4.069   2.001   5.515 -0.1398 -0.0210  0.2538
 7808SOL     OW34885   4.354   2.933  16.214 -0.6366 -0.2900 -0.0663
 7808SOL    HW134886   4.447   2.935  16.237 -0.4603  0.9802 -0.8861
 7808SOL    HW234887   4.347   2.845  16.176  2.2021  0.2847 -1.9102
 7809SOL     OW34888   0.247   0.598  12.848 -0.0680  0.3174 -0.0618
 7809SOL    HW134889   0.328   0.650  12.852  0.6140 -0.6543 -1.1931
 7809SOL    HW234890   0.198   0.653  12.786 -0.0107  1.8669  1.2695
 7810SOL     OW34891   0.980   1.626  11.515  0.0169 -0.2059 -0.0608
 7810SOL    HW134892   0.989   1.590  11.427 -1.6256 -3.9387  1.2925
 7810SOL    HW234893   1.060   1.594  11.558 -0.6344 -0.9210  0.6086
 7811SOL     OW34894   2.003   2.281   2.411 -0.2673  0.1734  0.4079
 7811SOL    HW134895   1.970   2.301   2.499 -1.6994  1.4489 -0.4126
 7811SOL    HW234896   2.090   2.319   2.404  0.8072 -1.7941  3.3112
 7812SOL     OW34897   2.087   0.755   5.593  0.2900  0.1185 -0.2062
 7812SOL    HW134898   2.037   0.810   5.652 -1.0205 -0.8639 -0.4029
 7812SOL    HW234899   2.113   0.688   5.656 -0.7997  0.4909  0.6405
 7813SOL     OW34900   1.050   2.182   6.828 -0.0232  0.0932  0.0509
 7813SOL    HW134901   1.100   2.253   6.787  0.4044 -1.5857 -2.2883
 7813SOL    HW234902   0.993   2.152   6.758 -1.5636 -2.6925  2.4750
 7814SOL     OW34903   1.987   3.972  16.260 -0.3539  0.7833 -0.0997
 7814SOL    HW134904   1.931   3.895  16.254 -1.0244  1.3480 -1.0032
 7814SOL    HW234905   1.987   3.974  16.356  0.7115  3.8501 -0.1457
 7815SOL     OW34906   0.526   4.492   1.743  0.0858 -0.4569  0.1634
 7815SOL    HW134907   0.560   4.533   1.663 -1.8944 -0.6915 -0.8040
 7815SOL    HW234908   0.490   4.414   1.701 -1.4912  0.2860  0.1266
 7816SOL     OW34909   3.490   3.270  13.013 -0.0728 -0.5814 -0.7310
 7816SOL    HW134910   3.462   3.337  12.951 -0.4929 -0.8728 -0.8539
 7816SOL    HW234911   3.548   3.325  13.065 -0.3215 -1.2335  0.2330
 7817SOL     OW34912   3.609   0.431   0.508 -0.6749  0.6332 -0.0335
 7817SOL    HW134913   3.659   0.419   0.427  0.5910 -0.9085  0.9736
 7817SOL    HW234914   3.637   0.522   0.518  1.2316 -0.0863  1.1514
 7818SOL     OW34915   2.394   3.226   6.346 -0.0494 -0.7962  0.8510
 7818SOL    HW134916   2.303   3.197   6.341 -1.0710  2.6341 -0.6713
 7818SOL    HW234917   2.438   3.143   6.362  1.2954 -0.1500  0.5903
 7819SOL     OW34918   0.463   3.821  11.070  0.1330  0.1420  0.3126
 7819SOL    HW134919   0.521   3.893  11.046  0.6722  0.1409  1.6617
 7819SOL    HW234920   0.482   3.822  11.163 -0.5088  1.7364  0.4371
 7820SOL     OW34921   1.727   1.045  11.008 -0.1293 -0.2724  0.2089
 7820SOL    HW134922   1.714   1.006  11.094 -1.7185 -1.6862 -0.6746
 7820SOL    HW234923   1.816   1.079  11.016  0.6364 -2.3739  0.5775
 7821SOL     OW34924   0.963   3.467   0.047 -0.4230 -0.6660 -0.3272
 7821SOL    HW134925   0.935   3.549   0.006 -0.1519  0.1129  1.0664
 7821SOL    HW234926   0.988   3.504   0.131  0.6804  0.2959 -1.0708
 7822SOL     OW34927   2.274   0.718   9.094  0.2623 -0.0006  0.0021
 7822SOL    HW134928   2.193   0.769   9.085  1.9660  2.3873 -1.7693
 7822SOL    HW234929   2.283   0.697   9.187 -0.5679  0.4821  0.1940
 7823SOL     OW34930   1.357   1.625   4.001 -0.3276  0.0105  0.1161
 7823SOL    HW134931   1.340   1.688   4.071 -1.5664 -2.1765  1.7678
 7823SOL    HW234932   1.332   1.541   4.040 -1.5541  0.5906  0.5688
 7824SOL     OW34933   3.255   0.097  11.821 -0.3965  0.1607 -0.4892
 7824SOL    HW134934   3.223   0.176  11.778 -0.4748 -0.0552 -0.8264
 7824SOL    HW234935   3.319   0.059  11.761  1.1929 -0.8730  1.8284
 7825SOL     OW34936   2.585   2.930   0.761  1.0971 -0.0897 -0.3054
 7825SOL    HW134937   2.495   2.964   0.763  0.9500 -0.5180  0.5767
 7825SOL    HW234938   2.576   2.840   0.731 -0.3436 -0.3825  0.9513
 7826SOL     OW34939   2.259   1.364   7.760 -0.6347 -0.8404  0.6298
 7826SOL    HW134940   2.170   1.355   7.725 -0.3456  1.0421 -0.6212
 7826SOL    HW234941   2.310   1.341   7.683  1.2880  0.9578  1.3618
 7827SOL     OW34942   4.126   0.719  12.175  0.6552 -0.1101  0.4731
 7827SOL    HW134943   4.080   0.637  12.153  0.8158 -0.6168  2.0155
 7827SOL    HW234944   4.217   0.691  12.165  0.2107 -2.3860  2.7590
 7828SOL     OW34945   2.403   3.667   5.206  0.0969  0.1667 -0.0694
 7828SOL    HW134946   2.445   3.629   5.282  0.4974 -0.9795 -0.8730
 7828SOL    HW234947   2.346   3.728   5.252 -0.9424 -0.3459 -0.6823
 7829SOL     OW34948   2.200   2.255   4.377  0.6674 -0.2014  0.1388
 7829SOL    HW134949   2.219   2.281   4.287  2.7996 -2.1426  0.0203
 7829SOL    HW234950   2.118   2.204   4.377 -0.8225  2.2308 -0.3089
 7830SOL     OW34951   2.362   2.072  16.848  0.5301 -0.6949  0.4742
 7830SOL    HW134952   2.350   2.077  16.943 -1.2093 -1.3915  0.2769
 7830SOL    HW234953   2.274   2.100  16.822  0.1403 -0.7729  1.7411
 7831SOL     OW34954   3.149   2.116   5.633 -0.0866  0.0332  0.5747
 7831SOL    HW134955   3.174   2.174   5.561  1.2775 -1.9362 -0.5377
 7831SOL    HW234956   3.210   2.147   5.701  0.1415  0.7468  0.0393
 7832SOL     OW34957   1.036   4.593   6.155  0.2844 -0.1346 -0.3152
 7832SOL    HW134958   1.034   4.549   6.070  0.3967 -0.8077  0.0277
 7832SOL    HW234959   1.113   4.552   6.194 -0.1036 -0.8494 -0.2996
 7833SOL     OW34960   1.305   3.591   5.873  0.3865  0.9620 -0.5151
 7833SOL    HW134961   1.397   3.574   5.893  0.5433  0.6135 -1.5360
 7833SOL    HW234962   1.293   3.679   5.909  1.5582  0.4940  1.0358
 7834SOL     OW34963   4.321   4.531   1.356  0.4129 -0.4362 -0.3354
 7834SOL    HW134964   4.287   4.464   1.417  0.5340  0.0670  0.2858
 7834SOL    HW234965   4.248   4.592   1.357  0.5400 -0.2587 -2.0988
 7835SOL     OW34966   1.403   4.440   7.007  0.1047 -0.1699 -0.3695
 7835SOL    HW134967   1.354   4.437   6.925 -4.1415  3.3751  2.1308
 7835SOL    HW234968   1.347   4.396   7.071  0.4836  0.5240  0.4406
 7836SOL     OW34969   4.480   1.340   3.542 -0.1764 -0.4350 -0.0097
 7836SOL    HW134970   4.544   1.406   3.569  1.0344 -1.9248  0.7411
 7836SOL    HW234971   4.419   1.399   3.498 -1.0284 -0.2087  1.4536
 7837SOL     OW34972   0.185   0.195   5.828  0.1910 -0.6785  0.5451
 7837SOL    HW134973   0.193   0.193   5.733  1.4413  2.1883  0.5905
 7837SOL    HW234974   0.278   0.194   5.851 -0.0945 -0.3056  1.7002
 7838SOL     OW34975   1.980   0.116   7.506 -0.2406  0.4874 -0.7483
 7838SOL    HW134976   2.042   0.187   7.521 -0.7500  0.6363  0.6260
 7838SOL    HW234977   2.014   0.091   7.420  1.0849 -0.7403  0.1351
 7839SOL     OW34978   3.595   0.140   7.515  0.5963 -0.4796  0.1221
 7839SOL    HW134979   3.517   0.187   7.486  1.5292  0.5210 -0.7592
 7839SOL    HW234980   3.588   0.167   7.607 -1.7343 -1.0284  0.1100
 7840SOL     OW34981   3.288   3.292   2.335 -0.5838  0.1117  0.0841
 7840SOL    HW134982   3.271   3.326   2.247 -1.6807 -1.0112 -0.1479
 7840SOL    HW234983   3.281   3.377   2.378 -1.0738 -0.4406  1.0958
 7841SOL     OW34984   0.248   2.390   9.298 -0.2114  0.1803  0.4952
 7841SOL    HW134985   0.233   2.457   9.364  0.8993  1.0824 -0.1826
 7841SOL    HW234986   0.162   2.351   9.281  0.3583 -0.8811  0.0659
 7842SOL     OW34987   3.167   4.646  14.831 -0.3304 -0.1510  0.2459
 7842SOL    HW134988   3.081   4.623  14.867  1.1806 -1.8538  2.7396
 7842SOL    HW234989   3.146   0.007  14.792 -3.5083 -0.7265  0.7509
 7843SOL     OW34990   3.625   3.197   4.586  0.4292 -0.1059  0.2715
 7843SOL    HW134991   3.533   3.174   4.568  0.7569 -2.5086  1.6983
 7843SOL    HW234992   3.611   3.284   4.623  0.5525 -0.3603  0.9242
 7844SOL     OW34993   2.739   4.317   1.373 -0.7138  0.7984  0.7028
 7844SOL    HW134994   2.713   4.239   1.421  0.7247  0.4933  0.9849
 7844SOL    HW234995   2.763   4.374   1.446 -0.1465 -0.2017  1.2972
 7845SOL     OW34996   4.708   3.476  10.573 -0.1921 -0.1954  0.4714
 7845SOL    HW134997   4.691   3.477  10.668  2.3890 -2.3572  0.9542
 7845SOL    HW234998   0.011   3.384  10.562 -1.2581 -0.5443  0.8275
 7846SOL     OW34999   1.445   3.553   6.273 -0.0407  0.0636 -0.0714
 7846SOL    HW135000   1.398   3.545   6.356 -1.9841  2.6960 -0.8861
 7846SOL    HW235001   1.402   3.483   6.224 -1.7610  1.4424 -0.5261
 7847SOL     OW35002   2.797   0.060   8.208  0.2759 -0.8595 -0.2379
 7847SOL    HW135003   2.863   0.068   8.277 -1.5326 -0.8577  1.4778
 7847SOL    HW235004   2.732   4.721   8.241 -2.3097  2.2292  0.4960
 7848SOL     OW35005   1.089   3.517   5.731  0.0313  0.1776 -0.7762
 7848SOL    HW135006   1.176   3.528   5.769 -0.4627 -3.4676  1.3449
 7848SOL    HW235007   1.055   3.548   5.815  1.1699 -0.6777 -0.0104
 7849SOL     OW35008   4.712   0.828  16.867 -0.1484  0.0178  0.3192
 7849SOL    HW135009   0.045   0.819  16.943 -0.9278 -0.5828  0.8239
 7849SOL    HW235010   0.046   0.812  16.792  0.5182  1.3175  0.5575
 7850SOL     OW35011   2.900   2.308  15.234  0.3727  0.9707 -0.0393
 7850SOL    HW135012   2.847   2.247  15.182 -1.5692  3.1390 -0.5882
 7850SOL    HW235013   2.841   2.321  15.308  1.9295  2.5498  0.9248
 7851SOL     OW35014   0.338   4.605   1.493  0.1715 -0.0480 -0.5238
 7851SOL    HW135015   0.284   4.576   1.566  0.9021  1.0052  0.4250
 7851SOL    HW235016   0.272   4.663   1.452 -0.0339 -0.5697 -0.9310
 7852SOL     OW35017   3.633   0.722   0.709 -0.0296 -0.2091 -0.0819
 7852SOL    HW135018   3.580   0.677   0.774  0.6215  0.0397  0.6142
 7852SOL    HW235019   3.727   0.710   0.724  0.2357  2.1240  0.0445
 7853SOL     OW35020   0.892   0.865   6.382 -0.3955 -1.0216 -0.2784
 7853SOL    HW135021   0.926   0.781   6.351 -0.0952 -1.1317  0.3699
 7853SOL    HW235022   0.903   0.859   6.477 -0.0671  1.3436 -0.1760
 7854SOL     OW35023   2.175   3.571   6.354  0.2994 -1.0023  0.3344
 7854SOL    HW135024   2.199   3.647   6.407 -3.5875  0.1309  0.4692
 7854SOL    HW235025   2.079   3.578   6.358  0.4939  2.2688 -1.4363
 7855SOL     OW35026   3.134   0.479   8.815  0.0238 -0.1181  0.6408
 7855SOL    HW135027   3.154   0.541   8.744 -0.4006  0.6166  1.1602
 7855SOL    HW235028   3.102   0.397   8.777  2.2007 -0.7248  0.0881
 7856SOL     OW35029   0.492   4.331   0.992 -0.6185  0.2843 -0.0927
 7856SOL    HW135030   0.473   4.425   0.990  0.3639  0.4443 -1.8732
 7856SOL    HW235031   0.462   4.313   0.903 -3.8012  0.8208  0.8628
 7857SOL     OW35032   2.488   1.786  12.561 -0.2174 -0.0125  0.1161
 7857SOL    HW135033   2.425   1.852  12.588  1.1672  1.3560 -0.0061
 7857SOL    HW235034   2.565   1.841  12.549  1.9322 -2.7704  1.1052
 7858SOL     OW35035   1.049   4.366  10.301 -0.0159  0.2919 -0.5340
 7858SOL    HW135036   1.142   4.375  10.323  0.1817 -0.3478 -1.0960
 7858SOL    HW235037   1.005   4.348  10.384 -1.9862  0.0042 -1.6515
 7859SOL     OW35038   0.558   2.532   4.625 -0.0586  0.0749  0.0757
 7859SOL    HW135039   0.586   2.452   4.669  2.7876  2.7151  3.0385
 7859SOL    HW235040   0.552   2.504   4.534  0.4579 -3.5921  1.1971
 7860SOL     OW35041   2.487   2.737   6.281  0.0626 -0.3324 -0.0781
 7860SOL    HW135042   2.491   2.689   6.364 -0.2147  1.5898  1.0638
 7860SOL    HW235043   2.394   2.737   6.260  0.3863  0.7710 -1.4964
 7861SOL     OW35044   3.809   4.236  17.350  0.0088  0.6583 -0.1530
 7861SOL    HW135045   3.717   4.259  17.340  0.3828  1.4979 -1.6856
 7861SOL    HW235046   3.817   4.250  17.444 -1.5639 -0.5632  0.1589
 7862SOL     OW35047   4.019   3.252   2.060  0.2723  0.3595  0.0816
 7862SOL    HW135048   4.032   3.291   2.146  1.8245 -1.1471  0.5193
 7862SOL    HW235049   4.105   3.211   2.052 -0.9324 -1.9872 -1.0623
 7863SOL     OW35050   2.966   3.999   1.090  0.0627  0.1243  0.4358
 7863SOL    HW135051   3.004   3.911   1.091 -1.3946 -0.5001  1.0614
 7863SOL    HW235052   2.973   4.032   1.001 -1.9433  0.6558  0.4801
 7864SOL     OW35053   0.817   0.831   5.393  0.2822 -0.1271  0.0934
 7864SOL    HW135054   0.905   0.825   5.356  0.5298 -0.3468  0.7153
 7864SOL    HW235055   0.830   0.816   5.486 -1.1132  0.7389  0.4223
 7865SOL     OW35056   2.579   3.336   2.664  0.0694 -0.3810  0.5748
 7865SOL    HW135057   2.638   3.265   2.637  1.4694  0.7977  0.5183
 7865SOL    HW235058   2.567   3.311   2.756 -0.9504  1.7559  1.0135
 7866SOL     OW35059   4.399   1.540   7.994 -0.1965 -0.3273  0.2304
 7866SOL    HW135060   4.437   1.584   7.918 -0.1368 -1.3076 -0.3033
 7866SOL    HW235061   4.476   1.513   8.044  0.7719  1.5962 -0.2230
 7867SOL     OW35062   4.009   2.255   2.996 -0.0511  0.3189  0.0992
 7867SOL    HW135063   3.964   2.336   3.023 -1.1026  0.0303 -0.8083
 7867SOL    HW235064   3.964   2.188   3.047 -2.2897  0.5131 -1.6074
 7868SOL     OW35065   0.377   3.099   3.300  0.1186 -0.2522 -0.0014
 7868SOL    HW135066   0.462   3.061   3.278 -0.4833 -0.1964 -2.4056
 7868SOL    HW235067   0.311   3.047   3.253  0.9588 -1.3508  0.0476
 7869SOL     OW35068   0.083   1.784   6.643 -0.5548 -0.0195 -0.2640
 7869SOL    HW135069   0.075   1.689   6.634  0.1323 -0.2581  1.7646
 7869SOL    HW235070   0.074   1.795   6.738  1.4821 -0.7616  0.0153
 7870SOL     OW35071   3.371   2.340   1.904  0.5347  0.0654  0.3658
 7870SOL    HW135072   3.466   2.328   1.913  0.4542 -0.0828  1.0658
 7870SOL    HW235073   3.359   2.434   1.921 -1.5668 -0.3521  1.1781
 7871SOL     OW35074   3.357   0.447   5.332 -0.2894 -0.4440 -0.1919
 7871SOL    HW135075   3.425   0.380   5.334 -1.3864 -1.5384  1.0528
 7871SOL    HW235076   3.376   0.508   5.404 -1.4391 -0.8586  0.4752
 7872SOL     OW35077   0.908   4.280   6.308 -0.0844 -0.0832 -0.4334
 7872SOL    HW135078   0.836   4.343   6.317  0.1374 -0.0899  1.4739
 7872SOL    HW235079   0.962   4.327   6.371  1.7642 -2.6882 -0.0800
 7873SOL     OW35080   0.039   1.964   8.697  0.2281  0.2295 -1.2433
 7873SOL    HW135081   0.005   2.027   8.760  1.5740 -0.5210  0.2664
 7873SOL    HW235082   0.046   1.877   8.737 -1.4588 -0.7165 -3.0173
 7874SOL     OW35083   2.792   2.882   2.400 -0.0718  0.2874 -0.1524
 7874SOL    HW135084   2.736   2.946   2.444  0.0839 -0.7439  1.5635
 7874SOL    HW235085   2.797   2.930   2.317  0.5381  3.0407  1.4635
 7875SOL     OW35086   1.211   2.196   4.641 -0.5558  0.4048  0.1403
 7875SOL    HW135087   1.173   2.140   4.708 -0.1647 -0.8524 -0.6872
 7875SOL    HW235088   1.303   2.172   4.639 -1.3843 -2.9029  0.9064
 7876SOL     OW35089   1.499   0.668  11.919 -0.3775  0.2118 -0.9920
 7876SOL    HW135090   1.435   0.604  11.951  0.1231  1.1456  1.9248
 7876SOL    HW235091   1.452   0.747  11.946  0.7906  0.3679  0.6080
 7877SOL     OW35092   0.450   1.132   1.845  0.4089 -0.1837  0.3231
 7877SOL    HW135093   0.361   1.112   1.817  0.0487 -0.2782  1.5423
 7877SOL    HW235094   0.492   1.054   1.882  0.5428  0.2034  0.9930
 7878SOL     OW35095   0.169   0.726   2.456  0.3831 -0.4376  0.6505
 7878SOL    HW135096   0.163   0.821   2.468 -0.3177 -0.1845 -1.6963
 7878SOL    HW235097   0.210   0.725   2.370 -1.0716  0.4870 -0.0654
 7879SOL     OW35098   0.892   0.344  16.681 -0.4117  0.4249  0.0732
 7879SOL    HW135099   0.897   0.255  16.646 -0.0233  0.5266 -0.1338
 7879SOL    HW235100   0.921   0.324  16.770 -1.4296 -0.5983  0.1828
 7880SOL     OW35101   1.775   3.252   6.473 -0.3219  0.4806  0.2393
 7880SOL    HW135102   1.703   3.190   6.483 -0.5443  0.5112 -1.0982
 7880SOL    HW235103   1.749   3.269   6.382  1.2264  1.6463  0.0109
 7881SOL     OW35104   1.029   2.108   2.774 -0.6833 -0.0811 -0.0390
 7881SOL    HW135105   1.091   2.181   2.779  1.0416 -1.6832  2.0004
 7881SOL    HW235106   0.984   2.115   2.689 -1.8502  1.3805  0.6974
 7882SOL     OW35107   3.883   4.086   9.537 -0.0042 -0.0858  0.7210
 7882SOL    HW135108   3.974   4.066   9.513  0.0183 -2.1704  2.5376
 7882SOL    HW235109   3.851   3.996   9.543  0.0820 -0.1363  0.4149
 7883SOL     OW35110   3.277   4.532   2.744 -0.1475  0.2126 -0.2742
 7883SOL    HW135111   3.185   4.552   2.730 -0.5721 -2.1742 -0.9793
 7883SOL    HW235112   3.291   4.439   2.724 -2.0133 -0.2314  0.5403
 7884SOL     OW35113   3.203   0.712  10.737  0.6208 -0.2146 -0.2924
 7884SOL    HW135114   3.246   0.796  10.722  1.2973 -0.9250 -2.2071
 7884SOL    HW235115   3.151   0.709  10.657 -1.4879 -1.5107  1.1052
 7885SOL     OW35116   3.237   2.596   0.220  0.2048  0.1964  0.2178
 7885SOL    HW135117   3.144   2.591   0.197  0.1656  0.6840  0.2629
 7885SOL    HW235118   3.267   2.505   0.226 -0.9641 -0.1990  0.1126
 7886SOL     OW35119   2.851   2.301   2.960  0.2609  0.1792  0.2829
 7886SOL    HW135120   2.818   2.218   2.925 -2.0108  1.9229 -1.6895
 7886SOL    HW235121   2.791   2.328   3.029  1.5359  2.3592  0.5525
 7887SOL     OW35122   4.547   2.100   2.954 -0.6302 -0.6185  0.2514
 7887SOL    HW135123   4.521   2.066   3.039 -1.3370 -1.9150 -0.4739
 7887SOL    HW235124   4.476   2.162   2.936  0.2385  0.3509  0.1443
 7888SOL     OW35125   3.155   4.216  13.332 -0.0925 -0.2243 -0.3169
 7888SOL    HW135126   3.205   4.216  13.413 -1.3854 -0.8545  0.4762
 7888SOL    HW235127   3.102   4.140  13.356  0.2245 -0.1124  0.7270
 7889SOL     OW35128   4.501   3.290  10.770  0.3440 -0.0284  0.2261
 7889SOL    HW135129   4.451   3.367  10.744 -0.1276  0.1085  1.5529
 7889SOL    HW235130   4.568   3.271  10.703 -1.4629 -1.5643 -1.1461
 7890SOL     OW35131   0.067   2.725   4.020 -0.2681  0.1810 -0.0249
 7890SOL    HW135132   0.058   2.819   4.037  1.2665  0.2659  0.3391
 7890SOL    HW235133   0.150   2.731   3.973  0.4880  2.9080  1.6650
 7891SOL     OW35134   1.955   1.194  12.701  0.0965 -0.2747  0.5111
 7891SOL    HW135135   2.020   1.264  12.696  0.0367 -0.2437  0.1711
 7891SOL    HW235136   1.930   1.193  12.608  1.8538  0.3316  0.0335
 7892SOL     OW35137   4.551   3.838   1.152 -0.2897  0.7296  0.4662
 7892SOL    HW135138   4.522   3.799   1.235 -0.0941 -0.2290  0.0811
 7892SOL    HW235139   4.632   3.793   1.131 -0.3854  1.0611 -0.5984
 7893SOL     OW35140   0.163   4.680  12.746  0.0124 -0.3606 -0.2697
 7893SOL    HW135141   0.167   0.010  12.825  0.7468  1.0064 -1.2229
 7893SOL    HW235142   0.105   4.609  12.773  0.9414 -0.8750  0.3962
 7894SOL     OW35143   1.919   2.119   8.105  0.3489 -0.3574 -0.1778
 7894SOL    HW135144   1.967   2.167   8.037  0.1419  0.6697  0.4136
 7894SOL    HW235145   1.870   2.193   8.141  0.2715 -1.3560  1.7842
 7895SOL     OW35146   0.755   3.164   4.738 -0.3882  0.4135  0.0222
 7895SOL    HW135147   0.711   3.117   4.809 -1.0256  1.0345  0.0301
 7895SOL    HW235148   0.797   3.236   4.785 -1.5728  0.0492  1.6364
 7896SOL     OW35149   1.305   3.471   5.022  0.3320  0.0904  0.1461
 7896SOL    HW135150   1.323   3.547   4.967  0.0638 -0.4870 -0.7421
 7896SOL    HW235151   1.364   3.487   5.096  0.5152 -0.0499  0.0323
 7897SOL     OW35152   3.872   0.487   2.707 -0.3262  0.0571 -0.2454
 7897SOL    HW135153   3.884   0.582   2.715  1.1391 -0.4281  2.9172
 7897SOL    HW235154   3.787   0.485   2.661 -0.2801 -0.0667 -0.3263
 7898SOL     OW35155   3.182   1.221  16.116 -0.2426  0.0562  0.5837
 7898SOL    HW135156   3.096   1.187  16.091 -0.2299  0.3849  0.1049
 7898SOL    HW235157   3.156   1.313  16.123 -1.7530 -0.3878  0.6756
 7899SOL     OW35158   3.245   4.422   7.462 -0.0456  0.0042 -0.2389
 7899SOL    HW135159   3.235   4.515   7.482  0.6014 -0.1861  0.9681
 7899SOL    HW235160   3.210   4.410   7.374 -0.9353  2.9682 -0.3066
 7900SOL     OW35161   4.219   1.533   9.378 -0.7192  0.2248 -0.0693
 7900SOL    HW135162   4.277   1.602   9.345  1.2464 -1.1272  0.5957
 7900SOL    HW235163   4.191   1.562   9.465  0.9270 -1.4176  0.9941
 7901SOL     OW35164   4.602   1.353   1.513 -0.7022  0.1161 -0.5379
 7901SOL    HW135165   4.616   1.444   1.540  0.0691 -0.1867  0.0906
 7901SOL    HW235166   4.527   1.363   1.454 -1.1199  1.4883  0.2238
 7902SOL     OW35167   1.965   1.323   4.735 -0.0434  0.0283  0.0771
 7902SOL    HW135168   1.989   1.231   4.750 -0.1827  0.1782  1.2625
 7902SOL    HW235169   2.012   1.366   4.807 -0.2499 -1.3013  1.0094
 7903SOL     OW35170   2.450   2.640  14.818 -0.1606  0.1995 -0.1163
 7903SOL    HW135171   2.371   2.585  14.818 -1.1218  1.6037  1.1421
 7903SOL    HW235172   2.424   2.725  14.784 -0.8652  1.1126  2.6596
 7904SOL     OW35173   1.964   1.541   6.655  0.0371 -0.4813 -0.1650
 7904SOL    HW135174   1.886   1.588   6.684  0.5887 -1.0165  2.2238
 7904SOL    HW235175   1.956   1.533   6.560 -1.6830 -1.5765  0.0650
 7905SOL     OW35176   1.356   0.149   8.839 -0.7258  0.1582  0.5356
 7905SOL    HW135177   1.319   0.062   8.848  1.7107 -0.5727  3.4787
 7905SOL    HW235178   1.446   0.126   8.861 -0.0139  0.5175 -1.9858
 7906SOL     OW35179   1.593   0.982   5.047  0.1222 -0.3598  0.0816
 7906SOL    HW135180   1.610   0.963   5.139 -3.2401  1.0229  0.9668
 7906SOL    HW235181   1.652   0.918   5.008 -0.0971  1.5545 -3.3803
 7907SOL     OW35182   1.146   1.054  15.220  0.8874 -0.0341  0.9918
 7907SOL    HW135183   1.196   1.051  15.302 -0.8625 -0.4273  2.0500
 7907SOL    HW235184   1.217   1.031  15.160 -0.5036  0.4822 -0.8347
 7908SOL     OW35185   1.653   4.086   0.239 -0.5224 -0.1142 -0.0683
 7908SOL    HW135186   1.658   4.165   0.293 -0.4675 -0.4795  0.4655
 7908SOL    HW235187   1.730   4.036   0.268  0.7543  1.1497 -1.2885
 7909SOL     OW35188   1.038   2.469   8.196  0.3137 -0.3752 -0.1984
 7909SOL    HW135189   1.007   2.502   8.112  1.2581 -1.0592 -0.8265
 7909SOL    HW235190   1.060   2.548   8.245  0.9808 -0.0203 -1.0636
 7910SOL     OW35191   0.914   1.628   7.855  0.3672 -0.3567 -0.0128
 7910SOL    HW135192   0.958   1.708   7.884 -0.1324  0.4194 -1.4207
 7910SOL    HW235193   0.906   1.639   7.760  1.8600 -2.2901 -0.3709
 7911SOL     OW35194   0.968   4.401   7.382  0.7758  0.1252 -0.4590
 7911SOL    HW135195   0.986   4.431   7.471 -1.4415 -0.0689  0.0626
 7911SOL    HW235196   0.873   4.392   7.383  0.9745 -2.0548 -1.1775
 7912SOL     OW35197   1.851   0.411   6.601 -0.4389  0.0634 -0.4832
 7912SOL    HW135198   1.868   0.431   6.693 -1.0016 -0.4245 -0.2750
 7912SOL    HW235199   1.793   0.484   6.578 -0.7517 -0.0746 -0.1156
 7913SOL     OW35200   3.885   3.731  14.324  0.2655 -0.0859 -0.2606
 7913SOL    HW135201   3.824   3.663  14.293 -0.1249  0.1694 -0.0423
 7913SOL    HW235202   3.899   3.688  14.408 -1.8945  1.1724  0.7259
 7914SOL     OW35203   2.496   0.554  12.250 -0.2805 -0.5094 -0.3885
 7914SOL    HW135204   2.549   0.566  12.171 -3.1060 -0.4049 -2.2944
 7914SOL    HW235205   2.524   0.629  12.302 -0.7262 -0.2631 -0.5001
 7915SOL     OW35206   4.222   2.724   5.211 -0.5628  0.0579 -0.5954
 7915SOL    HW135207   4.304   2.762   5.241 -1.7875  1.7530  0.5762
 7915SOL    HW235208   4.194   2.789   5.147 -0.9126  0.6392  0.1599
 7916SOL     OW35209   2.571   0.385  16.122  0.7329 -0.2126 -0.1646
 7916SOL    HW135210   2.522   0.467  16.119  0.4672 -0.4389 -1.8801
 7916SOL    HW235211   2.508   0.319  16.152  0.5590  1.0264  2.2031
 7917SOL     OW35212   0.183   0.667   5.668  0.0594  0.0744 -0.1666
 7917SOL    HW135213   0.213   0.670   5.577  0.6912  1.8075  0.1137
 7917SOL    HW235214   0.227   0.588   5.701 -0.2397  0.6251  1.5505
 7918SOL     OW35215   2.891   0.495   2.438  0.7505 -0.0352  0.6746
 7918SOL    HW135216   2.818   0.447   2.398  0.2536  1.0528  0.2583
 7918SOL    HW235217   2.964   0.469   2.382 -0.2380 -1.0517 -0.1595
 7919SOL     OW35218   4.480   0.934   4.338 -0.8894  0.2783  0.0089
 7919SOL    HW135219   4.433   1.016   4.321 -1.6883  0.4196  2.7831
 7919SOL    HW235220   4.411   0.889   4.388 -0.4103  1.5550  1.8332
 7920SOL     OW35221   4.435   0.840   2.075 -0.1920  0.2978 -0.4437
 7920SOL    HW135222   4.449   0.922   2.028  0.8210  1.0255  1.1296
 7920SOL    HW235223   4.350   0.855   2.115 -1.0786 -1.5847 -1.6592
 7921SOL     OW35224   4.555   2.435   4.911  0.4627 -0.5962 -0.2573
 7921SOL    HW135225   4.577   2.505   4.850 -0.9937  1.6170  1.7667
 7921SOL    HW235226   4.460   2.439   4.917  0.3310  2.2867 -4.2823
 7922SOL     OW35227   2.152   0.106   1.868  0.2285  0.0211 -0.2362
 7922SOL    HW135228   2.087   0.168   1.901 -1.2603 -0.9741 -1.2708
 7922SOL    HW235229   2.135   0.115   1.774 -0.9305  1.9439  0.1654
 7923SOL     OW35230   2.316   0.614   3.328 -0.0390  0.3501 -0.1159
 7923SOL    HW135231   2.336   0.524   3.355 -0.0760  0.8585  1.6032
 7923SOL    HW235232   2.228   0.605   3.292 -0.3961  2.3762  0.2262
 7924SOL     OW35233   0.412   3.121   5.401  0.0898 -0.0887 -0.0782
 7924SOL    HW135234   0.417   3.056   5.331  0.6642 -0.0489 -0.0695
 7924SOL    HW235235   0.386   3.190   5.340  2.3728  1.5631  0.8218
 7925SOL     OW35236   1.581   4.076   8.748  0.0755 -0.4443  0.5580
 7925SOL    HW135237   1.671   4.045   8.731 -0.4915 -1.0812 -1.2720
 7925SOL    HW235238   1.582   4.089   8.843 -0.6825  2.7612  0.1212
 7926SOL     OW35239   1.672   3.214   3.989 -0.1132 -0.2301  0.9610
 7926SOL    HW135240   1.703   3.123   3.993 -0.4531 -0.3859 -0.0217
 7926SOL    HW235241   1.749   3.265   3.965  0.7230 -2.8179 -1.7683
 7927SOL     OW35242   3.930   1.720   4.591 -0.2985 -0.1888  0.3033
 7927SOL    HW135243   3.918   1.811   4.565  2.2919  1.5398  5.1126
 7927SOL    HW235244   3.864   1.669   4.545 -0.7833  0.4580  0.2795
 7928SOL     OW35245   1.697   0.257  13.868 -0.2404 -0.0265  0.3111
 7928SOL    HW135246   1.682   0.345  13.831 -0.5673 -0.2301 -0.0455
 7928SOL    HW235247   1.674   0.200  13.794  1.7418  1.0546 -1.1430
 7929SOL     OW35248   2.480   4.239   2.717  0.0149 -0.1278  0.2284
 7929SOL    HW135249   2.490   4.246   2.622  2.1421 -0.4521  0.4297
 7929SOL    HW235250   2.555   4.285   2.754 -0.8953  1.3347  0.2575
 7930SOL     OW35251   2.742   4.314   1.673 -0.1112  0.0942  0.2141
 7930SOL    HW135252   2.714   4.229   1.709 -2.1144  0.6825  0.0619
 7930SOL    HW235253   2.687   4.379   1.716 -1.9957  0.7994 -3.2133
 7931SOL     OW35254   2.818   3.302   6.309 -0.2499  0.4942 -0.4418
 7931SOL    HW135255   2.883   3.372   6.302 -0.8787  0.9495 -1.7743
 7931SOL    HW235256   2.741   3.353   6.334 -1.0925 -0.1787 -1.6358
 7932SOL     OW35257   0.839   4.105  13.962  0.3697 -0.2781  0.2402
 7932SOL    HW135258   0.924   4.147  13.970  0.2298  0.1918 -0.8129
 7932SOL    HW235259   0.823   4.105  14.057 -0.1127 -0.8837  0.1590
 7933SOL     OW35260   0.658   2.245  16.652  0.1261 -0.1444 -0.2510
 7933SOL    HW135261   0.692   2.333  16.670 -1.5291  0.1807  1.2946
 7933SOL    HW235262   0.674   2.240  16.557 -1.9033  0.6210 -0.6297
 7934SOL     OW35263   1.400   4.615   5.481 -0.0468  0.2991  0.7440
 7934SOL    HW135264   1.355   4.684   5.530  1.4882  1.2375  0.8466
 7934SOL    HW235265   1.353   4.612   5.398  1.4029 -1.2411 -0.0220
 7935SOL     OW35266   3.187   3.487   9.153 -0.2684 -0.0675 -0.7776
 7935SOL    HW135267   3.216   3.531   9.233  0.8119 -2.2485  0.0022
 7935SOL    HW235268   3.249   3.418   9.130  1.9995  1.3357  1.1676
 7936SOL     OW35269   3.071   1.601   2.934 -0.2049  0.3946 -0.4099
 7936SOL    HW135270   3.147   1.569   2.886 -0.4680 -1.5596  0.4834
 7936SOL    HW235271   2.999   1.570   2.878 -1.1029 -1.9810  2.0887
 7937SOL     OW35272   1.909   1.215   6.997 -0.7467  0.6050  0.3278
 7937SOL    HW135273   1.885   1.207   6.905 -1.5238  1.4700  0.4538
 7937SOL    HW235274   1.854   1.285   7.033  0.5670  1.7076  0.2114
 7938SOL     OW35275   3.179   3.494   1.262  0.4926  0.4688  0.5823
 7938SOL    HW135276   3.184   3.424   1.328  1.4012 -2.0158 -2.1026
 7938SOL    HW235277   3.088   3.523   1.273 -0.1657 -0.1947 -3.0149
 7939SOL     OW35278   2.076   0.666   7.405  0.2542  0.2981 -0.5338
 7939SOL    HW135279   2.162   0.659   7.363  0.9008 -2.0881  1.1695
 7939SOL    HW235280   2.031   0.738   7.361  0.5186 -0.0993 -1.4482
 7940SOL     OW35281   3.528   2.217   1.169  0.4770  0.0031 -0.1253
 7940SOL    HW135282   3.597   2.283   1.161 -0.4261  1.0703  0.9248
 7940SOL    HW235283   3.557   2.173   1.249  1.9808 -0.5107 -0.9372
 7941SOL     OW35284   0.722   4.235  10.360 -0.2055  0.2322  0.1773
 7941SOL    HW135285   0.635   4.202  10.339  0.6070 -0.7070 -1.6843
 7941SOL    HW235286   0.736   4.166  10.426  0.6537  1.6212  1.4518
 7942SOL     OW35287   2.947   0.514   3.921 -0.0599  0.1196 -0.1423
 7942SOL    HW135288   2.873   0.480   3.871 -0.1076 -0.1622  0.1198
 7942SOL    HW235289   3.000   0.435   3.907  0.2904  0.1973  0.7968
 7943SOL     OW35290   2.504   1.415   5.613 -0.0115  0.0620  0.4024
 7943SOL    HW135291   2.484   1.417   5.519  0.1612  4.5091  0.4450
 7943SOL    HW235292   2.435   1.361   5.651  0.7874  0.9037  3.0112
 7944SOL     OW35293   1.576   3.737  14.863 -0.1848 -0.2934  0.0615
 7944SOL    HW135294   1.625   3.681  14.804 -0.5205 -0.8522  0.3127
 7944SOL    HW235295   1.487   3.708  14.843 -0.2720 -0.6011  0.8960
 7945SOL     OW35296   0.333   4.122   9.606  0.1108  0.3073 -0.0817
 7945SOL    HW135297   0.334   4.026   9.610  0.5461  0.4291  2.9914
 7945SOL    HW235298   0.261   4.130   9.544  1.1897  2.2602 -1.0846
 7946SOL     OW35299   2.329   4.394  15.881 -0.7848 -0.0193 -0.1513
 7946SOL    HW135300   2.353   4.312  15.839  0.7231 -0.5349  1.7209
 7946SOL    HW235301   2.348   4.448  15.805  0.2475 -0.5811 -0.2814
 7947SOL     OW35302   0.933   2.115   2.073 -0.4181  0.4368  0.0743
 7947SOL    HW135303   0.949   2.178   2.143  1.2448 -0.2749  0.3552
 7947SOL    HW235304   0.872   2.164   2.018  0.5310  0.4777 -0.9466
 7948SOL     OW35305   4.080   1.243   6.919  0.0880  0.0157  0.1056
 7948SOL    HW135306   4.082   1.222   7.013 -0.9996  1.7828  0.5138
 7948SOL    HW235307   4.102   1.336   6.914  1.0432 -0.1711  0.8067
 7949SOL     OW35308   3.443   3.055   3.955 -0.0380 -0.5305 -0.1767
 7949SOL    HW135309   3.500   3.035   3.881  1.1128 -0.6732  0.7622
 7949SOL    HW235310   3.497   3.040   4.032 -1.1314  0.0230  0.7040
 7950SOL     OW35311   0.033   4.243   8.411  1.0142 -0.1294  0.0813
 7950SOL    HW135312   0.016   4.200   8.494 -0.7027 -0.2929 -0.3611
 7950SOL    HW235313   0.038   4.335   8.436 -2.1510 -0.4705  1.9418
 7951SOL     OW35314   4.190   2.503   4.337 -0.6823 -0.0095  0.8088
 7951SOL    HW135315   4.099   2.533   4.337 -0.3312  1.0641  2.0185
 7951SOL    HW235316   4.216   2.533   4.424  0.2826 -1.4054  1.0041
 7952SOL     OW35317   0.195   4.614   4.694  0.1219  0.1052  0.0829
 7952SOL    HW135318   0.139   4.609   4.617 -0.0934 -0.9593  0.3092
 7952SOL    HW235319   0.199   4.522   4.722  2.4489 -0.2150 -1.3111
 7953SOL     OW35320   2.569   1.710   5.586 -0.4566  0.0997 -0.3217
 7953SOL    HW135321   2.478   1.695   5.561 -0.7753  1.6975 -0.1429
 7953SOL    HW235322   2.595   1.619   5.604 -1.5539 -0.2371 -0.4831
 7954SOL     OW35323   3.451   2.489   7.676 -0.0625 -0.1491 -0.5975
 7954SOL    HW135324   3.455   2.560   7.612 -1.2924  1.0259  0.6237
 7954SOL    HW235325   3.435   2.545   7.752 -0.1926  1.5260 -1.8381
 7955SOL     OW35326   0.060   3.737   7.439  1.1182 -0.1177  0.1017
 7955SOL    HW135327   0.045   3.669   7.504 -1.1788 -0.9506 -1.2823
 7955SOL    HW235328   0.023   3.694   7.361 -0.6662 -0.8612  1.3685
 7956SOL     OW35329   3.797   0.370  16.344  0.0933 -0.8358  0.6392
 7956SOL    HW135330   3.804   0.297  16.282  2.5069 -1.5473  1.7222
 7956SOL    HW235331   3.828   0.331  16.426 -1.6108  0.5312  1.9298
 7957SOL     OW35332   4.298   2.791  16.473  0.2217 -0.7628  0.4312
 7957SOL    HW135333   4.334   2.760  16.555  1.1452  0.0490  0.3313
 7957SOL    HW235334   4.264   2.710  16.435 -2.2149  0.3441  0.2086
 7958SOL     OW35335   4.365   1.637   1.242  0.2070 -0.0954  0.3044
 7958SOL    HW135336   4.295   1.631   1.177 -0.4262 -1.2010  1.0931
 7958SOL    HW235337   4.382   1.731   1.250 -0.3604  0.2441 -2.2481
 7959SOL     OW35338   2.703   3.195   3.196 -0.5266 -0.3723  0.1598
 7959SOL    HW135339   2.721   3.280   3.155 -0.0055 -0.7397 -0.3716
 7959SOL    HW235340   2.776   3.147   3.157  0.3998  0.1104  1.2895
 7960SOL     OW35341   2.144   2.197  13.167 -0.4010 -0.2381 -0.0632
 7960SOL    HW135342   2.146   2.107  13.136 -2.0239 -0.0598 -0.6912
 7960SOL    HW235343   2.238   2.214  13.160  0.0100 -2.4229  0.1556
 7961SOL     OW35344   4.070   4.163  12.436 -0.1229 -0.3367 -0.0631
 7961SOL    HW135345   4.002   4.168  12.370 -0.1475  0.6993  0.0480
 7961SOL    HW235346   4.028   4.119  12.510 -2.7475  1.0204 -0.7645
 7962SOL     OW35347   0.085   2.549   9.846  0.2901  0.1720  0.2854
 7962SOL    HW135348   0.001   2.503   9.841  0.5893 -0.4702  1.2356
 7962SOL    HW235349   0.084   2.589   9.932  2.6132 -0.1577  0.4729
 7963SOL     OW35350   3.969   3.609   2.565  0.1588 -0.3974 -0.0148
 7963SOL    HW135351   4.048   3.626   2.513 -0.5546  2.4628 -0.1463
 7963SOL    HW235352   3.931   3.526   2.540 -3.5492  0.2785  3.4026
 7964SOL     OW35353   3.134   4.010   3.723 -0.6631  0.8533  0.2477
 7964SOL    HW135354   3.075   4.012   3.798  0.7750  0.5306  1.3648
 7964SOL    HW235355   3.138   3.916   3.701 -2.7860  1.1537 -1.4976
 7965SOL     OW35356   2.006   3.908   6.361 -0.2960 -0.0775  0.0704
 7965SOL    HW135357   2.079   3.951   6.316  0.4214  0.1657  1.4680
 7965SOL    HW235358   2.052   3.853   6.424  2.6174  0.9279 -1.1818
 7966SOL     OW35359   2.779   4.147   3.915 -0.5882 -0.1324  0.1087
 7966SOL    HW135360   2.753   4.173   3.827  1.2428 -0.9686 -0.6753
 7966SOL    HW235361   2.697   4.105   3.941  0.2275 -1.6829  0.2056
 7967SOL     OW35362   1.747   3.791   9.283 -0.2634  0.7331 -0.1571
 7967SOL    HW135363   1.662   3.767   9.320  1.1641 -0.4406  2.3840
 7967SOL    HW235364   1.739   3.753   9.196  1.0036 -0.0134  0.0435
 7968SOL     OW35365   2.344   3.557   1.811  0.4133 -0.2363 -0.1954
 7968SOL    HW135366   2.267   3.524   1.764  2.2594 -1.0024 -2.7241
 7968SOL    HW235367   2.402   3.579   1.737 -2.2077  2.1585 -1.5415
 7969SOL     OW35368   2.006   0.839   4.664  0.4282 -0.1590 -1.0800
 7969SOL    HW135369   1.936   0.834   4.599 -1.0874  0.1581  0.5188
 7969SOL    HW235370   2.033   0.747   4.666 -0.3916 -0.3954 -0.9548
 7970SOL     OW35371   2.078   3.839  11.975  0.0517 -0.1231 -0.5880
 7970SOL    HW135372   2.081   3.758  12.027 -1.1974  0.4415  0.3527
 7970SOL    HW235373   2.123   3.889  12.043  1.9901 -2.1445 -0.3870
 7971SOL     OW35374   4.553   3.631   8.000  0.2398  0.0389  0.3770
 7971SOL    HW135375   4.635   3.654   7.957 -0.2812 -0.5735 -0.9742
 7971SOL    HW235376   4.553   3.706   8.059 -0.6849  0.0886  0.3249
 7972SOL     OW35377   3.785   1.648  13.150 -0.3210 -0.0340  0.1754
 7972SOL    HW135378   3.741   1.660  13.234  0.6966  0.9633  0.5616
 7972SOL    HW235379   3.737   1.576  13.109  1.9902 -1.1539 -0.5570
 7973SOL     OW35380   2.305   4.358   5.930  0.5526 -0.3523  0.5258
 7973SOL    HW135381   2.321   4.264   5.930  2.8352  0.0366  1.0701
 7973SOL    HW235382   2.237   4.366   5.996 -0.2700 -1.9054 -0.1352
 7974SOL     OW35383   4.672   4.517  10.632 -0.3457  0.4126  0.4859
 7974SOL    HW135384   4.634   4.435  10.601  0.0102  0.5586 -0.3251
 7974SOL    HW235385   4.586   4.557  10.639  0.0036  1.3172 -0.5047
 7975SOL     OW35386   1.478   0.282   3.467 -0.4511  0.4590  0.0632
 7975SOL    HW135387   1.395   0.241   3.492  0.2042  0.0593  1.6193
 7975SOL    HW235388   1.525   0.214   3.419 -0.2043  0.6256  0.0715
 7976SOL     OW35389   2.966   4.287   8.372  0.3593 -0.1762  0.5932
 7976SOL    HW135390   2.889   4.231   8.364  0.0174  0.2136  1.2149
 7976SOL    HW235391   2.987   4.265   8.462 -0.5146 -1.3417  0.5119
 7977SOL     OW35392   0.732   3.651   7.054  0.3898  0.4107  0.0878
 7977SOL    HW135393   0.808   3.690   7.011  0.6352 -1.4303 -1.1139
 7977SOL    HW235394   0.710   3.723   7.114  1.9448  0.5491  0.4972
 7978SOL     OW35395   4.653   4.100   2.637 -0.0362 -0.0575 -0.0162
 7978SOL    HW135396   4.566   4.097   2.677 -0.8180  1.6965 -1.5667
 7978SOL    HW235397   4.648   4.157   2.560  1.2394 -2.8305 -2.1555
 7979SOL     OW35398   0.692   3.629  17.537  0.9310  0.0006 -0.5861
 7979SOL    HW135399   0.696   3.716  17.497  0.9590  0.2706 -0.0030
 7979SOL    HW235400   0.725   3.567  17.472  1.8392 -0.5220  0.3763
 7980SOL     OW35401   4.384   3.997   9.499  1.4010 -0.1024 -0.2833
 7980SOL    HW135402   4.344   4.024   9.581  2.4371 -1.2303  0.5962
 7980SOL    HW235403   4.316   4.027   9.439  1.0576  1.3970  0.8598
 7981SOL     OW35404   1.106   0.387   7.778 -0.0851 -0.2658 -0.5341
 7981SOL    HW135405   1.105   0.307   7.726 -0.6735 -0.7561  0.2202
 7981SOL    HW235406   1.020   0.394   7.819 -0.2767 -0.1794 -0.9600
 7982SOL     OW35407   0.353   4.056  15.100  0.1823  0.3630  0.0125
 7982SOL    HW135408   0.342   3.967  15.132  1.3474  0.3403  0.3582
 7982SOL    HW235409   0.449   4.056  15.090  0.2630 -1.9243  0.7396
 7983SOL     OW35410   0.927   2.101   0.376  0.1698  0.5962  0.1476
 7983SOL    HW135411   0.844   2.059   0.351 -0.8413  1.2543  2.4368
 7983SOL    HW235412   0.929   2.098   0.471  1.2226  1.2431  0.1400
 7984SOL     OW35413   2.158   0.140  12.777 -0.0019 -0.7645 -0.1208
 7984SOL    HW135414   2.236   0.172  12.731 -1.6902 -0.0464 -2.4668
 7984SOL    HW235415   2.197   0.093  12.851 -1.4842 -2.2200 -0.2588
 7985SOL     OW35416   0.142   2.430   6.691 -0.8564  0.1590  0.4708
 7985SOL    HW135417   0.080   2.389   6.751  0.9476 -1.1264  1.4465
 7985SOL    HW235418   0.135   2.374   6.613  1.7863  0.6756 -0.1397
 7986SOL     OW35419   2.648   3.512  13.068  0.2125  0.0359 -0.8488
 7986SOL    HW135420   2.571   3.536  13.016 -1.1875 -2.9221 -0.1486
 7986SOL    HW235421   2.633   3.417  13.072  0.9184  0.0458  1.8625
 7987SOL     OW35422   2.117   0.181   5.354  0.4760  0.5826 -0.1712
 7987SOL    HW135423   2.046   0.217   5.407  0.2956  2.7593 -1.8721
 7987SOL    HW235424   2.174   0.142   5.421 -0.9637 -0.9436  0.1535
 7988SOL     OW35425   3.544   4.613   5.957 -0.5106 -0.0562  0.1125
 7988SOL    HW135426   3.527   4.680   5.891 -3.8879 -0.8781  0.1286
 7988SOL    HW235427   3.453   4.585   5.970 -0.0919 -1.7502 -0.6817
 7989SOL     OW35428   1.231   0.226   9.156 -0.3068 -0.3977 -0.6018
 7989SOL    HW135429   1.219   0.140   9.195 -0.8208  0.3417  0.8480
 7989SOL    HW235430   1.314   0.213   9.109  0.4445 -1.4718  1.0130
 7990SOL     OW35431   0.858   2.965   7.683 -0.0424  0.4895  0.0052
 7990SOL    HW135432   0.797   3.026   7.641 -0.9496  0.6220  1.5170
 7990SOL    HW235433   0.798   2.890   7.685  1.8551 -1.0364 -0.2663
 7991SOL     OW35434   0.942   4.051   2.411 -0.2429  0.1527  0.3316
 7991SOL    HW135435   0.983   3.976   2.454  0.3623  0.0123 -0.4956
 7991SOL    HW235436   0.873   4.080   2.471 -0.6115  1.1862 -0.5805
 7992SOL     OW35437   0.873   2.515  11.960 -0.6175 -0.2008  0.4782
 7992SOL    HW135438   0.968   2.519  11.964 -0.3826 -3.1322 -2.1989
 7992SOL    HW235439   0.855   2.447  11.895  1.4365 -0.3630  0.0943
 7993SOL     OW35440   0.810   1.862   9.043  0.2462 -0.5716  0.2377
 7993SOL    HW135441   0.838   1.918   9.116 -3.3589  0.5638  0.7451
 7993SOL    HW235442   0.769   1.930   8.989 -0.6992 -0.2637  1.3364
 7994SOL     OW35443   4.451   3.784   9.754 -0.4141  0.2545 -0.2930
 7994SOL    HW135444   4.362   3.789   9.718 -1.1223 -0.9487  1.2737
 7994SOL    HW235445   4.432   3.788   9.847  0.4467  0.6597 -0.1361
 7995SOL     OW35446   1.364   0.783   3.454 -0.4343 -1.0734  0.9970
 7995SOL    HW135447   1.354   0.834   3.373  0.8287  0.3500  1.7343
 7995SOL    HW235448   1.457   0.789   3.476 -0.4688 -2.0395  1.3659
 7996SOL     OW35449   0.054   1.237   5.085 -0.4484  0.5177  0.0532
 7996SOL    HW135450   0.140   1.198   5.100 -0.2169  0.8370 -0.4331
 7996SOL    HW235451   0.043   1.190   5.002  0.7344  0.3884 -0.0341
 7997SOL     OW35452   4.716   3.112   3.835  0.0659  0.2508 -0.9227
 7997SOL    HW135453   0.003   3.035   3.891  1.2665  0.9391 -0.1637
 7997SOL    HW235454   0.011   3.175   3.905 -0.5928 -1.0415  0.3969
 7998SOL     OW35455   1.666   1.064  17.664 -0.4715  0.1062 -0.4899
 7998SOL    HW135456   1.634   0.976  17.684  1.2642 -0.0768  1.4836
 7998SOL    HW235457   1.722   1.054  17.587  1.3007  0.9726  0.6910
 7999SOL     OW35458   1.364   1.549  15.095 -0.3430 -0.4972 -0.0466
 7999SOL    HW135459   1.323   1.623  15.139 -0.8180 -0.0844 -1.2038
 7999SOL    HW235460   1.414   1.517  15.171 -0.7576 -0.5232  0.2126
 8000SOL     OW35461   2.745   2.201  15.051 -0.2953  0.1800  0.3724
 8000SOL    HW135462   2.724   2.111  15.026  1.5567 -0.3223  0.6623
 8000SOL    HW235463   2.661   2.245  15.039 -0.0725  0.4561 -0.1670
 8001SOL     OW35464   0.488   0.068   8.328 -0.2896 -0.2490  0.0389
 8001SOL    HW135465   0.556   0.125   8.293 -1.6730  0.1555 -1.9707
 8001SOL    HW235466   0.411   0.125   8.317 -0.0949 -0.0768 -0.4453
 8002SOL     OW35467   3.003   4.601   3.756 -0.7139  0.7713 -0.0256
 8002SOL    HW135468   3.072   4.555   3.709 -2.3799 -1.4687 -0.2828
 8002SOL    HW235469   3.037   4.606   3.846 -1.2870  0.7776  0.1918
 8003SOL     OW35470   0.672   4.057   4.326  0.2169  0.3946 -0.4533
 8003SOL    HW135471   0.730   3.981   4.320  3.0327  2.4061  1.4675
 8003SOL    HW235472   0.739   4.125   4.333  3.3889 -2.6172 -2.0372
 8004SOL     OW35473   1.599   1.094   4.187  0.0103  0.1100  0.0698
 8004SOL    HW135474   1.654   1.140   4.251  0.0386 -1.2260  1.0094
 8004SOL    HW235475   1.665   1.039   4.144  0.3763  2.3730 -2.2760
 8005SOL     OW35476   2.155   2.615   9.210  0.4469 -0.5655 -0.0774
 8005SOL    HW135477   2.111   2.614   9.295 -0.3192 -1.9427 -0.4980
 8005SOL    HW235478   2.238   2.583   9.245  1.0586  1.0382 -0.0217
 8006SOL     OW35479   4.600   0.352  15.821 -0.4826  0.1682 -0.3835
 8006SOL    HW135480   4.521   0.304  15.796 -0.5736  0.4424 -0.6326
 8006SOL    HW235481   4.606   0.345  15.916 -3.4839  2.2625 -0.0390
 8007SOL     OW35482   0.477   2.426   4.377  0.1003  0.0025  0.2115
 8007SOL    HW135483   0.419   2.351   4.392  0.1576  0.0337  0.5977
 8007SOL    HW235484   0.558   2.378   4.363  0.4404  0.1699  1.6017
 8008SOL     OW35485   1.296   1.333   8.546 -0.1919  0.3591  0.2898
 8008SOL    HW135486   1.288   1.384   8.627 -3.0125 -0.5838  0.6196
 8008SOL    HW235487   1.308   1.402   8.481 -0.5786 -0.2713 -0.4524
 8009SOL     OW35488   2.274   1.311   5.401  0.2078 -0.2043  0.1383
 8009SOL    HW135489   2.223   1.391   5.402  1.3605  0.5206  1.4348
 8009SOL    HW235490   2.243   1.275   5.485 -2.7565 -0.0053 -0.8803
 8010SOL     OW35491   3.582   3.221   2.032 -0.6546  0.1988  0.2494
 8010SOL    HW135492   3.517   3.283   2.067 -1.3467  1.3187 -3.0384
 8010SOL    HW235493   3.629   3.287   1.982 -0.4874  1.2175  1.7435
 8011SOL     OW35494   1.975   2.821   9.365 -0.4335 -0.4443 -0.6433
 8011SOL    HW135495   1.906   2.886   9.350 -0.8799 -0.3757  1.7922
 8011SOL    HW235496   1.951   2.773   9.444  2.1104 -1.0071 -0.2301
 8012SOL     OW35497   0.040   2.331   5.023  0.1262 -0.4541 -0.0521
 8012SOL    HW135498   4.692   2.387   4.992  0.7925 -0.2086 -1.1620
 8012SOL    HW235499   4.718   2.247   5.017  0.4491 -0.5231 -1.5183
 8013SOL     OW35500   4.370   1.441   1.404  0.2971  0.8021 -0.1249
 8013SOL    HW135501   4.276   1.455   1.415 -0.4642 -1.8938 -2.8523
 8013SOL    HW235502   4.396   1.511   1.344 -0.3251  0.9123 -0.2704
 8014SOL     OW35503   3.501   3.803  10.349 -0.5071  0.0662 -0.1978
 8014SOL    HW135504   3.514   3.795  10.443 -2.9221  0.2708  0.1645
 8014SOL    HW235505   3.578   3.753  10.321  0.0340  0.8598 -0.1068
 8015SOL     OW35506   0.034   3.297   8.893  0.6600  0.4114 -0.2772
 8015SOL    HW135507   4.717   3.229   8.946 -0.1864  0.7655 -0.4639
 8015SOL    HW235508   4.685   3.348   8.856  1.8787  1.2223 -1.5284
 8016SOL     OW35509   2.567   1.299   2.505 -0.0598  0.0604 -0.7773
 8016SOL    HW135510   2.538   1.322   2.417 -3.9708  0.3994  0.6177
 8016SOL    HW235511   2.487   1.326   2.550  0.5552  1.0870 -0.2719
 8017SOL     OW35512   2.306   1.913  12.699 -0.0255  0.3703  0.0038
 8017SOL    HW135513   2.295   1.831  12.747  1.7331  0.5563  0.7422
 8017SOL    HW235514   2.336   1.972  12.767  1.2292 -1.1048  0.7466
 8018SOL     OW35515   1.184   3.124  14.298 -0.6180  0.0459  0.6390
 8018SOL    HW135516   1.220   3.106  14.211 -1.2371 -0.0979  0.4123
 8018SOL    HW235517   1.237   3.062  14.348  0.3606 -0.6830 -1.2832
 8019SOL     OW35518   0.249   3.393   8.007 -0.0875 -0.1712 -0.5134
 8019SOL    HW135519   0.243   3.487   7.988 -0.7217 -0.1797 -0.3603
 8019SOL    HW235520   0.225   3.347   7.926  1.2602 -0.5583 -0.6925
 8020SOL     OW35521   2.376   4.456   2.127  0.1228  0.6005 -0.1608
 8020SOL    HW135522   2.437   4.395   2.086  0.2838  0.3725  0.4327
 8020SOL    HW235523   2.310   4.444   2.059  0.6170  0.2557 -0.5792
 8021SOL     OW35524   2.229   1.653   4.907 -0.6124  0.3546  0.8970
 8021SOL    HW135525   2.224   1.574   4.853  1.2605  0.4297  0.5978
 8021SOL    HW235526   2.149   1.700   4.885  0.3232  2.5718  2.2262
 8022SOL     OW35527   2.229   2.874   7.063  0.5733 -0.4451 -0.0473
 8022SOL    HW135528   2.222   2.780   7.049 -0.0450 -0.4756  0.4887
 8022SOL    HW235529   2.284   2.884   7.140 -1.2506  1.3443  1.0034
 8023SOL     OW35530   2.800   1.927   6.046 -0.4721  0.4477  0.0438
 8023SOL    HW135531   2.892   1.943   6.024 -0.9983  0.1494 -2.3510
 8023SOL    HW235532   2.780   1.856   5.985  0.4843 -0.7339  1.1012
 8024SOL     OW35533   3.446   0.616   9.367  0.0406  0.1785 -0.5246
 8024SOL    HW135534   3.448   0.521   9.377 -0.9513  0.0561 -1.4963
 8024SOL    HW235535   3.522   0.628   9.309 -0.2200 -0.8590 -1.0754
 8025SOL     OW35536   1.095   0.990  12.384  0.1213  0.2712  0.1222
 8025SOL    HW135537   1.121   0.996  12.292 -0.1630  2.7753  0.2125
 8025SOL    HW235538   1.074   0.897  12.391 -1.1469  0.3917 -2.2472
 8026SOL     OW35539   3.806   2.212   9.889  0.4110  0.2133  0.8917
 8026SOL    HW135540   3.755   2.169   9.822  0.9242 -0.7305  1.1077
 8026SOL    HW235541   3.835   2.136   9.940 -1.4437 -0.2994  1.1767
 8027SOL     OW35542   3.888   1.782   6.810  0.4958 -0.5809  0.3108
 8027SOL    HW135543   3.899   1.699   6.856 -0.9612 -0.6380  0.5359
 8027SOL    HW235544   3.799   1.782   6.774  1.2947 -1.2185 -1.6919
 8028SOL     OW35545   1.303   3.579   7.713  0.3570  0.2510 -0.7095
 8028SOL    HW135546   1.375   3.546   7.659  0.9890 -0.2641  0.4422
 8028SOL    HW235547   1.308   3.534   7.798 -0.7038  0.4767 -0.5273
 8029SOL     OW35548   0.635   4.476   4.872  0.1889  1.0839  0.3883
 8029SOL    HW135549   0.704   4.469   4.937  0.9951 -0.2051 -0.5980
 8029SOL    HW235550   0.663   4.408   4.811 -0.6556  1.2777 -0.2317
 8030SOL     OW35551   1.558   0.774  12.736  0.5975 -0.0942  0.4835
 8030SOL    HW135552   1.485   0.775  12.674 -0.0878 -0.1226  1.2821
 8030SOL    HW235553   1.626   0.829  12.696  0.1289  1.3525  1.6371
 8031SOL     OW35554   2.144   4.565   1.563  0.4684 -0.6180 -0.3354
 8031SOL    HW135555   2.130   4.511   1.485 -2.2938 -0.8307  0.3021
 8031SOL    HW235556   2.227   4.525   1.590 -0.0376 -0.4612  1.4456
 8032SOL     OW35557   0.137   3.537   7.008  0.0042  0.0774 -0.0836
 8032SOL    HW135558   0.223   3.502   6.987 -0.2700  0.3177 -1.5809
 8032SOL    HW235559   0.098   3.518   6.923 -1.0324 -0.1337  0.4399
 8033SOL     OW35560   3.178   0.822   2.912  0.2566 -0.2625 -0.3222
 8033SOL    HW135561   3.087   0.791   2.916 -0.6777  2.5745  0.4094
 8033SOL    HW235562   3.158   0.904   2.867  2.0455 -0.5823 -1.6794
 8034SOL     OW35563   0.357   0.113   2.277  0.3896  0.3115  0.5842
 8034SOL    HW135564   0.447   0.081   2.269 -0.2076 -0.8917 -1.2854
 8034SOL    HW235565   0.301   0.046   2.239  1.9687  0.3960 -1.8783
 8035SOL     OW35566   3.221   4.524   4.627 -0.6913 -0.5364  0.1292
 8035SOL    HW135567   3.162   4.502   4.555 -0.5781 -1.2946  0.2680
 8035SOL    HW235568   3.310   4.502   4.598 -0.1770  1.0120  0.5066
 8036SOL     OW35569   4.078   1.531   8.901  0.2253  0.3845  0.3339
 8036SOL    HW135570   4.162   1.578   8.900 -1.3814  3.2709  0.2184
 8036SOL    HW235571   4.097   1.440   8.925 -0.6703  1.1842  4.0656
 8037SOL     OW35572   3.720   1.537   6.595  0.0701  0.2821 -0.0043
 8037SOL    HW135573   3.695   1.585   6.674  3.6897  1.2738  0.5510
 8037SOL    HW235574   3.704   1.445   6.616  0.4061  0.5479  1.4672
 8038SOL     OW35575   0.838   1.094   7.592 -0.8722 -0.0232 -0.2954
 8038SOL    HW135576   0.846   1.153   7.667 -1.1599 -2.0208  1.3265
 8038SOL    HW235577   0.905   1.132   7.535 -0.7080  1.6635  1.0279
 8039SOL     OW35578   4.049   0.484  12.060 -0.4720 -0.0881 -0.9468
 8039SOL    HW135579   4.077   0.486  11.969  1.9808  0.6580 -0.1808
 8039SOL    HW235580   4.110   0.415  12.088 -0.1822  0.9418  1.0050
 8040SOL     OW35581   2.356   1.594   2.252 -0.0140  0.5569 -0.2766
 8040SOL    HW135582   2.354   1.657   2.324  3.8083 -2.1533  2.2028
 8040SOL    HW235583   2.294   1.630   2.189  1.5973  0.2098 -2.0857
 8041SOL     OW35584   1.731   0.331   2.479  0.1068  0.1109 -0.2994
 8041SOL    HW135585   1.653   0.282   2.505  1.3445 -1.4620  0.4406
 8041SOL    HW235586   1.696   0.415   2.450 -1.6108 -0.7879 -0.8681
 8042SOL     OW35587   2.272   3.687  13.892 -0.1199 -0.3452  0.7676
 8042SOL    HW135588   2.267   3.706  13.798  1.6630  0.3652  0.8270
 8042SOL    HW235589   2.263   3.776  13.926 -0.1136  0.6564 -1.8727
 8043SOL     OW35590   2.375   0.701   2.789  0.2556  0.0041 -0.3839
 8043SOL    HW135591   2.431   0.648   2.845 -1.2283 -1.4789 -0.3106
 8043SOL    HW235592   2.388   0.673   2.699  2.8726 -0.3457  0.1196
 8044SOL     OW35593   1.683   2.974  11.033  0.0506  0.1965 -0.4717
 8044SOL    HW135594   1.693   2.887  10.994 -1.3596  0.1284 -0.6827
 8044SOL    HW235595   1.760   3.024  11.007 -0.0149 -0.1011 -1.2398
 8045SOL     OW35596   0.885   1.559  17.402 -0.3984  0.5928  0.3011
 8045SOL    HW135597   0.919   1.526  17.319  1.1384  1.8945  0.4240
 8045SOL    HW235598   0.965   1.569  17.452 -1.7153 -0.3773  2.6060
 8046SOL     OW35599   4.224   1.958   8.522  0.5560  0.4137  0.3529
 8046SOL    HW135600   4.304   1.956   8.574  1.3164  2.1844 -0.7025
 8046SOL    HW235601   4.247   2.039   8.474 -1.9666  0.9545  0.0686
 8047SOL     OW35602   2.058   0.607  11.999 -0.4935 -0.7441 -0.2508
 8047SOL    HW135603   2.091   0.601  12.088 -1.6551  1.0859  0.3117
 8047SOL    HW235604   1.971   0.645  12.013 -0.7564 -1.0658 -1.0060
 8048SOL     OW35605   2.250   1.812   4.563  0.0680  0.7728  0.3312
 8048SOL    HW135606   2.336   1.827   4.525  0.5151 -1.7219  0.4036
 8048SOL    HW235607   2.222   1.729   4.526  2.3454 -1.0290  2.6588
 8049SOL     OW35608   0.591   0.789  11.952 -0.2367 -0.9492 -0.1311
 8049SOL    HW135609   0.504   0.816  11.923  0.2083  0.0892 -0.5087
 8049SOL    HW235610   0.629   0.808  11.866 -0.8281  0.0352 -0.1706
 8050SOL     OW35611   0.322   0.568   0.024  0.2624  0.0596 -0.1901
 8050SOL    HW135612   0.288   0.501  17.658 -1.8855  2.8490 -2.1041
 8050SOL    HW235613   0.269   0.552   0.102  2.6595 -0.3792  1.3501
 8051SOL     OW35614   2.027   1.706   4.088  0.2162  0.0223 -0.5537
 8051SOL    HW135615   1.988   1.627   4.051  0.9080  0.6166 -2.5437
 8051SOL    HW235616   2.104   1.712   4.031 -1.6579  0.6318 -2.9929
 8052SOL     OW35617   0.997   3.523   6.986 -0.1423 -0.6245  0.0206
 8052SOL    HW135618   1.083   3.482   6.992 -0.1177 -0.2733  2.0889
 8052SOL    HW235619   1.008   3.606   7.032  1.2254 -0.7780 -0.0312
 8053SOL     OW35620   0.517   0.552   8.347 -0.1947 -0.0421  0.1484
 8053SOL    HW135621   0.466   0.574   8.425 -0.0138  0.1101  0.2259
 8053SOL    HW235622   0.601   0.596   8.360 -0.3299  0.8296 -1.7872
 8054SOL     OW35623   3.772   3.374  15.321  0.0058  0.2303  0.4420
 8054SOL    HW135624   3.798   3.466  15.311 -1.3628  0.5348 -0.3772
 8054SOL    HW235625   3.849   3.318  15.321 -0.2531 -0.1248  0.6220
 8055SOL     OW35626   3.093   0.269   1.047 -0.3153  0.3600 -1.0042
 8055SOL    HW135627   3.119   0.177   1.051  0.6533  0.6765 -0.2404
 8055SOL    HW235628   3.169   0.319   1.077  0.0943 -1.3294  0.7672
 8056SOL     OW35629   4.318   4.167   3.678  0.3600 -0.3045 -0.3335
 8056SOL    HW135630   4.249   4.198   3.736 -2.0371 -3.4390 -1.4754
 8056SOL    HW235631   4.325   4.239   3.615  1.6858  0.5304  0.7842
 8057SOL     OW35632   3.676   3.574  10.407  0.1082  0.4175  0.0538
 8057SOL    HW135633   3.717   3.560  10.493 -1.2606  0.3740  0.7036
 8057SOL    HW235634   3.754   3.571  10.352  1.0730 -1.5452  1.5136
 8058SOL     OW35635   3.112   3.762   1.039 -0.2062 -0.6068  0.1679
 8058SOL    HW135636   3.186   3.729   1.091 -0.7473 -1.8090  0.1756
 8058SOL    HW235637   3.063   3.680   1.035 -1.3741  0.0546  0.9990
 8059SOL     OW35638   3.640   4.391  16.494  0.1209  0.7751  0.0916
 8059SOL    HW135639   3.697   4.343  16.434  1.6911  0.9903  1.4296
 8059SOL    HW235640   3.574   4.322  16.492  0.2998  0.5993  0.4074
 8060SOL     OW35641   1.592   1.003  10.741  0.5766 -0.2155  0.4257
 8060SOL    HW135642   1.643   0.991  10.821 -0.8833  1.3121  1.5709
 8060SOL    HW235643   1.529   0.932  10.751  0.3140  0.0957  0.9403
 8061SOL     OW35644   2.329   1.488   3.218 -0.0769 -0.0836  0.0283
 8061SOL    HW135645   2.326   1.428   3.143 -2.3181 -0.2462  0.2524
 8061SOL    HW235646   2.423   1.489   3.236 -0.3461 -0.6493  1.4696
 8062SOL     OW35647   1.606   3.372   6.872  0.0939 -0.1057 -0.0240
 8062SOL    HW135648   1.645   3.434   6.810  1.0676 -0.2561  0.4375
 8062SOL    HW235649   1.652   3.294   6.842 -0.2974 -0.6438  0.7843
 8063SOL     OW35650   3.007   1.915  12.862  0.4406 -0.0110 -0.0421
 8063SOL    HW135651   3.056   1.984  12.818 -2.6971  1.5649 -1.1079
 8063SOL    HW235652   2.933   1.907  12.801  1.9692 -0.9355 -1.7681
 8064SOL     OW35653   3.689   1.068   6.192  0.2537  0.3113  0.1785
 8064SOL    HW135654   3.778   1.066   6.156 -0.4601  0.4227 -1.6093
 8064SOL    HW235655   3.712   1.100   6.279  0.3396 -0.6090  0.4934
 8065SOL     OW35656   2.857   0.299  11.876  0.5946 -0.1372 -0.1046
 8065SOL    HW135657   2.866   0.241  11.951  1.4506 -1.6699 -1.3947
 8065SOL    HW235658   2.945   0.306  11.839  0.3296  0.2756 -0.6524
 8066SOL     OW35659   1.852   2.705   4.576 -0.4739  0.4356 -0.1395
 8066SOL    HW135660   1.891   2.651   4.507 -0.7300 -0.6781  0.6023
 8066SOL    HW235661   1.899   2.788   4.575  1.6782 -0.7976 -2.0082
 8067SOL     OW35662   3.363   1.225   6.059 -0.0665  0.1012 -0.6950
 8067SOL    HW135663   3.310   1.163   6.108  1.7242  0.2592  1.4374
 8067SOL    HW235664   3.389   1.284   6.130  1.3619 -1.4395  0.0636
 8068SOL     OW35665   2.187   1.981   2.675 -0.0632  0.0764  0.0543
 8068SOL    HW135666   2.171   1.975   2.580  0.3613 -0.8505  0.0422
 8068SOL    HW235667   2.210   1.890   2.693  1.2949  0.8068  1.9287
 8069SOL     OW35668   2.088   3.141   9.145  0.5811 -0.1977  0.2872
 8069SOL    HW135669   2.119   3.054   9.118 -1.1456 -0.7520  0.1251
 8069SOL    HW235670   2.093   3.125   9.239  0.5415 -2.2131 -0.0592
 8070SOL     OW35671   4.524   3.720   4.769  0.1114  0.3648  0.0168
 8070SOL    HW135672   4.552   3.735   4.860  3.4248 -2.3322 -0.5294
 8070SOL    HW235673   4.599   3.763   4.729 -0.4647  0.1465 -1.2758
 8071SOL     OW35674   1.609   0.326  13.340  0.1551 -0.1816 -0.2265
 8071SOL    HW135675   1.687   0.377  13.363 -0.5747  1.1772 -0.7983
 8071SOL    HW235676   1.569   0.306  13.424 -1.2302 -0.5583 -0.9831
 8072SOL     OW35677   3.263   3.496   8.137  0.1394 -0.3996  0.0139
 8072SOL    HW135678   3.334   3.489   8.201  0.2860  2.2701  0.1432
 8072SOL    HW235679   3.284   3.586   8.112  3.0771 -0.2429  3.0437
 8073SOL     OW35680   1.342   1.061   8.766 -0.5361  0.5825  0.1220
 8073SOL    HW135681   1.414   1.100   8.717  1.0742 -0.9410  1.2684
 8073SOL    HW235682   1.348   0.968   8.744 -0.5163  0.7005 -0.3720
 8074SOL     OW35683   3.481   1.246   2.251 -0.0667  0.2680  0.0715
 8074SOL    HW135684   3.511   1.298   2.325 -2.5502  0.5166  0.9191
 8074SOL    HW235685   3.564   1.203   2.230 -0.4709 -0.1842 -0.6257
 8075SOL     OW35686   0.096   3.517   8.204  0.7338  0.2349 -0.0785
 8075SOL    HW135687   0.190   3.530   8.206  0.9660 -1.4725 -0.4475
 8075SOL    HW235688   0.078   3.566   8.123  1.2984  1.1802  0.3679
 8076SOL     OW35689   2.785   1.661   6.799  0.1016 -0.0517  0.6999
 8076SOL    HW135690   2.807   1.572   6.772  1.1356  0.9216 -1.6769
 8076SOL    HW235691   2.733   1.692   6.725  0.5004 -2.9111 -0.7664
 8077SOL     OW35692   1.650   2.791  15.263 -0.0770  0.3568 -0.1312
 8077SOL    HW135693   1.626   2.844  15.339 -1.7882  0.7169 -0.9313
 8077SOL    HW235694   1.617   2.839  15.187  2.1423  0.3662 -1.0937
 8078SOL     OW35695   0.804   3.754   7.958  0.1746  0.4779  0.2220
 8078SOL    HW135696   0.894   3.733   7.934  0.2908 -1.5343  2.4823
 8078SOL    HW235697   0.792   3.709   8.041  1.0775 -0.6112 -0.2360
 8079SOL     OW35698   2.797   3.093   4.302  0.0640  0.7898 -0.8186
 8079SOL    HW135699   2.786   3.037   4.225 -0.1946  0.1257 -0.3020
 8079SOL    HW235700   2.892   3.089   4.311  0.0943  0.5329 -1.2552
 8080SOL     OW35701   0.561   4.666   4.543  0.3442 -0.0623  0.2835
 8080SOL    HW135702   0.637   4.721   4.561  1.0247 -0.9900  0.2633
 8080SOL    HW235703   0.543   4.639   4.633 -0.1398  1.8587  0.7543
 8081SOL     OW35704   3.610   2.000   5.163 -0.2752 -0.1230  0.1156
 8081SOL    HW135705   3.568   1.961   5.240 -1.4381  0.1721 -0.3800
 8081SOL    HW235706   3.667   2.071   5.195 -0.8670 -0.0382  0.9783
 8082SOL     OW35707   3.643   2.609   5.367 -0.1173 -0.2653  0.1357
 8082SOL    HW135708   3.724   2.573   5.403 -0.3639  0.0700  1.0201
 8082SOL    HW235709   3.677   2.699   5.361 -2.5753  0.5189 -2.4869
 8083SOL     OW35710   1.818   2.644   5.377 -0.2651 -0.4568 -0.1402
 8083SOL    HW135711   1.741   2.599   5.411 -0.8890  0.1163 -0.7948
 8083SOL    HW235712   1.794   2.640   5.285  1.2787 -0.5506 -0.5456
 8084SOL     OW35713   4.690   3.549   8.431  0.0354  0.0373  0.0991
 8084SOL    HW135714   4.598   3.535   8.408  0.7672  0.0804 -2.7761
 8084SOL    HW235715   0.016   3.534   8.351  3.6430  1.3076  2.0734
 8085SOL     OW35716   3.829   2.482  14.545 -0.0881 -0.0454 -0.2339
 8085SOL    HW135717   3.834   2.552  14.479 -0.7157 -2.2958 -2.6945
 8085SOL    HW235718   3.735   2.464  14.539  0.4731 -2.8688 -0.5772
 8086SOL     OW35719   0.074   4.413   4.272  0.6818  0.2774 -0.0052
 8086SOL    HW135720   4.716   4.361   4.275 -0.0238  1.3598  0.1355
 8086SOL    HW235721   0.132   4.352   4.316  0.6650 -0.9794 -1.7377
 8087SOL     OW35722   0.347   3.166   2.407 -0.3041  0.0790  0.2341
 8087SOL    HW135723   0.425   3.179   2.462 -0.4289 -0.4072  0.5229
 8087SOL    HW235724   0.377   3.100   2.344 -0.3826  0.5164 -0.2677
 8088SOL     OW35725   1.767   1.939   6.917 -0.0017  0.2044 -0.3432
 8088SOL    HW135726   1.802   1.948   6.829  0.4051  1.4398 -0.0571
 8088SOL    HW235727   1.673   1.943   6.897 -0.4217 -1.4144  1.3247
 8089SOL     OW35728   4.612   3.160   5.841 -0.0002  0.1254  0.1115
 8089SOL    HW135729   4.673   3.228   5.871 -0.8101  1.9289 -2.2892
 8089SOL    HW235730   4.536   3.213   5.864 -1.3805 -1.6199 -0.5083
 8090SOL     OW35731   3.502   1.679   6.960 -0.1065 -0.0289  0.2387
 8090SOL    HW135732   3.460   1.602   6.921  0.2328  0.7359 -1.6377
 8090SOL    HW235733   3.452   1.680   7.041  0.0099  0.0181  0.3114
 8091SOL     OW35734   4.228   0.666   6.362 -0.1491  0.2774 -0.1630
 8091SOL    HW135735   4.167   0.641   6.292  1.4204  0.4863 -1.5990
 8091SOL    HW235736   4.314   0.665   6.319  0.3979  1.1656  0.9133
 8092SOL     OW35737   4.062   1.914   2.662  0.2849  0.1310 -0.1678
 8092SOL    HW135738   4.079   1.990   2.607 -2.2215  0.8806  0.1106
 8092SOL    HW235739   4.151   1.893   2.691  0.8362  2.2801 -0.3571
 8093SOL     OW35740   2.426   4.237   7.082 -0.2209  0.3441  0.2395
 8093SOL    HW135741   2.462   4.262   6.997  0.3093 -0.9782  0.0698
 8093SOL    HW235742   2.504   4.250   7.136 -0.4120  0.3162  0.5189
 8094SOL     OW35743   1.516   3.651   4.551  0.4272 -0.2171 -0.5966
 8094SOL    HW135744   1.495   3.617   4.638 -2.7096 -1.7807 -1.9526
 8094SOL    HW235745   1.607   3.620   4.550  0.8353  0.8805  2.8639
 8095SOL     OW35746   4.123   0.338   4.955 -0.1311  0.4148  0.1136
 8095SOL    HW135747   4.143   0.288   4.876 -1.8744 -0.2619  0.1029
 8095SOL    HW235748   4.033   0.307   4.961  0.6740 -1.7699  0.7875
 8096SOL     OW35749   2.256   1.510  13.732 -0.1040  0.6864 -0.7152
 8096SOL    HW135750   2.224   1.553  13.653  0.8929 -0.3265 -1.6631
 8096SOL    HW235751   2.343   1.548  13.743 -1.5889  2.9342  3.2237
 8097SOL     OW35752   0.389   3.195  11.640  0.4518  0.2266  0.1251
 8097SOL    HW135753   0.429   3.144  11.569 -0.1286  0.2555 -0.2210
 8097SOL    HW235754   0.342   3.132  11.694  1.8260 -1.7882 -0.9831
 8098SOL     OW35755   4.024   4.037  13.666 -0.0141  0.4326  0.7505
 8098SOL    HW135756   4.056   4.001  13.749  0.2423  1.9953  1.3342
 8098SOL    HW235757   4.103   4.027  13.613  0.1429  0.3288  1.0057
 8099SOL     OW35758   1.882   4.495   3.887 -0.0696  0.5659 -0.1929
 8099SOL    HW135759   1.931   4.414   3.873 -0.2559  0.0809  1.9801
 8099SOL    HW235760   1.953   4.551   3.917  0.5877 -1.4273  2.0454
 8100SOL     OW35761   0.948   2.468  13.211  0.2615 -0.3823 -0.1041
 8100SOL    HW135762   0.876   2.531  13.223 -0.5357 -2.0073  3.7008
 8100SOL    HW235763   0.978   2.474  13.301  0.9469 -0.6876 -0.3171
 8101SOL     OW35764   3.235   3.967   4.325 -0.3854 -0.8997  0.1557
 8101SOL    HW135765   3.171   3.960   4.253  0.6511 -1.6799 -0.7019
 8101SOL    HW235766   3.170   3.996   4.388 -1.4521 -1.8622 -0.4920
 8102SOL     OW35767   4.218   2.203   8.402 -0.6777 -0.0381 -0.2867
 8102SOL    HW135768   4.151   2.248   8.351 -1.1297 -0.3969 -0.0133
 8102SOL    HW235769   4.283   2.273   8.401 -1.5178  0.7468  0.3354
 8103SOL     OW35770   3.942   3.287  11.562 -0.5229  0.4052  0.1980
 8103SOL    HW135771   3.950   3.272  11.467 -0.2417  0.1441  0.2651
 8103SOL    HW235772   4.022   3.334  11.586  0.3748  0.8480 -3.6549
 8104SOL     OW35773   4.036   1.237  12.621  0.2718  0.5636  0.3270
 8104SOL    HW135774   4.050   1.160  12.676 -0.1241  1.2913  1.4514
 8104SOL    HW235775   3.987   1.207  12.545 -1.6088 -0.4110  1.9181
 8105SOL     OW35776   3.540   0.977  17.366 -0.0455 -0.0044  0.2735
 8105SOL    HW135777   3.491   0.906  17.407 -1.5016  0.6076 -0.4044
 8105SOL    HW235778   3.501   1.040  17.427 -1.3812  0.7210 -1.3415
 8106SOL     OW35779   2.611   3.318   4.222 -0.2380 -0.0051  0.6146
 8106SOL    HW135780   2.693   3.268   4.226  0.2581  0.7844  0.4619
 8106SOL    HW235781   2.633   3.398   4.271 -0.2155  0.0231  0.5579
 8107SOL     OW35782   4.399   0.532   3.072  0.3751 -0.1957 -0.5003
 8107SOL    HW135783   4.385   0.502   3.162 -1.3534 -1.1394 -1.0809
 8107SOL    HW235784   4.478   0.586   3.074  1.0585 -1.2943  1.6599
 8108SOL     OW35785   1.210   2.569   4.522  0.1268 -0.2364  0.4628
 8108SOL    HW135786   1.177   2.491   4.477  0.7260 -0.1416 -0.1307
 8108SOL    HW235787   1.254   2.532   4.599 -0.4123 -0.5143  0.6462
 8109SOL     OW35788   3.643   2.152   4.371 -0.1822  0.1830  0.6004
 8109SOL    HW135789   3.699   2.173   4.445  0.9162  0.3306 -0.2749
 8109SOL    HW235790   3.623   2.061   4.392 -0.0471 -0.2117 -0.9532
 8110SOL     OW35791   1.003   0.763   9.461  0.1979 -0.3164 -0.3155
 8110SOL    HW135792   0.913   0.760   9.492 -0.1535 -2.4258 -1.5213
 8110SOL    HW235793   1.016   0.672   9.488 -0.3951 -0.8083 -1.6529
 8111SOL     OW35794   0.871   2.383  10.229 -0.2147  0.1999 -0.4751
 8111SOL    HW135795   0.860   2.443  10.155  0.2858  1.8857  0.8336
 8111SOL    HW235796   0.838   2.442  10.296  0.3787  1.0392 -0.9240
 8112SOL     OW35797   3.234   1.411   2.396 -0.1418  0.2823  0.0315
 8112SOL    HW135798   3.237   1.372   2.309 -0.9608  0.4104 -0.0513
 8112SOL    HW235799   3.194   1.340   2.446 -0.2711  0.6235  0.4118
 8113SOL     OW35800   2.236   1.779   7.201  0.1903  0.2998 -0.1160
 8113SOL    HW135801   2.310   1.721   7.219  0.7774  0.7121 -1.2389
 8113SOL    HW235802   2.182   1.739   7.133 -0.8651 -0.8969  1.4030
 8114SOL     OW35803   2.566   1.867  11.205 -0.0366  0.1122 -0.0059
 8114SOL    HW135804   2.603   1.931  11.143  1.1496  0.1175  0.7148
 8114SOL    HW235805   2.604   1.897  11.287 -0.8941  1.7921 -0.2190
 8115SOL     OW35806   2.666   2.312   5.757  0.4947  0.2238 -0.7791
 8115SOL    HW135807   2.657   2.238   5.817 -2.1974  0.6574 -0.6495
 8115SOL    HW235808   2.750   2.292   5.715  0.9572 -1.0594  0.7258
 8116SOL     OW35809   4.235   2.620   8.340  0.0908 -0.1066 -0.2194
 8116SOL    HW135810   4.158   2.656   8.298 -0.4468 -1.6455 -0.5624
 8116SOL    HW235811   4.226   2.649   8.431 -1.7474  0.2965 -0.5289
 8117SOL     OW35812   2.243   0.843   8.383 -0.5660  0.0049 -0.0482
 8117SOL    HW135813   2.234   0.902   8.308 -1.2182 -0.5226 -0.3796
 8117SOL    HW235814   2.337   0.828   8.389 -0.5798  0.4221  1.3978
 8118SOL     OW35815   3.563   2.387   5.538 -0.4262  0.2776 -0.5031
 8118SOL    HW135816   3.570   2.472   5.494  0.1663 -0.1095 -1.1496
 8118SOL    HW235817   3.654   2.357   5.541 -0.8992 -1.4263 -3.1776
 8119SOL     OW35818   0.555   3.966   9.455  0.2540 -0.1176  0.1229
 8119SOL    HW135819   0.537   3.940   9.545  0.1608 -1.2902 -0.2264
 8119SOL    HW235820   0.466   3.986   9.425  0.8981  1.2577 -0.8670
 8120SOL     OW35821   4.340   2.645   7.934  0.2701 -0.3881 -0.0566
 8120SOL    HW135822   4.303   2.568   7.892 -1.3902 -0.1315  0.9411
 8120SOL    HW235823   4.434   2.625   7.933  0.2141 -0.6327 -0.2895
 8121SOL     OW35824   2.615   1.451   6.449 -0.1515 -0.5381  0.4529
 8121SOL    HW135825   2.703   1.464   6.485 -0.1759  0.9526 -0.0350
 8121SOL    HW235826   2.594   1.371   6.497  0.5827 -0.5050  0.8357
 8122SOL     OW35827   0.538   1.180  14.367  0.2068  0.2252 -0.0744
 8122SOL    HW135828   0.446   1.194  14.344 -0.1465 -0.2605  1.0434
 8122SOL    HW235829   0.536   1.206  14.459  0.5361  3.1357 -0.9061
 8123SOL     OW35830   1.559   0.659   8.769  0.3066  0.2740  0.7027
 8123SOL    HW135831   1.581   0.691   8.856 -0.9796  3.5829 -0.1674
 8123SOL    HW235832   1.582   0.567   8.779  2.5763  0.8149  0.4406
 8124SOL     OW35833   3.808   0.144  17.339 -0.9594  0.3327  0.1340
 8124SOL    HW135834   3.760   0.206  17.394 -0.7310 -0.4850  1.2715
 8124SOL    HW235835   3.741   0.090  17.297  0.9890 -1.7711 -0.2879
 8125SOL     OW35836   2.208   4.526   6.754 -0.1408 -0.3349  0.2096
 8125SOL    HW135837   2.197   4.592   6.685 -1.4974 -1.3041 -0.5002
 8125SOL    HW235838   2.244   4.580   6.824  1.5492  0.3158 -1.1786
 8126SOL     OW35839   3.859   4.298   7.464  0.1198 -0.1006  0.2661
 8126SOL    HW135840   3.866   4.340   7.378 -0.7970 -0.4967 -0.0052
 8126SOL    HW235841   3.875   4.206   7.440 -1.2137 -0.3965  0.5273
 8127SOL     OW35842   1.427   0.263   2.544 -0.1961  1.0472  0.5437
 8127SOL    HW135843   1.428   0.223   2.457 -0.3328 -0.0332  1.0362
 8127SOL    HW235844   1.332   0.279   2.551 -0.4700 -0.1621 -0.3841
 8128SOL     OW35845   3.429   0.844   5.232 -0.8274 -0.3750  0.0661
 8128SOL    HW135846   3.409   0.841   5.325 -3.0111 -1.2858 -0.4264
 8128SOL    HW235847   3.358   0.888   5.186 -0.2718  1.7701  1.2864
 8129SOL     OW35848   2.848   3.955   1.654  0.5931  0.0440 -0.0278
 8129SOL    HW135849   2.870   3.872   1.614 -2.3666  0.0494 -1.6714
 8129SOL    HW235850   2.755   3.935   1.668  0.5482  0.1395 -0.1896
 8130SOL     OW35851   4.040   3.557  11.336  0.3986  0.3676  1.1723
 8130SOL    HW135852   3.978   3.486  11.349  0.9547 -0.1188  1.1724
 8130SOL    HW235853   4.097   3.521  11.268 -0.0609  2.2527 -0.2130
 8131SOL     OW35854   1.710   0.168   5.959 -0.0007 -0.3878  0.0455
 8131SOL    HW135855   1.659   0.239   5.919  0.1923  0.5685  1.4876
 8131SOL    HW235856   1.669   0.093   5.916  2.1589 -2.0819  0.9753
 8132SOL     OW35857   4.656   2.141  13.552  0.0486 -0.0638 -0.5978
 8132SOL    HW135858   0.025   2.118  13.537  0.2934 -0.3817  1.3391
 8132SOL    HW235859   4.667   2.233  13.576 -2.7463  0.1982 -0.2911
 8133SOL     OW35860   0.559   3.459  12.558  0.5892  0.2464  0.0017
 8133SOL    HW135861   0.586   3.408  12.482 -0.1339 -0.5803  0.2930
 8133SOL    HW235862   0.625   3.434  12.623 -0.8892 -1.6198  0.7998
 8134SOL     OW35863   3.399   3.712   4.696 -0.3896  0.1040 -0.0053
 8134SOL    HW135864   3.342   3.696   4.621  1.5738  2.7235 -2.0655
 8134SOL    HW235865   3.329   3.759   4.740  0.1135  0.6744  0.1973
 8135SOL     OW35866   2.375   3.232   0.735 -0.2722 -0.7831  0.2933
 8135SOL    HW135867   2.408   3.247   0.824 -3.4837  1.0564  1.1802
 8135SOL    HW235868   2.444   3.266   0.678  0.4801 -0.1107  1.6064
 8136SOL     OW35869   2.736   3.442   3.059  0.1569 -0.4277  0.3252
 8136SOL    HW135870   2.669   3.510   3.065 -1.6702 -2.1612 -0.2681
 8136SOL    HW235871   2.812   3.494   3.033  0.7694 -1.7116 -0.4299
 8137SOL     OW35872   0.395   1.245   9.088  0.0662 -0.3496  0.2633
 8137SOL    HW135873   0.452   1.250   9.165  2.5224  1.1886 -1.6312
 8137SOL    HW235874   0.386   1.339   9.072  0.1683 -0.1667  1.2951
 8138SOL     OW35875   2.968   3.870  13.223 -0.0938  0.6264  0.1701
 8138SOL    HW135876   2.983   3.923  13.301  0.3763  0.5298  0.1431
 8138SOL    HW235877   2.898   3.926  13.188 -1.8152 -1.1506  0.7604
 8139SOL     OW35878   0.506   0.319   5.523  0.3338 -0.1124  0.1312
 8139SOL    HW135879   0.519   0.414   5.524  0.2812 -0.1461  3.4547
 8139SOL    HW235880   0.452   0.309   5.444  0.7636  1.8080 -0.4230
 8140SOL     OW35881   2.063   0.568   4.754  0.4683  0.8701  0.4270
 8140SOL    HW135882   2.053   0.482   4.713  1.6148  1.4959 -1.1255
 8140SOL    HW235883   2.031   0.547   4.842  0.8657 -1.9322 -0.0811
 8141SOL     OW35884   3.889   0.359   7.106  0.0835  0.2728  0.2412
 8141SOL    HW135885   3.858   0.330   7.192  2.8330 -1.7541  0.5360
 8141SOL    HW235886   3.955   0.298   7.075 -0.1557  0.7691 -1.2243
 8142SOL     OW35887   1.195   4.260  14.677 -0.6492 -0.1445 -0.7888
 8142SOL    HW135888   1.243   4.185  14.712 -0.1881  1.2301  1.5280
 8142SOL    HW235889   1.239   4.335  14.716  0.4237 -1.5600  0.7019
 8143SOL     OW35890   0.129   3.468   2.726 -0.4316 -0.4973  0.2703
 8143SOL    HW135891   0.076   3.478   2.805 -1.0918  0.7173 -0.3471
 8143SOL    HW235892   0.077   3.396   2.691  0.4347 -0.8688 -0.2447
 8144SOL     OW35893   4.185   3.137   0.028  0.2460  0.3399  0.1583
 8144SOL    HW135894   4.186   3.099  17.634  0.2272  0.4639  0.1033
 8144SOL    HW235895   4.177   3.061   0.085 -0.3061  0.6990  0.5603
 8145SOL     OW35896   3.936   0.682  14.373 -0.8526  0.4612  0.6743
 8145SOL    HW135897   3.980   0.693  14.458  0.4102  2.1843 -0.1844
 8145SOL    HW235898   3.879   0.759  14.372  0.2538  1.2659 -1.3482
 8146SOL     OW35899   3.675   3.529  10.663 -0.4974  0.3053  0.0009
 8146SOL    HW135900   3.626   3.455  10.698 -1.1053  0.8744  0.3594
 8146SOL    HW235901   3.669   3.589  10.737  1.7846  0.2096  0.2475
 8147SOL     OW35902   2.024   1.032   8.840 -0.4529  0.2589 -0.5377
 8147SOL    HW135903   1.984   1.118   8.855  3.5691  2.0889 -0.3045
 8147SOL    HW235904   1.985   1.024   8.753  0.3229 -0.2120 -0.8459
 8148SOL     OW35905   3.379   3.793   3.555  0.4009  0.2374 -0.3631
 8148SOL    HW135906   3.385   3.716   3.499  1.7898  0.4419 -0.4706
 8148SOL    HW235907   3.297   3.824   3.516  0.1850  0.5349  0.3247
 8149SOL     OW35908   0.811   3.181   7.242  0.3256  0.4008 -0.0171
 8149SOL    HW135909   0.847   3.266   7.269  0.0307  0.7517 -0.7179
 8149SOL    HW235910   0.800   3.197   7.149 -2.3501 -3.1125 -0.2759
 8150SOL     OW35911   0.868   4.462   6.972 -0.6590 -0.5695 -0.4269
 8150SOL    HW135912   0.790   4.493   7.018  0.3424 -2.4604  2.5522
 8150SOL    HW235913   0.893   4.539   6.920  0.1191 -0.9530 -0.6258
 8151SOL     OW35914   3.944   1.439  12.776 -0.4451  0.1342 -0.3308
 8151SOL    HW135915   3.959   1.358  12.727  1.3242 -0.6223  1.4707
 8151SOL    HW235916   3.854   1.460  12.750 -0.3035  1.0255 -0.1010
 8152SOL     OW35917   4.699   0.580   8.227  0.3238  0.2334  0.2119
 8152SOL    HW135918   0.029   0.626   8.162  1.1669 -0.3060  0.5163
 8152SOL    HW235919   0.044   0.573   8.294  1.6333 -1.5634 -1.2996
 8153SOL     OW35920   4.042   2.822   3.638  0.0348  0.4615 -0.5058
 8153SOL    HW135921   4.121   2.851   3.684  1.1580 -0.7282 -1.6753
 8153SOL    HW235922   4.068   2.743   3.590 -2.2627 -1.6933  1.7631
 8154SOL     OW35923   3.061   2.125   4.687  0.1966  0.5461  0.2463
 8154SOL    HW135924   3.011   2.045   4.700 -2.1021  2.1428  1.3589
 8154SOL    HW235925   2.990   2.176   4.647  0.5666  0.8468 -0.0249
 8155SOL     OW35926   3.919   4.634   4.001 -0.1763  0.0015 -0.2027
 8155SOL    HW135927   3.902   4.587   3.919 -2.1145 -1.6373  1.1422
 8155SOL    HW235928   3.933   4.569   4.071  1.5254  0.5872  0.0022
 8156SOL     OW35929   3.806   1.749   5.056 -0.2335  0.2892 -0.4641
 8156SOL    HW135930   3.852   1.830   5.036  3.5979 -1.2807  1.9687
 8156SOL    HW235931   3.802   1.695   4.977  0.1139  0.1565 -0.3902
 8157SOL     OW35932   4.422   1.561   2.037 -0.1123 -1.1157 -0.2055
 8157SOL    HW135933   4.424   1.490   2.102 -0.6804  0.1425  1.1980
 8157SOL    HW235934   4.513   1.567   2.010 -0.8282  0.8831 -2.1435
 8158SOL     OW35935   1.969   3.295   4.040  0.1758  0.3176 -0.4400
 8158SOL    HW135936   1.972   3.386   4.069 -3.5018  0.1845  0.3673
 8158SOL    HW235937   2.044   3.267   4.093 -0.6149 -1.4045 -0.2496
 8159SOL     OW35938   4.399   1.365  17.243 -0.1475 -0.7566  0.1866
 8159SOL    HW135939   4.344   1.348  17.320  1.6659 -0.1268  1.6495
 8159SOL    HW235940   4.344   1.326  17.176 -0.7322 -0.3204  0.4073
 8160SOL     OW35941   2.695   0.543  15.534 -0.2799 -0.5405 -0.6993
 8160SOL    HW135942   2.769   0.498  15.575 -0.6370  0.5952  1.1740
 8160SOL    HW235943   2.682   0.626  15.580  0.5033 -1.1841  0.6655
 8161SOL     OW35944   3.447   4.217   6.415  0.5903  0.2295  0.4137
 8161SOL    HW135945   3.525   4.211   6.359  2.1674  0.1847  2.6242
 8161SOL    HW235946   3.477   4.259   6.495  1.0871  1.4680 -0.4221
 8162SOL     OW35947   0.600   4.673   1.449  0.5690 -0.4428  0.4590
 8162SOL    HW135948   0.519   4.623   1.463  1.6722 -1.2855  3.6452
 8162SOL    HW235949   0.618   4.631   1.365 -0.8194 -0.8156  0.3398
 8163SOL     OW35950   3.593   2.074   1.406  0.4428 -0.0718  0.1278
 8163SOL    HW135951   3.590   2.010   1.477  0.3033 -0.6458 -0.3972
 8163SOL    HW235952   3.681   2.110   1.416  0.4010 -0.7025  2.7092
 8164SOL     OW35953   0.910   3.418   3.835  0.0909 -0.4029 -0.1703
 8164SOL    HW135954   0.982   3.381   3.887 -1.3855 -1.5448  1.0451
 8164SOL    HW235955   0.948   3.500   3.803 -1.4068  0.1646 -0.4739
 8165SOL     OW35956   1.819   0.446   5.208 -0.0575  0.1727 -0.1132
 8165SOL    HW135957   1.829   0.409   5.296  0.2501  1.6921  0.4946
 8165SOL    HW235958   1.727   0.471   5.209 -0.4273 -1.1767  0.5240
 8166SOL     OW35959   3.874   4.614   0.719  0.1676  0.5331  0.0868
 8166SOL    HW135960   3.783   4.591   0.735  0.4372  1.8106  3.5784
 8166SOL    HW235961   3.885   4.618   0.624  1.2451 -3.0153  0.0604
 8167SOL     OW35962   3.003   1.829  17.539 -0.7010  0.1849 -0.0310
 8167SOL    HW135963   2.958   1.746  17.526  0.6444 -0.2526 -1.9824
 8167SOL    HW235964   3.081   1.803  17.589 -0.3592 -0.9964 -1.1735
 8168SOL     OW35965   0.065   1.170   4.824 -0.3764 -0.4028 -0.4135
 8168SOL    HW135966   4.705   1.171   4.778 -0.6868 -0.6410  0.1326
 8168SOL    HW235967   0.082   1.076   4.826 -1.0008 -0.5094 -0.2423
 8169SOL     OW35968   0.382   3.974  11.565 -0.0519 -0.2402 -0.1906
 8169SOL    HW135969   0.347   3.940  11.648 -0.7741  3.0577  0.8607
 8169SOL    HW235970   0.428   4.052  11.596  1.6978 -1.3566  0.0130
 8170SOL     OW35971   1.327   0.773  15.928  0.1774  0.4716  0.2812
 8170SOL    HW135972   1.382   0.818  15.993  2.6749 -0.9925 -0.8189
 8170SOL    HW235973   1.253   0.750  15.984 -0.3502  2.1094  0.2852
 8171SOL     OW35974   1.796   2.393   7.555  0.1414 -0.3552 -0.4938
 8171SOL    HW135975   1.814   2.431   7.469 -0.8513  0.3523 -0.3931
 8171SOL    HW235976   1.875   2.344   7.577 -0.0286 -0.8486 -0.9623
 8172SOL     OW35977   3.791   1.217   6.400  0.3781 -0.1011 -0.2297
 8172SOL    HW135978   3.818   1.129   6.426  1.6515 -0.0480 -1.3999
 8172SOL    HW235979   3.745   1.246   6.479  0.1983  0.4411 -0.5392
 8173SOL     OW35980   3.926   4.535   2.732 -0.2402  0.5628 -0.3715
 8173SOL    HW135981   3.980   4.575   2.800  0.1166 -1.0320  0.2689
 8173SOL    HW235982   3.888   4.617   2.699 -0.4613  0.2862 -0.8071
 8174SOL     OW35983   0.014   0.703  11.630  0.2009  0.0972  0.1422
 8174SOL    HW135984   4.708   0.636  11.691  0.5458  0.5498  0.8001
 8174SOL    HW235985   4.659   0.759  11.628  0.8539  1.0040  0.4145
 8175SOL     OW35986   4.175   4.574   2.575  0.7507  0.6416  0.0216
 8175SOL    HW135987   4.086   4.546   2.596  0.9200 -0.0804 -0.2276
 8175SOL    HW235988   4.202   4.636   2.643 -1.4193  1.6789 -0.0735
 8176SOL     OW35989   4.496   4.105   7.643  0.3189 -0.7586  0.0581
 8176SOL    HW135990   4.446   4.176   7.604 -0.7434 -1.8634 -0.5965
 8176SOL    HW235991   4.481   4.034   7.581  1.6077 -0.5456 -0.4886
 8177SOL     OW35992   3.927   1.454   2.596 -0.4362  0.5202 -0.0701
 8177SOL    HW135993   3.910   1.372   2.643 -0.8545  2.2831  2.8737
 8177SOL    HW235994   3.877   1.432   2.518  2.3629 -0.6735 -1.5359
 8178SOL     OW35995   1.119   0.552  13.162 -0.0243 -0.5082  0.2193
 8178SOL    HW135996   1.186   0.543  13.230  0.4667  1.6142  0.0314
 8178SOL    HW235997   1.123   0.647  13.147 -1.1975 -0.6671 -1.0617
 8179SOL     OW35998   1.774   2.665   9.057 -0.4168 -0.6948 -0.6949
 8179SOL    HW135999   1.814   2.579   9.065 -1.0691 -0.9599 -0.3414
 8179SOL    HW236000   1.841   2.715   9.010  2.1559 -0.9548  2.7110
 8180SOL     OW36001   1.379   2.865   6.738 -0.2129  0.4349 -0.3724
 8180SOL    HW136002   1.472   2.856   6.718 -0.6821 -0.1756 -2.2503
 8180SOL    HW236003   1.359   2.793   6.798  1.2608 -1.1816 -1.8184
 8181SOL     OW36004   0.274   4.140   5.250 -0.1843 -0.3504 -0.1921
 8181SOL    HW136005   0.248   4.216   5.301 -0.4551 -1.6602  1.6002
 8181SOL    HW236006   0.248   4.071   5.311 -0.7048 -0.0711 -0.1076
 8182SOL     OW36007   2.429   3.206   3.614  0.0014  0.0853  0.4603
 8182SOL    HW136008   2.500   3.173   3.558  1.2940  2.9702  0.3729
 8182SOL    HW236009   2.451   3.148   3.687  0.7989 -0.4251 -0.1696
 8183SOL     OW36010   0.104   0.856   7.755 -0.5489 -0.2555  0.4421
 8183SOL    HW136011   0.160   0.933   7.763 -0.5986 -0.0928 -0.7943
 8183SOL    HW236012   0.131   0.823   7.669  3.1612  2.2867  0.6166
 8184SOL     OW36013   1.837   1.576  10.168 -0.1491 -0.0171  0.0149
 8184SOL    HW136014   1.917   1.593  10.217  0.3311 -0.4709 -0.6257
 8184SOL    HW236015   1.795   1.659  10.193  1.9914  1.2331 -0.5892
 8185SOL     OW36016   0.909   0.977   5.089 -0.2574  0.2703  0.4130
 8185SOL    HW136017   0.967   0.933   5.151 -0.6133 -1.0142 -0.1809
 8185SOL    HW236018   0.956   0.983   5.006  0.8475 -3.0805  0.8319
 8186SOL     OW36019   1.843   0.563   1.990  0.0662 -0.3188 -0.2260
 8186SOL    HW136020   1.931   0.592   1.965  1.1574 -2.4155  1.1757
 8186SOL    HW236021   1.820   0.640   2.043 -0.5360 -0.3588 -0.4331
 8187SOL     OW36022   0.817   3.258   2.678  0.6891  0.2048  0.6801
 8187SOL    HW136023   0.861   3.337   2.710 -1.5741  0.0788  4.1239
 8187SOL    HW236024   0.871   3.246   2.599 -0.8795  0.4787 -0.4206
 8188SOL     OW36025   3.263   1.744   3.880  0.0221  0.6449 -0.0367
 8188SOL    HW136026   3.284   1.830   3.916  1.3387 -0.0097  0.7440
 8188SOL    HW236027   3.315   1.685   3.934  0.4678  1.1292  0.0635
 8189SOL     OW36028   0.323   0.254   5.290  0.2989  0.1806  0.2540
 8189SOL    HW136029   0.282   0.338   5.268 -1.6393 -0.4626  1.3889
 8189SOL    HW236030   0.349   0.223   5.203 -0.0093  1.1521 -0.1794
 8190SOL     OW36031   3.742   1.383   9.389 -0.2186  0.0785 -0.5788
 8190SOL    HW136032   3.814   1.320   9.391  0.3091  0.7076  0.2159
 8190SOL    HW236033   3.786   1.468   9.392 -2.3645  1.2085 -0.8308
 8191SOL     OW36034   3.024   1.698   4.195 -0.0958 -0.4184  0.0639
 8191SOL    HW136035   2.940   1.653   4.181 -0.1145 -0.8697  1.6831
 8191SOL    HW236036   3.002   1.774   4.140  1.0377 -1.5408 -1.9441
 8192SOL     OW36037   1.502   2.025   5.404 -0.6742 -0.1546 -0.5586
 8192SOL    HW136038   1.594   2.044   5.422 -1.2830  2.0211  0.2078
 8192SOL    HW236039   1.462   2.112   5.402 -1.7226 -0.6328 -0.6651
 8193SOL     OW36040   0.897   3.185   8.369 -0.2509  0.8983  0.3547
 8193SOL    HW136041   0.869   3.248   8.303  0.6555  1.9048  0.9246
 8193SOL    HW236042   0.969   3.137   8.329 -1.0002 -1.4956  1.9213
 8194SOL     OW36043   2.305   3.881  14.092  0.4841 -0.0969 -0.0474
 8194SOL    HW136044   2.238   3.945  14.118  0.2151 -0.6625  0.6333
 8194SOL    HW236045   2.352   3.856  14.172 -0.8831  0.6043  0.9839
 8195SOL     OW36046   1.080   2.925   7.043  0.2164 -0.3178 -0.3594
 8195SOL    HW136047   1.095   3.000   7.101  1.3971 -1.4466  0.7751
 8195SOL    HW236048   1.057   2.966   6.959  0.1569  3.4023  1.4866
 8196SOL     OW36049   0.303   1.930   7.655  0.3543  0.3151  1.0737
 8196SOL    HW136050   0.330   1.918   7.564 -4.0401 -0.5839 -0.1238
 8196SOL    HW236051   0.372   1.885   7.704  0.2275 -0.9185  0.1329
 8197SOL     OW36052   2.308   3.640  16.848 -0.0749  0.3295  0.0411
 8197SOL    HW136053   2.368   3.712  16.831 -0.7514  0.5516 -1.4421
 8197SOL    HW236054   2.233   3.699  16.839  0.0788  0.5148 -0.0206
 8198SOL     OW36055   1.212   1.454   4.243 -0.1016 -0.5448  0.1846
 8198SOL    HW136056   1.157   1.446   4.165  0.0245  0.6340 -0.0305
 8198SOL    HW236057   1.209   1.370   4.288  0.6404 -0.4885  0.3375
 8199SOL     OW36058   3.273   1.690   2.084  0.0624  0.4545  0.1263
 8199SOL    HW136059   3.340   1.662   2.021 -2.3640 -0.8839 -1.8902
 8199SOL    HW236060   3.316   1.663   2.165  0.1996  1.3002  0.3306
 8200SOL     OW36061   4.636   0.995  13.324  0.1469  0.3551 -0.2955
 8200SOL    HW136062   4.640   0.901  13.344  1.0995  0.0430 -1.9620
 8200SOL    HW236063   4.669   0.986  13.235 -0.5125  0.5766 -0.5610
 8201SOL     OW36064   2.844   1.319   2.501 -0.2343 -0.5245  0.2239
 8201SOL    HW136065   2.841   1.368   2.419  0.1183 -1.2836 -0.2453
 8201SOL    HW236066   2.752   1.295   2.514 -0.2467 -1.5306 -1.7022
 8202SOL     OW36067   3.281   2.596   8.189 -0.2041  0.2356 -0.0393
 8202SOL    HW136068   3.336   2.664   8.227 -0.1353  0.4171 -0.4691
 8202SOL    HW236069   3.210   2.588   8.253 -0.1866 -0.4664 -0.1030
 8203SOL     OW36070   3.901   1.355  15.102 -0.1728  0.1221  0.1656
 8203SOL    HW136071   3.957   1.312  15.166 -0.1869  0.3425  0.3280
 8203SOL    HW236072   3.819   1.312  15.130  0.5383 -1.8447 -0.7770
 8204SOL     OW36073   0.659   1.308   2.324 -0.5383  0.5582  0.2540
 8204SOL    HW136074   0.658   1.286   2.230 -1.8732 -1.2288  0.6726
 8204SOL    HW236075   0.703   1.236   2.369  0.8659  1.5838  0.4881
 8205SOL     OW36076   1.653   0.317  14.702 -0.0385 -0.2957 -0.3714
 8205SOL    HW136077   1.627   0.240  14.753 -2.5282 -0.5848 -2.0893
 8205SOL    HW236078   1.639   0.294  14.610 -0.0722 -2.0706  0.0639
 8206SOL     OW36079   0.196   0.531   6.051 -0.7671 -0.5773  0.4846
 8206SOL    HW136080   0.218   0.603   6.111 -0.2643 -1.3719  1.2458
 8206SOL    HW236081   0.281   0.491   6.031 -1.3753 -1.5542 -0.1703
 8207SOL     OW36082   2.517   1.919   5.800  0.2710  0.3331  0.5475
 8207SOL    HW136083   2.578   1.967   5.744 -1.1536  0.0417 -1.2332
 8207SOL    HW236084   2.556   1.832   5.798 -0.5396  0.0161 -0.8255
 8208SOL     OW36085   4.051   3.207   7.426  0.1347 -0.4077 -0.0011
 8208SOL    HW136086   4.066   3.291   7.469 -2.0067 -1.0554  2.0203
 8208SOL    HW236087   4.116   3.145   7.460 -0.4065 -1.3812 -0.7350
 8209SOL     OW36088   1.415   0.565  15.790  0.9795  0.0620  0.2025
 8209SOL    HW136089   1.386   0.585  15.701 -0.2813 -1.5377  0.2496
 8209SOL    HW236090   1.384   0.644  15.833  1.8532 -0.5305  1.9275
 8210SOL     OW36091   1.778   2.835   6.039  0.5845 -0.7999 -0.3901
 8210SOL    HW136092   1.733   2.839   6.123  3.1033  0.1784  0.9142
 8210SOL    HW236093   1.869   2.849   6.066  0.5939  0.8447 -1.3003
 8211SOL     OW36094   0.353   2.770  16.988  0.3714 -0.0997 -0.3480
 8211SOL    HW136095   0.314   2.714  17.055  0.6023  1.2228  0.9145
 8211SOL    HW236096   0.374   2.850  17.038  0.6478 -0.0267 -0.5783
 8212SOL     OW36097   1.941   1.687   8.581 -0.4164  0.3880  0.5613
 8212SOL    HW136098   1.860   1.726   8.547 -0.0767 -0.4926 -1.2599
 8212SOL    HW236099   2.003   1.676   8.509  1.5356 -0.8198  2.4230
 8213SOL     OW36100   4.664   0.354  13.060 -0.0424  0.1130  1.6322
 8213SOL    HW136101   0.000   0.372  13.133 -0.1925 -0.8759  1.9974
 8213SOL    HW236102   4.720   0.285  13.026 -1.2254 -1.1233  2.2283
 8214SOL     OW36103   3.769   1.317  12.133 -0.0571  0.2276 -0.0271
 8214SOL    HW136104   3.725   1.238  12.165 -2.1923  1.5135  0.2036
 8214SOL    HW236105   3.862   1.304  12.147 -0.0289  1.1688  0.6932
 8215SOL     OW36106   3.918   2.849   2.525  0.3386 -0.1547 -0.6165
 8215SOL    HW136107   3.869   2.890   2.454  1.7694  0.0046 -1.5141
 8215SOL    HW236108   3.936   2.760   2.494 -1.1694 -0.7546  0.2188
 8216SOL     OW36109   3.357   2.938  17.126  0.5565 -0.5980 -0.5951
 8216SOL    HW136110   3.304   3.017  17.117 -1.1631 -1.4460  1.8946
 8216SOL    HW236111   3.352   2.923  17.221 -0.1765 -1.5773 -0.7946
 8217SOL     OW36112   1.402   2.103  16.459 -0.0636  0.1044  0.0824
 8217SOL    HW136113   1.434   2.150  16.536 -2.2441 -0.7298  1.5085
 8217SOL    HW236114   1.367   2.171  16.401 -1.0713 -2.4680 -2.3566
 8218SOL     OW36115   4.170   4.155   4.554 -0.7551  0.0468 -0.2419
 8218SOL    HW136116   4.161   4.105   4.634  0.9765  1.3549  0.7828
 8218SOL    HW236117   4.192   4.092   4.485  0.5388  2.6339 -2.2173
 8219SOL     OW36118   1.492   1.215   3.049 -0.1395  0.0679  0.0650
 8219SOL    HW136119   1.416   1.219   2.991 -0.4309  0.5324  0.4702
 8219SOL    HW236120   1.474   1.289   3.108 -2.3253 -0.0608 -0.4327
 8220SOL     OW36121   1.948   1.403  13.424  0.6850  0.5183 -0.0998
 8220SOL    HW136122   2.037   1.438  13.422  1.7755 -2.0961  1.6223
 8220SOL    HW236123   1.933   1.383  13.517 -0.0650 -0.6154 -0.4602
 8221SOL     OW36124   4.040   4.254   9.861 -0.6250  0.2050  0.1520
 8221SOL    HW136125   4.005   4.175   9.900 -0.2244 -0.0471 -0.0056
 8221SOL    HW236126   3.975   4.271   9.792  1.3724  0.5594 -1.6499
 8222SOL     OW36127   3.168   0.306   3.809 -0.2085  0.1290 -0.7346
 8222SOL    HW136128   3.146   0.214   3.823  0.2317  0.0390 -0.6151
 8222SOL    HW236129   3.260   0.309   3.838 -0.4811 -1.7467  0.3193
 8223SOL     OW36130   0.802   1.668   5.217  0.0473  0.3235  0.0982
 8223SOL    HW136131   0.814   1.640   5.126 -0.7095 -1.1622  0.4542
 8223SOL    HW236132   0.744   1.744   5.212  0.4288  0.5947 -0.2286
 8224SOL     OW36133   1.305   1.892   3.390 -0.2923  0.3593  0.7473
 8224SOL    HW136134   1.254   1.823   3.345 -0.4573 -2.7070  5.6327
 8224SOL    HW236135   1.360   1.903   3.313  0.2035  1.5045  1.2814
 8225SOL     OW36136   1.737   2.971   7.759 -0.0615 -0.2949  0.4765
 8225SOL    HW136137   1.807   3.009   7.814 -0.4263 -0.8707  1.3343
 8225SOL    HW236138   1.666   3.028   7.790  0.1174  0.0988  0.1617
 8226SOL     OW36139   1.168   2.103   2.301  0.7929 -0.6601  0.7014
 8226SOL    HW136140   1.192   2.041   2.232  1.1204  1.3426 -0.9998
 8226SOL    HW236141   1.253   2.109   2.345  0.4016  0.6024  1.2735
 8227SOL     OW36142   1.798   4.272   5.648  0.0677  0.2740  0.3793
 8227SOL    HW136143   1.758   4.211   5.710 -1.2559 -0.4901 -1.2299
 8227SOL    HW236144   1.728   4.282   5.583 -0.2679 -0.0361  0.6858
 8228SOL     OW36145   1.514   2.311  17.363  0.4059 -0.0595  0.3437
 8228SOL    HW136146   1.567   2.233  17.346  1.3034  0.9499 -1.4320
 8228SOL    HW236147   1.423   2.285  17.349 -0.0824  1.2351  1.1451
 8229SOL     OW36148   3.728   3.309   3.008 -0.1733  0.4372 -0.6508
 8229SOL    HW136149   3.696   3.255   3.079 -0.9269  1.6710 -0.0619
 8229SOL    HW236150   3.818   3.277   3.005 -0.7323 -1.2599  0.3499
 8230SOL     OW36151   1.955   0.876   7.263 -0.7087  0.0627  0.1936
 8230SOL    HW136152   1.982   0.967   7.271  0.1933 -0.3555  1.9111
 8230SOL    HW236153   1.937   0.858   7.171  1.7368  0.4508 -0.3400
 8231SOL     OW36154   0.325   2.955   8.636  0.0077 -0.0578  0.2590
 8231SOL    HW136155   0.274   2.875   8.650 -0.4243  0.3490  1.0213
 8231SOL    HW236156   0.308   2.983   8.546  1.9897  1.5539  0.3977
 8232SOL     OW36157   3.323   4.419  16.447  0.2716  0.1254  0.0267
 8232SOL    HW136158   3.389   4.362  16.487  0.3241  0.2851  0.1690
 8232SOL    HW236159   3.368   4.503  16.447  0.0907  0.2263  0.7985
 8233SOL     OW36160   4.439   1.188   7.094 -0.2539  0.4707 -0.0462
 8233SOL    HW136161   4.431   1.206   7.188  2.5601 -0.6037  0.4086
 8233SOL    HW236162   4.448   1.094   7.078 -2.3680 -0.2535  2.9497
 8234SOL     OW36163   2.618   2.374   4.264 -0.2517  0.2263  0.0817
 8234SOL    HW136164   2.597   2.423   4.344 -0.6673 -0.2663  0.2708
 8234SOL    HW236165   2.714   2.373   4.267 -0.2254  0.5797 -0.4670
 8235SOL     OW36166   2.861   1.439   9.543  0.1954  0.0293 -0.1644
 8235SOL    HW136167   2.824   1.433   9.454  0.3621 -0.5866 -0.1952
 8235SOL    HW236168   2.936   1.490   9.515  0.4177  0.0778  0.5322
 8236SOL     OW36169   1.565   2.896   3.778  1.3761  0.2632 -0.6557
 8236SOL    HW136170   1.547   2.828   3.713  1.2547  0.0825 -0.4302
 8236SOL    HW236171   1.574   2.853   3.863 -0.6254  0.6258 -0.2493
 8237SOL     OW36172   3.537   3.069   6.670 -0.2041 -0.1628  0.3196
 8237SOL    HW136173   3.507   2.992   6.623  0.4093 -0.3771  0.2945
 8237SOL    HW236174   3.501   3.131   6.606  2.7672 -0.3327 -1.4786
 8238SOL     OW36175   0.275   2.324  13.967  0.0365  0.6843 -0.5837
 8238SOL    HW136176   0.332   2.301  14.040 -0.4573 -3.2415 -1.4230
 8238SOL    HW236177   0.313   2.405  13.933 -0.4188  1.0437 -0.2432
 8239SOL     OW36178   0.263   1.748   3.382  0.6443  0.4297 -0.2976
 8239SOL    HW136179   0.170   1.733   3.365  1.4783 -1.0557 -3.4237
 8239SOL    HW236180   0.271   1.840   3.359 -0.2323 -0.0199 -2.3321
 8240SOL     OW36181   4.069   3.884   8.359  0.0221  1.2865 -0.2434
 8240SOL    HW136182   4.028   3.970   8.361  1.7017  2.0778 -0.2075
 8240SOL    HW236183   4.160   3.911   8.373  0.4823  0.1927 -1.1140
 8241SOL     OW36184   1.196   1.787  14.535 -0.1108  0.1776  0.1141
 8241SOL    HW136185   1.286   1.793  14.568  0.8630 -0.8660 -2.4143
 8241SOL    HW236186   1.148   1.831  14.606 -0.1134  0.8006 -0.2714
 8242SOL     OW36187   1.418   1.854   5.213 -0.2341  0.0699 -0.1997
 8242SOL    HW136188   1.454   1.918   5.274 -0.9537 -0.1159  0.4148
 8242SOL    HW236189   1.497   1.812   5.176 -0.3060 -1.0879  0.9668
 8243SOL     OW36190   2.785   2.550   2.549 -0.1070 -0.0670 -0.1096
 8243SOL    HW136191   2.793   2.460   2.517 -3.2878 -0.6150  0.6349
 8243SOL    HW236192   2.856   2.587   2.496  0.5250 -2.2494 -0.7921
 8244SOL     OW36193   0.579   1.865   5.774 -0.0866 -0.2539  0.2176
 8244SOL    HW136194   0.559   1.896   5.862  1.9223 -0.6269  0.8154
 8244SOL    HW236195   0.639   1.796   5.803  0.0906  0.3629  1.2843
 8245SOL     OW36196   0.626   1.411  10.609 -0.2930 -0.4187 -0.2013
 8245SOL    HW136197   0.673   1.380  10.532  2.4018  2.1099  0.3938
 8245SOL    HW236198   0.631   1.339  10.673 -0.5261  0.1818  0.4954
 8246SOL     OW36199   3.260   0.967  10.718 -0.3936 -0.2169  0.0466
 8246SOL    HW136200   3.185   1.027  10.725 -0.7810 -0.6103 -0.8012
 8246SOL    HW236201   3.327   1.033  10.733 -1.9113  1.3023  0.1913
 8247SOL     OW36202   4.656   3.592   7.234 -0.1094 -0.4933 -0.8611
 8247SOL    HW136203   4.624   3.503   7.239 -1.8348  0.1438 -0.6481
 8247SOL    HW236204   4.690   3.585   7.145 -1.6267  2.2120 -1.6532
 8248SOL     OW36205   4.130   2.279   9.463  0.1257  0.2545  0.0471
 8248SOL    HW136206   4.114   2.236   9.547 -1.5720 -0.4511 -0.6320
 8248SOL    HW236207   4.058   2.342   9.457  2.6605  3.2497  0.8371
 8249SOL     OW36208   2.697   4.575  16.826  0.2658 -0.2431 -0.4093
 8249SOL    HW136209   2.768   4.633  16.854 -1.3938  1.1874  0.8568
 8249SOL    HW236210   2.622   4.631  16.848 -0.0276 -1.1350  0.8570
 8250SOL     OW36211   3.513   1.455   4.900  0.2105 -0.0985 -0.0512
 8250SOL    HW136212   3.479   1.415   4.820 -0.3530  0.4049 -0.0578
 8250SOL    HW236213   3.531   1.374   4.947 -0.8911 -0.6422 -0.5666
 8251SOL     OW36214   3.638   3.532   5.778  0.9454  0.0325 -0.1197
 8251SOL    HW136215   3.668   3.441   5.778  0.8299 -0.0069  1.1850
 8251SOL    HW236216   3.551   3.525   5.740  1.3080  1.8243 -1.3226
 8252SOL     OW36217   3.285   3.828   8.439  0.4418  0.2116 -0.3127
 8252SOL    HW136218   3.344   3.870   8.502 -0.0135 -1.6285  1.3486
 8252SOL    HW236219   3.342   3.846   8.365 -1.7118 -2.7545 -2.6835
 8253SOL     OW36220   0.935   2.250   8.509  0.0960 -0.1542  0.2174
 8253SOL    HW136221   0.992   2.324   8.532 -0.2095 -0.6508  2.5153
 8253SOL    HW236222   0.898   2.222   8.592 -0.5750  1.6747  0.5373
 8254SOL     OW36223   0.260   1.397   5.362  0.1315 -0.2326  0.2397
 8254SOL    HW136224   0.269   1.415   5.268 -0.4172 -1.2607 -0.0173
 8254SOL    HW236225   0.343   1.353   5.379  0.7095  0.2079 -1.4434
 8255SOL     OW36226   4.456   2.815   1.345 -0.3918  0.2104  0.0289
 8255SOL    HW136227   4.551   2.820   1.345 -0.4682  1.1649  2.1270
 8255SOL    HW236228   4.436   2.775   1.260 -0.6179  0.2109  0.0817
 8256SOL     OW36229   2.828   3.251   9.155 -0.1333  0.1457  0.0512
 8256SOL    HW136230   2.761   3.209   9.101 -3.2042  1.7867  2.5726
 8256SOL    HW236231   2.876   3.297   9.086 -0.3689  0.8051  0.3157
 8257SOL     OW36232   0.704   1.098  15.859 -1.0938 -0.3313 -0.0893
 8257SOL    HW136233   0.797   1.114  15.841 -1.3632 -0.0180 -1.1841
 8257SOL    HW236234   0.685   1.165  15.924  0.4258 -1.1683  1.2326
 8258SOL     OW36235   4.162   3.897   4.404 -0.3856 -0.5766  0.1347
 8258SOL    HW136236   4.218   3.849   4.466  1.0739  1.2477  0.2521
 8258SOL    HW236237   4.126   3.829   4.348  1.8685 -0.7615 -1.1208
 8259SOL     OW36238   1.158   1.504   9.005 -0.3494 -0.3499  0.0696
 8259SOL    HW136239   1.098   1.556   9.059 -0.7054  0.9214 -1.5394
 8259SOL    HW236240   1.169   1.431   9.065 -2.5154 -0.0436  0.8434
 8260SOL     OW36241   0.848   4.100   2.788  0.3898  0.0783 -0.5929
 8260SOL    HW136242   0.809   4.051   2.860  1.4142 -1.5683 -1.1713
 8260SOL    HW236243   0.922   4.153   2.820  0.1988  0.3904 -0.6678
 8261SOL     OW36244   4.123   4.195  15.794  0.7632  0.3080  0.3792
 8261SOL    HW136245   4.119   4.258  15.723  2.3898  3.1743  2.8667
 8261SOL    HW236246   4.044   4.144  15.771  0.5448  0.4114  0.9013
 8262SOL     OW36247   2.164   1.768  10.632  0.1347  0.0577 -0.4564
 8262SOL    HW136248   2.230   1.733  10.692 -0.8335  1.6230  1.5384
 8262SOL    HW236249   2.145   1.843  10.689  0.5564  0.2870 -0.6209
 8263SOL     OW36250   0.355   4.246   2.842 -0.5875  0.3999 -0.4588
 8263SOL    HW136251   0.271   4.281   2.812  0.8987  3.5616 -0.9653
 8263SOL    HW236252   0.351   4.170   2.783 -0.8013  0.8624 -1.0494
 8264SOL     OW36253   0.268   0.565   4.257  0.7685 -0.9333  0.1047
 8264SOL    HW136254   0.329   0.504   4.216  1.2246  1.0308 -2.1117
 8264SOL    HW236255   0.215   0.495   4.296 -1.2470  0.9004  0.6399
 8265SOL     OW36256   1.514   3.111   9.387 -0.4227  0.8064 -1.0605
 8265SOL    HW136257   1.474   3.198   9.387 -0.8737  0.6068  0.1183
 8265SOL    HW236258   1.504   3.084   9.296 -3.3172  0.9164 -0.7974
 8266SOL     OW36259   0.135   0.722  15.115 -0.5582 -0.6544  0.6345
 8266SOL    HW136260   0.184   0.648  15.078  2.2518  1.6201 -0.1687
 8266SOL    HW236261   0.174   0.729  15.202 -0.0569  1.0686  0.2646
 8267SOL     OW36262   0.644   0.510   6.469 -0.6842 -0.0163 -0.0438
 8267SOL    HW136263   0.671   0.435   6.521  0.4259  0.3737 -0.0569
 8267SOL    HW236264   0.641   0.586   6.528 -0.1557  0.3413 -0.4729
 8268SOL     OW36265   0.871   1.874  15.834  0.1898 -0.6473 -0.0852
 8268SOL    HW136266   0.929   1.903  15.905  0.2177  1.3778 -0.9418
 8268SOL    HW236267   0.938   1.817  15.796  0.8868 -0.3550  0.7038
 8269SOL     OW36268   0.807   3.311   6.980 -0.6698  0.1215  0.4922
 8269SOL    HW136269   0.716   3.340   6.974  0.0110  2.2489  0.5573
 8269SOL    HW236270   0.858   3.391   6.969  2.1876 -1.3879  2.6043
 8270SOL     OW36271   3.311   3.610   5.968  0.3241 -0.2527 -0.1156
 8270SOL    HW136272   3.383   3.673   5.976 -2.3897  3.0234 -1.2259
 8270SOL    HW236273   3.268   3.643   5.889 -2.1378 -2.4214  0.3310
 8271SOL     OW36274   0.043   2.501   4.562  0.4580 -0.0340 -0.3657
 8271SOL    HW136275   4.715   2.552   4.626 -1.7475  0.1407 -2.2553
 8271SOL    HW236276   0.086   2.568   4.510 -0.4381  0.7722 -0.0689
 8272SOL     OW36277   3.593   4.715  11.115  0.6495  0.4685 -0.1861
 8272SOL    HW136278   3.603   4.667  11.198 -0.8723 -0.1537 -0.3591
 8272SOL    HW236279   3.646   0.071  11.130 -0.7481  1.0217  1.8795
 8273SOL     OW36280   0.013   3.848  15.491 -0.2076 -0.2777 -0.1604
 8273SOL    HW136281   0.084   3.897  15.450 -0.0489 -0.9130 -0.6383
 8273SOL    HW236282   0.046   3.759  15.484 -0.0880 -0.2373 -0.1088
 8274SOL     OW36283   0.052   3.053   9.444 -0.8112  0.2489  0.3044
 8274SOL    HW136284   0.121   3.073   9.381 -1.3718 -0.6847 -0.6221
 8274SOL    HW236285   0.007   2.975   9.409  0.9379  0.2481 -1.9377
 8275SOL     OW36286   2.917   3.277   5.909  0.2008  0.1899  0.0224
 8275SOL    HW136287   2.936   3.368   5.886  2.0868 -0.8225 -2.3816
 8275SOL    HW236288   2.960   3.267   5.995  0.5088  2.4482  0.1308
 8276SOL     OW36289   3.397   1.101   5.608  0.5071 -0.8877 -0.7255
 8276SOL    HW136290   3.457   1.120   5.680 -0.5276  3.1611 -0.9226
 8276SOL    HW236291   3.320   1.141   5.649 -1.4360 -3.0051 -2.2814
 8277SOL     OW36292   1.940   1.017  14.049 -0.0179  0.2627  0.3170
 8277SOL    HW136293   1.922   1.106  14.020 -1.8555  0.2194  1.3252
 8277SOL    HW236294   1.929   0.968  13.967  0.8259  0.1509  0.2624
 8278SOL     OW36295   4.224   2.398  10.431  0.3762  0.1991  0.0139
 8278SOL    HW136296   4.310   2.418  10.467  0.6565 -1.1956  0.1040
 8278SOL    HW236297   4.187   2.358  10.510 -1.4278  0.6632 -0.5822
 8279SOL     OW36298   1.088   0.923   7.864  0.8438 -0.4564  0.2627
 8279SOL    HW136299   1.121   0.865   7.795 -0.2110  1.6518 -2.0255
 8279SOL    HW236300   1.018   0.971   7.820  1.3340 -0.1283 -0.1546
 8280SOL     OW36301   3.407   1.397   4.273 -0.2939 -0.4690 -0.0958
 8280SOL    HW136302   3.322   1.390   4.228  0.1957  0.6332 -1.1816
 8280SOL    HW236303   3.380   1.423   4.361  0.0699 -1.8316  0.4261
 8281SOL     OW36304   2.831   2.938   3.501 -0.3428 -0.3710  0.1625
 8281SOL    HW136305   2.854   2.845   3.496 -1.2112 -0.5553 -0.2943
 8281SOL    HW236306   2.885   2.968   3.427 -2.0361  1.8236 -0.1659
 8282SOL     OW36307   2.802   3.281   6.777  0.5104  0.4213  0.1420
 8282SOL    HW136308   2.883   3.309   6.734 -0.1938  0.7732 -0.9741
 8282SOL    HW236309   2.746   3.267   6.701  0.0255  0.2630  0.5262
 8283SOL     OW36310   1.387   0.035   4.872 -0.1982 -0.2833 -0.0091
 8283SOL    HW136311   1.420   0.097   4.807 -0.2762 -0.2325 -0.0011
 8283SOL    HW236312   1.442   0.048   4.949  0.1526  0.4900 -0.3903
 8284SOL     OW36313   0.114   4.281  14.676 -0.0051  0.3269  0.4409
 8284SOL    HW136314   0.186   4.343  14.670 -0.0015  0.3720  0.9685
 8284SOL    HW236315   0.081   4.286  14.586 -0.4226  1.8272  0.6760
 8285SOL     OW36316   1.597   4.408   1.797  0.1319  0.0042  0.1739
 8285SOL    HW136317   1.636   4.438   1.879  0.2829 -1.6045  0.6925
 8285SOL    HW236318   1.509   4.445   1.802 -0.3775 -0.8531 -2.3910
 8286SOL     OW36319   3.046   3.474   7.656  0.8497 -0.6363 -0.5017
 8286SOL    HW136320   3.072   3.475   7.748 -0.6534  0.8504 -0.0876
 8286SOL    HW236321   3.063   3.382   7.640  1.5489 -0.4938 -0.5843
 8287SOL     OW36322   3.134   2.447   1.256  0.0042  0.0224 -0.2885
 8287SOL    HW136323   3.201   2.414   1.316 -0.6316  0.0847  0.4664
 8287SOL    HW236324   3.163   2.535   1.232 -0.9280  0.9550  2.0051
 8288SOL     OW36325   1.175   3.226  13.716  0.4627 -0.2769  0.6080
 8288SOL    HW136326   1.117   3.171  13.769  0.2273  0.9560  1.6483
 8288SOL    HW236327   1.124   3.307  13.720 -2.1938 -1.9613  0.9694
 8289SOL     OW36328   3.337   0.325   1.156  0.3777 -0.3621  0.4214
 8289SOL    HW136329   3.373   0.239   1.134  1.9683 -0.2317  2.4984
 8289SOL    HW236330   3.411   0.385   1.146  1.0749 -1.4335 -0.7378
 8290SOL     OW36331   3.353   1.607   7.197  0.2799 -0.0472  0.0088
 8290SOL    HW136332   3.275   1.561   7.227  0.0878  0.4808  0.3153
 8290SOL    HW236333   3.362   1.658   7.278 -1.0032  0.1882 -0.0012
 8291SOL     OW36334   2.673   4.479   7.150  0.3409  0.0449 -0.0302
 8291SOL    HW136335   2.625   4.546   7.200  0.2282 -0.0339 -0.0319
 8291SOL    HW236336   2.691   4.409   7.212 -1.2803 -0.8514 -0.5709
 8292SOL     OW36337   1.335   3.707   4.841 -0.4817  0.2492  1.0771
 8292SOL    HW136338   1.413   3.753   4.874 -0.7334  0.6593  1.1013
 8292SOL    HW236339   1.278   3.776   4.807  0.1131  0.4620  0.5083
 8293SOL     OW36340   0.679   3.845  17.290 -0.6240  0.5789 -0.4682
 8293SOL    HW136341   0.585   3.857  17.303 -0.4154  1.4497  0.2828
 8293SOL    HW236342   0.668   3.772  17.229  1.6691  0.2699 -0.5175
 8294SOL     OW36343   1.504   2.919  17.434 -0.0696  0.3794 -1.1782
 8294SOL    HW136344   1.448   2.866  17.377 -0.1995 -2.1260  1.2873
 8294SOL    HW236345   1.458   2.907  17.516  2.1026 -1.1441 -0.1682
 8295SOL     OW36346   2.869   4.386   3.640 -0.0665  0.0757  0.0157
 8295SOL    HW136347   2.833   4.457   3.693 -3.2276 -1.0733 -0.6368
 8295SOL    HW236348   2.962   4.401   3.656 -0.7730  3.2529  1.0843
 8296SOL     OW36349   1.107   2.445   5.542 -1.1256 -0.1291  0.1167
 8296SOL    HW136350   1.120   2.377   5.608 -3.4252  0.7254  1.4577
 8296SOL    HW236351   1.017   2.437   5.511 -0.9832  1.4430 -0.6665
 8297SOL     OW36352   3.568   2.457  11.533 -0.4479  0.2809  0.2075
 8297SOL    HW136353   3.622   2.507  11.472  1.5755 -1.1860  0.8179
 8297SOL    HW236354   3.603   2.369  11.522  3.3074  1.5327  2.0808
 8298SOL     OW36355   0.917   3.222   9.602  0.1278 -0.1908  0.1068
 8298SOL    HW136356   0.976   3.272   9.545  1.2634 -0.7065  0.8326
 8298SOL    HW236357   0.876   3.165   9.537  0.6748 -0.1031 -0.3145
 8299SOL     OW36358   4.479   0.235   3.568 -0.0290 -0.3078 -0.0113
 8299SOL    HW136359   4.485   0.243   3.472 -2.7350  2.9903  0.1198
 8299SOL    HW236360   4.384   0.230   3.575  0.0565 -2.2381 -0.3523
 8300SOL     OW36361   1.953   0.401  10.365 -0.4379  0.1614 -0.2262
 8300SOL    HW136362   1.902   0.395  10.284  1.2233 -0.2188 -1.2477
 8300SOL    HW236363   2.007   0.479  10.352  1.6711 -1.3195 -0.1957
 8301SOL     OW36364   1.189   0.893  12.131 -0.1267 -1.0725 -0.1350
 8301SOL    HW136365   1.227   0.806  12.130 -0.5350 -1.2701  1.1726
 8301SOL    HW236366   1.105   0.890  12.085 -1.0335 -1.2035  1.5102
 8302SOL     OW36367   3.280   0.062   7.127 -0.4018 -0.0397 -0.4368
 8302SOL    HW136368   3.227   0.097   7.199 -0.3992  3.1231 -1.9725
 8302SOL    HW236369   3.250   0.113   7.051 -1.0991  0.6427  0.2857
 8303SOL     OW36370   3.887   0.436   4.027 -0.7362 -0.3579 -0.0028
 8303SOL    HW136371   3.886   0.443   3.932  0.1107 -1.7801 -0.1170
 8303SOL    HW236372   3.886   0.342   4.045  0.1294 -0.2062  0.8579
 8304SOL     OW36373   3.626   3.386   7.771  0.2533 -0.2531 -0.4130
 8304SOL    HW136374   3.538   3.354   7.753 -0.1774 -0.1154  1.4116
 8304SOL    HW236375   3.637   3.458   7.709  0.4580 -0.5940 -0.7709
 8305SOL     OW36376   0.070   4.106   6.410 -0.2806 -0.4225 -0.5932
 8305SOL    HW136377   0.124   4.035   6.446 -2.0180 -2.1814 -1.4284
 8305SOL    HW236378   0.119   4.185   6.430 -1.1487 -0.8396  3.1200
 8306SOL     OW36379   3.510   4.472   8.832  0.2686  0.5253  0.2575
 8306SOL    HW136380   3.529   4.457   8.925 -0.0219 -1.9596 -0.0762
 8306SOL    HW236381   3.467   4.388   8.814 -0.9936  0.5571  3.0693
 8307SOL     OW36382   3.820   2.750   5.657  0.0445 -0.3451 -0.2738
 8307SOL    HW136383   3.827   2.730   5.751  0.0956  2.1742  0.2676
 8307SOL    HW236384   3.902   2.709   5.632  1.2635  1.4830  0.7010
 8308SOL     OW36385   2.076   0.892   3.771 -0.2904  0.6375  0.3943
 8308SOL    HW136386   2.127   0.958   3.724  1.2589 -1.2215 -0.5425
 8308SOL    HW236387   2.001   0.938   3.808 -0.8452  0.6649 -0.7744
 8309SOL     OW36388   4.451   1.723  15.186  0.5168  0.7214  0.4204
 8309SOL    HW136389   4.407   1.760  15.110  1.5662 -0.3783 -0.7125
 8309SOL    HW236390   4.512   1.794  15.207  1.2647  0.1939  0.0124
 8310SOL     OW36391   4.540   3.901   3.988 -0.2894  0.2868  0.5478
 8310SOL    HW136392   4.554   3.824   3.933  0.0855  0.1894  0.7831
 8310SOL    HW236393   4.469   3.878   4.047 -0.0856  1.2647  1.1716
 8311SOL     OW36394   3.493   1.891   2.034  0.9295 -0.1487 -0.8995
 8311SOL    HW136395   3.510   1.797   2.038  1.7420  0.0771  0.8191
 8311SOL    HW236396   3.433   1.900   1.959 -2.4855 -0.8392  1.7297
 8312SOL     OW36397   2.333   4.493   7.830  0.0930  0.0003  0.3605
 8312SOL    HW136398   2.259   4.458   7.879  0.8762 -2.0076  0.1136
 8312SOL    HW236399   2.386   4.541   7.894 -1.1872 -0.7788  1.9878
 8313SOL     OW36400   4.372   4.216   8.939  0.0775 -0.1961  0.3938
 8313SOL    HW136401   4.427   4.229   8.862 -1.9898 -2.2662 -1.4282
 8313SOL    HW236402   4.300   4.265   8.899 -0.6525  0.4043  2.4704
 8314SOL     OW36403   0.547   0.492   3.152  0.5971 -0.4618 -0.1669
 8314SOL    HW136404   0.640   0.507   3.137  0.0304  1.4117 -1.7714
 8314SOL    HW236405   0.542   0.506   3.246  1.7640  2.9096 -0.6261
 8315SOL     OW36406   2.267   3.583   2.947 -0.2299  0.3323 -0.2868
 8315SOL    HW136407   2.291   3.676   2.948  1.5479 -0.1534  0.8667
 8315SOL    HW236408   2.253   3.557   2.856 -1.5630  2.4321 -0.6911
 8316SOL     OW36409   2.022   3.904   8.327 -0.3338 -0.3087  0.4265
 8316SOL    HW136410   2.098   3.955   8.298 -2.5305  3.0358  0.5709
 8316SOL    HW236411   1.988   3.974   8.384  3.2092  2.6144 -1.0118
 8317SOL     OW36412   3.705   0.291  16.772  0.2905  0.2854  0.0979
 8317SOL    HW136413   3.745   0.375  16.747  1.9976 -0.5837 -0.1017
 8317SOL    HW236414   3.667   0.263  16.689 -1.6740 -0.1188  1.1342
 8318SOL     OW36415   3.907   2.673   2.023 -0.4624 -0.0244  0.3512
 8318SOL    HW136416   3.818   2.638   2.019 -0.7968  1.1714 -2.4730
 8318SOL    HW236417   3.953   2.613   1.966 -1.2618  0.5570 -0.8984
 8319SOL     OW36418   0.206   3.233   7.769 -0.0585 -0.1119 -0.0337
 8319SOL    HW136419   0.114   3.209   7.779 -0.3076  1.2942  0.9995
 8319SOL    HW236420   0.244   3.150   7.740 -1.0363 -1.0510  1.3886
 8320SOL     OW36421   1.156   0.290   8.261 -0.0704 -0.1416 -0.1366
 8320SOL    HW136422   1.077   0.320   8.306  0.1122  2.9619 -1.9257
 8320SOL    HW236423   1.206   0.370   8.247 -1.0591  0.8203  1.7642
 8321SOL     OW36424   3.306   0.068   5.604  0.2174  0.0389  0.2966
 8321SOL    HW136425   3.308   0.023   5.519 -2.2992 -0.2252  0.3755
 8321SOL    HW236426   3.382   0.030   5.647  1.0666  0.7064 -0.6316
 8322SOL     OW36427   4.592   4.304   9.191 -0.2010 -0.2988  0.5772
 8322SOL    HW136428   4.534   4.241   9.149  1.4380 -1.6834  0.3536
 8322SOL    HW236429   4.544   4.358   9.253 -2.0718 -0.6521 -0.5854
 8323SOL     OW36430   2.579   2.511   4.495  0.4632 -0.4427 -0.6690
 8323SOL    HW136431   2.663   2.532   4.538  0.3701 -1.1029 -0.1789
 8323SOL    HW236432   2.528   2.591   4.505 -0.4779 -1.0431 -0.7476
 8324SOL     OW36433   0.766   3.094   1.888  0.1353  0.0142  0.1581
 8324SOL    HW136434   0.825   3.020   1.870 -0.0663  0.2215 -1.3956
 8324SOL    HW236435   0.681   3.060   1.916  1.0971 -2.0902  0.5246
 8325SOL     OW36436   3.157   1.897   7.588  0.6797  0.7247 -0.1010
 8325SOL    HW136437   3.199   1.840   7.524 -0.0613  3.1480 -2.7595
 8325SOL    HW236438   3.192   1.983   7.565  0.3679  0.6881 -0.7418
 8326SOL     OW36439   0.379   0.730   0.898 -0.1568  0.5260  0.0540
 8326SOL    HW136440   0.448   0.738   0.963 -1.0517 -0.5627  1.1259
 8326SOL    HW236441   0.304   0.778   0.933 -0.4253  0.9885 -1.1263
 8327SOL     OW36442   4.623   3.336   0.578  0.4250  0.0102 -0.0995
 8327SOL    HW136443   4.571   3.409   0.612  2.4751  1.5539 -0.2815
 8327SOL    HW236444   4.579   3.319   0.495  1.3236 -2.6422 -0.0262
 8328SOL     OW36445   0.584   0.941   5.330  0.1116  0.6219 -0.2004
 8328SOL    HW136446   0.667   0.908   5.364 -1.1170 -3.7279 -1.4232
 8328SOL    HW236447   0.609   0.948   5.238  0.0164  0.0360 -0.2658
 8329SOL     OW36448   0.459   3.071   3.751  0.1845  0.3150 -0.0053
 8329SOL    HW136449   0.519   3.052   3.823 -0.2182  1.5734  0.6529
 8329SOL    HW236450   0.508   3.122   3.687  1.0339  0.4583  0.7563
 8330SOL     OW36451   3.058   0.830   7.302 -0.5076  0.4189  0.6668
 8330SOL    HW136452   3.037   0.812   7.393 -0.8294 -0.9091  0.3279
 8330SOL    HW236453   3.149   0.800   7.300 -0.4962  0.5249 -1.0876
 8331SOL     OW36454   3.747   0.023  14.204 -1.0330  0.5942 -0.0426
 8331SOL    HW136455   3.735   0.011  14.299  0.0469  1.1133  0.1577
 8331SOL    HW236456   3.699   4.667  14.177  0.8921  0.0050 -1.7017
 8332SOL     OW36457   1.277   0.955   6.326  0.9339 -0.3419  0.1367
 8332SOL    HW136458   1.244   0.994   6.244  1.1633 -1.0335 -0.2833
 8332SOL    HW236459   1.245   1.018   6.391  1.3182  0.9749 -0.9494
 8333SOL     OW36460   2.205   2.683   3.333 -0.1281  0.1873  0.4422
 8333SOL    HW136461   2.297   2.702   3.316 -0.5464  0.8301 -1.0680
 8333SOL    HW236462   2.209   2.592   3.302  1.0334 -0.0049  1.1631
 8334SOL     OW36463   2.281   1.303  17.023 -0.0238  0.3787  0.0785
 8334SOL    HW136464   2.322   1.225  16.985 -0.7168  0.5793 -1.0811
 8334SOL    HW236465   2.205   1.322  16.969 -0.5528 -3.0905 -0.4304
 8335SOL     OW36466   2.606   1.513   8.358 -0.2318 -0.0819 -0.2670
 8335SOL    HW136467   2.557   1.593   8.338 -0.7540 -0.2050  0.5141
 8335SOL    HW236468   2.563   1.438   8.316  0.1573 -0.2975 -0.2744
 8336SOL     OW36469   3.774   0.092   1.591 -0.0465 -0.0395 -0.0446
 8336SOL    HW136470   3.684   0.080   1.621 -0.7439  1.5132 -1.4991
 8336SOL    HW236471   3.799   0.006   1.559  1.1613 -0.3709  1.7819
 8337SOL     OW36472   4.023   3.834   3.596  0.1570  0.2366 -0.5960
 8337SOL    HW136473   3.995   3.744   3.611  2.3143 -0.0133  2.0089
 8337SOL    HW236474   4.119   3.843   3.602  0.3762 -2.8983  0.4494
 8338SOL     OW36475   4.309   3.602   2.563  0.0118 -0.0902  0.0786
 8338SOL    HW136476   4.309   3.634   2.473  2.0931  4.3238  1.6421
 8338SOL    HW236477   4.393   3.556   2.562  0.3652  0.5552  0.3238
 8339SOL     OW36478   2.055   0.789   1.719  0.1010 -0.5178  0.1647
 8339SOL    HW136479   2.104   0.867   1.694  3.5767 -2.7334  0.0754
 8339SOL    HW236480   1.962   0.813   1.721  0.6846  1.8280 -1.0635
 8340SOL     OW36481   2.346   3.129   2.523 -0.0290 -0.3221 -0.0090
 8340SOL    HW136482   2.373   3.219   2.505 -0.4069 -0.0639  0.7223
 8340SOL    HW236483   2.265   3.114   2.475  0.2359 -0.3372 -0.4593
 8341SOL     OW36484   2.746   3.642  10.353 -0.0077 -0.2931  0.2594
 8341SOL    HW136485   2.833   3.627  10.317 -1.4815  0.7847 -3.8413
 8341SOL    HW236486   2.720   3.716  10.297 -2.2620 -0.0047  1.6777
 8342SOL     OW36487   2.793   4.104   6.499 -0.1468 -0.5974 -0.1360
 8342SOL    HW136488   2.840   4.187   6.490  1.6291 -1.1574  3.9401
 8342SOL    HW236489   2.762   4.113   6.589  0.6063 -1.9174  0.2549
 8343SOL     OW36490   1.176   1.812   2.730 -0.0836  0.5744  0.0536
 8343SOL    HW136491   1.229   1.880   2.772 -0.9924  0.4190  1.4346
 8343SOL    HW236492   1.123   1.783   2.804 -0.0843 -1.2414 -0.6477
 8344SOL     OW36493   2.443   0.972  13.931  0.6289  0.3232  0.3962
 8344SOL    HW136494   2.511   0.994  13.868  2.1545 -1.1396  1.5334
 8344SOL    HW236495   2.475   0.987  14.020 -1.0823  2.2926  0.6721
 8345SOL     OW36496   4.707   4.056   5.789  0.2036  0.1016 -0.7440
 8345SOL    HW136497   0.031   4.075   5.870  0.1841 -2.6998 -0.0733
 8345SOL    HW236498   0.057   4.067   5.729  0.1822  3.7816 -0.0774
 8346SOL     OW36499   2.492   3.715   4.272 -0.3171  0.8455  0.4508
 8346SOL    HW136500   2.577   3.673   4.289 -1.8308 -0.5995  4.5378
 8346SOL    HW236501   2.449   3.649   4.217  0.0023 -1.2393  2.7119
 8347SOL     OW36502   4.287   1.366  12.898 -0.0529 -1.1137  0.4623
 8347SOL    HW136503   4.378   1.392  12.890 -1.0790  1.8546 -1.4658
 8347SOL    HW236504   4.269   1.281  12.857  1.4114 -0.0141 -2.4442
 8348SOL     OW36505   1.584   1.543   8.499  0.2767  0.1099  0.0565
 8348SOL    HW136506   1.655   1.487   8.469  1.4926  2.2799 -1.1079
 8348SOL    HW236507   1.602   1.554   8.592  1.9066 -0.5481 -0.1868
 8349SOL     OW36508   0.974   1.019  13.294 -0.5532 -0.2066 -0.6236
 8349SOL    HW136509   0.893   0.990  13.337 -1.7892  1.7537 -1.6088
 8349SOL    HW236510   0.956   1.110  13.273 -0.7921 -0.0071  0.4595
 8350SOL     OW36511   0.065   4.568   4.050 -0.0652  0.1050 -0.2876
 8350SOL    HW136512   0.058   4.493   3.992  0.6351 -1.4050  1.5720
 8350SOL    HW236513   0.046   4.524   4.133 -1.0923 -0.3794 -0.7707
 8351SOL     OW36514   0.134   1.407  14.839 -0.4513 -0.6585 -0.2549
 8351SOL    HW136515   0.048   1.432  14.805  0.1313  2.1969  0.4064
 8351SOL    HW236516   0.126   1.427  14.933 -1.8680 -1.6377 -0.1647
 8352SOL     OW36517   1.356   3.455   7.954 -0.5472  0.4089 -0.0282
 8352SOL    HW136518   1.398   3.498   8.029  1.7654 -1.1920 -0.4342
 8352SOL    HW236519   1.272   3.418   7.983  0.4012 -2.2097 -0.6344
 8353SOL     OW36520   0.644   2.575   6.787 -0.7144  0.1282  0.0342
 8353SOL    HW136521   0.653   2.554   6.694 -0.3035  0.2892  0.0425
 8353SOL    HW236522   0.714   2.523   6.826 -1.9302 -0.8260  0.9705
 8354SOL     OW36523   1.715   4.425  16.621 -0.4657 -0.1159  0.1020
 8354SOL    HW136524   1.747   4.515  16.622  1.7516 -0.9061  0.6433
 8354SOL    HW236525   1.779   4.376  16.673  0.5608 -0.4476 -1.4877
 8355SOL     OW36526   3.155   2.183   2.488  0.0927  0.3872 -0.4312
 8355SOL    HW136527   3.153   2.272   2.522  1.4749 -0.5792  2.1938
 8355SOL    HW236528   3.186   2.137   2.566 -1.5750 -0.5935 -0.3443
 8356SOL     OW36529   2.637   0.952   0.025  0.0170  0.6265  0.0069
 8356SOL    HW136530   2.658   0.947   0.119  2.2495 -2.3931 -0.6529
 8356SOL    HW236531   2.559   0.898   0.018 -0.5007  1.3756  0.0352
 8357SOL     OW36532   3.427   4.508   1.578 -0.2796  0.8936 -0.4772
 8357SOL    HW136533   3.500   4.485   1.519 -1.1667 -1.7820 -0.5202
 8357SOL    HW236534   3.454   4.464   1.659 -1.2162  0.4314 -0.4126
 8358SOL     OW36535   0.924   0.693  10.053 -0.2288 -0.2573 -0.1478
 8358SOL    HW136536   0.838   0.728  10.078 -1.4947 -1.8648 -2.2874
 8358SOL    HW236537   0.905   0.675   9.961 -2.9293  0.6781  0.2145
 8359SOL     OW36538   0.340   1.045   8.907 -0.1915 -0.4227 -0.4719
 8359SOL    HW136539   0.427   1.047   8.868  0.3058  0.0493  0.6617
 8359SOL    HW236540   0.345   1.119   8.968 -0.9119  0.0760 -1.0201
 8360SOL     OW36541   2.535   3.114   0.149 -0.3165 -0.2469 -0.4816
 8360SOL    HW136542   2.525   3.209   0.149  1.6690 -0.0290 -0.5738
 8360SOL    HW236543   2.621   3.101   0.190  0.3682 -1.7783 -2.4108
 8361SOL     OW36544   3.415   3.253  17.184 -0.1943  0.2215  0.5412
 8361SOL    HW136545   3.347   3.244  17.251 -0.8802 -0.7947 -0.2921
 8361SOL    HW236546   3.484   3.216  17.239 -2.4167 -1.3307  2.2660
 8362SOL     OW36547   2.559   0.003   0.925  0.0647  0.3485  0.0059
 8362SOL    HW136548   2.505   0.079   0.906 -0.9481 -0.3183  0.2440
 8362SOL    HW236549   2.614   0.028   1.000 -0.2591  3.5070 -0.7931
 8363SOL     OW36550   3.351   0.556   8.956  0.0449  0.0282  0.4592
 8363SOL    HW136551   3.289   0.565   8.884  0.1938 -0.1282  0.3099
 8363SOL    HW236552   3.397   0.474   8.937  0.3870 -0.0427  1.5967
 8364SOL     OW36553   4.437   1.347   2.202 -0.6305 -0.1302  0.4779
 8364SOL    HW136554   4.379   1.302   2.264 -1.6793 -0.9097 -1.0596
 8364SOL    HW236555   4.434   1.285   2.128 -2.0805  2.8113 -1.9166
 8365SOL     OW36556   0.354   1.795   7.982  0.4001  0.6253 -0.0332
 8365SOL    HW136557   0.440   1.753   7.985 -0.8348 -1.7730  1.4714
 8365SOL    HW236558   0.324   1.795   8.073 -0.5162  0.3935 -0.3373
 8366SOL     OW36559   4.682   0.760   6.167 -0.3282 -0.1317 -0.0275
 8366SOL    HW136560   4.700   0.791   6.255  0.2189 -0.7154  0.0681
 8366SOL    HW236561   0.033   0.799   6.120 -0.9055  0.7322 -0.2281
 8367SOL     OW36562   1.247   1.095   2.561 -0.0252 -0.0742 -0.8033
 8367SOL    HW136563   1.240   1.190   2.570 -0.1495  0.1556 -3.1953
 8367SOL    HW236564   1.336   1.078   2.531  0.1939  1.3620 -0.9781
 8368SOL     OW36565   2.258   0.869   5.417 -0.0203 -0.3276 -0.2009
 8368SOL    HW136566   2.210   0.844   5.496  1.8299  1.5033  1.4917
 8368SOL    HW236567   2.188   0.908   5.364 -1.1250 -1.8031  0.1627
 8369SOL     OW36568   3.783   4.064   2.925 -0.2014  0.3518  0.1883
 8369SOL    HW136569   3.845   3.991   2.929 -1.1099 -0.4064  0.3287
 8369SOL    HW236570   3.772   4.078   2.831  0.6479 -0.0148  0.0300
 8370SOL     OW36571   2.916   0.361   9.281 -0.1347  0.2269  0.4826
 8370SOL    HW136572   2.923   0.430   9.215 -3.2973 -0.5216 -0.6504
 8370SOL    HW236573   2.916   0.419   9.357 -1.1124  1.5257 -0.5092
 8371SOL     OW36574   3.500   1.803   0.341  0.2901 -0.5391  0.7990
 8371SOL    HW136575   3.473   1.763   0.424 -0.6240  1.4894  1.4661
 8371SOL    HW236576   3.416   1.818   0.300  2.2535  1.9211 -2.3160
 8372SOL     OW36577   2.472   1.189  10.798  0.1473  0.5491  0.4173
 8372SOL    HW136578   2.449   1.266  10.746 -0.3986  0.4082  0.4452
 8372SOL    HW236579   2.560   1.167  10.769 -0.4616 -0.3544 -0.7415
 8373SOL     OW36580   3.522   0.706   3.200 -0.1533  0.7131 -0.4297
 8373SOL    HW136581   3.549   0.637   3.139  2.9285  0.7222  0.9312
 8373SOL    HW236582   3.427   0.707   3.185 -0.4711 -2.2319  1.5227
 8374SOL     OW36583   1.938   0.570   8.640  0.6592  0.4938 -0.0158
 8374SOL    HW136584   1.973   0.644   8.690 -2.1351  1.4898  0.4583
 8374SOL    HW236585   1.879   0.620   8.583  1.3625  1.0953 -0.2254
 8375SOL     OW36586   2.583   2.366   8.426 -0.4716  0.1601 -0.7082
 8375SOL    HW136587   2.526   2.351   8.350 -1.4807  1.3088 -0.1921
 8375SOL    HW236588   2.526   2.430   8.469 -2.7455 -2.4417  0.1081
 8376SOL     OW36589   0.266   3.954   4.877  0.0425 -0.5088  0.2515
 8376SOL    HW136590   0.256   3.860   4.863 -0.5507 -0.4047 -0.0063
 8376SOL    HW236591   0.288   3.996   4.793 -1.6291  1.9138  1.0337
 8377SOL     OW36592   2.618   3.245   1.847  0.6680 -0.6294 -0.1345
 8377SOL    HW136593   2.563   3.169   1.867 -1.5814  1.0228 -0.0162
 8377SOL    HW236594   2.611   3.289   1.932 -1.2771 -0.3823 -0.4155
 8378SOL     OW36595   0.608   2.956   8.960  0.4678 -0.1390 -0.0276
 8378SOL    HW136596   0.516   2.939   8.978 -0.0914  0.7090 -2.0074
 8378SOL    HW236597   0.592   3.024   8.894  1.6299  1.7336  1.6090
 8379SOL     OW36598   2.397   0.425   7.877 -0.1624 -0.0161  0.2421
 8379SOL    HW136599   2.340   0.474   7.937 -0.8487  0.0376 -0.4650
 8379SOL    HW236600   2.446   0.377   7.944 -1.5383 -0.6097  0.8237
 8380SOL     OW36601   1.632   1.635   2.148  0.3893 -0.2629  0.1613
 8380SOL    HW136602   1.627   1.700   2.078  0.4428 -0.1829  0.2311
 8380SOL    HW236603   1.615   1.557   2.096 -3.9143  1.3781 -0.8725
 8381SOL     OW36604   1.919   3.093   5.410 -0.2116 -0.4458 -0.2204
 8381SOL    HW136605   1.907   2.998   5.418  2.2217 -0.6201  1.2091
 8381SOL    HW236606   2.004   3.111   5.371  1.0406  0.4950  3.0013
 8382SOL     OW36607   2.136   4.208   2.328 -0.8802 -0.1900 -0.5043
 8382SOL    HW136608   2.088   4.256   2.261  0.8204  1.5794 -0.4291
 8382SOL    HW236609   2.120   4.118   2.299 -0.0767  0.0269 -1.6477
 8383SOL     OW36610   0.333   3.552  13.630 -0.0378 -0.3600 -0.0580
 8383SOL    HW136611   0.272   3.481  13.650 -2.5447  1.7984  0.0641
 8383SOL    HW236612   0.354   3.565  13.722 -1.8073 -1.8315  0.5432
 8384SOL     OW36613   2.941   0.650   6.766  0.0289 -0.5830  0.0932
 8384SOL    HW136614   2.873   0.682   6.826  0.0450  0.8231 -0.6280
 8384SOL    HW236615   2.888   0.611   6.697  1.6428 -0.3400 -1.2599
 8385SOL     OW36616   0.385   3.938   1.838  0.2957  0.5045  0.3695
 8385SOL    HW136617   0.399   3.921   1.744  1.3136  2.2699  0.1858
 8385SOL    HW236618   0.310   3.996   1.826 -1.4166 -1.8349 -0.0382
 8386SOL     OW36619   1.453   1.756   9.261  0.0874  0.2555  0.2091
 8386SOL    HW136620   1.518   1.694   9.293  3.6819  3.1771 -1.5137
 8386SOL    HW236621   1.381   1.694   9.248  1.5110 -1.2168 -0.7300
 8387SOL     OW36622   3.745   3.956  12.281 -0.1982  0.7155 -0.3878
 8387SOL    HW136623   3.837   3.938  12.262  0.1903  2.1686  0.1526
 8387SOL    HW236624   3.753   4.030  12.341  0.0488 -0.6515  1.2690
 8388SOL     OW36625   0.195   4.283   1.045  0.0150 -0.4223  0.3900
 8388SOL    HW136626   0.253   4.358   1.032  0.3917 -0.4812  1.7541
 8388SOL    HW236627   0.189   4.251   0.955  2.0110 -0.1817  0.1701
 8389SOL     OW36628   2.031   4.114   4.357  0.2595  0.3421 -0.5053
 8389SOL    HW136629   2.054   4.063   4.435  1.4968 -0.5953 -1.4978
 8389SOL    HW236630   1.947   4.071   4.336  1.4179 -2.1967  0.1024
 8390SOL     OW36631   4.265   2.919   3.771 -0.7829 -0.0330  0.2093
 8390SOL    HW136632   4.295   2.910   3.861  2.2436  0.8884 -0.6950
 8390SOL    HW236633   4.345   2.891   3.727 -0.7021 -0.5991  0.7260
 8391SOL     OW36634   0.106   0.469  11.459 -0.3002 -0.1748 -0.7013
 8391SOL    HW136635   0.046   0.421  11.517  0.3488  0.8341  0.8128
 8391SOL    HW236636   0.113   0.409  11.385  1.0105 -0.5852 -0.2349
 8392SOL     OW36637   3.267   3.937   7.697 -0.8343  0.2299 -0.1749
 8392SOL    HW136638   3.264   4.019   7.647 -0.2841  1.1349  1.2778
 8392SOL    HW236639   3.253   3.966   7.787  2.1486 -1.8871  0.9515
 8393SOL     OW36640   3.918   0.379  12.442  0.3317 -0.3921 -0.6660
 8393SOL    HW136641   3.874   0.440  12.384 -1.7755 -1.6743 -0.4116
 8393SOL    HW236642   3.839   0.352  12.490 -0.5777  0.5561 -1.6320
 8394SOL     OW36643   4.286   2.138   3.207  0.4025  0.1725 -0.3640
 8394SOL    HW136644   4.323   2.058   3.169  1.2055  1.0465 -1.4264
 8394SOL    HW236645   4.356   2.164   3.267 -0.0621  0.1158  0.2015
 8395SOL     OW36646   1.805   3.249   8.742  0.1040  0.3947  0.3066
 8395SOL    HW136647   1.863   3.324   8.730 -1.1462  1.3110 -0.0229
 8395SOL    HW236648   1.818   3.217   8.653  0.1316  0.1438  0.4027
 8396SOL     OW36649   1.821   3.811   1.969 -0.2053 -0.6927 -0.2430
 8396SOL    HW136650   1.799   3.718   1.975 -2.1113 -0.1598  1.0161
 8396SOL    HW236651   1.853   3.833   2.057  0.1402  1.3344 -0.8780
 8397SOL     OW36652   3.042   1.120  10.773 -0.0276 -0.3347  0.5875
 8397SOL    HW136653   3.099   1.127  10.850  0.0177 -0.1498  0.5386
 8397SOL    HW236654   3.062   1.201  10.725  1.8728 -0.9464  0.3601
 8398SOL     OW36655   3.624   3.695  10.915  0.5640 -0.0187 -0.0953
 8398SOL    HW136656   3.532   3.700  10.937  0.7909  0.9355  0.6313
 8398SOL    HW236657   3.659   3.684  11.003  0.8954  1.3320 -0.0523
 8399SOL     OW36658   3.121   3.628   8.499 -0.4993  0.6245 -0.0971
 8399SOL    HW136659   3.183   3.694   8.468 -2.3878  1.7697 -1.4355
 8399SOL    HW236660   3.184   3.562   8.529  2.2167  2.2670 -2.2010
 8400SOL     OW36661   1.044   1.265   9.616 -0.3605  0.3652 -0.1108
 8400SOL    HW136662   0.986   1.333   9.582  0.0796  0.3571 -0.8724
 8400SOL    HW236663   1.047   1.303   9.704  0.7196 -2.4322  1.0540
 8401SOL     OW36664   2.698   1.693   2.759 -0.7466 -0.0515 -0.2050
 8401SOL    HW136665   2.665   1.780   2.784  0.3544  0.0532  0.8674
 8401SOL    HW236666   2.784   1.719   2.727 -0.7396  1.4219  0.9797
 8402SOL     OW36667   3.606   3.469  14.653  0.8617 -0.3645  0.4833
 8402SOL    HW136668   3.625   3.466  14.747  0.8695 -5.1354  0.3098
 8402SOL    HW236669   3.553   3.391  14.638  0.9510 -0.3245 -0.0262
 8403SOL     OW36670   4.175   3.979  16.758  0.0324 -0.1490 -0.1745
 8403SOL    HW136671   4.151   4.060  16.803  1.2766  1.5613 -2.5533
 8403SOL    HW236672   4.091   3.939  16.734  0.5945 -0.7508 -1.1553
 8404SOL     OW36673   0.818   0.777   0.418  0.1336  0.0167 -0.1814
 8404SOL    HW136674   0.768   0.858   0.426 -2.7737 -1.7566 -0.6508
 8404SOL    HW236675   0.890   0.808   0.474 -0.3861  0.5999  0.1623
 8405SOL     OW36676   0.823   3.574  10.244  0.2061 -0.9120 -0.0742
 8405SOL    HW136677   0.764   3.499  10.249  2.1983 -2.3727  1.6298
 8405SOL    HW236678   0.760   3.638  10.275 -1.2136 -2.1966 -0.3202
 8406SOL     OW36679   2.662   2.487   3.506  0.5403  0.0974 -0.0356
 8406SOL    HW136680   2.612   2.438   3.570 -1.2202 -0.6894 -2.0135
 8406SOL    HW236681   2.603   2.522   3.439  0.0796 -0.5196  0.0504
 8407SOL     OW36682   1.318   4.612   2.428 -0.0394 -0.4456 -0.8573
 8407SOL    HW136683   1.275   4.629   2.344  0.6054  2.5500 -0.5652
 8407SOL    HW236684   1.367   4.693   2.440  3.4351 -2.1995 -3.0339
 8408SOL     OW36685   3.859   1.172   5.051 -0.0551  0.0413 -0.1481
 8408SOL    HW136686   3.873   1.123   4.970  1.0970  0.5708 -0.2728
 8408SOL    HW236687   3.938   1.225   5.056 -0.1349  0.0210  1.1318
 8409SOL     OW36688   1.478   3.810  17.583  0.5477  0.1402 -0.2662
 8409SOL    HW136689   1.487   3.716  17.563  0.0410 -0.0063  0.1727
 8409SOL    HW236690   1.560   3.826  17.629  1.1403  0.2531 -1.3632
 8410SOL     OW36691   0.153   3.021   4.524 -0.0940  0.1756 -0.2511
 8410SOL    HW136692   0.119   3.056   4.607 -2.0204 -4.3497  0.9032
 8410SOL    HW236693   0.232   2.976   4.553 -1.2202 -2.1170 -0.6500
 8411SOL     OW36694   0.465   0.069   2.984 -0.1800 -0.1378  0.1999
 8411SOL    HW136695   0.547   0.027   2.959  0.4800  0.9713  0.5156
 8411SOL    HW236696   0.404   0.049   2.912 -0.2783  2.2506 -0.3669
 8412SOL     OW36697   0.578   1.450   3.652 -0.7778  0.1935 -0.1498
 8412SOL    HW136698   0.579   1.543   3.675 -0.2673  0.0044  0.5791
 8412SOL    HW236699   0.517   1.448   3.578  1.7262  2.3385 -2.2949
 8413SOL     OW36700   2.793   2.923   4.093  0.0731  0.1356 -0.4009
 8413SOL    HW136701   2.745   2.840   4.088 -0.5123  0.5028 -0.9554
 8413SOL    HW236702   2.793   2.941   3.999 -1.2704  1.7816 -0.0775
 8414SOL     OW36703   3.896   4.206   8.674  0.2376  0.2852 -0.4730
 8414SOL    HW136704   3.803   4.186   8.665 -0.5271  3.4763  0.6104
 8414SOL    HW236705   3.934   4.125   8.710  0.0304 -0.7675 -2.6099
 8415SOL     OW36706   0.462   3.332  11.222 -0.3062 -0.0455  0.2838
 8415SOL    HW136707   0.553   3.336  11.195 -0.1189  0.8151  1.0420
 8415SOL    HW236708   0.435   3.414  11.181 -1.1391 -1.7587 -2.5906
 8416SOL     OW36709   1.828   4.674   3.177  0.2730 -0.2828  0.1125
 8416SOL    HW136710   1.901   0.012   3.187  0.6915 -0.9086  0.8356
 8416SOL    HW236711   1.753   0.010   3.192  0.9555  1.1007 -1.9154
 8417SOL     OW36712   2.388   4.633   4.456 -0.2663 -0.8010 -0.1780
 8417SOL    HW136713   2.385   4.625   4.551  0.1808 -0.5713 -0.1466
 8417SOL    HW236714   2.444   4.711   4.454 -0.5033 -0.6666 -1.7308
 8418SOL     OW36715   2.654   0.779   7.232  0.9650 -0.1646 -0.4880
 8418SOL    HW136716   2.571   0.771   7.185 -0.7466 -0.3392  2.5675
 8418SOL    HW236717   2.643   0.733   7.315 -0.8745 -2.2115 -1.8902
 8419SOL     OW36718   3.036   1.231  15.542  0.3196 -0.0942  0.2235
 8419SOL    HW136719   3.086   1.198  15.468 -0.4106 -1.4519  0.3504
 8419SOL    HW236720   3.055   1.166  15.609 -2.6029 -0.3157  0.8426
 8420SOL     OW36721   0.054   1.533   6.555 -0.0466 -0.1270 -1.2310
 8420SOL    HW136722   4.721   1.492   6.489  0.8762 -1.2166 -1.3459
 8420SOL    HW236723   0.074   1.455   6.606 -4.1851  0.1194  0.7705
 8421SOL     OW36724   4.020   1.029   9.036 -0.2790  0.0403 -0.1475
 8421SOL    HW136725   3.961   1.003   9.107  1.5447 -0.3966  1.2132
 8421SOL    HW236726   4.028   0.943   8.995 -0.1530 -0.0020 -0.0341
 8422SOL     OW36727   1.601   1.650   5.144 -0.3710 -0.3441  0.1767
 8422SOL    HW136728   1.684   1.657   5.098 -0.5458 -0.6131 -0.1775
 8422SOL    HW236729   1.552   1.592   5.086  1.1768 -1.6519  0.1950
 8423SOL     OW36730   0.652   1.656   4.942  0.3955 -0.2779  0.4536
 8423SOL    HW136731   0.577   1.666   5.001 -1.9403 -1.9979 -2.1613
 8423SOL    HW236732   0.668   1.562   4.944 -0.2831 -0.3947  0.6185
 8424SOL     OW36733   0.386   4.662   0.943  0.0997 -0.1932 -0.3208
 8424SOL    HW136734   0.318   4.612   0.898  0.3103  1.5689 -2.6077
 8424SOL    HW236735   0.413   0.013   0.888 -0.6914 -0.4546 -1.0600
 8425SOL     OW36736   4.120   2.966   5.640  0.3008 -0.0318 -0.6054
 8425SOL    HW136737   4.194   2.970   5.579  1.0714  1.5960  0.4526
 8425SOL    HW236738   4.090   3.056   5.633  0.7349  0.3429  2.2318
 8426SOL     OW36739   3.800   0.058  15.341 -0.0803 -0.4002  0.6075
 8426SOL    HW136740   3.852   0.101  15.272 -2.2954 -0.9808 -1.4187
 8426SOL    HW236741   3.797   0.120  15.414  0.0391  0.5190 -0.1718
 8427SOL     OW36742   0.600   0.882   3.065 -0.0039 -0.7525  0.0355
 8427SOL    HW136743   0.647   0.798   3.064  0.9495 -0.2415  1.5909
 8427SOL    HW236744   0.649   0.941   3.122  1.0908 -0.6865 -0.9792
 8428SOL     OW36745   0.134   2.288  11.780  0.1627 -0.3475 -0.2147
 8428SOL    HW136746   0.145   2.202  11.821 -0.0826  1.0743  2.8481
 8428SOL    HW236747   0.072   2.333  11.838 -2.0620 -1.5042 -1.7230
 8429SOL     OW36748   0.841   4.292   7.675  0.5478  0.1679 -0.3407
 8429SOL    HW136749   0.903   4.233   7.633 -0.7606 -2.0166  0.8070
 8429SOL    HW236750   0.805   4.246   7.751 -0.0660  1.4282  0.1454
 8430SOL     OW36751   1.706   2.869  16.677 -0.0861  0.1984  0.0598
 8430SOL    HW136752   1.704   2.859  16.582  0.3345  1.0118 -0.0352
 8430SOL    HW236753   1.743   2.958  16.678 -0.6932  0.4460  0.1884
 8431SOL     OW36754   3.062   4.308  12.511  0.0622 -0.0208  0.2668
 8431SOL    HW136755   3.123   4.375  12.543  0.8224  0.3776 -2.0078
 8431SOL    HW236756   3.107   4.227  12.533 -1.9498 -1.6994 -1.7559
 8432SOL     OW36757   0.897   4.590  14.144 -0.3329  0.4698 -0.0600
 8432SOL    HW136758   0.910   4.545  14.228 -1.3051  1.3585  0.5734
 8432SOL    HW236759   0.947   4.672  14.151 -1.0208  0.8059  1.0094
 8433SOL     OW36760   2.489   0.254  10.771 -0.1176 -0.2622 -0.1649
 8433SOL    HW136761   2.487   0.348  10.754 -0.8366  0.0934  1.8482
 8433SOL    HW236762   2.395   0.241  10.784 -1.0449  3.4780 -3.2471
 8434SOL     OW36763   3.343   0.910   3.448 -0.4183 -0.6548  0.0332
 8434SOL    HW136764   3.366   0.822   3.478  1.2131 -0.0418  0.5591
 8434SOL    HW236765   3.427   0.951   3.428 -0.8349  0.5321  0.7233
 8435SOL     OW36766   1.194   2.050   8.490 -0.4073 -0.6004 -0.3804
 8435SOL    HW136767   1.118   1.991   8.492 -1.2602  0.5281  0.6858
 8435SOL    HW236768   1.254   2.015   8.425  0.3291 -1.6540  0.8945
 8436SOL     OW36769   3.834   0.379   1.623 -0.2516  0.0888  0.2595
 8436SOL    HW136770   3.777   0.385   1.699  0.7215 -1.8202  1.1390
 8436SOL    HW236771   3.826   0.286   1.602  1.9675  0.0767 -0.5629
 8437SOL     OW36772   4.331   1.351  11.046  0.5387 -0.8226  0.0632
 8437SOL    HW136773   4.338   1.391  10.959 -2.2335  3.4789  1.8026
 8437SOL    HW236774   4.242   1.383  11.061  0.9347  1.4681 -2.5991
 8438SOL     OW36775   0.214   2.922  16.224 -1.0099  0.1785  0.5484
 8438SOL    HW136776   0.291   2.972  16.195 -2.8382  3.0453  0.6050
 8438SOL    HW236777   0.245   2.871  16.299 -0.9465  0.1464  0.5003
 8439SOL     OW36778   2.995   1.873   3.784 -0.1954  0.2225  0.0475
 8439SOL    HW136779   3.086   1.900   3.770 -0.0021  0.1477  1.1665
 8439SOL    HW236780   2.949   1.936   3.728 -0.4809  1.5363  1.7714
 8440SOL     OW36781   2.823   2.143   8.386 -0.3868  0.1731 -0.4940
 8440SOL    HW136782   2.903   2.178   8.346 -0.1471 -0.8224 -0.8802
 8440SOL    HW236783   2.851   2.133   8.478 -0.4636  0.1716 -0.4711
 8441SOL     OW36784   0.631   1.330   3.359  0.4260 -0.2023 -0.3488
 8441SOL    HW136785   0.536   1.340   3.350  0.6251  1.7770 -0.2908
 8441SOL    HW236786   0.650   1.376   3.441  3.3911 -2.1146  0.0370
 8442SOL     OW36787   0.631   0.650   7.095 -0.5531  0.0271  0.7459
 8442SOL    HW136788   0.634   0.730   7.043  3.8012  0.6427  1.8861
 8442SOL    HW236789   0.583   0.689   7.168 -1.5958  1.0301 -0.4871
 8443SOL     OW36790   0.867   2.929  13.235 -0.6307 -0.1553  0.0223
 8443SOL    HW136791   0.793   2.984  13.260 -1.3593 -1.1228 -0.0507
 8443SOL    HW236792   0.911   3.006  13.199  0.5161 -0.4815  0.7242
 8444SOL     OW36793   4.027   3.307  10.482  0.2203  0.1120  0.8024
 8444SOL    HW136794   4.094   3.302  10.551  2.4036  0.6465 -1.2745
 8444SOL    HW236795   3.956   3.248  10.506 -1.3287  1.6952  0.1050
 8445SOL     OW36796   2.008   1.455   0.798  0.1687  0.6733  0.3254
 8445SOL    HW136797   2.013   1.528   0.737 -0.7691  1.0561  0.7109
 8445SOL    HW236798   1.914   1.458   0.814 -0.0644 -2.8413 -0.3761
 8446SOL     OW36799   4.682   4.098   7.143  0.1714 -0.2098 -0.1777
 8446SOL    HW136800   4.680   4.165   7.075  0.2204  0.6541  0.6841
 8446SOL    HW236801   0.042   4.055   7.121 -0.0304 -0.6128 -0.1536
 8447SOL     OW36802   2.317   0.282   2.485  0.4149  0.1003  0.2288
 8447SOL    HW136803   2.231   0.317   2.460  0.3226 -0.3035 -0.0169
 8447SOL    HW236804   2.337   0.217   2.418 -0.7523 -1.3232  1.2404
 8448SOL     OW36805   2.946   0.832  10.333 -0.0725 -0.5051 -0.3976
 8448SOL    HW136806   2.971   0.864  10.246 -2.8915 -0.6999 -1.3040
 8448SOL    HW236807   3.002   0.756  10.347 -0.5816 -0.4821  1.7506
 8449SOL     OW36808   1.764   0.829   6.325  0.3394  0.1518  0.5443
 8449SOL    HW136809   1.843   0.782   6.350 -1.2420 -1.9059  1.6752
 8449SOL    HW236810   1.802   0.896   6.268  0.6601 -1.2091 -0.8448
 8450SOL     OW36811   1.396   3.553   3.021 -0.2751  0.0089  0.1725
 8450SOL    HW136812   1.379   3.647   3.013 -1.0157 -0.2328 -1.0549
 8450SOL    HW236813   1.473   3.535   2.967  0.2990 -2.2559  1.7143
 8451SOL     OW36814   3.854   3.470   7.455  0.6576  0.0673  0.0100
 8451SOL    HW136815   3.843   3.520   7.536 -0.8154 -0.3892  0.0917
 8451SOL    HW236816   3.766   3.435   7.442  0.4709  0.3410  0.5701
 8452SOL     OW36817   3.327   3.374   7.736  0.0627  0.5032  0.3968
 8452SOL    HW136818   3.312   3.465   7.712  0.1991  0.0985 -1.2434
 8452SOL    HW236819   3.263   3.328   7.681 -0.2352  0.1994  0.9985
 8453SOL     OW36820   3.081   2.928   1.889 -0.4079  0.3722  0.1540
 8453SOL    HW136821   3.170   2.962   1.882 -0.5419  0.7755  0.4258
 8453SOL    HW236822   3.049   2.975   1.811 -0.5548  1.7936  1.0765
 8454SOL     OW36823   1.622   0.223   6.627 -0.0039 -0.0844  0.3136
 8454SOL    HW136824   1.668   0.155   6.676  1.1967 -0.4168 -1.3127
 8454SOL    HW236825   1.701   0.264   6.593  0.1415 -1.4480 -0.9824
 8455SOL     OW36826   3.862   0.059   7.855 -0.3907 -0.4671 -0.4408
 8455SOL    HW136827   3.908   0.136   7.824 -1.7916  1.4873  2.2910
 8455SOL    HW236828   3.922   4.708   7.846 -0.3647 -0.4667 -0.2810
 8456SOL     OW36829   1.928   0.303   0.775 -0.9819  0.0891 -0.0849
 8456SOL    HW136830   1.833   0.298   0.763 -0.9163 -0.6229 -0.3391
 8456SOL    HW236831   1.944   0.238   0.706 -1.3019 -0.4835  0.3776
 8457SOL     OW36832   0.187   1.431   2.656 -0.2190 -0.4221  0.2747
 8457SOL    HW136833   0.243   1.472   2.590 -1.8554  1.3101 -0.0342
 8457SOL    HW236834   0.246   1.389   2.719 -0.9190  0.0106  1.2173
 8458SOL     OW36835   1.476   3.680   3.452 -0.2582  0.1838  0.3479
 8458SOL    HW136836   1.512   3.733   3.382  0.5559 -1.2141 -0.2893
 8458SOL    HW236837   1.445   3.745   3.515  2.4741  1.8019  0.0213
 8459SOL     OW36838   2.673   0.127   7.969 -0.0137 -0.2634 -0.0647
 8459SOL    HW136839   2.636   0.198   8.022 -1.7619 -1.3532  0.1834
 8459SOL    HW236840   2.726   0.091   8.039  0.9232 -1.1997 -1.2661
 8460SOL     OW36841   2.919   3.955   8.473 -0.4418 -0.2480  0.5912
 8460SOL    HW136842   2.996   3.898   8.474  0.4157  0.8682 -2.0484
 8460SOL    HW236843   2.929   4.016   8.547  0.9856  0.2232  0.0077
 8461SOL     OW36844   1.643   2.015   5.669  0.0180  0.1114  0.4376
 8461SOL    HW136845   1.613   1.932   5.633  0.4463 -0.3352  1.1110
 8461SOL    HW236846   1.730   2.025   5.631 -1.0610  0.6248 -1.8941
 8462SOL     OW36847   4.565   0.718   4.656 -0.4692  0.8263 -0.0584
 8462SOL    HW136848   4.475   0.749   4.648  0.1325  2.4368 -0.5521
 8462SOL    HW236849   4.586   0.696   4.565  3.0564  0.7783  0.7844
 8463SOL     OW36850   4.378   2.192   9.811  0.3520 -0.2064 -0.0727
 8463SOL    HW136851   4.302   2.207   9.754  0.0013 -1.5395  0.0293
 8463SOL    HW236852   4.447   2.251   9.782 -2.0961  2.6951  0.0377
 8464SOL     OW36853   1.084   2.844   7.537  0.3255  0.2215 -0.8011
 8464SOL    HW136854   1.014   2.892   7.581  1.3040 -0.9305  1.9981
 8464SOL    HW236855   1.126   2.798   7.610 -0.1276 -2.3247 -2.1184
 8465SOL     OW36856   0.100   3.110   9.704 -0.4725 -0.3616 -0.2235
 8465SOL    HW136857   0.059   3.037   9.752 -2.0739  0.7922  0.1503
 8465SOL    HW236858   0.082   3.090   9.612 -2.6360 -3.0149  0.7572
 8466SOL     OW36859   0.587   1.891  16.109 -0.7435  0.6429  0.4019
 8466SOL    HW136860   0.492   1.897  16.097 -0.6237  0.8694 -0.3946
 8466SOL    HW236861   0.612   1.799  16.111  1.7345  1.3677  2.9938
 8467SOL     OW36862   2.601   0.254  15.838  0.1589 -0.1747 -0.0660
 8467SOL    HW136863   2.657   0.197  15.786  1.0182 -0.1516  0.8429
 8467SOL    HW236864   2.663   0.307  15.889  1.0843  0.6149 -2.0249
 8468SOL     OW36865   2.269   3.477   0.564 -0.1036  0.0446 -0.4723
 8468SOL    HW136866   2.348   3.531   0.558  1.4727 -2.1180  1.2907
 8468SOL    HW236867   2.300   3.391   0.538 -0.9797  0.4602 -2.9486
 8469SOL     OW36868   3.162   3.847   5.137  0.5210 -0.0927  0.2246
 8469SOL    HW136869   3.102   3.921   5.140  0.2205 -0.3240  0.0125
 8469SOL    HW236870   3.239   3.892   5.102  0.5211 -1.6166 -1.8065
 8470SOL     OW36871   1.975   3.673  17.073  0.1005  0.0083  0.3524
 8470SOL    HW136872   1.927   3.595  17.049 -1.0216 -0.1722  3.1769
 8470SOL    HW236873   1.916   3.703  17.143  1.2759 -1.9212  2.1794
 8471SOL     OW36874   3.330   3.650   0.627 -0.1130  0.4026 -0.5738
 8471SOL    HW136875   3.333   3.583   0.696 -1.3149  0.6841 -0.2537
 8471SOL    HW236876   3.268   3.713   0.664  1.7851  1.3375  1.0504
 8472SOL     OW36877   1.699   2.896   5.624 -0.5127 -0.1730  0.3468
 8472SOL    HW136878   1.723   2.871   5.535  0.4350 -0.9799  0.8363
 8472SOL    HW236879   1.717   2.810   5.661  1.3611  0.6083  1.2679
 8473SOL     OW36880   4.148   4.676   3.511  0.1332  0.3128 -0.1206
 8473SOL    HW136881   4.068   4.649   3.557  0.4033  4.0295  2.5405
 8473SOL    HW236882   4.174   0.020   3.575  0.2519 -0.2369  0.3985
 8474SOL     OW36883   2.404   1.546   7.291 -0.2455  0.1195 -0.6121
 8474SOL    HW136884   2.495   1.569   7.312  0.2896 -2.7477  0.2228
 8474SOL    HW236885   2.401   1.452   7.307  1.0840  0.4868  1.8846
 8475SOL     OW36886   4.074   4.130   1.472 -0.1358  0.1016 -0.5486
 8475SOL    HW136887   4.141   4.197   1.482 -0.0122 -0.2548  0.9824
 8475SOL    HW236888   4.057   4.122   1.378 -0.0948  0.4296 -0.5829
 8476SOL     OW36889   4.563   3.236  16.002 -0.0190 -0.3582 -0.1524
 8476SOL    HW136890   4.562   3.220  16.096  2.2501  0.7228  0.0554
 8476SOL    HW236891   4.475   3.203  15.984  1.1067 -1.5433 -3.3853
 8477SOL     OW36892   0.042   1.978  15.960 -0.0470 -0.5717 -0.5369
 8477SOL    HW136893   4.691   1.927  15.992 -0.8655 -0.4118 -2.1776
 8477SOL    HW236894   4.709   2.052  15.936  0.8610  0.9076  1.9393
 8478SOL     OW36895   3.453   3.810   6.252 -0.1246 -0.1747  0.8006
 8478SOL    HW136896   3.547   3.816   6.271  0.2342  2.6143 -1.8425
 8478SOL    HW236897   3.454   3.847   6.164 -1.2322  1.5021  1.4890
 8479SOL     OW36898   3.141   0.929   5.209 -0.4791  0.2913  0.4917
 8479SOL    HW136899   3.097   0.977   5.280  0.9914  2.9808 -0.4144
 8479SOL    HW236900   3.166   0.853   5.261 -1.0150  0.9518  1.7204
 8480SOL     OW36901   4.172   2.507   5.619 -0.0752 -0.1730  0.0782
 8480SOL    HW136902   4.134   2.591   5.592  0.8080  0.0530 -0.4529
 8480SOL    HW236903   4.118   2.486   5.695 -1.0694  0.7355 -0.3749
 8481SOL     OW36904   1.344   3.666  10.131 -0.1742  0.4036 -0.0922
 8481SOL    HW136905   1.318   3.577  10.107  2.4223 -1.3206  3.5182
 8481SOL    HW236906   1.272   3.708  10.177 -0.7660 -1.7934  0.9963
 8482SOL     OW36907   1.477   0.221  15.047 -0.1402  0.6776 -0.0680
 8482SOL    HW136908   1.538   0.156  15.012 -0.5392  1.2371 -1.8027
 8482SOL    HW236909   1.545   0.274  15.089  0.5501 -0.8982  0.8012
 8483SOL     OW36910   2.650   0.740   5.849  0.5107 -0.4201 -0.1075
 8483SOL    HW136911   2.745   0.735   5.857  0.5877 -0.9553 -1.2475
 8483SOL    HW236912   2.628   0.708   5.936  1.6105 -1.1710 -0.1086
 8484SOL     OW36913   4.125   2.273   0.797  0.2131  0.2164  0.2050
 8484SOL    HW136914   4.100   2.364   0.783 -2.8105 -0.6956 -0.2832
 8484SOL    HW236915   4.216   2.286   0.822  0.1274 -1.2329  1.2216
 8485SOL     OW36916   1.191   3.901   1.510 -0.8343 -0.2017 -0.2254
 8485SOL    HW136917   1.239   3.834   1.460  1.4699  0.5441  0.9808
 8485SOL    HW236918   1.200   3.969   1.443 -1.4567  0.6482  0.5722
 8486SOL     OW36919   2.805   2.764   5.414 -0.2931  0.0984 -0.0218
 8486SOL    HW136920   2.805   2.780   5.319  0.5320  0.5129  0.0437
 8486SOL    HW236921   2.712   2.767   5.434 -0.3669  2.5998 -0.7444
 8487SOL     OW36922   0.034   1.438   3.023 -0.3935  0.7899 -0.7622
 8487SOL    HW136923   0.007   1.530   3.026 -1.6924  0.3959 -0.3697
 8487SOL    HW236924   4.680   1.408   2.975 -1.2797 -0.4153  1.4411
 8488SOL     OW36925   4.191   0.234   6.528 -0.0462 -0.5904  0.0278
 8488SOL    HW136926   4.186   0.174   6.454  2.0659 -1.5217  0.6220
 8488SOL    HW236927   4.127   0.301   6.505 -0.9647 -0.1517  3.7761
 8489SOL     OW36928   2.278   2.656   6.894  0.3518 -0.5212  0.1505
 8489SOL    HW136929   2.291   2.564   6.913  0.2615 -0.6247 -0.2825
 8489SOL    HW236930   2.371   2.681   6.891  0.1265  0.6704  2.6779
 8490SOL     OW36931   1.434   4.532  11.979  0.0400  0.3597 -0.4364
 8490SOL    HW136932   1.439   4.519  12.074 -0.0529  0.7265 -0.3807
 8490SOL    HW236933   1.515   4.490  11.950 -0.6856 -1.3601  0.0507
 8491SOL     OW36934   1.959   0.141   2.913  0.0490 -0.1240 -0.0398
 8491SOL    HW136935   1.899   0.211   2.888  1.3279  0.9514 -0.1122
 8491SOL    HW236936   1.909   0.060   2.906  0.8480 -0.8271  2.2859
 8492SOL     OW36937   0.928   1.270   8.056 -0.3032 -0.0291 -0.2740
 8492SOL    HW136938   0.930   1.297   8.147 -1.2728 -1.1927  0.0931
 8492SOL    HW236939   0.867   1.197   8.066  1.0747 -1.3273 -1.4766
 8493SOL     OW36940   4.416   1.509  12.222  0.5378  0.6144 -0.3109
 8493SOL    HW136941   4.358   1.545  12.289 -0.2503 -1.1084 -0.0716
 8493SOL    HW236942   4.502   1.527  12.260  1.1100  1.5678 -2.0162
 8494SOL     OW36943   1.011   2.950   6.041 -0.3804 -0.2678  0.3761
 8494SOL    HW136944   1.097   2.946   5.998 -0.5896  0.2611 -0.0896
 8494SOL    HW236945   1.025   3.025   6.098  0.9977  0.1931 -0.5647
 8495SOL     OW36946   1.807   1.031   7.719  0.4442  0.1052 -0.1723
 8495SOL    HW136947   1.768   1.110   7.757 -0.8987 -1.1189  1.0143
 8495SOL    HW236948   1.722   0.995   7.694  0.6350 -0.5017  0.0710
 8496SOL     OW36949   2.422   2.135   3.093 -0.4251 -0.0311  0.1923
 8496SOL    HW136950   2.407   2.080   3.016  1.1115 -0.0877 -0.0717
 8496SOL    HW236951   2.366   2.086   3.153  0.3357  0.3948  1.2421
 8497SOL     OW36952   4.152   3.185   2.630 -0.4626  0.8707 -0.3284
 8497SOL    HW136953   4.183   3.249   2.694  2.0216 -1.7687  1.1272
 8497SOL    HW236954   4.057   3.196   2.632 -0.5744  0.1832 -2.0059
 8498SOL     OW36955   0.803   3.820   4.284  0.2211  0.3801  0.1897
 8498SOL    HW136956   0.853   3.861   4.213  0.6044 -0.5144 -0.0572
 8498SOL    HW236957   0.857   3.741   4.293 -0.5159 -0.1661 -0.1104
 8499SOL     OW36958   1.148   0.237  12.506  0.3069  0.4773 -0.1614
 8499SOL    HW136959   1.241   0.233  12.526  0.1827  0.4702  0.4167
 8499SOL    HW236960   1.102   0.182  12.569 -0.0461 -1.5902 -2.2015
 8500SOL     OW36961   2.138   3.641   1.073 -0.3443 -0.3900 -0.1262
 8500SOL    HW136962   2.147   3.604   0.986 -2.2681 -0.8738 -0.1095
 8500SOL    HW236963   2.131   3.735   1.058 -0.2727 -0.3341  0.1898
 8501SOL     OW36964   0.043   4.172   8.695 -0.8333 -0.2572  0.7206
 8501SOL    HW136965   0.099   4.224   8.752  0.6898 -1.1103 -0.0101
 8501SOL    HW236966   0.078   4.084   8.705  0.8481  0.4772  1.2829
 8502SOL     OW36967   0.023   1.705   3.291  0.2691 -0.0400 -0.4304
 8502SOL    HW136968   0.024   1.706   3.195 -1.9898  0.8784 -0.4661
 8502SOL    HW236969   4.652   1.715   3.309  0.5931 -2.8129  2.7984
 8503SOL     OW36970   4.038   1.237   1.397  0.2021 -0.2863  0.2529
 8503SOL    HW136971   4.000   1.152   1.420 -0.8561 -0.0296 -0.5552
 8503SOL    HW236972   4.127   1.220   1.427  1.0938  0.5524 -1.9607
 8504SOL     OW36973   0.970   2.618   6.505 -0.3543  0.0324 -0.6804
 8504SOL    HW136974   0.906   2.546   6.511 -1.7473  1.0970 -2.7134
 8504SOL    HW236975   1.019   2.609   6.586 -1.7032 -1.2354 -0.0033
 8505SOL     OW36976   4.310   0.745   9.689  0.0230  0.5674 -0.2020
 8505SOL    HW136977   4.324   0.673   9.627  3.9963 -1.0662  2.5398
 8505SOL    HW236978   4.239   0.793   9.647 -0.0436 -0.3877 -1.1951
 8506SOL     OW36979   0.661   0.567  10.513  0.3560  0.0115 -0.1998
 8506SOL    HW136980   0.567   0.563  10.532  0.3216 -0.9248 -0.5734
 8506SOL    HW236981   0.668   0.620  10.434  0.6541  0.7983  0.3443
 8507SOL     OW36982   2.823   4.243   2.227  0.5306  0.3025  0.2728
 8507SOL    HW136983   2.800   4.169   2.170 -0.8080 -0.2979  1.6060
 8507SOL    HW236984   2.834   4.309   2.158  2.3081  0.4511  0.6986
 8508SOL     OW36985   0.818   2.714   5.802  0.2596  0.6585  0.2347
 8508SOL    HW136986   0.788   2.631   5.764 -0.7638  1.7335 -1.3363
 8508SOL    HW236987   0.889   2.680   5.856 -0.0316 -0.1870  0.0800
 8509SOL     OW36988   1.129   1.940   3.603 -0.8488 -0.3600  0.1294
 8509SOL    HW136989   1.183   1.938   3.524 -0.6417  0.0814  0.2590
 8509SOL    HW236990   1.114   2.034   3.613 -0.3712 -0.3714  0.9452
 8510SOL     OW36991   0.734   0.018   5.475  0.3159 -0.1878 -0.0681
 8510SOL    HW136992   0.774   4.663   5.436  2.6505  0.9125  0.1031
 8510SOL    HW236993   0.725   0.082   5.404 -0.9300 -0.7626 -0.4287
 8511SOL     OW36994   3.698   2.460   4.541 -0.1270  0.8689 -0.0255
 8511SOL    HW136995   3.712   2.369   4.567  1.7518  1.2965  0.4418
 8511SOL    HW236996   3.646   2.448   4.461  1.5361 -0.5838 -0.8987
 8512SOL     OW36997   4.586   3.323   7.218  0.3788  1.0124 -0.6513
 8512SOL    HW136998   4.632   3.255   7.170  0.6961  1.2807 -0.7225
 8512SOL    HW236999   4.602   3.287   7.306  0.0389 -0.9734 -1.3977
 8513SOL     OW37000   3.089   2.321   0.983  0.2383 -0.2151  0.7938
 8513SOL    HW137001   3.013   2.371   0.956  1.0089  0.6092  0.1731
 8513SOL    HW237002   3.127   2.367   1.058  1.8304 -2.0845  1.1482
 8514SOL     OW37003   1.559   3.907   6.837  0.4974  0.1452 -0.5921
 8514SOL    HW137004   1.490   3.965   6.805  1.4020  1.1846 -0.6583
 8514SOL    HW237005   1.566   3.855   6.757 -0.2867 -1.6109  0.4750
 8515SOL     OW37006   2.268   2.188   6.276 -0.1828  0.0615 -0.7308
 8515SOL    HW137007   2.266   2.180   6.181  0.8994  0.3343 -0.7750
 8515SOL    HW237008   2.357   2.155   6.287 -0.4242  0.3807  2.4476
 8516SOL     OW37009   0.015   0.426  15.242 -0.3028 -0.5180 -0.3119
 8516SOL    HW137010   0.077   0.393  15.176  0.3430 -0.2252  0.1455
 8516SOL    HW237011   0.022   0.352  15.303 -0.0261 -1.1172 -1.0690
 8517SOL     OW37012   0.640   4.034   3.724  0.0353 -0.4124 -0.0504
 8517SOL    HW137013   0.634   4.018   3.818 -0.0860 -1.6036 -0.2628
 8517SOL    HW237014   0.620   4.126   3.705  0.0468 -0.1840  1.0539
 8518SOL     OW37015   4.588   3.525   9.115 -0.2013 -0.4437  0.7096
 8518SOL    HW137016   4.510   3.473   9.095 -0.1608 -0.0849 -0.3853
 8518SOL    HW237017   4.655   3.466   9.082  0.6111  0.1914  1.2450
 8519SOL     OW37018   3.314   2.238   8.802  0.5619 -0.5525 -0.1792
 8519SOL    HW137019   3.247   2.222   8.736  0.1964 -0.4447  0.1605
 8519SOL    HW237020   3.358   2.313   8.763  1.2237 -0.8955 -0.0853
 8520SOL     OW37021   0.632   4.569   8.239  0.2904  0.5024 -0.8812
 8520SOL    HW137022   0.551   4.618   8.254 -0.8169 -1.6506  0.1714
 8520SOL    HW237023   0.599   4.496   8.185  1.8126  0.7457 -2.1402
 8521SOL     OW37024   3.996   2.822  10.108  0.3178 -0.2363  0.2864
 8521SOL    HW137025   4.059   2.870  10.054  2.0635 -0.0894  2.4023
 8521SOL    HW237026   3.916   2.864  10.076  0.4324 -0.3726 -0.1650
 8522SOL     OW37027   4.699   2.062   4.644 -0.0348 -0.2289 -0.5544
 8522SOL    HW137028   4.648   1.994   4.687 -1.2607 -0.0309 -1.6987
 8522SOL    HW237029   0.057   2.057   4.696 -0.5150  1.0162  0.2987
 8523SOL     OW37030   3.211   1.584  11.764 -0.5060 -0.4425  0.3014
 8523SOL    HW137031   3.139   1.639  11.793 -0.8576 -2.2540  2.8846
 8523SOL    HW237032   3.228   1.625  11.679  0.2286 -0.6171  0.3634
 8524SOL     OW37033   1.701   3.350  13.170 -0.8059 -0.1898  0.5529
 8524SOL    HW137034   1.764   3.282  13.149 -0.2421  0.6197 -0.3707
 8524SOL    HW237035   1.761   3.421  13.190  1.5682 -1.1879 -3.0323
 8525SOL     OW37036   3.732   0.940   5.142 -0.0157 -0.2224  0.4647
 8525SOL    HW137037   3.776   1.020   5.114  0.5562 -0.3081  1.1122
 8525SOL    HW237038   3.689   0.968   5.223  2.6241 -1.3442  2.2354
 8526SOL     OW37039   0.149   1.952   6.446  0.2407 -0.4958 -0.1144
 8526SOL    HW137040   0.060   1.980   6.424  0.1227 -0.7486  0.0444
 8526SOL    HW237041   0.131   1.924   6.536 -1.4681 -2.7472 -1.1888
 8527SOL     OW37042   0.157   3.250   4.322 -0.3386  0.1824 -0.1234
 8527SOL    HW137043   0.137   3.167   4.365 -0.5361 -0.6071 -1.7364
 8527SOL    HW237044   0.253   3.244   4.318 -0.1780  3.8455 -1.8041
 8528SOL     OW37045   3.611   4.570   0.823 -0.3103  0.5876  0.3347
 8528SOL    HW137046   3.569   4.487   0.848  0.2763  0.5241  1.1158
 8528SOL    HW237047   3.534   4.605   0.778  1.2234  1.8180 -1.3423
 8529SOL     OW37048   3.169   3.691   5.354 -0.0910 -0.1232 -0.6716
 8529SOL    HW137049   3.240   3.642   5.313  1.1187  0.5843  0.6001
 8529SOL    HW237050   3.171   3.762   5.289  0.4724 -0.0487 -0.5709
 8530SOL     OW37051   1.455   1.715   2.519 -0.1047  0.3271 -0.3018
 8530SOL    HW137052   1.448   1.771   2.441 -1.9481  1.4403  0.6510
 8530SOL    HW237053   1.364   1.686   2.524  0.3351 -1.1714 -1.1168
 8531SOL     OW37054   4.054   3.781   6.728  0.3418 -0.3925 -0.2482
 8531SOL    HW137055   4.147   3.794   6.745 -0.0500 -0.9601  2.2892
 8531SOL    HW237056   4.036   3.715   6.795 -1.3686 -0.4738 -0.7861
 8532SOL     OW37057   3.004   0.482   5.214  0.5023 -0.1630  0.1358
 8532SOL    HW137058   2.939   0.474   5.284 -0.2075  1.4706 -0.3397
 8532SOL    HW237059   2.986   0.567   5.174 -2.2839  0.0511  1.8223
 8533SOL     OW37060   4.363   0.721   1.237 -1.0126 -0.3459  0.1885
 8533SOL    HW137061   4.283   0.764   1.265 -0.5282  1.5384 -1.3698
 8533SOL    HW237062   4.414   0.716   1.318  1.1463  1.4932 -1.0758
 8534SOL     OW37063   1.650   2.050   8.578 -0.0020 -0.3100  0.3404
 8534SOL    HW137064   1.638   2.046   8.672 -0.7404  3.1298  0.4008
 8534SOL    HW237065   1.608   2.133   8.558 -0.6092 -1.2063 -2.1155
 8535SOL     OW37066   2.667   0.785   6.314  0.2855 -0.1003 -0.5250
 8535SOL    HW137067   2.600   0.754   6.375  1.8433 -0.2923  1.0648
 8535SOL    HW237068   2.623   0.770   6.230 -0.5527  0.3181 -0.1627
 8536SOL     OW37069   2.434   1.781   2.014 -0.0971 -0.2257  0.2715
 8536SOL    HW137070   2.339   1.767   2.005  0.1435 -2.2343  1.0018
 8536SOL    HW237071   2.436   1.877   2.024 -1.7171  0.0499 -1.9535
 8537SOL     OW37072   2.088   1.796   3.503  0.4702  0.1809 -0.2945
 8537SOL    HW137073   2.155   1.774   3.438 -0.7032 -0.9674 -1.1169
 8537SOL    HW237074   2.123   1.767   3.587 -0.7733 -0.9204 -0.1551
 8538SOL     OW37075   0.032   2.297   1.562 -0.5071  0.1691 -0.1336
 8538SOL    HW137076   4.701   2.376   1.557 -0.4384  0.1209 -1.7129
 8538SOL    HW237077   4.706   2.233   1.511 -2.2962  0.1989  1.5525
 8539SOL     OW37078   0.488   2.599   5.385 -0.4738 -0.2633  0.5442
 8539SOL    HW137079   0.453   2.591   5.473 -0.1764  2.9862  0.9758
 8539SOL    HW237080   0.532   2.684   5.395 -0.5105 -0.1461 -0.2922
 8540SOL     OW37081   3.140   1.136   2.873 -0.4201 -0.8389  0.1271
 8540SOL    HW137082   3.092   1.147   2.955 -0.1543 -0.7219  0.2675
 8540SOL    HW237083   3.082   1.088   2.814  0.1195 -0.9731 -0.2894
 8541SOL     OW37084   4.676   1.478   8.840 -0.3433  0.3068  0.4300
 8541SOL    HW137085   4.600   1.453   8.893  0.4687 -0.7854  1.0589
 8541SOL    HW237086   4.722   1.529   8.906 -0.9897  1.4274  0.0178
 8542SOL     OW37087   0.364   4.400   6.875  0.0073  0.3855 -0.5940
 8542SOL    HW137088   0.322   4.355   6.801 -1.3347  0.4477  0.1304
 8542SOL    HW237089   0.280   4.415   6.919  0.3142  2.7241 -0.8451
 8543SOL     OW37090   3.718   3.997   6.567 -0.1030 -0.2281  0.3836
 8543SOL    HW137091   3.691   3.974   6.478 -0.9948 -0.1699  0.6397
 8543SOL    HW237092   3.801   4.042   6.550  0.2519 -0.5502  1.2697
 8544SOL     OW37093   2.059   1.322   3.675  0.0516  0.3357 -0.2265
 8544SOL    HW137094   2.039   1.407   3.635  0.2238  0.4021 -0.1695
 8544SOL    HW237095   2.002   1.272   3.618 -0.5797 -0.5298  1.1568
 8545SOL     OW37096   0.577   3.746   4.892 -0.0082  0.0913 -0.0331
 8545SOL    HW137097   0.555   3.764   4.984  1.1982  1.8858 -0.0990
 8545SOL    HW237098   0.496   3.768   4.845  0.9855  0.1303 -1.7233
 8546SOL     OW37099   2.945   2.385   2.733  0.7775  0.2090  0.1550
 8546SOL    HW137100   2.862   2.422   2.704  0.4294 -1.0489 -0.4803
 8546SOL    HW237101   2.916   2.362   2.821  0.0568 -0.2772 -0.2075
 8547SOL     OW37102   2.642   2.664   8.497 -0.4058 -0.1964 -0.2335
 8547SOL    HW137103   2.605   2.606   8.563 -0.2410  0.4563  0.4367
 8547SOL    HW237104   2.718   2.611   8.473 -0.4207  0.2746 -1.3414
 8548SOL     OW37105   2.189   4.406  17.203  0.7264 -0.2916 -0.3652
 8548SOL    HW137106   2.272   4.442  17.171  0.9633  0.8628  1.5546
 8548SOL    HW237107   2.177   4.455  17.284 -1.8066 -0.1385 -0.8417
 8549SOL     OW37108   3.894   1.142   4.573 -0.2308  0.7386  0.6053
 8549SOL    HW137109   3.842   1.123   4.495  0.5864  1.0407 -0.0247
 8549SOL    HW237110   3.964   1.192   4.531 -0.5143  0.9097  0.3363
 8550SOL     OW37111   2.820   3.996   7.663 -0.0016 -0.5587  0.1735
 8550SOL    HW137112   2.901   4.047   7.661 -1.0580  1.0994 -0.3319
 8550SOL    HW237113   2.839   3.918   7.716  1.8705  0.4615  0.9863
 8551SOL     OW37114   1.059   1.426   5.269 -0.4766 -0.0383 -0.3636
 8551SOL    HW137115   1.125   1.456   5.206  0.2456  1.0651  0.9196
 8551SOL    HW237116   1.119   1.373   5.323 -2.7723  0.6841  2.8644
 8552SOL     OW37117   1.988   2.160   4.921  0.0021 -0.0933  0.7757
 8552SOL    HW137118   2.003   2.211   4.842 -0.3263 -2.0957 -0.5709
 8552SOL    HW237119   2.063   2.197   4.968  1.3769 -0.6882 -0.9529
 8553SOL     OW37120   3.182   3.287   5.428 -0.0681 -0.1264  0.2466
 8553SOL    HW137121   3.194   3.192   5.441 -0.5379 -0.3077 -0.6537
 8553SOL    HW237122   3.089   3.302   5.442  0.3435  1.7598  0.9410
 8554SOL     OW37123   0.176   0.701   8.442  0.1211 -0.2105 -0.3267
 8554SOL    HW137124   0.233   0.646   8.496 -0.1975  1.4249  1.6480
 8554SOL    HW237125   0.238   0.773   8.439 -1.9163  1.5674  0.9446
 8555SOL     OW37126   2.588   4.269  16.139  0.5755  0.6831 -0.5493
 8555SOL    HW137127   2.533   4.313  16.203 -0.7870 -2.0635  0.1678
 8555SOL    HW237128   2.624   4.351  16.105 -0.0378  1.2587  0.1801
 8556SOL     OW37129   2.472   0.081   5.269  0.1097 -0.3729  0.6222
 8556SOL    HW137130   2.527   0.004   5.283  0.2747 -0.4437 -0.4362
 8556SOL    HW237131   2.493   0.129   5.350 -1.3756 -1.2559  1.5272
 8557SOL     OW37132   3.700   2.740   6.952 -0.3377 -0.2776 -0.0381
 8557SOL    HW137133   3.759   2.769   6.883 -0.2995  2.6967  1.2550
 8557SOL    HW237134   3.712   2.645   6.948  3.2315  0.1403  0.7967
 8558SOL     OW37135   4.272   0.493  10.276 -0.2405  0.1204  0.7476
 8558SOL    HW137136   4.227   0.409  10.283 -0.9702  0.4939  0.5724
 8558SOL    HW237137   4.361   0.460  10.288 -0.2271 -0.2868 -0.5120
 8559SOL     OW37138   4.698   4.216  14.450  0.1798 -0.4745  0.0383
 8559SOL    HW137139   4.629   4.255  14.397 -0.2209  0.6266  1.3665
 8559SOL    HW237140   0.031   4.190  14.377 -0.2188  0.9611 -0.7792
 8560SOL     OW37141   0.228   0.698   6.540  0.1417  0.1585 -0.2014
 8560SOL    HW137142   0.187   0.613   6.554 -1.8852  1.1496 -0.1848
 8560SOL    HW237143   0.199   0.709   6.450 -1.3348  0.2925  0.2982
 8561SOL     OW37144   3.385   2.087   5.801 -0.0737  0.1802  0.1155
 8561SOL    HW137145   3.466   2.044   5.772 -0.0298 -0.3636  1.0425
 8561SOL    HW237146   3.400   2.179   5.779  1.6101  0.0201  0.5398
 8562SOL     OW37147   1.272   4.645   2.167 -0.5823  0.9061 -0.2435
 8562SOL    HW137148   1.253   4.563   2.122  3.0734  1.0371 -2.1060
 8562SOL    HW237149   1.357   4.667   2.127  0.1882  0.3800  1.0984
 8563SOL     OW37150   0.663   0.243   5.959  0.0019  0.5902 -0.3521
 8563SOL    HW137151   0.694   0.275   5.874  1.4296  0.3172  0.0644
 8563SOL    HW237152   0.688   0.151   5.949 -1.2754 -0.0594  2.3871
 8564SOL     OW37153   1.904   0.557   4.358  0.2074  0.4108 -0.0576
 8564SOL    HW137154   1.968   0.485   4.360 -0.2168  0.0626  1.0809
 8564SOL    HW237155   1.934   0.606   4.281  0.4473  1.6078  0.7929
 8565SOL     OW37156   4.048   2.168   1.608  0.0375  0.6713  0.0678
 8565SOL    HW137157   3.958   2.184   1.636 -0.2346  0.5747 -0.7457
 8565SOL    HW237158   4.023   2.123   1.527 -3.2943  0.8361  0.9911
 8566SOL     OW37159   4.178   2.318  10.685 -0.1966  0.5674  0.4862
 8566SOL    HW137160   4.200   2.319  10.778  0.1632  0.1635  0.4037
 8566SOL    HW237161   4.093   2.361  10.681 -1.1053 -1.1690  1.6947
 8567SOL     OW37162   4.130   2.156   1.866 -0.7524 -0.1815 -0.1310
 8567SOL    HW137163   4.210   2.205   1.886 -1.1154  0.4928 -0.3136
 8567SOL    HW237164   4.116   2.170   1.773  0.9705  0.3302 -0.3045
 8568SOL     OW37165   2.550   4.013   3.939  0.5965 -0.2502  0.1575
 8568SOL    HW137166   2.456   4.004   3.929  0.9390 -1.9134 -1.5202
 8568SOL    HW237167   2.542   4.070   4.016  1.2635  0.8432 -0.5821
 8569SOL     OW37168   0.618   1.204  17.470  0.2360 -0.2465 -0.0167
 8569SOL    HW137169   0.614   1.262  17.547 -1.5604 -1.9668  1.1708
 8569SOL    HW237170   0.547   1.242  17.419 -0.2243 -0.1163  0.7165
 8570SOL     OW37171   3.811   2.534   4.776  0.2074  0.0825  0.1110
 8570SOL    HW137172   3.777   2.511   4.690  1.2963  0.4539 -0.4273
 8570SOL    HW237173   3.743   2.496   4.832  1.0240 -0.9288  0.4106
 8571SOL     OW37174   2.168   0.866  14.045 -0.3293  0.5381  0.5434
 8571SOL    HW137175   2.141   0.796  14.104  1.3455  1.5410  2.5134
 8571SOL    HW237176   2.095   0.928  14.046  0.5313  1.5653  0.2131
 8572SOL     OW37177   1.203   2.596  13.006 -0.3912  0.0754 -0.0438
 8572SOL    HW137178   1.233   2.599  13.097 -0.3864  1.2824 -0.0845
 8572SOL    HW237179   1.164   2.509  12.999  0.2983 -0.3173  1.0822
 8573SOL     OW37180   0.704   1.448  17.630 -0.2236 -0.7768 -0.5384
 8573SOL    HW137181   0.774   1.439  17.565  0.1397  0.8992 -0.3826
 8573SOL    HW237182   0.752   1.511  17.684 -0.7066  1.2491 -2.4777
 8574SOL     OW37183   0.177   1.351  13.838  0.5785 -0.0048 -0.4028
 8574SOL    HW137184   0.097   1.399  13.817 -0.1307 -0.9304  0.1802
 8574SOL    HW237185   0.200   1.319  13.751  0.7614  1.2495 -0.8091
 8575SOL     OW37186   1.912   3.033  12.704  0.3593  0.3736 -0.3246
 8575SOL    HW137187   1.908   2.975  12.628  1.9299  1.5274 -1.2926
 8575SOL    HW237188   1.895   3.114  12.655 -2.4181  0.0195  0.1041
 8576SOL     OW37189   2.073   4.698   5.716 -0.4759 -0.2949  0.7263
 8576SOL    HW137190   2.142   0.001   5.655 -1.6287  0.7418 -0.1457
 8576SOL    HW237191   2.054   4.605   5.704 -0.4307 -0.2049 -0.0474
 8577SOL     OW37192   0.307   3.322   7.436 -0.1185  0.1106  0.1738
 8577SOL    HW137193   0.219   3.360   7.440 -0.1536 -0.1386  1.9131
 8577SOL    HW237194   0.311   3.284   7.349  0.5125 -0.1757  0.3325
 8578SOL     OW37195   1.454   4.427   5.775  0.0999 -0.6544  0.6762
 8578SOL    HW137196   1.493   4.397   5.693  1.8325 -0.1602  1.3206
 8578SOL    HW237197   1.468   4.351   5.832 -2.3010 -2.5318 -1.2397
 8579SOL     OW37198   2.194   2.101   9.171  0.2426 -0.0235 -0.1948
 8579SOL    HW137199   2.249   2.043   9.120  1.2605  1.6553 -1.0196
 8579SOL    HW237200   2.265   2.144   9.219 -1.4097  0.3569  1.8939
 8580SOL     OW37201   3.313   1.954   7.097 -0.2037 -0.1378  0.3583
 8580SOL    HW137202   3.347   2.007   7.169 -2.1272  0.1551  1.0692
 8580SOL    HW237203   3.376   1.982   7.030 -2.0072 -0.1335 -1.3605
 8581SOL     OW37204   3.249   3.007   5.452 -0.1044 -0.1571 -0.0503
 8581SOL    HW137205   3.338   2.984   5.425 -0.3308 -0.6921 -0.3507
 8581SOL    HW237206   3.261   2.994   5.546  0.4039 -0.2284 -0.1270
 8582SOL     OW37207   2.037   1.292   6.743  0.1446  0.1903  0.0381
 8582SOL    HW137208   2.127   1.274   6.715 -0.1724  0.3062 -1.0490
 8582SOL    HW237209   2.023   1.387   6.735  1.1889  0.2760 -0.7742
 8583SOL     OW37210   1.643   4.153   8.064  0.5244 -0.3163 -0.5146
 8583SOL    HW137211   1.635   4.244   8.092  0.3352 -0.0246 -1.5145
 8583SOL    HW237212   1.669   4.111   8.146 -4.4815  1.1503  1.7969
 8584SOL     OW37213   3.376   0.073   8.881  0.4271  0.2695  0.1962
 8584SOL    HW137214   3.450   0.021   8.849 -0.2495 -1.1436  0.9054
 8584SOL    HW237215   3.302   0.013   8.872  0.6350  0.1573 -0.7593
 8585SOL     OW37216   1.776   0.579   2.693  0.4558  0.2459 -0.4298
 8585SOL    HW137217   1.828   0.637   2.638  0.9158  1.2479  1.0798
 8585SOL    HW237218   1.691   0.621   2.691 -0.2422 -1.0440  1.6172
 8586SOL     OW37219   3.378   2.455  11.841  0.6376 -0.5899 -0.7007
 8586SOL    HW137220   3.469   2.426  11.849  0.3541 -1.2801  0.0153
 8586SOL    HW237221   3.398   2.544  11.812  0.7931 -1.1888 -2.4440
 8587SOL     OW37222   4.007   3.580   6.903  0.8609  0.2890 -0.1472
 8587SOL    HW137223   3.993   3.554   6.994  3.2434  4.7613  1.5033
 8587SOL    HW237224   3.919   3.576   6.865  1.1902  1.4206 -1.0346
 8588SOL     OW37225   1.889   3.095  14.152  0.4295 -0.1626 -0.4675
 8588SOL    HW137226   1.963   3.152  14.131  1.3846 -0.5542  1.8291
 8588SOL    HW237227   1.929   3.015  14.118 -0.3207 -1.4651  1.7208
 8589SOL     OW37228   3.218   4.271  13.073  0.3427  0.1998  0.1255
 8589SOL    HW137229   3.141   4.319  13.043 -0.8322 -1.8564 -0.1968
 8589SOL    HW237230   3.179   4.222  13.146  1.9875 -1.6011 -0.1836
 8590SOL     OW37231   4.641   3.896   2.333 -0.3281 -0.7230  0.0262
 8590SOL    HW137232   4.546   3.908   2.325 -0.1394  0.4939 -0.3014
 8590SOL    HW237233   4.667   3.987   2.345  0.6296 -0.9157 -0.6104
 8591SOL     OW37234   3.458   2.664   1.079 -0.9629 -0.1390 -0.2798
 8591SOL    HW137235   3.389   2.729   1.086  1.2243  1.9816  1.3895
 8591SOL    HW237236   3.508   2.708   1.010 -0.0962  1.1564  1.1756
 8592SOL     OW37237   0.381   0.168  11.582 -0.1326  0.7216  0.0860
 8592SOL    HW137238   0.343   0.091  11.626 -0.3855  2.6277  3.1682
 8592SOL    HW237239   0.335   0.238  11.629  0.0675  0.8560  0.0798
 8593SOL     OW37240   3.498   0.621  16.060 -0.0251  0.0164  0.4002
 8593SOL    HW137241   3.468   0.619  16.151 -0.2942 -1.5484  0.2885
 8593SOL    HW237242   3.547   0.702  16.063 -0.2888  0.1937 -0.0346
 8594SOL     OW37243   4.364   1.931   6.531 -0.0683 -0.6899 -0.0782
 8594SOL    HW137244   4.272   1.941   6.555 -0.2178 -1.6791 -0.2217
 8594SOL    HW237245   4.370   1.836   6.525 -1.2557 -0.7480 -0.3335
 8595SOL     OW37246   2.442   4.580  17.187  0.4293  0.2431 -0.4127
 8595SOL    HW137247   2.502   4.530  17.131  1.9416  0.9669  0.5825
 8595SOL    HW237248   2.469   4.664  17.151 -0.2858  0.6798  0.0882
 8596SOL     OW37249   2.401   4.302   2.349 -0.1295  0.4876 -0.0227
 8596SOL    HW137250   2.412   4.361   2.274  0.3819  0.1131 -0.2362
 8596SOL    HW237251   2.308   4.281   2.336  0.1934 -0.8358 -0.1807
 8597SOL     OW37252   2.583   4.091   7.728 -0.0740  0.4255 -0.3236
 8597SOL    HW137253   2.567   4.184   7.746 -1.0139  0.2842 -0.4717
 8597SOL    HW237254   2.673   4.092   7.696 -0.0978  2.0930 -0.3478
 8598SOL     OW37255   2.885   0.044   7.204 -0.1365 -0.0784  0.1647
 8598SOL    HW137256   2.893   4.698   7.138 -1.3958 -0.7664  0.7202
 8598SOL    HW237257   2.912   4.715   7.280  1.4089  0.4632 -0.0288
 8599SOL     OW37258   2.644   2.156   3.471 -0.2186  0.3404  0.2073
 8599SOL    HW137259   2.713   2.222   3.473  0.4844 -0.3916  0.0570
 8599SOL    HW237260   2.577   2.181   3.534  1.3582  0.1920  1.9341
 8600SOL     OW37261   0.385   1.249   2.740  0.2448 -0.0975  0.4834
 8600SOL    HW137262   0.428   1.177   2.787  0.2803 -0.0694  0.4944
 8600SOL    HW237263   0.421   1.247   2.651  0.0991  1.1153  0.3945
 8601SOL     OW37264   4.612   1.649   1.632 -0.2493 -0.0502 -0.1104
 8601SOL    HW137265   4.519   1.671   1.627 -0.1621  0.4131  0.2990
 8601SOL    HW237266   4.663   1.727   1.609 -0.4781  0.1120 -0.0730
 8602SOL     OW37267   3.341   2.777  12.953  0.7834  0.3280  0.2121
 8602SOL    HW137268   3.382   2.856  12.986  0.2663  1.0134 -0.7822
 8602SOL    HW237269   3.344   2.722  13.031 -0.0963 -1.0431 -0.7149
 8603SOL     OW37270   3.750   2.101  10.764 -0.1680  0.5060  0.1367
 8603SOL    HW137271   3.704   2.018  10.759  0.7645  0.0768 -1.6217
 8603SOL    HW237272   3.839   2.083  10.731  0.3824 -2.6191  3.3564
 8604SOL     OW37273   3.774   2.087  11.943 -0.0425 -0.2095  0.4929
 8604SOL    HW137274   3.788   2.149  11.871  1.3734  3.0277  3.5572
 8604SOL    HW237275   3.695   2.045  11.910 -1.0624  2.2742 -0.2720
 8605SOL     OW37276   3.149   1.434   4.179 -0.5001  0.0097  0.2120
 8605SOL    HW137277   3.192   1.519   4.183 -0.9600  0.2681 -0.2451
 8605SOL    HW237278   3.056   1.458   4.170 -0.9781 -1.4829  1.2285
 8606SOL     OW37279   2.274   1.320   4.074  0.3687 -0.2120  0.1414
 8606SOL    HW137280   2.198   1.364   4.111  0.3731 -0.4026  0.3777
 8606SOL    HW237281   2.232   1.271   4.003  0.8574 -0.9983  0.3957
 8607SOL     OW37282   0.528   1.918  17.238  0.6893 -0.2489  0.0416
 8607SOL    HW137283   0.481   1.852  17.187 -2.1254  0.6305  1.5223
 8607SOL    HW237284   0.578   1.867  17.301  1.5292 -0.3670 -0.7264
 8608SOL     OW37285   1.204   1.798   2.063  0.6273  0.4819  0.0110
 8608SOL    HW137286   1.261   1.787   1.987 -2.1139  1.1127 -2.1088
 8608SOL    HW237287   1.230   1.722   2.116 -0.6018  0.4878  0.6149
 8609SOL     OW37288   4.150   1.021  10.618 -0.3028 -0.9890 -0.0578
 8609SOL    HW137289   4.188   1.020  10.530 -0.0412 -0.6487  0.0518
 8609SOL    HW237290   4.056   1.021  10.600 -0.5543  0.1488  1.3533
 8610SOL     OW37291   3.482   3.319   1.032 -0.0369 -0.4655 -0.1177
 8610SOL    HW137292   3.452   3.291   1.118  0.2761  0.3034  0.2413
 8610SOL    HW237293   3.575   3.338   1.044  0.3473 -2.9548  0.8390
 8611SOL     OW37294   4.577   1.052  11.890  0.3650  0.7856  0.3328
 8611SOL    HW137295   4.623   1.094  11.817 -2.8929  0.5861 -1.8665
 8611SOL    HW237296   4.577   1.126  11.950 -2.8208 -0.1940  1.5223
 8612SOL     OW37297   3.909   3.018   4.859  0.2254 -0.1107  0.2834
 8612SOL    HW137298   3.929   2.942   4.912 -0.5228  0.3821  1.2589
 8612SOL    HW237299   3.891   2.981   4.772 -1.8093 -1.1141  1.1452
 8613SOL     OW37300   3.706   3.852   6.282 -0.1928 -0.6598 -0.5514
 8613SOL    HW137301   3.786   3.834   6.331 -0.6586  0.4665  0.6293
 8613SOL    HW237302   3.743   3.919   6.225 -0.3133  0.0710  0.2324
 8614SOL     OW37303   2.778   3.218  11.916 -0.1306 -0.2298  0.1673
 8614SOL    HW137304   2.754   3.209  12.009 -0.1253  0.3249  0.2236
 8614SOL    HW237305   2.837   3.144  11.906  1.5930  1.0545  0.8747
 8615SOL     OW37306   1.080   2.608   9.403 -0.5898 -0.3267 -0.2055
 8615SOL    HW137307   1.015   2.678   9.396  0.5297  0.7467  0.2594
 8615SOL    HW237308   1.142   2.642   9.467  2.5652 -3.3977 -1.6425
 8616SOL     OW37309   2.799   2.679  12.414 -0.2354  0.4791  0.0119
 8616SOL    HW137310   2.869   2.716  12.468  1.1563  1.0404 -2.1815
 8616SOL    HW237311   2.782   2.757  12.361  0.9528 -0.3485 -1.5578
 8617SOL     OW37312   4.321   0.554   3.750 -0.2987 -0.1678 -0.4035
 8617SOL    HW137313   4.368   0.561   3.833 -0.3767 -0.3066 -0.3487
 8617SOL    HW237314   4.262   0.628   3.759  1.8596  1.7926 -2.2368
 8618SOL     OW37315   4.551   0.097   4.587  0.5359 -0.1106  0.0501
 8618SOL    HW137316   4.612   0.094   4.513 -1.1242  0.7641 -1.3456
 8618SOL    HW237317   4.604   0.144   4.652  0.6686  0.9401 -0.8180
 8619SOL     OW37318   4.430   0.094   3.183  0.6007 -0.0420  0.9347
 8619SOL    HW137319   4.431   0.185   3.213 -1.5851  0.6118 -0.9257
 8619SOL    HW237320   4.338   0.076   3.203  1.0224 -2.4244  0.7296
 8620SOL     OW37321   1.402   3.012   8.349 -0.1879  0.1870 -0.4750
 8620SOL    HW137322   1.470   2.946   8.335  0.5518  0.5934  1.1686
 8620SOL    HW237323   1.395   3.002   8.444 -2.6393 -3.8825 -1.0862
 8621SOL     OW37324   3.820   4.154   3.292  0.4448  0.4141 -0.0698
 8621SOL    HW137325   3.832   4.061   3.275 -0.6560 -0.1598  2.3632
 8621SOL    HW237326   3.725   4.156   3.278  0.4208 -0.1527  0.0532
 8622SOL     OW37327   0.131   3.670   7.929  0.3069  0.2409  0.7232
 8622SOL    HW137328   0.158   3.669   7.837  1.3277 -0.8371  1.0313
 8622SOL    HW237329   0.136   3.766   7.935  0.3050  0.4633 -2.8502
 8623SOL     OW37330   0.949   4.127   5.358 -0.1763  0.0250  0.0803
 8623SOL    HW137331   0.980   4.049   5.312 -0.8711  0.5756 -1.2971
 8623SOL    HW237332   0.882   4.095   5.418  0.3773 -1.8340 -0.3060
 8624SOL     OW37333   1.466   0.564   5.496  0.2086 -0.0983 -0.2158
 8624SOL    HW137334   1.423   0.636   5.449  0.8637  1.4262  1.5340
 8624SOL    HW237335   1.468   0.498   5.427  1.8344 -0.4529  0.1787
 8625SOL     OW37336   1.809   0.337  12.332  0.4028  0.0257 -0.1704
 8625SOL    HW137337   1.899   0.362  12.352  0.9074 -1.1457 -1.0398
 8625SOL    HW237338   1.784   0.281  12.405 -0.5645  0.8469  0.1382
 8626SOL     OW37339   0.174   2.359  11.521  0.7761  0.1016 -0.0665
 8626SOL    HW137340   0.151   2.441  11.565 -0.9503  0.3401 -1.4050
 8626SOL    HW237341   0.167   2.294  11.591 -0.7350 -0.0250 -0.3258
 8627SOL     OW37342   1.969   1.289   8.825 -0.2048  0.2992 -0.3194
 8627SOL    HW137343   2.008   1.327   8.746 -0.8892 -0.2999 -0.9402
 8627SOL    HW237344   1.984   1.358   8.891 -1.2181 -2.3090  2.6132
 8628SOL     OW37345   3.091   4.232   8.109 -0.1213  0.5374  0.2158
 8628SOL    HW137346   3.007   4.209   8.069 -0.0228 -2.3922  1.7267
 8628SOL    HW237347   3.070   4.258   8.199  2.2049  0.2676  0.8367
 8629SOL     OW37348   0.749   1.979  17.090  0.0854 -0.4788  0.0736
 8629SOL    HW137349   0.723   2.067  17.065 -0.8513 -0.9570 -0.6761
 8629SOL    HW237350   0.673   1.953  17.142 -1.7500  0.3004 -2.1844
 8630SOL     OW37351   4.493   0.843  17.035 -0.2969  0.0129  0.1274
 8630SOL    HW137352   4.563   0.811  17.092 -0.2517  0.3404  0.2546
 8630SOL    HW237353   4.540   0.857  16.952 -1.2227  0.0181 -0.3927
 8631SOL     OW37354   2.981   1.410   0.344  0.0623  0.6489  0.4476
 8631SOL    HW137355   2.997   1.319   0.318 -1.2355  0.1129  1.5932
 8631SOL    HW237356   3.020   1.467   0.278  1.0196 -1.1492 -0.5580
 8632SOL     OW37357   1.154   4.689   9.220 -0.0455  0.3480 -0.2778
 8632SOL    HW137358   1.127   4.691   9.129  2.9565  0.5200 -1.1678
 8632SOL    HW237359   1.104   4.615   9.255  1.0420 -0.0703  0.3873
 8633SOL     OW37360   2.226   0.781   2.502  0.0962 -0.0355 -0.0749
 8633SOL    HW137361   2.313   0.751   2.527  0.3388  1.9727  1.4303
 8633SOL    HW237362   2.246   0.867   2.464 -1.7513  0.3331 -0.2025
 8634SOL     OW37363   3.493   3.869   5.966  0.4296 -0.1736  0.1070
 8634SOL    HW137364   3.500   3.965   5.972  1.8577 -0.3629  1.4898
 8634SOL    HW237365   3.586   3.860   5.947  0.3771  0.7869 -0.6330
 8635SOL     OW37366   4.612   2.018   6.432 -0.3489 -0.1993 -0.0566
 8635SOL    HW137367   4.532   2.006   6.482 -0.8009 -0.6223 -0.8926
 8635SOL    HW237368   4.562   2.013   6.351  0.6233 -0.2282 -0.6590
 8636SOL     OW37369   4.338   1.004   0.166 -0.3134  0.2508  0.5535
 8636SOL    HW137370   4.290   1.070   0.217 -0.0596 -0.0406  1.1690
 8636SOL    HW237371   4.327   1.039   0.077  0.3533 -0.0713  0.3512
 8637SOL     OW37372   2.719   2.413  10.088 -0.1110 -0.3751 -0.2515
 8637SOL    HW137373   2.764   2.328  10.090 -1.1044 -0.9036 -0.6577
 8637SOL    HW237374   2.687   2.421  10.178  0.3093 -1.1757 -0.0295
 8638SOL     OW37375   0.459   1.905   0.146  0.0429  0.2040  0.0829
 8638SOL    HW137376   0.497   1.875   0.064 -0.5090  1.2056 -0.5462
 8638SOL    HW237377   0.469   2.000   0.141  1.5121 -0.0507 -1.9888
 8639SOL     OW37378   3.651   1.395  13.061  0.0915  0.3035  0.4789
 8639SOL    HW137379   3.556   1.404  13.054  0.4250  1.1067 -3.3462
 8639SOL    HW237380   3.669   1.313  13.106 -1.3197 -0.5903 -0.6070
 8640SOL     OW37381   2.913   3.381   0.803  0.4006 -0.6065 -0.3487
 8640SOL    HW137382   2.852   3.312   0.774  1.4365 -1.3742 -0.7078
 8640SOL    HW237383   2.854   3.456   0.801  1.6197  0.3738  0.4770
 8641SOL     OW37384   2.899   2.640   6.279  0.0808  0.2587 -0.3110
 8641SOL    HW137385   2.952   2.605   6.207  0.8258  0.3017  0.2229
 8641SOL    HW237386   2.823   2.662   6.226 -0.6698  0.9666  1.0655
 8642SOL     OW37387   4.230   2.467   7.760  0.1195 -0.3018 -0.3238
 8642SOL    HW137388   4.279   2.469   7.678  1.1127  2.7746  0.3440
 8642SOL    HW237389   4.199   2.378   7.749 -1.5755  0.2404  0.0114
 8643SOL     OW37390   1.988   3.693  15.805 -0.2780 -0.1270 -0.0620
 8643SOL    HW137391   1.978   3.613  15.754  0.0183 -1.1378  1.4380
 8643SOL    HW237392   2.038   3.672  15.884 -0.3666  1.7466  0.4784
 8644SOL     OW37393   4.022   4.700   1.838 -0.1413  0.1657  0.0955
 8644SOL    HW137394   3.983   0.062   1.860  0.7225  0.3349  0.9484
 8644SOL    HW237395   4.090   4.681   1.903 -0.1521 -4.2824 -1.1801
 8645SOL     OW37396   0.741   2.159  10.074  0.1856  0.4667  0.1547
 8645SOL    HW137397   0.756   2.247  10.107  0.5772 -0.4430  2.3921
 8645SOL    HW237398   0.809   2.106  10.115  0.6192  1.0362  0.1553
 8646SOL     OW37399   0.143   0.654  11.085  0.2852 -0.5575  0.2045
 8646SOL    HW137400   0.103   0.736  11.115 -0.5159 -1.1303  0.7260
 8646SOL    HW237401   0.072   0.590  11.081  0.1863 -0.3340 -1.4017
 8647SOL     OW37402   2.506   4.347   4.044  0.4641  0.1687 -0.2442
 8647SOL    HW137403   2.524   4.272   4.101 -0.0352 -0.0153 -0.3301
 8647SOL    HW237404   2.446   4.316   3.977 -0.6254 -1.2852  1.4040
 8648SOL     OW37405   3.753   3.967   3.676 -0.1567  0.5008 -0.4246
 8648SOL    HW137406   3.768   3.888   3.623  0.8431  1.2010 -1.1724
 8648SOL    HW237407   3.830   3.959   3.732 -0.2971 -0.2703 -0.3372
 8649SOL     OW37408   1.780   4.676   2.001  0.1133  0.0329 -0.4413
 8649SOL    HW137409   1.859   4.659   2.054 -0.6195 -0.9601  0.3411
 8649SOL    HW237410   1.805   0.028   1.948 -1.4973  0.1941 -0.9494
 8650SOL     OW37411   1.443   4.002  17.359  0.6831 -0.1363  0.2603
 8650SOL    HW137412   1.410   3.938  17.297 -0.2869 -0.6413  1.3122
 8650SOL    HW237413   1.465   3.944  17.431 -0.0016 -0.5037  0.1681
 8651SOL     OW37414   3.061   0.841   6.616 -0.3811  0.3158 -0.0201
 8651SOL    HW137415   3.031   0.762   6.661 -2.5115  3.0047  3.2993
 8651SOL    HW237416   3.015   0.841   6.532  1.6054 -1.4075 -1.0761
 8652SOL     OW37417   2.557   0.102   4.374  0.1422  0.0083 -0.1542
 8652SOL    HW137418   2.481   0.153   4.346 -0.2935  0.5916  2.0317
 8652SOL    HW237419   2.626   0.126   4.312  0.3256 -0.1170 -0.0000
 8653SOL     OW37420   4.476   1.878   4.733 -0.4038 -0.2359  0.0085
 8653SOL    HW137421   4.514   1.791   4.747 -1.4481 -0.8866 -1.2794
 8653SOL    HW237422   4.435   1.860   4.649  0.1782  0.9734 -0.5274
 8654SOL     OW37423   1.117   3.409  15.633 -0.0838  0.3635  0.3115
 8654SOL    HW137424   1.130   3.351  15.558  3.0388  1.6144 -0.0623
 8654SOL    HW237425   1.111   3.494  15.590  0.2854 -0.2070 -0.8742
 8655SOL     OW37426   2.599   4.353   5.548  0.2642 -0.3840  0.2219
 8655SOL    HW137427   2.525   4.412   5.560  0.5381 -0.2100  1.0223
 8655SOL    HW237428   2.578   4.280   5.607 -0.7032 -0.3417 -0.0629
 8656SOL     OW37429   0.861   2.665   3.149  0.1643 -0.1632 -0.2501
 8656SOL    HW137430   0.901   2.579   3.140  0.3594 -0.1280  0.2607
 8656SOL    HW237431   0.823   2.664   3.061  0.1792  1.2554 -0.2735
 8657SOL     OW37432   2.455   3.868  16.808  0.3132  0.1271  0.2755
 8657SOL    HW137433   2.520   3.891  16.875  0.6240  0.6695 -0.2142
 8657SOL    HW237434   2.420   3.954  16.785  1.9150  0.7629  0.2456
 8658SOL     OW37435   4.089   3.461  17.462  0.3615  0.1083 -0.3870
 8658SOL    HW137436   4.093   3.556  17.475  2.7631 -0.1233  0.5885
 8658SOL    HW237437   4.144   3.441  17.538  2.3399  0.2253 -1.7792
 8659SOL     OW37438   3.823   0.614  13.181 -0.6282 -0.4081 -0.0958
 8659SOL    HW137439   3.862   0.692  13.142  2.5306 -1.9900 -0.0854
 8659SOL    HW237440   3.841   0.557  13.106 -0.4440 -2.7749  1.7314
 8660SOL     OW37441   0.204   2.550   3.098  0.3062  0.1291 -0.0490
 8660SOL    HW137442   0.200   2.630   3.047  0.5514  0.0019 -0.2676
 8660SOL    HW237443   0.179   2.481   3.036  0.3438 -0.8396  0.9984
 8661SOL     OW37444   2.540   3.884   7.874  0.4019  0.1554  0.2160
 8661SOL    HW137445   2.559   3.966   7.828 -0.2275 -0.0798 -0.4530
 8661SOL    HW237446   2.553   3.822   7.802 -0.6477  0.0881  0.0888
 8662SOL     OW37447   0.674   1.448  11.720  0.7016  0.4076  0.6519
 8662SOL    HW137448   0.750   1.504  11.733 -0.2711  1.1865  3.0066
 8662SOL    HW237449   0.704   1.366  11.758 -0.1367 -0.5148 -0.6814
 8663SOL     OW37450   1.341   1.018   0.051 -0.6315  0.4409  0.3493
 8663SOL    HW137451   1.257   1.028   0.097 -1.3325  0.6167 -0.9706
 8663SOL    HW237452   1.329   0.928   0.021 -0.4671  0.5495 -0.0414
 8664SOL     OW37453   1.642   1.493   7.907 -0.4110  0.2698 -0.3729
 8664SOL    HW137454   1.590   1.549   7.850 -1.3220 -0.4228 -0.2196
 8664SOL    HW237455   1.728   1.482   7.866  0.3876  0.2835  1.2894
 8665SOL     OW37456   2.554   2.531  17.309 -1.0440 -0.7094  0.0242
 8665SOL    HW137457   2.601   2.557  17.230 -2.7318  0.1888 -0.6974
 8665SOL    HW237458   2.478   2.589  17.297 -0.8419 -0.4145  0.1510
 8666SOL     OW37459   3.408   1.417   6.907 -0.3371 -0.0311 -0.2767
 8666SOL    HW137460   3.370   1.359   6.841  0.9737 -1.2017  0.0006
 8666SOL    HW237461   3.360   1.386   6.983  1.5701 -0.8661  0.5775
 8667SOL     OW37462   1.029   3.978  16.297 -0.0024 -0.2239 -0.2377
 8667SOL    HW137463   1.049   3.892  16.336 -1.1713  0.2005  1.3083
 8667SOL    HW237464   1.057   3.966  16.206 -0.3351  1.1206 -0.5160
 8668SOL     OW37465   2.970   1.199   8.276 -0.0298  0.2681 -0.1664
 8668SOL    HW137466   2.932   1.286   8.283 -0.4474  0.0873 -0.1599
 8668SOL    HW237467   2.951   1.191   8.182 -1.0672  2.0832 -0.1140
 8669SOL     OW37468   2.363   1.643   7.793  0.1319  0.1207 -0.5709
 8669SOL    HW137469   2.323   1.556   7.800 -1.4649  0.9120  0.2639
 8669SOL    HW237470   2.325   1.661   7.707  0.9300 -3.4480 -1.6494
 8670SOL     OW37471   2.990   0.663   1.504 -0.6717  0.4160  0.0728
 8670SOL    HW137472   3.034   0.745   1.480 -0.2630  0.1479 -0.0977
 8670SOL    HW237473   2.903   0.702   1.495 -1.3584 -1.5444 -1.6272
 8671SOL     OW37474   3.250   3.095  13.531 -0.3610 -0.0382  0.0822
 8671SOL    HW137475   3.252   3.138  13.616 -2.1504 -0.3733  0.2834
 8671SOL    HW237476   3.166   3.051  13.522 -0.2331 -0.6480  1.8977
 8672SOL     OW37477   0.198   2.951   7.158  0.2375 -0.3070  0.0514
 8672SOL    HW137478   0.200   3.042   7.128 -1.7582  0.6863  2.9167
 8672SOL    HW237479   0.246   2.905   7.089  1.3840 -0.6435  1.0748
 8673SOL     OW37480   3.078   0.941   4.318  0.1948 -0.6418  0.1894
 8673SOL    HW137481   3.022   0.871   4.286  1.1898 -2.1849  1.7568
 8673SOL    HW237482   3.089   0.992   4.238  1.0408 -1.5786 -0.2899
 8674SOL     OW37483   2.630   0.076   7.285 -0.3674  0.2924  0.9285
 8674SOL    HW137484   2.648   0.034   7.369 -0.0153 -1.3261  0.0481
 8674SOL    HW237485   2.720   0.095   7.257 -0.9784  1.8969  0.0593
 8675SOL     OW37486   2.810   0.274   5.581  0.0962 -0.5431 -0.1041
 8675SOL    HW137487   2.794   0.215   5.507 -1.2779  2.8697 -2.4988
 8675SOL    HW237488   2.904   0.267   5.591 -0.0728 -1.3864  0.9389
 8676SOL     OW37489   2.925   4.187   4.424  0.6321 -0.4475 -0.0483
 8676SOL    HW137490   3.016   4.205   4.448  0.6154 -1.7259  0.9486
 8676SOL    HW237491   2.928   4.108   4.370 -0.8554  0.5878 -1.6652
 8677SOL     OW37492   3.751   3.740   5.896 -0.2302  0.6679 -0.7952
 8677SOL    HW137493   3.705   3.671   5.849  2.0259 -0.7479 -0.8952
 8677SOL    HW237494   3.762   3.694   5.979  1.7786 -0.3257 -1.6246
 8678SOL     OW37495   2.168   1.960  17.569 -0.1491  0.4936  0.2751
 8678SOL    HW137496   2.226   1.896  17.609  0.0913  0.3640 -0.2783
 8678SOL    HW237497   2.226   1.986  17.497  0.5954  0.3429  0.8232
 8679SOL     OW37498   2.522   0.818   0.247  0.0967  0.1066 -0.0801
 8679SOL    HW137499   2.499   0.757   0.317 -2.4117  1.2604  0.0950
 8679SOL    HW237500   2.526   0.903   0.292 -1.2581  0.1003  0.0437
 8680SOL     OW37501   1.596   2.863   1.983 -0.0757  0.4232 -0.0744
 8680SOL    HW137502   1.628   2.773   1.981  1.2440  0.8292  2.1436
 8680SOL    HW237503   1.580   2.871   1.889  1.5285  0.2793 -0.3557
 8681SOL     OW37504   0.433   0.330  12.642  0.5032 -0.4953  0.0353
 8681SOL    HW137505   0.396   0.381  12.714 -0.2823  0.7169 -1.2258
 8681SOL    HW237506   0.459   0.249  12.685  0.7890 -0.7373 -0.5972
 8682SOL     OW37507   0.479   2.181   2.484 -0.4164 -0.2818  0.2442
 8682SOL    HW137508   0.549   2.182   2.419 -1.5506 -1.3215 -1.0021
 8682SOL    HW237509   0.410   2.196   2.419  0.8732 -0.6877 -1.2137
 8683SOL     OW37510   4.678   1.582   2.722  0.0246  0.2940  0.2064
 8683SOL    HW137511   0.034   1.539   2.690  1.1108  1.9057  0.7085
 8683SOL    HW237512   4.641   1.518   2.782  0.6289 -0.9894 -0.7845
 8684SOL     OW37513   4.448   3.019   1.866 -0.4485  0.5135 -0.2939
 8684SOL    HW137514   4.505   3.095   1.877  0.1314 -0.0278  0.4296
 8684SOL    HW237515   4.402   3.025   1.950  0.6727 -0.5106  0.4067
 8685SOL     OW37516   1.795   3.671   4.581  0.5088 -0.2222  0.3584
 8685SOL    HW137517   1.825   3.760   4.599 -1.2181  0.3980  0.1138
 8685SOL    HW237518   1.825   3.624   4.659  0.2772  1.0475  1.2025
 8686SOL     OW37519   4.240   4.060   6.959  0.4124  0.0355 -0.0984
 8686SOL    HW137520   4.243   3.973   6.921 -0.5195 -0.4496  0.9465
 8686SOL    HW237521   4.149   4.073   6.933  0.7994  0.4523 -1.2625
 8687SOL     OW37522   1.296   3.229   8.236  0.4694  0.5861  0.0463
 8687SOL    HW137523   1.320   3.158   8.296  2.9940  0.1413 -1.4888
 8687SOL    HW237524   1.308   3.303   8.296 -1.6767  2.5317 -1.9069
 8688SOL     OW37525   3.235   2.052   0.785 -0.1288 -0.1400  0.0664
 8688SOL    HW137526   3.300   2.115   0.754 -0.0554 -0.7161 -0.9394
 8688SOL    HW237527   3.277   1.970   0.760 -0.9662 -0.2671 -0.9206
 8689SOL     OW37528   2.526   0.570  14.907  0.0646  0.5266  0.6188
 8689SOL    HW137529   2.502   0.484  14.942  0.4191 -0.5153 -1.7367
 8689SOL    HW237530   2.524   0.616  14.991  3.9695 -1.6290  1.9156
 8690SOL     OW37531   1.195   1.728   5.994 -0.1721 -0.7485 -0.0438
 8690SOL    HW137532   1.191   1.816   5.958 -1.3826 -0.5892  0.4859
 8690SOL    HW237533   1.183   1.756   6.085  0.4966  2.1930 -0.8452
 8691SOL     OW37534   3.809   0.892   7.985  0.4359  0.1606  0.0700
 8691SOL    HW137535   3.822   0.801   8.010  2.2722  0.1402 -1.0317
 8691SOL    HW237536   3.897   0.905   7.950  0.3210 -0.4758 -0.4553
 8692SOL     OW37537   0.587   2.809  10.772 -0.0105 -0.1951  0.0447
 8692SOL    HW137538   0.534   2.823  10.850 -2.2099  1.8678 -1.8031
 8692SOL    HW237539   0.602   2.715  10.776  1.3258 -0.0866 -2.1135
 8693SOL     OW37540   0.436   0.446   4.704  0.7401 -0.3546 -0.1455
 8693SOL    HW137541   0.476   0.438   4.618 -2.3100  0.1378 -1.6131
 8693SOL    HW237542   0.392   0.361   4.705  2.1066 -1.0597 -0.4806
 8694SOL     OW37543   4.258   0.739  10.393  0.0321 -0.0925 -0.0594
 8694SOL    HW137544   4.271   0.663  10.336 -0.3255 -0.8230  0.8283
 8694SOL    HW237545   4.222   0.694  10.470  1.7853 -0.9616  0.2565
 8695SOL     OW37546   0.252   1.463  16.645 -0.2544  0.2649  0.1516
 8695SOL    HW137547   0.337   1.427  16.617  0.7004  2.4626  0.2825
 8695SOL    HW237548   0.203   1.386  16.674 -0.2746  1.4506  3.1837
 8696SOL     OW37549   2.908   2.433   6.462 -0.0154 -0.1431 -0.1579
 8696SOL    HW137550   2.888   2.487   6.386 -0.0764  1.0393  0.7059
 8696SOL    HW237551   2.998   2.455   6.484  0.3591 -1.5617 -0.2653
 8697SOL     OW37552   4.036   2.398   8.320  0.4090  0.7558 -0.2541
 8697SOL    HW137553   3.953   2.357   8.298 -0.1104  1.9877 -0.6115
 8697SOL    HW237554   4.018   2.426   8.410 -0.1959  1.2254 -0.5257
 8698SOL     OW37555   0.255   1.040   2.593 -0.1831 -0.0429 -0.2940
 8698SOL    HW137556   0.280   1.108   2.656  2.1909 -1.3487  0.1653
 8698SOL    HW237557   0.238   1.091   2.514  1.8073 -0.8900 -1.2538
 8699SOL     OW37558   1.081   2.162   5.980  0.1184  0.1205  0.1960
 8699SOL    HW137559   1.071   2.236   6.040  0.2246  1.1213 -0.9974
 8699SOL    HW237560   1.001   2.110   5.978 -0.8569  1.6029  0.7827
 8700SOL     OW37561   3.591   1.726  13.649 -0.2599  0.0820  0.2215
 8700SOL    HW137562   3.555   1.812  13.673  4.7788  1.5965  2.5540
 8700SOL    HW237563   3.654   1.719  13.721  1.8535 -2.0131 -1.8306
 8701SOL     OW37564   2.523   1.803  10.805  0.2175 -0.2849  0.4138
 8701SOL    HW137565   2.595   1.826  10.746  0.9825  1.1073  1.9303
 8701SOL    HW237566   2.492   1.883  10.847  0.7501  0.3038 -0.3286
 8702SOL     OW37567   1.138   3.171   2.823  0.1465  0.1264 -0.4888
 8702SOL    HW137568   1.094   3.256   2.820  1.3774  0.7890 -0.0535
 8702SOL    HW237569   1.070   3.116   2.861 -0.1753 -0.1597 -1.5052
 8703SOL     OW37570   0.419   1.888   4.038  0.6552  0.1302 -0.1296
 8703SOL    HW137571   0.482   1.818   4.022  1.9109  1.0987  0.5454
 8703SOL    HW237572   0.360   1.872   3.965 -1.9010 -0.8233  2.1491
 8704SOL     OW37573   1.976   0.157  14.830 -0.2168  0.5174 -0.7564
 8704SOL    HW137574   2.035   0.098  14.784 -0.0053  0.3258 -0.2426
 8704SOL    HW237575   2.039   0.202  14.886  1.1811 -1.4166 -0.7564
 8705SOL     OW37576   2.012   4.017   1.941  0.5217 -0.2867 -0.1427
 8705SOL    HW137577   2.090   3.967   1.915  0.4392 -0.4137 -0.1444
 8705SOL    HW237578   1.938   3.959   1.926  1.4418 -1.3455 -0.6003
 8706SOL     OW37579   3.471   2.227   2.477  0.0643  0.3562 -0.5245
 8706SOL    HW137580   3.446   2.152   2.424  0.9347 -0.6221  0.4380
 8706SOL    HW237581   3.471   2.194   2.567 -3.1604  2.5634  0.2519
 8707SOL     OW37582   4.125   0.774   4.864  0.0231 -0.3260 -0.2920
 8707SOL    HW137583   4.169   0.826   4.931 -1.5687  1.3558 -0.5240
 8707SOL    HW237584   4.181   0.697   4.863 -0.5712 -0.7415 -0.9920
 8708SOL     OW37585   3.288   4.179   4.842 -0.3250  0.3459  0.4056
 8708SOL    HW137586   3.273   4.207   4.752  1.0220  0.3086  0.1696
 8708SOL    HW237587   3.358   4.240   4.865  0.9237 -0.4613 -1.2959
 8709SOL     OW37588   1.565   0.383   8.777 -0.8492  0.4286 -0.2551
 8709SOL    HW137589   1.563   0.390   8.873  2.4477  2.8677 -0.3404
 8709SOL    HW237590   1.612   0.299   8.776  2.9826  2.5110  2.1524
 8710SOL     OW37591   4.505   0.180   5.280  0.2319  0.7592  0.1823
 8710SOL    HW137592   4.417   0.205   5.251 -1.0064 -2.3389  1.2856
 8710SOL    HW237593   4.549   0.224   5.207 -0.9880 -0.1489 -1.0944
 8711SOL     OW37594   3.229   1.872   0.315 -0.0712  0.1333 -0.1344
 8711SOL    HW137595   3.137   1.868   0.290 -0.3398 -0.4138  0.9350
 8711SOL    HW237596   3.238   1.965   0.296 -1.5829  0.7365  2.1338
 8712SOL     OW37597   4.314   4.335   5.573 -0.3394  0.5058  0.2047
 8712SOL    HW137598   4.372   4.385   5.630  0.5679  0.6714 -0.8643
 8712SOL    HW237599   4.264   4.282   5.635  0.5065 -1.4097 -0.7358
 8713SOL     OW37600   4.477   2.621  15.706 -0.3854 -0.2746 -0.1237
 8713SOL    HW137601   4.409   2.657  15.763  1.5895  1.1708  1.3348
 8713SOL    HW237602   4.445   2.532  15.689 -0.7283 -0.2144  0.2052
 8714SOL     OW37603   2.969   4.028  13.453 -0.0837 -0.0076 -0.0698
 8714SOL    HW137604   2.955   4.094  13.520 -2.5480 -0.8894  0.2707
 8714SOL    HW237605   2.977   3.959  13.519 -0.6726 -0.7280 -0.7545
 8715SOL     OW37606   1.462   2.085   6.313 -0.3110 -0.1851  0.3580
 8715SOL    HW137607   1.502   2.166   6.344 -0.6310  0.2868 -0.4480
 8715SOL    HW237608   1.397   2.073   6.382  0.6235 -0.3058  1.2192
 8716SOL     OW37609   2.553   3.489   7.868 -0.1869 -0.4656 -0.0927
 8716SOL    HW137610   2.569   3.398   7.842 -0.5790  0.2857 -2.9612
 8716SOL    HW237611   2.603   3.487   7.949 -1.8374  0.6868  0.9616
 8717SOL     OW37612   1.651   1.584   9.237 -0.3109 -0.4028  0.3343
 8717SOL    HW137613   1.699   1.501   9.233  1.2468  0.5441 -0.5038
 8717SOL    HW237614   1.724   1.644   9.225  1.3290 -2.8338 -1.8463
 8718SOL     OW37615   2.109   1.370   0.526 -0.3092 -0.4155 -0.2122
 8718SOL    HW137616   2.113   1.462   0.552  1.8022 -0.2245 -1.2312
 8718SOL    HW237617   2.198   1.363   0.490 -0.1159  1.9210 -0.2056
 8719SOL     OW37618   0.401   3.652   9.345  0.3514 -0.2468 -0.2190
 8719SOL    HW137619   0.491   3.671   9.318  0.6668 -0.7248  0.4990
 8719SOL    HW237620   0.367   3.740   9.363 -0.0417  0.1625 -2.9066
 8720SOL     OW37621   0.381   2.034   2.195  0.3494  0.2187  0.0248
 8720SOL    HW137622   0.459   2.043   2.141 -1.5248  1.8641 -2.3916
 8720SOL    HW237623   0.325   1.998   2.125 -1.7139  3.9341 -0.2023
 8721SOL     OW37624   0.309   3.310  10.647 -0.5146  0.0207  0.5820
 8721SOL    HW137625   0.283   3.274  10.731 -1.9412 -1.8200 -0.6575
 8721SOL    HW237626   0.390   3.355  10.672 -0.8183  0.6925  0.3636
 8722SOL     OW37627   1.069   3.221   4.111  0.4035  0.2353 -0.3613
 8722SOL    HW137628   1.152   3.211   4.157  0.4108 -0.3294 -0.4993
 8722SOL    HW237629   1.095   3.223   4.020  2.2653 -1.1245  0.1563
 8723SOL     OW37630   1.928   3.189   5.676  0.0603  0.2420 -0.6660
 8723SOL    HW137631   1.921   3.110   5.623 -0.5672  0.0407 -0.2787
 8723SOL    HW237632   2.023   3.189   5.684  0.0874  4.3495 -0.5287
 8724SOL     OW37633   2.749   3.116   5.502 -0.2355 -0.1553 -0.9453
 8724SOL    HW137634   2.801   3.111   5.422 -0.3901  0.0763 -1.0598
 8724SOL    HW237635   2.802   3.055   5.554  1.5544  1.2427 -1.1640
 8725SOL     OW37636   3.821   3.623   1.829 -0.6459  0.3270 -0.0484
 8725SOL    HW137637   3.827   3.534   1.865 -0.9018 -0.3087 -1.5996
 8725SOL    HW237638   3.773   3.610   1.747  0.0686 -0.3702 -0.3546
 8726SOL     OW37639   1.252   4.338  13.580  0.2614 -0.1754  0.4301
 8726SOL    HW137640   1.338   4.299  13.567  0.7319  0.2519  2.2813
 8726SOL    HW237641   1.202   4.271  13.626 -1.6121  0.9034  0.0206
 8727SOL     OW37642   3.696   4.581  15.225 -0.8949  0.9050  0.0008
 8727SOL    HW137643   3.730   4.657  15.272  3.0138 -0.7241 -0.1710
 8727SOL    HW237644   3.660   4.634  15.154 -1.1639 -0.0398 -0.5632
 8728SOL     OW37645   2.171   1.770   2.018 -0.1575 -0.2003  0.1774
 8728SOL    HW137646   2.086   1.727   2.016 -0.5180  0.5250 -0.0833
 8728SOL    HW237647   2.140   1.855   2.048 -1.3163 -0.9928  1.2348
 8729SOL     OW37648   1.214   4.195   3.284 -0.0238 -0.5186  0.1770
 8729SOL    HW137649   1.153   4.132   3.246 -0.1117  0.7720 -1.8089
 8729SOL    HW237650   1.183   4.195   3.375  1.0791  0.2096  0.5463
 8730SOL     OW37651   0.057   0.070  14.052 -0.0459 -0.0275 -0.2773
 8730SOL    HW137652   0.090   0.106  14.135 -0.6514 -0.0161 -0.0358
 8730SOL    HW237653   0.107   4.712  14.047  1.6031  0.7433  3.5909
 8731SOL     OW37654   2.084   3.246   0.774  0.1358  0.2918  0.3152
 8731SOL    HW137655   2.179   3.245   0.768  0.3614 -0.4804  3.6517
 8731SOL    HW237656   2.047   3.199   0.699 -0.7553 -1.4557  1.8357
 8732SOL     OW37657   3.816   2.895   6.558  0.4303 -0.0023 -0.0120
 8732SOL    HW137658   3.837   2.988   6.553  2.8875 -0.5522  0.3433
 8732SOL    HW237659   3.865   2.868   6.635 -1.2614  2.4388  1.9054
 8733SOL     OW37660   3.307   0.072   3.323 -0.2162  0.1212  0.0854
 8733SOL    HW137661   3.399   0.097   3.320 -0.1984 -0.1815 -1.8760
 8733SOL    HW237662   3.303   0.013   3.398  0.6128 -2.5949 -2.0010
 8734SOL     OW37663   0.323   1.475   7.190  0.1282  0.4903  0.2789
 8734SOL    HW137664   0.231   1.492   7.210 -0.8047 -2.2733 -1.6500
 8734SOL    HW237665   0.310   1.415   7.116  0.6096  1.0542 -0.2538
 8735SOL     OW37666   1.082   0.475   7.125  0.0235  0.1433  0.0374
 8735SOL    HW137667   1.092   0.380   7.131  2.2083  0.3775  0.0122
 8735SOL    HW237668   1.028   0.492   7.202 -0.7446  2.1828 -0.9426
 8736SOL     OW37669   1.261   0.849   5.014 -0.8088 -0.3582 -0.4199
 8736SOL    HW137670   1.325   0.917   4.993  1.3647 -1.9177  1.1910
 8736SOL    HW237671   1.199   0.837   4.942 -0.0925  1.0952 -1.2760
 8737SOL     OW37672   2.582   2.390   9.346 -0.2996 -0.3848 -0.5243
 8737SOL    HW137673   2.672   2.404   9.317 -1.3631 -0.1513 -3.6819
 8737SOL    HW237674   2.531   2.373   9.267 -1.3533  0.2423  0.0293
 8738SOL     OW37675   4.015   3.495   8.587 -0.2041  0.1126  0.0480
 8738SOL    HW137676   3.948   3.528   8.648 -1.1429 -3.1712  0.8196
 8738SOL    HW237677   4.020   3.400   8.595 -1.0662  0.0444 -0.2015
 8739SOL     OW37678   0.337   0.959   8.104 -0.0727 -0.0774 -0.3377
 8739SOL    HW137679   0.360   1.014   8.179  0.2267 -0.5287 -0.1002
 8739SOL    HW237680   0.242   0.946   8.108  0.3954 -1.5281  5.2504
 8740SOL     OW37681   2.674   4.271   5.142 -0.0396 -0.2182 -0.1790
 8740SOL    HW137682   2.727   4.278   5.063  1.6546 -0.5340  0.9170
 8740SOL    HW237683   2.593   4.302   5.102 -1.7888 -1.8993  2.0598
 8741SOL     OW37684   2.780   1.858  12.716 -0.0673 -0.7246 -0.3262
 8741SOL    HW137685   2.800   1.771  12.682 -1.4853 -1.1888  0.0247
 8741SOL    HW237686   2.711   1.890  12.658  1.8646  2.4518 -0.8834
 8742SOL     OW37687   1.106   1.464   7.986 -0.0344 -0.2167  0.0998
 8742SOL    HW137688   1.028   1.511   7.958  1.1973 -0.1336 -3.2454
 8742SOL    HW237689   1.069   1.376   7.983 -0.1267 -0.1589 -0.3715
 8743SOL     OW37690   3.013   2.330  16.886  0.2994 -0.0593 -0.4524
 8743SOL    HW137691   3.000   2.424  16.891 -0.0351 -0.1139 -0.3322
 8743SOL    HW237692   3.096   2.314  16.933  0.5718 -3.2151 -1.9864
 8744SOL     OW37693   4.457   1.102   4.085  0.2308  0.5963  0.5999
 8744SOL    HW137694   4.547   1.129   4.069  0.1609  0.8018  0.5566
 8744SOL    HW237695   4.460   1.006   4.078 -1.3891  0.7603 -2.3028
 8745SOL     OW37696   3.117   1.716   7.307 -0.2864 -0.0397 -0.1423
 8745SOL    HW137697   3.080   1.708   7.219 -1.7855 -3.1481  0.7746
 8745SOL    HW237698   3.194   1.770   7.291 -1.0790  0.6938 -1.5521
 8746SOL     OW37699   2.116   1.982  14.691  0.2897  0.1031 -0.0634
 8746SOL    HW137700   2.134   1.937  14.608 -0.8478  0.7311 -0.6563
 8746SOL    HW237701   2.063   2.057  14.663  0.4347  0.0525 -0.4795
 8747SOL     OW37702   4.220   0.789   9.217 -0.4160  0.1913  0.2884
 8747SOL    HW137703   4.276   0.722   9.256 -2.5742 -0.1013  2.8719
 8747SOL    HW237704   4.272   0.866   9.238 -0.3653 -0.4772  2.6304
 8748SOL     OW37705   3.897   2.494   3.001 -0.1466 -0.0564  0.3858
 8748SOL    HW137706   3.905   2.589   3.009 -1.3521 -0.0433  1.4011
 8748SOL    HW237707   3.835   2.483   2.929 -2.5107  2.8114  2.0047
 8749SOL     OW37708   0.858   3.835   6.850  0.0300 -0.3350  0.8147
 8749SOL    HW137709   0.805   3.906   6.887  1.8699  1.3914  0.1100
 8749SOL    HW237710   0.889   3.879   6.772 -1.3434 -0.9283 -0.0683
 8750SOL     OW37711   4.303   0.822  16.713 -0.0454  0.1841 -0.4723
 8750SOL    HW137712   4.235   0.879  16.677  0.6164 -0.6695 -3.0264
 8750SOL    HW237713   4.371   0.835  16.647  1.3435  0.5927  1.0196
 8751SOL     OW37714   3.779   1.860   2.394  0.3519 -0.1009 -0.7065
 8751SOL    HW137715   3.837   1.792   2.361  0.0282 -0.4117 -0.6380
 8751SOL    HW237716   3.812   1.926   2.334 -1.1793  1.7040  0.4050
 8752SOL     OW37717   4.506   4.647   1.937  0.4679 -0.1815 -0.3334
 8752SOL    HW137718   4.475   4.682   2.021 -1.4530  2.5176 -2.1581
 8752SOL    HW237719   4.571   4.583   1.968 -0.8365 -0.6623  1.3926
 8753SOL     OW37720   4.137   3.928   7.564  0.4174  0.2833  0.1371
 8753SOL    HW137721   4.139   3.972   7.649 -0.0017  0.0051  0.2926
 8753SOL    HW237722   4.208   3.963   7.510  0.9350 -0.1181  0.5609
 8754SOL     OW37723   0.154   4.019  14.811  0.0834  0.3156 -0.4211
 8754SOL    HW137724   0.238   3.973  14.805 -0.0038  0.0870  0.0862
 8754SOL    HW237725   0.130   4.024  14.719  0.1282 -0.1026 -0.4538
 8755SOL     OW37726   1.693   1.132   5.917  0.1166 -0.0911  0.0289
 8755SOL    HW137727   1.616   1.114   5.971  1.3424 -0.2985  1.7273
 8755SOL    HW237728   1.682   1.227   5.905  0.1817 -0.2510 -1.3057
 8756SOL     OW37729   3.360   4.404   8.002 -0.3373  0.2745  0.0959
 8756SOL    HW137730   3.384   4.481   8.053 -0.1454  0.5033 -0.3385
 8756SOL    HW237731   3.363   4.340   8.073  0.4224 -1.8222 -1.8263
 8757SOL     OW37732   3.340   3.665   1.153  0.5656  0.2462 -0.1491
 8757SOL    HW137733   3.280   3.603   1.195  0.5164 -0.4219 -1.2282
 8757SOL    HW237734   3.423   3.634   1.188  0.8243 -0.5401 -1.4739
 8758SOL     OW37735   0.026   0.909  12.285  0.1089  0.2489  0.2790
 8758SOL    HW137736   4.693   0.881  12.213  0.5583 -1.3614  0.5401
 8758SOL    HW237737   4.688   0.938  12.353 -0.2524 -2.2817  1.0471
 8759SOL     OW37738   3.807   3.047   4.448  0.7147 -0.1613 -0.3907
 8759SOL    HW137739   3.771   3.122   4.495  0.7391 -0.5660  0.2767
 8759SOL    HW237740   3.789   2.969   4.500 -0.8409  0.4481 -0.0309
 8760SOL     OW37741   1.293   3.838   4.532  0.4525 -0.2032  0.0352
 8760SOL    HW137742   1.376   3.793   4.547  1.2482  1.2587  0.0976
 8760SOL    HW237743   1.240   3.786   4.472  0.7619 -0.3684 -0.0915
 8761SOL     OW37744   3.262   4.439   9.929  0.8156 -0.0081 -0.6555
 8761SOL    HW137745   3.284   4.417   9.839  0.7566 -0.5376 -0.5448
 8761SOL    HW237746   3.272   4.350   9.963  0.8716 -0.4642 -1.8688
 8762SOL     OW37747   1.909   2.943  10.563 -0.2165  0.5317 -0.3932
 8762SOL    HW137748   1.923   2.875  10.630 -1.4728 -1.7901 -2.4670
 8762SOL    HW237749   1.993   2.987  10.575  0.0609 -0.1369  0.1541
 8763SOL     OW37750   1.507   3.922   4.914  0.5558  0.2461 -0.0719
 8763SOL    HW137751   1.595   3.915   4.949 -0.1528 -0.3653  1.5508
 8763SOL    HW237752   1.493   4.015   4.931  0.9267  0.1774  0.5899
 8764SOL     OW37753   3.437   0.060   1.063 -0.0067 -0.0271 -0.6998
 8764SOL    HW137754   3.464   0.116   0.990  0.3014  1.6116  0.6894
 8764SOL    HW237755   3.520   0.024   1.094 -0.5005 -1.5869 -1.1919
 8765SOL     OW37756   4.459   4.056   3.372 -0.4318 -0.1315 -0.6823
 8765SOL    HW137757   4.518   4.055   3.448 -0.3193 -0.3124 -0.7719
 8765SOL    HW237758   4.517   4.082   3.300  0.1187  0.1373 -0.1508
 8766SOL     OW37759   0.719   3.065   9.199 -0.6718 -0.4443  0.1079
 8766SOL    HW137760   0.664   3.110   9.135  0.6342  0.7632 -0.1559
 8766SOL    HW237761   0.742   2.986   9.149  0.4064  0.3028 -0.5812
 8767SOL     OW37762   0.698   4.100   2.162  0.8134  0.4090  0.4893
 8767SOL    HW137763   0.626   4.152   2.198 -0.7484  0.2867 -2.4831
 8767SOL    HW237764   0.708   4.040   2.236 -1.8164  0.0300  0.5410
 8768SOL     OW37765   1.966   0.254  15.156 -0.2210  0.1001  0.1576
 8768SOL    HW137766   1.942   0.323  15.095  1.1713 -0.4521 -1.0132
 8768SOL    HW237767   2.051   0.232  15.116  0.2953  0.6665  0.9402
 8769SOL     OW37768   0.824   0.463   3.998 -0.6271 -0.0694  0.0782
 8769SOL    HW137769   0.859   0.429   4.080 -0.2902 -0.4424 -0.2210
 8769SOL    HW237770   0.773   0.388   3.968  0.8630 -1.8583  1.9762
 8770SOL     OW37771   4.404   1.945   3.932 -0.5132  0.0632  0.1319
 8770SOL    HW137772   4.440   1.998   4.003 -1.2964  0.4316  0.2500
 8770SOL    HW237773   4.476   1.884   3.917 -0.7172 -0.1264 -0.0853
 8771SOL     OW37774   0.030   4.655   7.169  0.5359 -0.9132  0.2272
 8771SOL    HW137775   0.031   4.559   7.160 -0.7657 -1.0068  1.1305
 8771SOL    HW237776   0.112   4.679   7.212  0.0647  0.2887  0.4331
 8772SOL     OW37777   3.913   2.793   6.793 -0.3215  0.5018  0.0756
 8772SOL    HW137778   3.963   2.849   6.853 -0.7152  1.7921 -0.8012
 8772SOL    HW237779   3.969   2.716   6.797 -1.5407 -0.3295  1.1875
 8773SOL     OW37780   0.231   3.246   8.693 -0.2103  0.1334  0.1500
 8773SOL    HW137781   0.157   3.270   8.749 -0.3954  2.0975 -0.9216
 8773SOL    HW237782   0.203   3.159   8.662  0.5235  0.5261 -1.6531
 8774SOL     OW37783   4.202   3.680   7.475 -0.4235 -0.5438 -0.2298
 8774SOL    HW137784   4.173   3.593   7.502 -0.0726 -0.3252  0.8727
 8774SOL    HW237785   4.143   3.740   7.521 -1.8176 -0.7258 -1.7961
 8775SOL     OW37786   0.233   3.666   7.667 -0.0143 -0.0211 -0.4563
 8775SOL    HW137787   0.231   3.665   7.572  0.5820  2.8243 -0.5104
 8775SOL    HW237788   0.326   3.689   7.672  0.0810 -0.5481  0.1401
 8776SOL     OW37789   3.706   1.456   8.467 -0.0609  0.1197  0.4544
 8776SOL    HW137790   3.649   1.434   8.540 -1.4519  1.0546 -0.3445
 8776SOL    HW237791   3.649   1.506   8.408  2.3747 -0.2868 -2.2390
 8777SOL     OW37792   0.893   3.702  14.675  0.1935 -0.9718  0.1428
 8777SOL    HW137793   0.917   3.690  14.583  0.4022  0.2922  0.0394
 8777SOL    HW237794   0.957   3.768  14.701  0.1236 -0.5161 -0.8716
 8778SOL     OW37795   2.198   1.705   5.984  0.0323  0.0444  0.2190
 8778SOL    HW137796   2.205   1.756   6.065 -2.6296  1.8189 -0.6659
 8778SOL    HW237797   2.119   1.740   5.943  0.6506  2.0985  0.7660
 8779SOL     OW37798   2.285   0.688   5.172 -0.5148  0.1316 -0.3537
 8779SOL    HW137799   2.243   0.730   5.097  1.3208  2.8143  0.1105
 8779SOL    HW237800   2.234   0.607   5.164 -1.3437  0.5273  0.8684
 8780SOL     OW37801   2.248   4.131  16.284 -0.4847  0.2608 -0.4759
 8780SOL    HW137802   2.188   4.057  16.283  0.4051 -0.4548 -0.7099
 8780SOL    HW237803   2.190   4.193  16.240  0.1225 -0.3982 -2.2303
 8781SOL     OW37804   0.216   2.828   7.412  0.7238 -0.5347  0.4430
 8781SOL    HW137805   0.297   2.807   7.364  0.5966 -1.6274  0.7223
 8781SOL    HW237806   0.183   2.883   7.341  0.3943  0.7692  1.6141
 8782SOL     OW37807   3.782   1.676  15.075  0.3581 -0.4614  0.5250
 8782SOL    HW137808   3.760   1.760  15.036  0.3645 -0.9467 -0.5293
 8782SOL    HW237809   3.710   1.662  15.136 -0.1390 -0.7612 -0.1233
 8783SOL     OW37810   1.909   3.084   7.946  0.1460 -0.6332 -0.1998
 8783SOL    HW137811   1.902   3.042   8.031 -0.8598 -0.3214 -0.1289
 8783SOL    HW237812   1.993   3.130   7.950 -0.8946  1.2508  0.1069
 8784SOL     OW37813   2.109   3.910   1.020 -0.1984 -0.3817  0.3934
 8784SOL    HW137814   2.181   3.972   1.006 -3.6448  2.9614 -2.6350
 8784SOL    HW237815   2.055   3.946   0.950 -0.0336 -0.8005  0.0555
 8785SOL     OW37816   1.369   0.803  13.359  0.4449 -0.4574 -0.2156
 8785SOL    HW137817   1.274   0.803  13.371  0.4233 -3.2110 -0.4386
 8785SOL    HW237818   1.407   0.814  13.446  2.9934  0.9576 -1.4856
 8786SOL     OW37819   3.692   3.535   6.214  0.4518 -0.6423 -0.2129
 8786SOL    HW137820   3.778   3.577   6.207 -0.5452  1.6208  1.2142
 8786SOL    HW237821   3.670   3.539   6.307  1.4991  1.4350 -0.0493
 8787SOL     OW37822   0.958   4.340  11.048  0.2544  0.0553  0.6285
 8787SOL    HW137823   0.897   4.381  11.109  1.3142  0.8280  1.1795
 8787SOL    HW237824   0.926   4.250  11.049  0.0288  0.1550  1.9168
 8788SOL     OW37825   4.466   2.791   5.288  0.0471 -0.2535  0.4542
 8788SOL    HW137826   4.467   2.770   5.195 -2.4146 -2.7936  1.0146
 8788SOL    HW237827   4.557   2.780   5.317 -0.0705 -0.0778  0.8902
 8789SOL     OW37828   0.614   1.662   8.041 -0.0351  0.2891 -0.4306
 8789SOL    HW137829   0.642   1.753   8.042 -0.3229  0.3365  2.8657
 8789SOL    HW237830   0.700   1.629   8.014 -0.0327  0.4211 -0.5817
 8790SOL     OW37831   1.713   4.634   8.115  0.4322  0.1312 -0.2106
 8790SOL    HW137832   1.675   4.716   8.148 -2.1396 -0.0522 -2.6530
 8790SOL    HW237833   1.802   4.654   8.085 -0.6761  0.1705 -3.5265
 8791SOL     OW37834   4.687   4.332   8.012 -0.4949 -0.3060  0.1309
 8791SOL    HW137835   0.032   4.364   7.952 -1.5427  0.9793 -0.3703
 8791SOL    HW237836   4.655   4.261   7.955  2.8522 -0.3591 -1.6847
 8792SOL     OW37837   1.025   0.039   3.340  0.2128 -0.1848 -0.0419
 8792SOL    HW137838   0.959   0.040   3.271 -0.9206 -1.1956  1.0360
 8792SOL    HW237839   0.978   0.066   3.419  0.6597  0.4935  0.0007
 8793SOL     OW37840   3.075   3.993   9.502 -0.2433  0.6486  0.1239
 8793SOL    HW137841   3.129   3.950   9.569 -0.2525  0.9896  0.3515
 8793SOL    HW237842   3.032   4.056   9.560  1.4741  1.9233  0.0160
 8794SOL     OW37843   2.138   1.055   0.634 -0.1798  0.2437  0.0924
 8794SOL    HW137844   2.121   1.147   0.616  1.5961  0.4476 -0.4993
 8794SOL    HW237845   2.051   1.019   0.654 -0.9538  2.2067  0.2369
 8795SOL     OW37846   2.102   0.998   0.920  0.0145 -0.7388 -0.5529
 8795SOL    HW137847   2.133   1.042   0.841  1.6524 -2.8150 -1.0880
 8795SOL    HW237848   2.176   1.022   0.977 -0.1128  0.4571 -0.8927
 8796SOL     OW37849   2.873   1.632   3.123 -0.0425 -0.1412  0.0098
 8796SOL    HW137850   2.940   1.641   3.055 -0.7703 -0.5022 -0.7521
 8796SOL    HW237851   2.854   1.726   3.132 -0.2937 -0.2880  0.9698
 8797SOL     OW37852   0.300   3.270  13.972  0.6232  0.1899  0.3175
 8797SOL    HW137853   0.313   3.194  14.029 -1.0543  0.6719  1.3175
 8797SOL    HW237854   0.383   3.314  13.991  1.4227  0.3171 -3.4808
 8798SOL     OW37855   4.606   0.506  16.937 -0.1774 -0.0706 -0.5552
 8798SOL    HW137856   4.676   0.505  16.872 -1.6979 -1.8380 -2.1545
 8798SOL    HW237857   4.536   0.538  16.880 -1.9030 -0.6795  1.2278
 8799SOL     OW37858   1.086   3.786   5.506  0.5434 -0.3440 -0.2746
 8799SOL    HW137859   1.071   3.841   5.429  1.3420 -1.4186 -1.2192
 8799SOL    HW237860   1.028   3.713   5.484  0.0335  0.7230 -2.4904
 8800SOL     OW37861   3.825   2.721  16.877 -0.3041  0.2738  0.3360
 8800SOL    HW137862   3.771   2.783  16.927 -2.4569  0.1411 -1.8425
 8800SOL    HW237863   3.791   2.727  16.788  1.1162  2.0758 -0.0750
 8801SOL     OW37864   0.533   3.381   6.462  0.1498  0.3679  0.1262
 8801SOL    HW137865   0.502   3.466   6.492  0.5365  0.8051 -0.7251
 8801SOL    HW237866   0.599   3.345   6.521 -2.2620  0.1232  2.6819
 8802SOL     OW37867   2.036   3.508   7.731 -0.2837  0.0233  0.0682
 8802SOL    HW137868   2.086   3.429   7.754  1.0400  1.4504  2.1447
 8802SOL    HW237869   2.014   3.543   7.818 -2.7011 -0.8990 -0.1750
 8803SOL     OW37870   0.438   4.073  10.550  0.0025 -0.2810 -0.0975
 8803SOL    HW137871   0.382   4.151  10.553 -0.0861 -0.3740  0.7106
 8803SOL    HW237872   0.476   4.080  10.463 -0.0548 -0.3812 -0.1297
 8804SOL     OW37873   2.167   0.122   0.442 -0.0315  0.2155  0.5372
 8804SOL    HW137874   2.151   0.195   0.501 -4.0235 -0.4480  0.2462
 8804SOL    HW237875   2.231   0.077   0.498 -1.6064 -2.0003  0.5620
 8805SOL     OW37876   2.274   0.019   5.506  0.0128  0.8254 -0.2537
 8805SOL    HW137877   2.365   0.047   5.511  1.0521 -2.3597 -1.4383
 8805SOL    HW237878   2.283   4.646   5.506 -1.6370  0.6712 -1.3763
 8806SOL     OW37879   0.397   2.431   6.531 -0.0440  0.3129  0.1631
 8806SOL    HW137880   0.318   2.485   6.533 -1.6479 -1.9970 -0.5323
 8806SOL    HW237881   0.384   2.377   6.452  0.0070 -2.5657  2.1030
 8807SOL     OW37882   3.082   1.611   3.755  0.0919 -0.6232  0.8949
 8807SOL    HW137883   3.020   1.673   3.793 -0.5381  0.1279 -1.3943
 8807SOL    HW237884   3.166   1.637   3.794  0.1893  0.1626  0.1552
 8808SOL     OW37885   3.521   0.328   2.573 -0.4410  0.1273 -0.2462
 8808SOL    HW137886   3.547   0.418   2.553  2.4748  0.2068  3.8879
 8808SOL    HW237887   3.426   0.331   2.580 -0.5007  1.0182 -1.5351
 8809SOL     OW37888   2.999   0.526   9.091 -0.2544  0.3820  0.1897
 8809SOL    HW137889   2.999   0.541   8.996 -0.6739  0.0902  0.1463
 8809SOL    HW237890   3.072   0.579   9.124  0.2393 -2.3332  3.4026
 8810SOL     OW37891   1.576   4.250   0.024  0.2828 -0.3731  0.3113
 8810SOL    HW137892   1.507   4.225  17.655 -2.0548  2.6385  1.6766
 8810SOL    HW237893   1.605   4.169   0.065  0.3937 -1.2022 -1.3764
 8811SOL     OW37894   3.099   3.054   7.177 -0.2223 -0.3092  0.0595
 8811SOL    HW137895   3.154   3.048   7.099  0.6051  0.0099  0.6157
 8811SOL    HW237896   3.012   3.066   7.140  0.6427  0.9683 -1.5881
 8812SOL     OW37897   1.838   0.803   5.036 -0.2855 -0.1462  0.2702
 8812SOL    HW137898   1.859   0.787   5.128  1.3418 -0.2528 -0.1174
 8812SOL    HW237899   1.860   0.711   5.018  0.7520  0.2073 -0.2324
 8813SOL     OW37900   3.966   4.321   8.067  0.4204  0.0677 -0.0825
 8813SOL    HW137901   4.060   4.307   8.076  0.6102  0.2092 -1.8645
 8813SOL    HW237902   3.972   4.414   8.044 -1.0673  0.3622  0.7544
 8814SOL     OW37903   0.364   1.643   4.685 -0.6199  0.1972 -0.0375
 8814SOL    HW137904   0.341   1.649   4.593 -1.8322  4.2811  0.5261
 8814SOL    HW237905   0.398   1.730   4.706  1.7948 -0.1432 -2.5492
 8815SOL     OW37906   2.892   3.118  13.457  0.5689 -0.7754  0.1835
 8815SOL    HW137907   2.807   3.094  13.495  0.0241  1.3150  0.3333
 8815SOL    HW237908   2.919   3.183  13.522  0.8349 -1.0887  0.3813
 8816SOL     OW37909   2.954   3.407   4.270 -0.5532 -0.4839 -0.4500
 8816SOL    HW137910   3.028   3.461   4.240 -0.5717 -1.2640 -1.9208
 8816SOL    HW237911   2.957   3.330   4.213  0.0044 -1.6830  1.2204
 8817SOL     OW37912   3.527   2.321   7.275  0.6479  0.2019  0.4187
 8817SOL    HW137913   3.567   2.403   7.247  1.4192  0.1036  1.2267
 8817SOL    HW237914   3.445   2.360   7.305  0.1008 -0.0833 -0.7039
 8818SOL     OW37915   3.200   1.511   3.512  0.1521  0.3568  0.3061
 8818SOL    HW137916   3.154   1.557   3.582 -1.4299 -0.7555 -0.0027
 8818SOL    HW237917   3.243   1.588   3.475 -1.2542  0.8466 -0.3030
 8819SOL     OW37918   4.662   3.186  16.461 -0.1724 -0.1469 -0.4893
 8819SOL    HW137919   4.626   3.097  16.462 -0.6654  0.0464 -1.3595
 8819SOL    HW237920   4.708   3.184  16.545 -0.8238 -1.9117 -0.1816
 8820SOL     OW37921   2.101   1.008   2.710  0.4954  0.4402 -0.2462
 8820SOL    HW137922   2.161   1.004   2.636 -1.4711  2.2508 -1.9454
 8820SOL    HW237923   2.086   0.915   2.729 -0.9455  0.7264  0.0323
 8821SOL     OW37924   0.989   1.153   3.135 -0.0305  0.3715  0.3189
 8821SOL    HW137925   1.004   1.097   3.059  1.7067 -1.2438  1.8552
 8821SOL    HW237926   0.908   1.114   3.169 -0.2442  2.8462  2.7173
 8822SOL     OW37927   1.842   0.510  13.469  0.2641  0.3614 -0.2412
 8822SOL    HW137928   1.841   0.500  13.564  0.7994  1.0644 -0.1643
 8822SOL    HW237929   1.920   0.465  13.438 -0.0048  1.3749 -2.3696
 8823SOL     OW37930   2.413   4.535   7.568 -0.1131 -0.0188 -0.3055
 8823SOL    HW137931   2.392   4.623   7.601 -1.7342 -0.0279 -1.3033
 8823SOL    HW237932   2.390   4.484   7.646 -3.0270 -0.0007 -1.1533
 8824SOL     OW37933   3.478   4.058   3.542  0.0464  0.1038 -0.1840
 8824SOL    HW137934   3.567   4.048   3.575 -0.7856 -0.8583  1.7390
 8824SOL    HW237935   3.442   3.971   3.559 -0.9953  0.8025  1.1905
 8825SOL     OW37936   0.272   0.231   4.720  0.0754  0.1391 -0.1869
 8825SOL    HW137937   0.177   0.236   4.719  0.0672  0.0142  0.3650
 8825SOL    HW237938   0.286   0.141   4.748  0.2406 -0.3686 -1.9075
 8826SOL     OW37939   2.897   4.012   0.825  0.0387 -0.4151 -0.0988
 8826SOL    HW137940   2.820   3.959   0.803  1.0735 -1.8352 -0.2719
 8826SOL    HW237941   2.861   4.098   0.803  1.3943 -0.2448 -1.6563
 8827SOL     OW37942   2.897   1.322   2.962 -0.4421 -0.3385 -0.1218
 8827SOL    HW137943   2.859   1.238   2.935  1.3899 -1.6926  1.5721
 8827SOL    HW237944   2.920   1.341   2.871  0.7293  1.0373  0.4700
 8828SOL     OW37945   1.590   1.638   7.673  0.0901 -0.4897  0.2941
 8828SOL    HW137946   1.497   1.660   7.675  0.0238 -0.6528 -1.5637
 8828SOL    HW237947   1.625   1.728   7.673 -2.3906  0.4829 -1.2109
 8829SOL     OW37948   2.404   1.379  10.574 -0.1500 -0.5024  0.1379
 8829SOL    HW137949   2.367   1.344  10.493  0.2243 -1.8902  0.5698
 8829SOL    HW237950   2.448   1.457  10.540 -0.3338 -0.5904 -0.2982
 8830SOL     OW37951   2.514   3.284   5.616 -0.0175 -0.3302  0.1620
 8830SOL    HW137952   2.577   3.323   5.677  0.1678  0.9612 -0.8414
 8830SOL    HW237953   2.549   3.196   5.614 -1.5540 -0.9388  0.1339
 8831SOL     OW37954   2.536   0.379   0.061 -0.1364 -0.4624  0.1604
 8831SOL    HW137955   2.454   0.409   0.098  0.2623 -0.6736  1.2089
 8831SOL    HW237956   2.513   0.293   0.024 -0.0522 -0.7264  0.7239
 8832SOL     OW37957   3.777   3.564   4.126 -0.7720  0.1732 -0.2712
 8832SOL    HW137958   3.779   3.613   4.044 -2.7396  2.6489  1.1870
 8832SOL    HW237959   3.691   3.523   4.133 -0.7191  0.4003  1.6050
 8833SOL     OW37960   2.162   0.587  10.792  0.2101  0.3315 -0.5232
 8833SOL    HW137961   2.174   0.520  10.724  1.0830  1.3855 -1.4208
 8833SOL    HW237962   2.137   0.537  10.869  1.2280 -1.8604 -1.5968
 8834SOL     OW37963   4.448   1.079  14.172 -0.0631 -0.4305 -0.1043
 8834SOL    HW137964   4.465   1.015  14.103  0.2115 -1.4133  0.8790
 8834SOL    HW237965   4.356   1.101  14.155 -0.2233 -1.2393 -0.2568
 8835SOL     OW37966   2.736   0.279   4.209  0.4814  0.5899  0.5086
 8835SOL    HW137967   2.814   0.227   4.227  0.8073  0.3523 -1.6215
 8835SOL    HW237968   2.733   0.285   4.114  1.4320 -0.6014  0.3988
 8836SOL     OW37969   1.854   2.428   4.872  0.2483  0.6877 -0.1217
 8836SOL    HW137970   1.845   2.335   4.896 -1.6640  0.7425 -0.6976
 8836SOL    HW237971   1.902   2.459   4.949 -3.3214 -2.3430  3.3253
 8837SOL     OW37972   4.072   1.955   0.112 -1.2079 -0.6074  0.8684
 8837SOL    HW137973   4.004   1.966   0.045  0.2030  2.1494 -0.0844
 8837SOL    HW237974   4.032   1.891   0.170 -1.8106 -1.8840 -0.9336
 8838SOL     OW37975   1.269   0.522   0.041 -0.6090  0.3041 -0.4272
 8838SOL    HW137976   1.315   0.462   0.100  1.2198  1.1138 -1.0340
 8838SOL    HW237977   1.241   0.586   0.106 -1.3776  0.1519 -0.6142
 8839SOL     OW37978   1.585   3.912   4.664 -0.2171 -0.0072 -0.0328
 8839SOL    HW137979   1.553   3.827   4.633  2.3658 -1.0967  0.3596
 8839SOL    HW237980   1.538   3.931   4.745 -2.3303 -0.0074 -1.2442
 8840SOL     OW37981   0.091   3.736   2.141  0.2267  0.0101  0.2014
 8840SOL    HW137982   0.040   3.810   2.176 -1.0501 -0.7628 -0.0226
 8840SOL    HW237983   0.180   3.771   2.145  0.1990  0.2519 -1.2736
 8841SOL     OW37984   1.804   0.522  13.111  0.4618 -0.3008 -0.2917
 8841SOL    HW137985   1.716   0.529  13.147  0.6602 -0.1778  0.1619
 8841SOL    HW237986   1.802   0.615  13.091 -1.6446 -0.2778 -0.0268
 8842SOL     OW37987   2.490   1.642   6.313 -0.1682 -0.1626 -0.0965
 8842SOL    HW137988   2.528   1.569   6.361 -1.0954 -0.7461 -0.2564
 8842SOL    HW237989   2.536   1.635   6.230 -1.6236  0.8771 -1.0006
 8843SOL     OW37990   1.722   4.154   1.743 -0.3574  0.1576 -0.2021
 8843SOL    HW137991   1.674   4.080   1.781 -0.7184  0.0802 -0.8014
 8843SOL    HW237992   1.684   4.226   1.793 -0.5166 -0.5493  0.6960
 8844SOL     OW37993   1.751   2.532   7.332  0.5378  0.1782 -0.8035
 8844SOL    HW137994   1.813   2.583   7.280  0.1181  0.8002 -0.6914
 8844SOL    HW237995   1.694   2.591   7.380  0.4918 -2.1179  1.9688
 8845SOL     OW37996   1.162   3.152   8.001  0.0602 -0.5805  0.7332
 8845SOL    HW137997   1.207   3.195   8.074  0.5242  0.4982 -0.1783
 8845SOL    HW237998   1.075   3.179   8.029 -0.4026 -2.3095  0.9657
 8846SOL     OW37999   4.424   4.052  12.809  0.3507 -0.0966  0.9560
 8846SOL    HW138000   4.393   4.047  12.899  0.5650 -0.0812  1.0289
 8846SOL    HW238001   4.515   4.023  12.817  0.6148  0.2659 -0.6133
 8847SOL     OW38002   1.173   2.135   4.143 -0.1776 -0.0312  0.3241
 8847SOL    HW138003   1.202   2.115   4.053 -0.6100  0.5350  0.0579
 8847SOL    HW238004   1.116   2.061   4.161 -0.5213  0.1220 -0.1380
 8848SOL     OW38005   2.081   3.525   9.495  0.1312  0.0302 -0.2949
 8848SOL    HW138006   2.166   3.491   9.525  0.8166  0.9157 -1.2514
 8848SOL    HW238007   2.053   3.574   9.572 -1.5862 -0.4004 -0.6307
 8849SOL     OW38008   1.044   3.744   7.165  0.8208 -0.1916  0.3882
 8849SOL    HW138009   1.110   3.733   7.234  2.7399 -0.0577 -1.4228
 8849SOL    HW238010   1.004   3.821   7.206  2.3659  0.2795  1.0097
 8850SOL     OW38011   3.592   0.896   7.461 -0.6078 -0.6561  0.2132
 8850SOL    HW138012   3.497   0.890   7.451 -0.8419 -0.7770  2.5940
 8850SOL    HW238013   3.598   0.906   7.556  0.6802  0.1272  0.0433
 8851SOL     OW38014   1.483   0.681  13.115 -0.0643 -0.3433  0.3968
 8851SOL    HW138015   1.434   0.666  13.196  1.5700  0.2694  1.5001
 8851SOL    HW238016   1.486   0.777  13.119  0.9120 -0.4251  1.6692
 8852SOL     OW38017   0.135   4.387   7.766  0.4254  0.5666  0.0647
 8852SOL    HW138018   0.179   4.411   7.685  0.8543 -0.4539 -0.0064
 8852SOL    HW238019   0.051   4.433   7.757  0.0076  0.1198  1.6455
 8853SOL     OW38020   1.362   4.669  14.593  0.1362 -0.6018 -0.3161
 8853SOL    HW138021   1.339   0.039  14.585 -0.6535 -0.7470  0.2761
 8853SOL    HW238022   1.354   4.636  14.503 -1.6033  2.2912 -1.2257
 8854SOL     OW38023   1.341   4.278  10.725 -0.7023  0.7208 -0.0764
 8854SOL    HW138024   1.289   4.358  10.728 -1.2943  0.3956 -1.3436
 8854SOL    HW238025   1.392   4.304  10.649  2.7157 -2.7665  1.0220
 8855SOL     OW38026   0.808   4.219   9.047 -0.5362 -0.2063  0.2803
 8855SOL    HW138027   0.894   4.261   9.054  0.1754 -1.8048  1.0554
 8855SOL    HW238028   0.771   4.250   8.964 -2.5442  2.2800  2.1294
 8856SOL     OW38029   2.898   0.504  11.603 -0.5064  0.0946 -0.5057
 8856SOL    HW138030   2.980   0.517  11.651 -0.3080  1.5923 -1.2202
 8856SOL    HW238031   2.838   0.478  11.673  2.4123  3.4824  3.2816
 8857SOL     OW38032   1.569   4.120   9.015 -0.7509 -0.0281 -0.0929
 8857SOL    HW138033   1.490   4.129   9.068 -2.4613 -1.2569 -2.4567
 8857SOL    HW238034   1.634   4.110   9.085 -2.0147  0.4431  1.1428
 8858SOL     OW38035   4.076   3.647   1.453 -0.0774 -0.2489  0.1263
 8858SOL    HW138036   4.161   3.683   1.478 -0.0202 -0.4585  0.2270
 8858SOL    HW238037   4.021   3.699   1.512 -0.2588 -0.4508  0.1355
 8859SOL     OW38038   0.429   3.140   6.590  0.1860 -0.9751  0.1822
 8859SOL    HW138039   0.354   3.168   6.641 -0.0425  0.6569 -1.0589
 8859SOL    HW238040   0.457   3.219   6.543 -2.8990  0.9406  1.6319
 8860SOL     OW38041   1.887   3.644  17.630 -0.2109  0.2462 -0.9496
 8860SOL    HW138042   1.957   3.710  17.634 -0.4662  0.4690 -0.1234
 8860SOL    HW238043   1.816   3.692  17.670 -1.3143  0.3639 -3.0485
 8861SOL     OW38044   2.751   1.418   7.703  0.1575  0.0946  0.1645
 8861SOL    HW138045   2.726   1.442   7.793  0.8466 -0.3011  0.4615
 8861SOL    HW238046   2.814   1.348   7.721  0.8778  0.4160 -1.0788
 8862SOL     OW38047   3.966   2.447  17.647 -0.1212 -0.1165 -0.0585
 8862SOL    HW138048   3.905   2.416  17.580 -1.2675 -0.6249  1.2167
 8862SOL    HW238049   4.050   2.413  17.618  1.5225  2.7727  1.3021
 8863SOL     OW38050   0.484   3.677   8.846  0.0699  0.3187 -0.0893
 8863SOL    HW138051   0.397   3.649   8.874  0.4671 -1.0927 -0.2907
 8863SOL    HW238052   0.542   3.648   8.916 -0.4734 -2.4083 -0.7785
 8864SOL     OW38053   1.005   4.177   0.444 -0.3948 -0.2233 -0.2472
 8864SOL    HW138054   0.983   4.102   0.500  0.8671 -0.3589  0.0507
 8864SOL    HW238055   1.063   4.136   0.380 -1.3613 -0.3899 -1.0247
 8865SOL     OW38056   0.435   3.856   6.599 -0.5852  0.5190  0.1821
 8865SOL    HW138057   0.377   3.784   6.575  0.5720 -0.6200  0.8535
 8865SOL    HW238058   0.506   3.830   6.541 -2.7164 -2.2683 -1.1556
 8866SOL     OW38059   0.321   1.955   3.177  0.1748 -0.3657  0.4388
 8866SOL    HW138060   0.298   1.979   3.087 -1.6349  3.2904  1.8685
 8866SOL    HW238061   0.241   1.987   3.220 -0.1811 -1.7575  0.8152
 8867SOL     OW38062   1.606   2.569   5.563 -0.0524 -0.5304 -0.3777
 8867SOL    HW138063   1.514   2.545   5.567 -0.1519 -0.5822 -2.9507
 8867SOL    HW238064   1.594   2.632   5.634  0.6031 -2.1479  1.1627
 8868SOL     OW38065   4.468   3.138  13.230  0.0031 -0.2042 -0.2324
 8868SOL    HW138066   4.488   3.227  13.259  0.8263 -0.4895  0.0707
 8868SOL    HW238067   4.387   3.124  13.278  0.4947  1.9958  1.2261
 8869SOL     OW38068   0.188   2.245   4.084  0.5454 -0.3926  0.0894
 8869SOL    HW138069   0.126   2.201   4.025  2.1043 -0.7850 -1.2846
 8869SOL    HW238070   0.212   2.317   4.025 -0.4114  0.1711  0.3846
 8870SOL     OW38071   1.107   4.328   1.757 -0.0713  0.5301  0.4364
 8870SOL    HW138072   1.174   4.263   1.735 -0.2919  0.9451 -1.4976
 8870SOL    HW238073   1.120   4.393   1.688  3.0613 -3.5029 -2.7797
 8871SOL     OW38074   2.124   4.354   4.359  0.2776 -0.3662 -0.3076
 8871SOL    HW138075   2.072   4.275   4.347  1.0930 -1.0348  0.5420
 8871SOL    HW238076   2.214   4.322   4.348  0.8068  1.4104 -1.1298
 8872SOL     OW38077   3.682   3.857  16.487 -0.3716 -0.1120 -0.0172
 8872SOL    HW138078   3.636   3.931  16.447 -1.5316  0.0442  1.5754
 8872SOL    HW238079   3.629   3.803  16.546  0.4342  1.2183  1.9317
 8873SOL     OW38080   0.337   4.324   9.086 -0.0650  0.1149  0.1489
 8873SOL    HW138081   0.276   4.284   9.024 -0.9145  1.5167  0.0963
 8873SOL    HW238082   0.273   4.371   9.138  0.9004  0.8790  0.6526
 8874SOL     OW38083   2.291   0.996   5.786 -0.7482  0.1279  0.4296
 8874SOL    HW138084   2.339   0.926   5.741 -2.1805 -0.3128 -0.4227
 8874SOL    HW238085   2.351   1.017   5.857 -0.2683 -0.5335  0.2207
 8875SOL     OW38086   1.412   1.143   7.905  0.1577  0.6061 -0.3105
 8875SOL    HW138087   1.370   1.168   7.987 -0.8367  0.7205 -0.8593
 8875SOL    HW238088   1.412   1.049   7.919  1.7829  0.4750 -1.1395
 8876SOL     OW38089   0.447   3.753   8.065 -0.0195 -0.5336 -0.1546
 8876SOL    HW138090   0.359   3.788   8.047 -0.3781 -1.5322 -0.3305
 8876SOL    HW238091   0.474   3.793   8.148 -0.0553 -1.3493  0.2532
 8877SOL     OW38092   4.095   2.730   5.469 -0.4551 -0.0340  0.7544
 8877SOL    HW138093   4.115   2.815   5.509 -0.6214  0.3612  0.0007
 8877SOL    HW238094   4.118   2.746   5.377 -1.6612  0.1183  0.4859
 8878SOL     OW38095   3.120   4.482   3.406 -0.4899 -0.0304 -0.2910
 8878SOL    HW138096   3.123   4.388   3.422 -0.0256  0.1410  0.6355
 8878SOL    HW238097   3.162   4.507   3.488  1.1895 -1.6418 -0.6807
 8879SOL     OW38098   4.403   1.581  13.498 -0.1687 -0.2779  0.6289
 8879SOL    HW138099   4.326   1.525  13.484 -1.2110  0.9982  1.1664
 8879SOL    HW238100   4.346   1.647  13.539 -2.0392 -1.1457 -0.5613
 8880SOL     OW38101   1.867   3.954   9.618 -0.2825  0.1212  0.1822
 8880SOL    HW138102   1.801   3.937   9.685 -0.2306 -0.6549  0.0468
 8880SOL    HW238103   1.925   4.017   9.660  0.8535  0.0605 -1.2692
 8881SOL     OW38104   3.389   1.631   2.344 -0.0714  0.7089 -0.5896
 8881SOL    HW138105   3.349   1.547   2.365  0.2546  0.8890  0.7782
 8881SOL    HW238106   3.471   1.626   2.394  0.3570  0.3603 -1.3356
 8882SOL     OW38107   1.434   4.214   0.459  1.1127 -0.6028 -0.0948
 8882SOL    HW138108   1.394   4.212   0.547  1.4185 -0.6073  0.0422
 8882SOL    HW238109   1.415   4.124   0.436  1.5907 -0.4484 -1.0784
 8883SOL     OW38110   1.883   1.075   6.691 -0.0682  0.0595  0.1265
 8883SOL    HW138111   1.801   1.124   6.692  0.0391  0.2303  0.5402
 8883SOL    HW238112   1.946   1.139   6.725  0.8607 -1.1283  0.6955
 8884SOL     OW38113   2.622   0.924  13.365 -0.2157 -0.1377 -0.2308
 8884SOL    HW138114   2.651   0.918  13.274 -2.8075 -1.9664 -0.9241
 8884SOL    HW238115   2.650   1.010  13.396  0.7429  0.1812 -2.0204
 8885SOL     OW38116   4.013   0.120   5.849 -0.6219  0.0874 -0.0634
 8885SOL    HW138117   4.021   0.197   5.905 -1.4132 -0.2951  0.5729
 8885SOL    HW238118   4.099   0.117   5.808  0.1798  0.7467  1.5671
 8886SOL     OW38119   0.078   0.274  17.417  0.1787  0.1223 -0.0513
 8886SOL    HW138120   0.045   0.351  17.370  0.7056  0.8046  0.7164
 8886SOL    HW238121   0.097   0.305  17.505  2.3767  0.5645 -0.6852
 8887SOL     OW38122   0.192   2.778   2.916  0.1906  0.2910 -0.5539
 8887SOL    HW138123   0.229   2.864   2.937  0.0306  0.6397 -1.7113
 8887SOL    HW238124   0.097   2.791   2.916  0.2738  0.8953  1.7691
 8888SOL     OW38125   4.494   0.842   1.007 -0.2272  0.4715 -0.2006
 8888SOL    HW138126   4.432   0.826   1.078  0.2510  2.7205  0.7131
 8888SOL    HW238127   4.544   0.918   1.036  0.3443  1.1841 -3.0562
 8889SOL     OW38128   4.252   4.080  17.628  0.4579  0.3059 -0.0067
 8889SOL    HW138129   4.333   4.107  17.586 -0.3556  1.4254 -0.8426
 8889SOL    HW238130   4.197   4.061  17.552  1.3349 -0.7621 -0.3791
 8890SOL     OW38131   0.947   1.629   8.788  0.3797  0.3229  0.2861
 8890SOL    HW138132   1.008   1.612   8.859  2.2114  2.5218 -0.7478
 8890SOL    HW238133   0.928   1.723   8.789  1.0306  0.4804 -1.1849
 8891SOL     OW38134   1.365   1.586  10.965  0.0776 -0.1175 -0.0532
 8891SOL    HW138135   1.345   1.499  11.000  2.7926 -0.6053  0.3449
 8891SOL    HW238136   1.358   1.630  11.050  1.1093  1.3167 -0.7139
 8892SOL     OW38137   1.416   4.319   7.979  0.5580 -0.4360  0.3286
 8892SOL    HW138138   1.325   4.314   8.010  0.2650 -1.3771 -0.6890
 8892SOL    HW238139   1.453   4.244   8.027  5.0042 -0.1687 -2.7480
 8893SOL     OW38140   2.423   0.414  10.112  0.2150  0.6690  0.2287
 8893SOL    HW138141   2.339   0.460  10.101  1.1117  1.7681 -1.8850
 8893SOL    HW238142   2.434   0.448  10.201  1.1248  0.1765  0.3005
 8894SOL     OW38143   2.118   2.706   6.701 -0.0528 -0.1503 -0.2601
 8894SOL    HW138144   2.197   2.692   6.754  0.6157  0.6481 -1.0436
 8894SOL    HW238145   2.069   2.624   6.700 -0.1385 -0.1057  0.3134
 8895SOL     OW38146   3.086   2.672   1.894  0.0677 -0.3161  0.0490
 8895SOL    HW138147   3.098   2.767   1.895 -0.8740 -0.1966 -0.2832
 8895SOL    HW238148   2.990   2.662   1.892  0.0199  0.2358 -0.3911
 8896SOL     OW38149   3.877   0.537   3.636 -0.0984 -0.3716 -0.1314
 8896SOL    HW138150   3.803   0.508   3.689 -0.9994  0.0927 -1.1352
 8896SOL    HW238151   3.938   0.470   3.666  0.9350 -0.0204 -1.4058
 8897SOL     OW38152   4.181   1.800   3.967  0.3940  0.1849  0.1022
 8897SOL    HW138153   4.252   1.846   3.922 -1.2840  1.4693 -1.2274
 8897SOL    HW238154   4.172   1.843   4.052  0.0298  0.8294 -0.2592
 8898SOL     OW38155   1.799   0.656   0.778 -0.5428 -0.2292 -0.3836
 8898SOL    HW138156   1.734   0.599   0.818 -0.8614  0.6999  0.4173
 8898SOL    HW238157   1.790   0.743   0.816  2.4294  0.3658 -1.0527
 8899SOL     OW38158   4.408   1.346  13.964  0.0728 -0.6527 -0.3252
 8899SOL    HW138159   4.334   1.286  13.970 -0.1665 -0.3320 -0.0736
 8899SOL    HW238160   4.435   1.338  13.872  1.1972 -3.3674  0.2564
 8900SOL     OW38161   3.896   0.632  11.299 -0.1814 -0.4277  0.5717
 8900SOL    HW138162   3.807   0.636  11.333 -0.1661 -1.2022  0.7039
 8900SOL    HW238163   3.894   0.599  11.209 -0.5613  2.9761 -0.6341
 8901SOL     OW38164   1.368   0.841  15.643  0.3063 -0.4092 -0.8436
 8901SOL    HW138165   1.360   0.835  15.738  0.3823  0.6590 -0.7772
 8901SOL    HW238166   1.321   0.921  15.620  2.6400  1.1018 -0.3186
 8902SOL     OW38167   4.324   1.072  12.920  0.2671 -0.8657 -0.1529
 8902SOL    HW138168   4.376   0.999  12.955 -0.0930 -0.0014  2.1889
 8902SOL    HW238169   4.258   1.082  12.988 -0.9840  0.7842 -1.6092
 8903SOL     OW38170   2.888   0.043  11.214  0.2361 -0.2458  0.2348
 8903SOL    HW138171   2.975   0.026  11.248  1.3885  1.0205 -2.0637
 8903SOL    HW238172   2.867   0.117  11.271  0.8804  0.8075 -0.8865
 8904SOL     OW38173   3.459   1.194   7.554  0.0581  0.0589  0.3905
 8904SOL    HW138174   3.382   1.177   7.500 -0.3896  0.3203  0.9521
 8904SOL    HW238175   3.450   1.289   7.562 -0.3033  0.1951 -1.6639
 8905SOL     OW38176   4.093   3.954  13.927  0.1789  0.4516 -0.3405
 8905SOL    HW138177   4.023   4.016  13.949 -2.1762 -1.7555 -1.6676
 8905SOL    HW238178   4.118   3.935  14.017 -0.4233  1.4775  0.0521
 8906SOL     OW38179   1.548   1.870   8.840 -0.1019 -0.2502 -0.1886
 8906SOL    HW138180   1.455   1.869   8.821  0.5313 -0.8038 -3.2344
 8906SOL    HW238181   1.558   1.954   8.885  0.9332  0.5009 -1.8084
 8907SOL     OW38182   3.958   4.304   2.991  0.2840  0.6686 -0.2769
 8907SOL    HW138183   3.896   4.236   2.966  2.1736 -0.5890 -1.5675
 8907SOL    HW238184   3.929   4.326   3.079  0.6303 -2.1815  0.5631
 8908SOL     OW38185   1.555   4.669  13.338 -0.4584  0.1735  0.3875
 8908SOL    HW138186   1.546   4.712  13.253  1.1323  2.6488  1.4966
 8908SOL    HW238187   1.528   4.582  13.308 -1.0965 -0.1455  1.8520
 8909SOL     OW38188   1.291   0.005  15.276  0.2256 -0.1265 -0.8199
 8909SOL    HW138189   1.374   0.011  15.229  0.5521 -1.0808 -0.3755
 8909SOL    HW238190   1.286   4.633  15.289 -0.8178  0.1768  1.0695
 8910SOL     OW38191   4.357   0.411  12.744  0.0618 -0.2584 -0.2167
 8910SOL    HW138192   4.437   0.454  12.713  0.3941  0.0077  0.9983
 8910SOL    HW238193   4.357   0.335  12.687 -2.3578  1.1893 -2.1328
 8911SOL     OW38194   2.334   0.528  13.984 -0.2727 -0.3219  0.1492
 8911SOL    HW138195   2.422   0.564  13.999  0.6996 -2.4199 -0.4273
 8911SOL    HW238196   2.357   0.438  14.010  1.5309 -0.6836 -2.7247
 8912SOL     OW38197   1.307   3.796   8.072 -0.2956 -0.7579  0.8476
 8912SOL    HW138198   1.326   3.809   7.979  0.0757  2.6914  1.3891
 8912SOL    HW238199   1.367   3.725   8.094 -0.7722 -1.1412  0.9087
 8913SOL     OW38200   1.417   0.226  12.545 -0.1513  0.1955  0.4639
 8913SOL    HW138201   1.477   0.151  12.544  0.8229  1.0082 -0.9248
 8913SOL    HW238202   1.473   0.283  12.598  0.7837  0.1359 -0.4554
 8914SOL     OW38203   0.724   2.283   3.733 -0.2040 -0.0376 -0.2849
 8914SOL    HW138204   0.709   2.304   3.825 -0.0619  0.2655 -0.3340
 8914SOL    HW238205   0.815   2.252   3.730 -0.3968 -0.5096 -1.4152
 8915SOL     OW38206   4.211   1.486   4.767  0.5016 -0.4504  0.0529
 8915SOL    HW138207   4.146   1.554   4.784  1.7311  0.4725  1.1025
 8915SOL    HW238208   4.177   1.438   4.691 -0.5043 -0.2396  0.3700
 8916SOL     OW38209   4.059   2.717   8.023 -0.1274  0.1937 -0.2546
 8916SOL    HW138210   4.113   2.736   7.946 -0.1521  1.1217 -0.0359
 8916SOL    HW238211   4.081   2.625   8.040 -0.4445  0.5150  1.8390
 8917SOL     OW38212   1.558   1.033  12.873 -0.0516 -0.3773  0.1493
 8917SOL    HW138213   1.506   1.035  12.953 -0.9371  1.0248 -0.4519
 8917SOL    HW238214   1.567   0.939  12.862  1.4240 -0.3921  1.6051
 8918SOL     OW38215   0.131   0.263   3.564  0.3667 -0.4893 -1.1726
 8918SOL    HW138216   0.101   0.353   3.554 -3.0173 -1.1991  2.7894
 8918SOL    HW238217   0.207   0.271   3.505 -0.6320  0.2021 -2.3706
 8919SOL     OW38218   1.543   3.816   3.236 -0.1794  0.1505 -0.4524
 8919SOL    HW138219   1.622   3.809   3.182 -0.6625  1.4240 -1.3046
 8919SOL    HW238220   1.532   3.910   3.250  0.0493 -0.5874  4.6828
 8920SOL     OW38221   2.755   4.682   2.176  0.0303  0.1964  0.1125
 8920SOL    HW138222   2.683   4.635   2.218  0.2425 -0.2312  0.0000
 8920SOL    HW238223   2.713   0.045   2.168 -1.4122 -0.5237 -0.1370
 8921SOL     OW38224   2.001   4.274  16.526  0.0843 -0.3234 -0.6584
 8921SOL    HW138225   2.006   4.273  16.622  0.4063  2.5818 -0.6321
 8921SOL    HW238226   2.014   4.180  16.516  1.0932 -0.2731  0.2019
 8922SOL     OW38227   0.024   0.610   0.034  0.4510 -0.0173  0.3901
 8922SOL    HW138228   0.012   0.597   0.128 -0.6288  0.8459  0.3736
 8922SOL    HW238229   0.004   0.704   0.034 -0.3260 -0.1821  0.9706
 8923SOL     OW38230   4.601   4.165   3.998 -0.0731 -0.0081 -0.2561
 8923SOL    HW138231   4.617   4.168   4.093  0.3244  0.4601 -0.3378
 8923SOL    HW238232   4.609   4.071   3.981  2.1800  0.1572 -0.1626
 8924SOL     OW38233   2.605   2.990   5.155 -0.3390  0.7593 -0.1785
 8924SOL    HW138234   2.675   3.019   5.214 -1.6064  1.4064  1.0032
 8924SOL    HW238235   2.625   3.045   5.079  0.5790 -0.2466 -0.6635
 8925SOL     OW38236   4.110   4.201  16.936  0.2476  0.2724  0.2631
 8925SOL    HW138237   4.178   4.210  17.003 -0.0599 -0.1236  0.6244
 8925SOL    HW238238   4.108   4.286  16.891  2.1089  0.6400  0.8784
 8926SOL     OW38239   4.614   2.512   1.543  0.4533  0.3423  0.1573
 8926SOL    HW138240   4.604   2.606   1.558  1.7870  0.3211  1.1234
 8926SOL    HW238241   4.605   2.508   1.447  0.5072 -0.2418  0.1754
 8927SOL     OW38242   2.621   2.635   3.077 -0.2896  0.1529 -0.0575
 8927SOL    HW138243   2.610   2.629   2.982  1.8385 -1.2858 -0.2070
 8927SOL    HW238244   2.714   2.652   3.086  0.4629 -1.8562 -4.0551
 8928SOL     OW38245   1.324   1.359   6.206 -0.1207 -0.1458 -0.4840
 8928SOL    HW138246   1.344   1.402   6.123 -1.2667  0.6693 -0.3375
 8928SOL    HW238247   1.304   1.270   6.178 -2.7808  0.7101 -1.2349
 8929SOL     OW38248   4.631   0.025   0.391 -0.0112  0.0084 -0.0838
 8929SOL    HW138249   4.695   0.086   0.425  0.9769 -0.0758 -1.7804
 8929SOL    HW238250   4.593   4.705   0.468 -0.2258  2.1473  0.9752
 8930SOL     OW38251   1.047   4.582  10.083  0.0311 -0.6333  0.0270
 8930SOL    HW138252   1.048   4.505  10.139  0.8074 -1.1711 -0.7276
 8930SOL    HW238253   1.137   4.577  10.051  0.4115  1.5159  0.7079
 8931SOL     OW38254   2.274   0.375  15.359 -0.0772 -0.0496  0.0247
 8931SOL    HW138255   2.331   0.441  15.320 -0.9815  0.3031 -0.7174
 8931SOL    HW238256   2.312   0.294  15.324  1.1179  0.2678  0.6190
 8932SOL     OW38257   1.008   1.948  16.593 -0.1477  0.3552  0.2452
 8932SOL    HW138258   0.931   1.897  16.619 -0.2293 -0.1451 -0.9703
 8932SOL    HW238259   1.068   1.885  16.633 -0.8501 -1.4288 -1.4957
 8933SOL     OW38260   0.183   0.212   1.283 -0.5919 -0.1303 -0.6521
 8933SOL    HW138261   0.274   0.208   1.252  0.1375  1.9773  1.2866
 8933SOL    HW238262   0.176   0.118   1.265  3.2440 -0.1902 -1.9281
 8934SOL     OW38263   2.638   0.970  13.722 -0.1166  0.2155 -0.1224
 8934SOL    HW138264   2.562   0.925  13.686  1.1626 -0.9334 -1.4495
 8934SOL    HW238265   2.695   0.892  13.726 -0.8544 -0.2281  1.5841
 8935SOL     OW38266   1.140   3.599   0.635 -0.5893 -0.1319  0.0723
 8935SOL    HW138267   1.060   3.567   0.593  0.6983 -1.7888 -1.1288
 8935SOL    HW238268   1.178   3.652   0.564 -0.9329 -1.0605 -0.8103
 8936SOL     OW38269   3.989   2.926  15.977  0.1971  0.4458 -0.1023
 8936SOL    HW138270   3.906   2.917  15.931 -0.1377  1.3235  0.3395
 8936SOL    HW238271   3.959   2.999  16.031  0.4495 -0.8467  1.7846
 8937SOL     OW38272   1.437   2.797   2.536 -0.0744  0.4520 -0.3467
 8937SOL    HW138273   1.476   2.780   2.450 -2.0581 -0.8681 -0.9648
 8937SOL    HW238274   1.515   2.779   2.588 -0.1238 -0.5637 -0.6339
 8938SOL     OW38275   0.393   0.596  11.548  0.0162 -0.2308 -0.4995
 8938SOL    HW138276   0.488   0.595  11.565  0.1078  1.2169 -0.9352
 8938SOL    HW238277   0.392   0.609  11.454 -1.0296  0.7189 -0.3456
 8939SOL     OW38278   4.525   0.860  14.947  0.0487 -0.2363  0.1391
 8939SOL    HW138279   4.612   0.899  14.958  0.5025 -1.8500  2.1041
 8939SOL    HW238280   4.527   0.776  14.992  3.6197  0.2218  0.8405
 8940SOL     OW38281   1.182   0.639  17.381 -0.1537  0.1157  0.1045
 8940SOL    HW138282   1.251   0.615  17.319 -0.5399  0.6521 -0.5358
 8940SOL    HW238283   1.177   0.732  17.360  0.0689 -0.2605 -1.6131
 8941SOL     OW38284   3.437   2.209  11.619 -0.3702 -0.0637 -0.0867
 8941SOL    HW138285   3.525   2.194  11.653 -1.3505 -1.2315  2.0067
 8941SOL    HW238286   3.443   2.209  11.524 -0.2430 -0.3956 -0.0786
 8942SOL     OW38287   3.540   2.871   1.535 -0.6698 -0.8271 -0.6275
 8942SOL    HW138288   3.534   2.963   1.510  0.1619 -1.1278 -1.9249
 8942SOL    HW238289   3.618   2.866   1.480  0.0564 -0.6877  0.3869
 8943SOL     OW38290   4.718   1.181   3.454  0.3793 -0.4639 -0.0657
 8943SOL    HW138291   0.023   1.237   3.382 -0.4273 -1.6911 -1.3115
 8943SOL    HW238292   4.630   1.216   3.472  1.0476  2.2621 -2.1307
 8944SOL     OW38293   0.860   0.258   8.196 -0.0405 -0.4836  0.0470
 8944SOL    HW138294   0.768   0.273   8.219 -0.4523 -1.5953 -0.8343
 8944SOL    HW238295   0.868   0.202   8.274 -0.2190  0.5031  0.7828
 8945SOL     OW38296   3.231   1.845   6.102  0.4251 -0.5889 -0.0551
 8945SOL    HW138297   3.278   1.835   6.185 -0.3016 -1.3496  0.2574
 8945SOL    HW238298   3.290   1.797   6.044  0.2461 -1.9853  0.9324
 8946SOL     OW38299   0.955   1.844   6.870 -0.3056  0.3988 -0.6359
 8946SOL    HW138300   0.900   1.781   6.915 -0.0856  1.0549  0.5328
 8946SOL    HW238301   0.933   1.925   6.916 -0.5496  0.5325 -0.9870
 8947SOL     OW38302   4.087   3.104   9.994 -0.6627 -0.1237 -0.1137
 8947SOL    HW138303   4.122   3.152   9.920 -1.3966 -0.9720 -1.0074
 8947SOL    HW238304   4.097   3.171  10.061 -1.5427  1.4807 -1.6125
 8948SOL     OW38305   1.701   1.088   4.702  0.2988  0.6109 -0.3747
 8948SOL    HW138306   1.783   1.091   4.751  0.2372  4.2165 -0.4674
 8948SOL    HW238307   1.696   1.180   4.675  0.2787  0.7933  0.2454
 8949SOL     OW38308   0.372   2.487   2.121 -0.0495  0.3701  0.1581
 8949SOL    HW138309   0.466   2.474   2.135 -0.1541 -0.3632  0.1985
 8949SOL    HW238310   0.369   2.566   2.067  0.4607  1.4733  1.7454
 8950SOL     OW38311   0.067   1.681   5.667 -0.2753 -0.1566 -0.2757
 8950SOL    HW138312   0.059   1.586   5.678 -1.0363  0.0408  0.8426
 8950SOL    HW238313   0.138   1.678   5.602  1.6742  0.0319  1.8463
 8951SOL     OW38314   4.095   1.906   3.221  0.3272 -0.3669  0.8192
 8951SOL    HW138315   4.099   1.873   3.131  1.9666  0.1633  0.6861
 8951SOL    HW238316   4.156   1.979   3.213 -0.5695  0.2338 -0.6158
 8952SOL     OW38317   0.876   4.567   1.479 -0.2088 -0.3758 -0.3009
 8952SOL    HW138318   0.830   4.595   1.400 -1.6036 -0.3449  0.5119
 8952SOL    HW238319   0.911   4.651   1.509  4.0108 -2.7563  1.4240
 8953SOL     OW38320   2.054   4.539   4.867  0.3139  0.6301  0.1123
 8953SOL    HW138321   1.960   4.526   4.873 -0.0013  1.7206 -2.2740
 8953SOL    HW238322   2.062   4.560   4.774 -0.4760 -0.9751 -0.3105
 8954SOL     OW38323   3.095   2.893  16.445  0.1114 -0.1236  0.1109
 8954SOL    HW138324   3.113   2.828  16.513  2.5481  1.5945  1.1272
 8954SOL    HW238325   3.129   2.852  16.365  0.6357 -0.3796  0.4645
 8955SOL     OW38326   2.115   0.891  15.913 -0.5087 -0.8719 -0.3115
 8955SOL    HW138327   2.051   0.831  15.952 -0.7551 -1.2200 -1.2454
 8955SOL    HW238328   2.200   0.847  15.899  0.0471  0.7351 -1.9173
 8956SOL     OW38329   0.951   0.474   6.478  0.6143  0.0380  0.1407
 8956SOL    HW138330   0.953   0.545   6.542 -0.4778 -0.4392  0.7013
 8956SOL    HW238331   0.952   0.522   6.395 -1.0949  0.7156  0.5272
 8957SOL     OW38332   3.958   4.154  16.517 -0.0764  0.1115 -0.1951
 8957SOL    HW138333   3.974   4.178  16.426  0.3721  1.0245  0.1236
 8957SOL    HW238334   3.973   4.240  16.557 -1.9879 -0.5955  2.0838
 8958SOL     OW38335   4.155   1.037   8.769  0.2359  0.2018 -0.3455
 8958SOL    HW138336   4.157   1.045   8.864 -2.7829 -0.6138 -0.2211
 8958SOL    HW238337   4.059   1.034   8.766  0.2902 -0.5831 -1.5020
 8959SOL     OW38338   4.081   0.412  12.782  0.0855  0.0680  0.5087
 8959SOL    HW138339   4.080   0.424  12.687  0.2723  0.9937  0.6202
 8959SOL    HW238340   4.165   0.369  12.797  0.6664  0.7165 -0.8471
 8960SOL     OW38341   3.199   2.714   1.281 -0.3968  0.2104 -0.3620
 8960SOL    HW138342   3.159   2.731   1.366 -1.8934 -0.9675 -0.8338
 8960SOL    HW238343   3.264   2.784   1.279 -1.2142  0.9859  0.1226
 8961SOL     OW38344   2.639   1.857   8.512  0.0877 -0.0501 -0.1891
 8961SOL    HW138345   2.585   1.821   8.442 -1.1073  0.9694  0.1899
 8961SOL    HW238346   2.665   1.772   8.548  0.6051 -0.1451 -0.7957
 8962SOL     OW38347   0.488   3.467   4.461  0.0269 -0.1590  0.3000
 8962SOL    HW138348   0.572   3.453   4.504  0.4544  0.5115 -0.3106
 8962SOL    HW238349   0.487   3.400   4.393 -0.5695 -0.1766  0.3219
 8963SOL     OW38350   3.239   4.233   1.994  0.3053 -0.8399  0.0097
 8963SOL    HW138351   3.200   4.145   1.993 -1.6763  0.0508 -2.3062
 8963SOL    HW238352   3.232   4.264   2.084  0.8656 -0.5986 -0.0343
 8964SOL     OW38353   3.722   2.798  16.600  0.5250  0.1812 -0.0130
 8964SOL    HW138354   3.741   2.892  16.607  0.0450  0.2326  0.6654
 8964SOL    HW238355   3.808   2.759  16.590 -0.8573 -2.3679 -2.0128
 8965SOL     OW38356   4.277   0.551   4.936 -0.3223 -0.3410  0.4195
 8965SOL    HW138357   4.363   0.517   4.961 -0.3437 -1.9384 -1.7135
 8965SOL    HW238358   4.226   0.475   4.963 -3.5335  1.1137 -1.5577
 8966SOL     OW38359   1.326   0.504  15.063 -0.4705  0.0848 -0.5506
 8966SOL    HW138360   1.358   0.415  15.048  0.4255  0.7552 -2.6671
 8966SOL    HW238361   1.399   0.566  15.063 -1.0854  0.8141 -0.9082
 8967SOL     OW38362   1.431   1.455   2.841  0.0284 -0.0951 -0.3243
 8967SOL    HW138363   1.453   1.398   2.768  1.4738  0.4760 -0.3368
 8967SOL    HW238364   1.519   1.462   2.878  0.4844  0.6103 -1.5405
 8968SOL     OW38365   3.894   4.714   1.259 -0.5499 -0.0567  0.5901
 8968SOL    HW138366   3.921   0.080   1.280 -1.7367 -0.1301  2.4576
 8968SOL    HW238367   3.960   4.691   1.194  0.2408  2.9512  0.3525
 8969SOL     OW38368   0.725   3.937   6.042  0.3042 -0.3332 -0.2454
 8969SOL    HW138369   0.813   3.910   6.068 -0.0090 -0.7538  0.3796
 8969SOL    HW238370   0.711   4.022   6.083 -2.5513 -0.1230 -1.6543
 8970SOL     OW38371   1.349   0.479  15.392  0.3637  0.5485  0.2092
 8970SOL    HW138372   1.294   0.489  15.315 -0.4177 -0.5099  0.6179
 8970SOL    HW238373   1.349   0.383  15.396  1.0323  0.6980  4.4770
 8971SOL     OW38374   4.322   3.432   6.451  0.1313  0.1353  0.1109
 8971SOL    HW138375   4.288   3.477   6.528  2.4497 -2.6124  2.7451
 8971SOL    HW238376   4.325   3.341   6.482 -0.5592 -0.1907 -0.7750
 8972SOL     OW38377   0.514   3.981   7.004  0.1601  0.1728  0.3562
 8972SOL    HW138378   0.583   4.045   6.986  1.2765 -1.2461 -0.4210
 8972SOL    HW238379   0.556   3.932   7.075  1.3865 -1.0635 -1.2412
 8973SOL     OW38380   2.639   2.509   9.005  0.6772  0.1052  0.6874
 8973SOL    HW138381   2.627   2.466   8.920  1.8820 -1.6247  1.4025
 8973SOL    HW238382   2.582   2.584   8.986 -0.4257 -0.9052 -0.0462
 8974SOL     OW38383   1.894   2.277   0.779  0.4553  0.4037 -0.0946
 8974SOL    HW138384   1.987   2.266   0.759  0.0383 -0.1842 -1.7067
 8974SOL    HW238385   1.879   2.365   0.744  2.3456  0.1607 -1.5056
 8975SOL     OW38386   1.719   3.697  15.464 -0.5702  0.0859  0.1267
 8975SOL    HW138387   1.744   3.778  15.419  0.0970 -1.7972 -2.8344
 8975SOL    HW238388   1.796   3.644  15.445  1.0709  1.9119  1.6165
 8976SOL     OW38389   3.729   3.981   0.956  0.2060  0.1788 -0.2032
 8976SOL    HW138390   3.806   3.927   0.939  0.6408  0.8472 -0.3539
 8976SOL    HW238391   3.669   3.922   1.001 -0.0141 -0.6692 -1.6227
 8977SOL     OW38392   2.507   4.618   5.735 -0.2178  0.5708 -0.8402
 8977SOL    HW138393   2.472   4.632   5.823  0.4517 -0.1065 -0.4609
 8977SOL    HW238394   2.548   4.531   5.741 -0.8367  0.3280 -0.1924
 8978SOL     OW38395   0.270   1.520  11.094  0.0338  0.3747 -0.2061
 8978SOL    HW138396   0.176   1.527  11.111  0.1459 -0.4943  0.7581
 8978SOL    HW238397   0.304   1.541  11.181 -2.6353  0.7671  0.7383
 8979SOL     OW38398   1.944   3.905   9.025 -0.3184 -0.0970  0.0178
 8979SOL    HW138399   1.996   3.946   8.957 -0.3163  0.8527  0.5904
 8979SOL    HW238400   1.969   3.955   9.103  2.1730  0.0128 -0.8550
 8980SOL     OW38401   3.283   0.082   4.365  0.7269 -0.0667 -0.0341
 8980SOL    HW138402   3.311   0.122   4.447  1.2852  0.3788 -0.4428
 8980SOL    HW238403   3.275   0.164   4.316  0.5853 -0.5702 -0.8557
 8981SOL     OW38404   2.434   2.452   7.810 -0.1126 -0.0310  0.1809
 8981SOL    HW138405   2.518   2.495   7.822 -1.6711  2.9180  0.6425
 8981SOL    HW238406   2.461   2.366   7.842  1.7068  0.0316 -1.1897
 8982SOL     OW38407   4.097   3.450   7.559 -0.1742  0.2554  0.5146
 8982SOL    HW138408   4.013   3.457   7.514  0.8668  0.4434 -1.3952
 8982SOL    HW238409   4.055   3.468   7.644  1.0902 -1.8454  1.5979
 8983SOL     OW38410   2.623   2.894  12.554 -0.2283 -0.2428  0.0358
 8983SOL    HW138411   2.542   2.937  12.528 -0.1916 -0.4267 -0.3779
 8983SOL    HW238412   2.673   2.901  12.473 -1.0261  2.1125 -0.2368
 8984SOL     OW38413   1.839   4.498   1.575  0.0302  0.0917  0.0689
 8984SOL    HW138414   1.933   4.483   1.575 -0.1937 -1.2979 -1.1960
 8984SOL    HW238415   1.818   4.492   1.668  2.0585 -0.1960  0.4927
 8985SOL     OW38416   3.092   3.240   6.141 -0.6281  0.1282 -0.4781
 8985SOL    HW138417   3.099   3.170   6.207 -0.4744 -0.4936 -1.1532
 8985SOL    HW238418   3.092   3.318   6.196  1.3762  0.2134 -0.5688
 8986SOL     OW38419   4.135   3.681   0.807 -0.0869  0.5436 -0.0451
 8986SOL    HW138420   4.207   3.694   0.869  0.3889 -3.7052  0.2613
 8986SOL    HW238421   4.136   3.751   0.742  1.2197  0.5011 -0.0829
 8987SOL     OW38422   2.834   3.948   5.322  0.1216  0.1212  0.1014
 8987SOL    HW138423   2.917   3.969   5.281 -0.1082  1.8802  0.5367
 8987SOL    HW238424   2.856   3.931   5.414 -3.3154  1.2245  1.1570
 8988SOL     OW38425   0.795   3.350   3.579 -0.3536 -0.0409  0.1034
 8988SOL    HW138426   0.872   3.359   3.523  0.7865 -2.4822  1.2757
 8988SOL    HW238427   0.829   3.376   3.665 -1.8581 -0.8136  0.9283
 8989SOL     OW38428   0.923   4.665  15.165 -0.1923  0.5471  0.5007
 8989SOL    HW138429   0.966   4.679  15.250  1.6811 -0.4733 -0.2812
 8989SOL    HW238430   0.936   0.023  15.115  0.8583 -0.2549 -0.5137
 8990SOL     OW38431   1.531   0.525  12.896  0.0166  0.5403  0.3202
 8990SOL    HW138432   1.523   0.594  12.831 -0.4996  0.8855  0.7496
 8990SOL    HW238433   1.534   0.573  12.979  0.5587 -1.3607  1.3947
 8991SOL     OW38434   3.600   4.027   5.328  0.8408  0.4849  0.3266
 8991SOL    HW138435   3.535   3.957   5.328  0.3300  0.9592  0.7746
 8991SOL    HW238436   3.648   3.997   5.405 -1.0179 -0.9280  0.9298
 8992SOL     OW38437   0.863   2.590   1.749  0.3833  0.1167  0.1345
 8992SOL    HW138438   0.908   2.509   1.771 -1.2459 -0.5764  0.9346
 8992SOL    HW238439   0.930   2.643   1.706  0.0626  1.7521  1.6135
 8993SOL     OW38440   1.676   2.945  13.344 -0.0496  0.1524  0.3586
 8993SOL    HW138441   1.601   2.986  13.302 -0.0056 -2.0195 -1.8081
 8993SOL    HW238442   1.648   2.943  13.436 -1.1193 -1.9465 -0.0321
 8994SOL     OW38443   2.668   0.287   2.928  0.0756  0.9030 -0.1582
 8994SOL    HW138444   2.613   0.240   2.991  0.3033  1.2567  0.3040
 8994SOL    HW238445   2.744   0.230   2.936 -1.0113 -0.6763 -1.1607
 8995SOL     OW38446   3.053   0.198   7.556  0.3826  0.1115 -0.5015
 8995SOL    HW138447   3.008   0.256   7.617  0.9896 -0.8764  0.8868
 8995SOL    HW238448   3.062   0.121   7.611 -0.4918  0.7630  0.5284
 8996SOL     OW38449   0.112   3.808   3.682  0.1707 -0.3012  0.2259
 8996SOL    HW138450   0.168   3.737   3.649 -2.7250 -2.4520 -0.0564
 8996SOL    HW238451   0.092   3.858   3.603 -0.7820 -2.0298 -0.6140
 8997SOL     OW38452   0.114   3.608  15.416  0.2319 -0.4123  0.1423
 8997SOL    HW138453   0.083   3.525  15.453  0.0634  0.7073  2.5496
 8997SOL    HW238454   0.123   3.583  15.325  1.2240 -0.3360  0.2134
 8998SOL     OW38455   3.401   1.196   8.466 -0.0510  0.0406 -0.2556
 8998SOL    HW138456   3.432   1.242   8.544 -2.8469  2.9754 -0.8944
 8998SOL    HW238457   3.345   1.257   8.417  0.0108  0.3168  0.0160
 8999SOL     OW38458   4.360   1.214   6.487  0.0875 -0.0452  0.1103
 8999SOL    HW138459   4.341   1.156   6.413 -2.9834 -0.7799  1.4890
 8999SOL    HW238460   4.309   1.165   6.551 -0.2133  0.4063  0.2218
 9000SOL     OW38461   2.029   0.203   6.641 -0.4769 -0.1663 -0.0442
 9000SOL    HW138462   1.977   0.177   6.565 -0.5953  0.8571 -0.3194
 9000SOL    HW238463   1.976   0.280   6.662 -0.8369 -0.1522 -1.0155
 9001SOL     OW38464   2.777   3.059   6.177 -0.5551  0.4186  0.1850
 9001SOL    HW138465   2.747   3.037   6.089  1.2393  0.0458 -0.3419
 9001SOL    HW238466   2.787   3.154   6.178  3.0792  0.0177  0.9017
 9002SOL     OW38467   4.104   2.457  11.298 -0.2626 -0.0720 -0.0035
 9002SOL    HW138468   4.112   2.552  11.296  1.9472 -0.3125 -1.8517
 9002SOL    HW238469   4.191   2.417  11.291  0.0597  0.0306  3.1145
 9003SOL     OW38470   2.373   2.948   4.119  0.6063 -0.5967  0.3138
 9003SOL    HW138471   2.376   3.003   4.198  0.3088 -0.2027  0.0473
 9003SOL    HW238472   2.459   2.906   4.127 -0.2756 -2.5161 -0.2731
 9004SOL     OW38473   2.821   4.329   5.388 -0.7492 -0.6341 -0.3396
 9004SOL    HW138474   2.739   4.335   5.437 -0.3618 -0.0031  0.2348
 9004SOL    HW238475   2.798   4.276   5.312 -1.9836  1.1681 -1.2288
 9005SOL     OW38476   3.664   2.486  10.587 -0.3815  0.2848  0.2208
 9005SOL    HW138477   3.598   2.529  10.641 -0.9556  0.4296 -0.5898
 9005SOL    HW238478   3.629   2.398  10.571  0.9283 -0.0726 -0.6895
 9006SOL     OW38479   4.623   2.819   9.588  0.0173  0.3308 -0.0951
 9006SOL    HW138480   4.613   2.878   9.663 -0.6685  0.6689 -0.4549
 9006SOL    HW238481   4.550   2.851   9.535  0.7361  2.2213  0.0496
 9007SOL     OW38482   2.578   3.349   2.081 -0.3087  0.2622  0.0336
 9007SOL    HW138483   2.615   3.370   2.167 -0.6997  2.8409 -0.4233
 9007SOL    HW238484   2.509   3.285   2.101 -0.5359  0.9220  1.3616
 9008SOL     OW38485   0.945   3.198  12.153  0.2050  0.6090 -0.4811
 9008SOL    HW138486   0.851   3.209  12.169 -0.2847 -0.1935 -2.7500
 9008SOL    HW238487   0.931   3.121  12.097 -0.4974  1.0232 -0.8831
 9009SOL     OW38488   1.169   1.352  14.630 -0.1530 -0.4450  0.0210
 9009SOL    HW138489   1.185   1.339  14.724 -1.0425  1.6568  0.4664
 9009SOL    HW238490   1.255   1.384  14.604 -0.7430  0.0570 -1.2934
 9010SOL     OW38491   1.253   2.971   4.582  0.4893 -0.1022  0.5078
 9010SOL    HW138492   1.211   2.892   4.617 -0.5097  0.8631  1.4958
 9010SOL    HW238493   1.181   3.015   4.537 -0.6402 -1.2630  1.1746
 9011SOL     OW38494   3.551   4.209   7.276 -0.0433 -0.2336  0.1440
 9011SOL    HW138495   3.562   4.303   7.287 -0.9636 -0.0376 -0.6427
 9011SOL    HW238496   3.477   4.215   7.216 -1.1344 -2.0186  1.3069
 9012SOL     OW38497   0.078   3.156  15.391  0.3828  0.1818  0.6211
 9012SOL    HW138498   0.078   3.191  15.302  0.2451 -1.6148 -0.0796
 9012SOL    HW238499   0.089   3.224  15.458 -0.0662  1.1809 -0.3156
 9013SOL     OW38500   4.043   1.984   9.948  0.0500  0.0412 -0.5079
 9013SOL    HW138501   4.090   2.014  10.025  0.2560 -0.2669 -0.5119
 9013SOL    HW238502   3.957   1.954   9.978 -1.2186  2.7918 -1.3907
 9014SOL     OW38503   0.880   0.776   1.461  0.2947 -0.7131  0.4409
 9014SOL    HW138504   0.843   0.859   1.491 -0.5363  0.6623 -4.3791
 9014SOL    HW238505   0.884   0.802   1.369  0.2286  0.5994  0.8064
 9015SOL     OW38506   4.505   1.186   4.706 -0.1058 -0.1630  0.2752
 9015SOL    HW138507   4.459   1.102   4.709  1.1405 -0.7819  1.8054
 9015SOL    HW238508   4.482   1.226   4.790  1.5586  0.0895  0.5971
 9016SOL     OW38509   2.751   4.657   4.482 -0.3476  0.7805 -0.2634
 9016SOL    HW138510   2.686   4.714   4.440 -1.2595  1.0035  1.4247
 9016SOL    HW238511   2.773   4.588   4.420 -1.5058 -1.0780  1.3915
 9017SOL     OW38512   1.736   2.296   2.551 -0.0272  0.1486  0.0586
 9017SOL    HW138513   1.664   2.348   2.587 -0.5084 -0.1191 -0.5102
 9017SOL    HW238514   1.759   2.238   2.624 -0.2685 -2.0164 -1.5887
 9018SOL     OW38515   1.612   4.579   8.959 -0.3459 -0.0164 -0.0687
 9018SOL    HW138516   1.629   4.538   9.044  1.7024  0.6530 -0.1453
 9018SOL    HW238517   1.687   4.554   8.905  0.9299  1.5447  0.9740
 9019SOL     OW38518   3.033   2.977   3.325 -1.0271 -0.1333 -0.0157
 9019SOL    HW138519   3.097   2.907   3.313 -1.5698 -0.3394 -1.7265
 9019SOL    HW238520   3.047   3.030   3.246  2.4414  1.0649  1.4058
 9020SOL     OW38521   4.197   0.727  14.304  0.5303 -0.1865  0.0359
 9020SOL    HW138522   4.107   0.699  14.321  0.0899  0.3225 -1.4612
 9020SOL    HW238523   4.219   0.788  14.375 -0.5540 -0.0519  0.2491
 9021SOL     OW38524   3.494   1.659   1.874  0.3099  0.4712 -0.2329
 9021SOL    HW138525   3.467   1.602   1.801  0.7399 -0.3017  0.2191
 9021SOL    HW238526   3.576   1.620   1.902  2.2208  2.1541 -3.4309
 9022SOL     OW38527   2.242   2.964   5.052 -0.3001  0.1158 -0.6063
 9022SOL    HW138528   2.216   3.050   5.085  0.1511  0.4033 -0.9870
 9022SOL    HW238529   2.329   2.991   5.021 -0.1949 -0.5861 -0.9161
 9023SOL     OW38530   1.539   0.733   2.533  0.3052 -0.3068  0.4372
 9023SOL    HW138531   1.457   0.752   2.580  0.6979  0.8201  0.6724
 9023SOL    HW238532   1.519   0.777   2.451  0.6285 -0.1421  0.4493
 9024SOL     OW38533   4.257   1.271  10.414 -0.1024 -0.2256  0.2120
 9024SOL    HW138534   4.175   1.320  10.406  0.4266  1.0347  2.5408
 9024SOL    HW238535   4.237   1.184  10.379  1.9046 -1.4488  2.1495
 9025SOL     OW38536   1.059   2.760  15.866  0.3136 -0.1517  0.3229
 9025SOL    HW138537   1.137   2.816  15.875 -0.1166  0.7014 -1.2493
 9025SOL    HW238538   1.018   2.798  15.944 -2.8077 -1.4454 -0.6989
 9026SOL     OW38539   3.465   4.625   7.639  0.4433 -0.3212 -0.1210
 9026SOL    HW138540   3.537   4.650   7.581  0.2526 -4.2675 -2.0235
 9026SOL    HW238541   3.395   4.673   7.595  0.3043  0.5744  1.0446
 9027SOL     OW38542   3.269   0.676   3.136  0.2923  0.1539 -0.5743
 9027SOL    HW138543   3.228   0.705   3.055  0.5404 -1.1005 -1.1363
 9027SOL    HW238544   3.221   0.595   3.154 -0.1215 -0.0124 -2.4296
 9028SOL     OW38545   0.642   0.255  11.559 -0.3654  0.0839  0.2089
 9028SOL    HW138546   0.689   0.198  11.619  1.2803 -1.5253 -2.5840
 9028SOL    HW238547   0.550   0.233  11.573 -0.4852  0.3885 -0.1119
 9029SOL     OW38548   2.653   4.141   4.425  0.5101 -0.0777 -0.0558
 9029SOL    HW138549   2.662   4.056   4.469  0.8043  0.2185  0.4598
 9029SOL    HW238550   2.734   4.189   4.442  1.0249 -1.3382  0.9931
 9030SOL     OW38551   2.191   1.692   6.738 -0.3864  0.1681 -0.1080
 9030SOL    HW138552   2.261   1.661   6.681 -1.2025  0.6672 -1.3616
 9030SOL    HW238553   2.120   1.635   6.709 -0.5957  0.6185 -0.4737
 9031SOL     OW38554   3.575   2.990   4.877 -0.2590  0.7168 -0.1101
 9031SOL    HW138555   3.590   2.896   4.875 -2.4548  0.3532  0.2779
 9031SOL    HW238556   3.529   3.011   4.795  0.8837  1.1463 -0.6375
 9032SOL     OW38557   2.134   3.717   4.720 -0.3214  0.1302  0.3170
 9032SOL    HW138558   2.047   3.755   4.735 -1.0339 -1.1385 -0.5729
 9032SOL    HW238559   2.149   3.676   4.805 -2.0615 -0.9146  0.1080
 9033SOL     OW38560   3.596   2.479   1.235 -0.0867  0.0941 -0.3074
 9033SOL    HW138561   3.543   2.531   1.175 -0.8497 -0.4462 -0.0958
 9033SOL    HW238562   3.531   2.417   1.268 -0.3636 -0.5695 -2.0829
 9034SOL     OW38563   0.873   3.741   0.743  0.3499 -0.1602  0.2936
 9034SOL    HW138564   0.901   3.662   0.698  0.0732 -0.5159  0.7343
 9034SOL    HW238565   0.919   3.731   0.826  1.3614 -0.8045 -0.3494
 9035SOL     OW38566   2.074   2.097   8.372  0.0148 -0.0775 -0.9854
 9035SOL    HW138567   2.099   2.079   8.282  2.4875 -1.0233 -0.1148
 9035SOL    HW238568   1.983   2.121   8.360 -0.2055 -0.1354  0.5553
 9036SOL     OW38569   0.151   2.372   7.646  0.6871  0.3737  0.1452
 9036SOL    HW138570   0.173   2.367   7.553 -3.5121 -0.1972 -0.8387
 9036SOL    HW238571   0.239   2.394   7.675  1.4616  0.4843 -2.2595
 9037SOL     OW38572   4.696   3.714   2.526 -0.3192 -0.0518 -0.6745
 9037SOL    HW138573   4.684   3.762   2.444 -0.3628  2.6501  0.9498
 9037SOL    HW238574   0.041   3.769   2.563 -3.2066  0.6250  3.5066
 9038SOL     OW38575   2.148   0.999   5.063  0.1483 -0.2125 -0.0209
 9038SOL    HW138576   2.065   1.047   5.055 -0.4334 -0.9557  1.4759
 9038SOL    HW238577   2.162   1.017   5.156  1.5052 -3.5406  0.4274
 9039SOL     OW38578   1.589   0.391  12.659  0.5794  0.0529 -0.4385
 9039SOL    HW138579   1.663   0.449  12.639  1.6477 -1.0071  0.4340
 9039SOL    HW238580   1.568   0.430  12.743 -0.5182  0.6797 -1.0035
 9040SOL     OW38581   1.626   2.171  15.529 -0.1243  0.0943  0.7801
 9040SOL    HW138582   1.642   2.245  15.470  1.2901 -1.3492 -0.6808
 9040SOL    HW238583   1.531   2.174  15.536  0.0988  0.6923  3.5601
 9041SOL     OW38584   2.430   3.855   6.535  0.8030 -0.1171 -0.1448
 9041SOL    HW138585   2.400   3.930   6.586 -0.1198 -0.9598  0.5572
 9041SOL    HW238586   2.453   3.889   6.448  2.4665 -1.4861 -0.2479
 9042SOL     OW38587   0.623   2.385  13.690 -0.4031  0.3297  0.3981
 9042SOL    HW138588   0.717   2.384  13.709 -0.0531 -1.2349 -1.4393
 9042SOL    HW238589   0.632   2.379  13.595  0.4644 -0.6159  0.5346
 9043SOL     OW38590   1.114   2.365   2.635 -0.3194 -0.5341 -0.3287
 9043SOL    HW138591   1.156   2.419   2.702 -0.4584 -0.7430 -0.0732
 9043SOL    HW238592   1.176   2.358   2.562  1.7809 -0.8793  1.4710
 9044SOL     OW38593   1.549   2.321   3.049  0.3020  0.6218 -0.4240
 9044SOL    HW138594   1.473   2.264   3.058 -0.2702  1.5897  0.9495
 9044SOL    HW238595   1.505   2.399   3.017 -0.0611  1.3071  1.7349
 9045SOL     OW38596   2.711   0.669   4.990  0.2854 -0.2403 -0.2866
 9045SOL    HW138597   2.641   0.711   4.939  0.6623 -0.6403 -1.1425
 9045SOL    HW238598   2.739   0.598   4.932 -2.0135 -0.4506 -1.1373
 9046SOL     OW38599   4.395   3.570  13.958  0.3874  0.3300 -0.2346
 9046SOL    HW138600   4.403   3.650  13.905  0.0979  1.2779  1.1709
 9046SOL    HW238601   4.487   3.543  13.960  1.4990  4.0269 -1.4631
 9047SOL     OW38602   1.756   1.755  10.581  0.0809  0.3904 -0.5013
 9047SOL    HW138603   1.765   1.681  10.642 -0.7420  0.9423  0.2915
 9047SOL    HW238604   1.682   1.732  10.526  0.0887 -1.5905  0.3225
 9048SOL     OW38605   1.274   0.376  14.209  0.1042  0.1280  0.2234
 9048SOL    HW138606   1.264   0.447  14.272  0.4065  2.0866 -1.9291
 9048SOL    HW238607   1.283   0.303  14.270  0.3567  0.1959  0.2670
 9049SOL     OW38608   4.177   4.637   7.428  0.4277  0.0976  0.2302
 9049SOL    HW138609   4.136   4.646   7.515 -1.1062  0.9224 -0.5792
 9049SOL    HW238610   4.186   4.543   7.418  0.9890  0.1609  0.1437
 9050SOL     OW38611   1.817   3.146  16.731 -0.2684 -0.1600  0.3210
 9050SOL    HW138612   1.838   3.140  16.824 -2.1407 -2.1244  0.6057
 9050SOL    HW238613   1.872   3.220  16.703 -0.7454  0.6944  1.6379
 9051SOL     OW38614   2.667   3.722   6.553 -0.0891  0.2003  0.0082
 9051SOL    HW138615   2.574   3.742   6.542 -0.5386 -0.4978  2.6912
 9051SOL    HW238616   2.689   3.792   6.615 -0.9785  0.1316  0.3995
 9052SOL     OW38617   1.945   2.830   2.754  0.5742 -0.4350  0.8960
 9052SOL    HW138618   1.984   2.839   2.841  1.1696  1.3012  0.4519
 9052SOL    HW238619   1.984   2.905   2.709 -0.3616 -1.0207 -0.8989
 9053SOL     OW38620   0.456   4.576   6.697  0.0791 -0.4046 -0.0199
 9053SOL    HW138621   0.436   4.499   6.750 -0.3070  0.9191  1.7546
 9053SOL    HW238622   0.497   4.636   6.760 -2.0333  0.5502  0.4608
 9054SOL     OW38623   4.248   2.171   0.075 -0.1971 -0.3108 -0.0928
 9054SOL    HW138624   4.240   2.204  17.678  0.5202  0.9969  0.3217
 9054SOL    HW238625   4.193   2.094   0.076  0.7505 -0.9822  0.2504
 9055SOL     OW38626   0.292   1.640  12.221  0.4364 -0.7295 -0.9490
 9055SOL    HW138627   0.242   1.683  12.290  1.0733  1.0551 -1.6226
 9055SOL    HW238628   0.302   1.720  12.170  1.5673 -1.0055 -1.1524
 9056SOL     OW38629   0.047   1.910   2.316 -0.0408 -0.8930 -0.3404
 9056SOL    HW138630   0.000   1.845   2.368 -0.1042 -1.2224 -0.8026
 9056SOL    HW238631   0.133   1.936   2.349  0.3581 -1.4569 -0.9131
 9057SOL     OW38632   2.293   3.869   0.775  0.5208 -0.4477  0.2253
 9057SOL    HW138633   2.367   3.809   0.771  0.5137 -0.4286 -0.2074
 9057SOL    HW238634   2.300   3.900   0.684  2.6851 -2.5002 -0.3055
 9058SOL     OW38635   3.215   4.483  10.988 -0.2374 -0.4292  0.1151
 9058SOL    HW138636   3.206   4.394  11.023  1.5628 -0.8410 -0.4820
 9058SOL    HW238637   3.307   4.489  10.961 -1.0111 -2.0975 -2.8852
 9059SOL     OW38638   1.444   2.219   2.785  0.1777  0.1337 -0.2750
 9059SOL    HW138639   1.429   2.300   2.737  2.0144  1.0726  0.7129
 9059SOL    HW238640   1.464   2.157   2.715  0.1272  0.0251 -0.1937
 9060SOL     OW38641   2.938   1.335  14.830  0.4609 -0.3359  0.1583
 9060SOL    HW138642   2.909   1.337  14.921  2.5251 -0.9263  0.8151
 9060SOL    HW238643   2.857   1.334  14.778  0.0564  2.1171  0.7687
 9061SOL     OW38644   0.908   3.202  14.344  0.1731 -0.1541  0.7445
 9061SOL    HW138645   0.997   3.188  14.311  1.3485 -1.5855  4.5901
 9061SOL    HW238646   0.941   3.273  14.398  3.3162 -0.7991 -0.3151
 9062SOL     OW38647   0.177   0.314  13.974 -0.0941  0.1554 -0.1419
 9062SOL    HW138648   0.154   0.225  13.999  1.4470 -0.0162  0.6810
 9062SOL    HW238649   0.245   0.338  14.037 -1.8269  1.3291  1.2388
 9063SOL     OW38650   2.075   2.466  10.020 -0.2559 -0.6616  0.0146
 9063SOL    HW138651   2.024   2.415  10.083 -1.2604 -0.1422 -0.3662
 9063SOL    HW238652   2.154   2.479  10.072 -0.1522  0.0070 -0.3080
 9064SOL     OW38653   0.485   3.128   8.778 -0.0182  0.2794 -0.1996
 9064SOL    HW138654   0.421   3.185   8.735 -0.0738 -0.2664 -0.8363
 9064SOL    HW238655   0.459   3.041   8.747  1.5252 -0.8673  1.6908
 9065SOL     OW38656   3.372   2.390   1.366  0.0112 -0.3227 -0.4733
 9065SOL    HW138657   3.363   2.467   1.421  0.3313 -0.8711  0.3370
 9065SOL    HW238658   3.386   2.317   1.426  1.2237  0.7493  0.5396
 9066SOL     OW38659   1.826   0.975  14.309  0.2762  0.1707  0.2439
 9066SOL    HW138660   1.760   0.914  14.276  0.1911  0.8196 -0.7569
 9066SOL    HW238661   1.869   1.008  14.230 -0.8663 -1.8678 -1.2214
 9067SOL     OW38662   0.300   4.385  11.736 -0.9293  0.2331  0.0532
 9067SOL    HW138663   0.362   4.313  11.728  0.5335  1.7725 -2.6493
 9067SOL    HW238664   0.324   4.412  11.824  2.0084 -1.5509 -0.2306
 9068SOL     OW38665   2.808   4.246   8.733 -0.7917 -0.3280 -0.3850
 9068SOL    HW138666   2.818   4.228   8.827 -1.3498  0.7156 -0.1239
 9068SOL    HW238667   2.900   4.247   8.708 -0.3275 -0.7644  1.2772
 9069SOL     OW38668   1.592   3.446   8.669  0.1790 -0.5725  0.3049
 9069SOL    HW138669   1.650   3.380   8.707  3.0618  1.8587  0.1170
 9069SOL    HW238670   1.510   3.438   8.718 -0.8352  0.4462 -1.2160
 9070SOL     OW38671   0.862   4.614  17.011 -0.0042 -0.6116 -0.4521
 9070SOL    HW138672   0.803   4.581  16.944  1.4233 -1.8409 -1.1106
 9070SOL    HW238673   0.881   4.697  16.968 -0.0665 -1.3468 -1.8865
 9071SOL     OW38674   1.777   4.278   7.294 -0.9174  0.2622  0.1745
 9071SOL    HW138675   1.716   4.271   7.368  0.8537 -2.0407  1.4284
 9071SOL    HW238676   1.790   4.372   7.299 -0.2267  0.2692 -1.5914
 9072SOL     OW38677   1.667   0.575   2.334 -0.2229 -0.1721  0.3676
 9072SOL    HW138678   1.662   0.624   2.416  4.4852  0.3103  0.3958
 9072SOL    HW238679   1.683   0.648   2.274 -2.3246  0.1995  0.2625
 9073SOL     OW38680   4.297   1.810   7.290 -0.1780 -0.2230  0.4581
 9073SOL    HW138681   4.286   1.849   7.203  0.3438 -2.9291 -0.7967
 9073SOL    HW238682   4.299   1.720   7.260  0.2989 -0.0133 -0.1351
 9074SOL     OW38683   1.345   4.441  12.838 -0.3682 -0.0445  0.7729
 9074SOL    HW138684   1.335   4.505  12.768 -0.4532 -0.9374 -0.0239
 9074SOL    HW238685   1.390   4.496  12.904  1.2353 -0.5114  0.0615
 9075SOL     OW38686   1.259   0.370   5.879 -0.0081  0.3862  0.2470
 9075SOL    HW138687   1.326   0.425   5.920 -0.5365  1.0913  0.1697
 9075SOL    HW238688   1.289   0.283   5.904  1.0926  0.0593 -2.1400
 9076SOL     OW38689   4.666   2.626   8.106  0.1954  0.0111 -0.5864
 9076SOL    HW138690   4.604   2.655   8.173  0.6342  0.5270 -0.4022
 9076SOL    HW238691   0.007   2.576   8.157 -1.4750 -1.7599 -0.2086
 9077SOL     OW38692   2.671   4.507  10.893 -0.5891  0.2042  0.3317
 9077SOL    HW138693   2.679   4.414  10.913 -2.5869 -0.3390 -1.3482
 9077SOL    HW238694   2.715   4.524  10.810 -4.1563  1.9460 -1.2385
 9078SOL     OW38695   1.535   1.058   9.015  0.3002  0.0516  0.3221
 9078SOL    HW138696   1.591   1.114   8.962 -0.3747 -1.0087 -1.5141
 9078SOL    HW238697   1.447   1.088   8.991  0.3185  0.6693  1.0426
 9079SOL     OW38698   1.542   3.121   6.560  0.4610 -0.2952  0.8519
 9079SOL    HW138699   1.450   3.098   6.544  1.1061 -3.2598  1.3109
 9079SOL    HW238700   1.562   3.031   6.588  1.4699  0.4020  2.3223
 9080SOL     OW38701   0.974   4.544   7.628  0.5129 -0.1862  0.0711
 9080SOL    HW138702   1.064   4.543   7.659  0.0483  1.2581  1.4542
 9080SOL    HW238703   0.935   4.476   7.683 -0.9242 -0.1832 -0.9512
 9081SOL     OW38704   2.278   4.405   4.879  0.2851  0.0124  1.0434
 9081SOL    HW138705   2.308   4.492   4.850  0.3261 -0.5309 -0.5552
 9081SOL    HW238706   2.184   4.409   4.864  0.6853  0.5643 -1.4492
 9082SOL     OW38707   1.512   0.273  13.595 -0.4838  0.0090  0.5447
 9082SOL    HW138708   1.477   0.184  13.607 -3.1650  0.9820 -0.0329
 9082SOL    HW238709   1.447   0.323  13.645  1.2514  2.3783  0.4188
 9083SOL     OW38710   0.355   1.081  16.803  0.4268  0.2065  0.2756
 9083SOL    HW138711   0.334   1.160  16.753 -0.5457 -1.9731 -2.7269
 9083SOL    HW238712   0.331   1.010  16.744  0.0022  0.8534 -0.3259
 9084SOL     OW38713   3.247   0.031   2.896 -0.1314 -0.6305  0.1492
 9084SOL    HW138714   3.259   4.682   2.834  1.9228  1.1428 -1.4996
 9084SOL    HW238715   3.264   4.704   2.977  0.3752  2.0648  1.6904
 9085SOL     OW38716   1.853   4.631   0.263  0.8838  0.3435  0.4132
 9085SOL    HW138717   1.776   4.581   0.236  0.8822 -0.1298  1.3229
 9085SOL    HW238718   1.812   4.662   0.343  1.0498 -0.9766  1.0072
 9086SOL     OW38719   1.453   3.475   3.251 -0.0028  0.0134  0.2104
 9086SOL    HW138720   1.431   3.515   3.167 -0.9481 -2.4603 -0.7240
 9086SOL    HW238721   1.454   3.545   3.316  0.0636 -0.2340  0.4777
 9087SOL     OW38722   0.391   2.965   2.190  0.2628  0.6244 -0.0443
 9087SOL    HW138723   0.335   2.980   2.114 -0.5473  0.7615  0.5834
 9087SOL    HW238724   0.461   2.912   2.150  0.6960 -0.1383  1.7414
 9088SOL     OW38725   0.364   2.993  17.212 -0.0116 -0.1346 -0.3002
 9088SOL    HW138726   0.308   3.047  17.269  1.4219  0.8185  0.2276
 9088SOL    HW238727   0.348   2.911  17.258  3.3952  0.1378  1.3555
 9089SOL     OW38728   2.726   2.927   8.525 -0.1224 -0.0560 -0.6080
 9089SOL    HW138729   2.683   2.841   8.527  2.0252 -1.0485  2.7201
 9089SOL    HW238730   2.680   2.960   8.602 -0.9525 -0.9623 -0.7089
 9090SOL     OW38731   3.144   3.346   0.340  0.0306  0.3202 -0.2436
 9090SOL    HW138732   3.209   3.276   0.349  0.7298  0.8723 -0.9925
 9090SOL    HW238733   3.111   3.355   0.429 -0.0167 -0.4674 -0.1815
 9091SOL     OW38734   1.875   3.373   3.656 -0.2104  0.3671  0.9356
 9091SOL    HW138735   1.845   3.299   3.709  0.5629  0.5144  1.5938
 9091SOL    HW238736   1.934   3.332   3.593 -0.2355 -0.2509  1.3171
 9092SOL     OW38737   0.795   0.259   8.807  0.5340 -0.1488  0.1791
 9092SOL    HW138738   0.785   0.336   8.863  0.7920  0.1340 -0.1635
 9092SOL    HW238739   0.889   0.240   8.808  0.7568  0.8740 -1.2711
 9093SOL     OW38740   2.341   0.737  11.155 -0.4125 -0.3636  0.2308
 9093SOL    HW138741   2.429   0.745  11.191 -0.3657  1.6792 -0.3455
 9093SOL    HW238742   2.361   0.667  11.093  1.6620 -0.9385  1.5847
 9094SOL     OW38743   2.722   1.499   9.786  0.6499  0.2348  0.0113
 9094SOL    HW138744   2.784   1.462   9.849 -0.1803  0.0714  0.7211
 9094SOL    HW238745   2.777   1.488   9.708 -1.7924  0.6766 -1.7499
 9095SOL     OW38746   3.055   1.600   1.734 -0.2351 -0.3022 -0.3748
 9095SOL    HW138747   3.022   1.570   1.650  2.2787 -0.7059 -1.2209
 9095SOL    HW238748   3.113   1.526   1.755 -0.6363 -1.0959 -2.0381
 9096SOL     OW38749   4.539   0.314   3.306  0.2710 -0.3547  0.1174
 9096SOL    HW138750   4.523   0.408   3.316  0.2757 -0.3087 -0.2725
 9096SOL    HW238751   4.603   0.316   3.235 -1.1632  0.0418 -1.1705
 9097SOL     OW38752   0.678   3.317   3.958 -0.2771 -0.2066 -0.4675
 9097SOL    HW138753   0.717   3.257   4.021 -1.5019  0.4634  0.9269
 9097SOL    HW238754   0.745   3.322   3.890 -1.5730 -0.6761 -1.7819
 9098SOL     OW38755   3.856   1.118   4.192  0.0080 -0.1922  0.5406
 9098SOL    HW138756   3.773   1.164   4.178  0.1432 -0.1105 -0.0086
 9098SOL    HW238757   3.911   1.197   4.191  0.2896 -0.4094 -1.2776
 9099SOL     OW38758   3.068   3.110  14.946 -0.3748 -1.5177  0.7073
 9099SOL    HW138759   3.023   3.045  14.893  0.1118  0.5015 -2.1683
 9099SOL    HW238760   2.995   3.170  14.966 -0.2224 -1.2705  0.5180
 9100SOL     OW38761   4.716   3.179   2.660  0.5687  0.1683 -0.0881
 9100SOL    HW138762   4.644   3.118   2.672 -1.0944  1.6604 -2.5031
 9100SOL    HW238763   4.716   3.197   2.566  2.3939 -1.2564 -0.3497
 9101SOL     OW38764   2.686   1.110   8.449 -0.1700  0.5096 -0.4388
 9101SOL    HW138765   2.733   1.037   8.490 -2.1596  0.7158  2.2430
 9101SOL    HW238766   2.710   1.104   8.357  1.8417 -1.2238  0.1896
 9102SOL     OW38767   3.638   0.864   2.576  0.7450  0.1563 -0.0345
 9102SOL    HW138768   3.595   0.844   2.493  1.0853  0.7747 -0.3607
 9102SOL    HW238769   3.585   0.931   2.620 -1.9862 -0.6357 -2.1289
 9103SOL     OW38770   2.598   0.667   4.067  0.0377  0.1819  0.2317
 9103SOL    HW138771   2.565   0.757   4.076 -0.0269  0.2399 -0.5604
 9103SOL    HW238772   2.571   0.649   3.977 -1.4762 -0.3109  0.7805
 9104SOL     OW38773   3.647   4.483   4.285 -0.2382  0.5043 -0.3125
 9104SOL    HW138774   3.579   4.538   4.246  0.1138  0.6254 -0.7475
 9104SOL    HW238775   3.723   4.540   4.294 -0.3723  0.9040 -1.6937
 9105SOL     OW38776   2.768   3.562   8.647 -0.0495 -0.0118 -0.7830
 9105SOL    HW138777   2.729   3.644   8.676  0.6619  0.2205 -0.4970
 9105SOL    HW238778   2.860   3.586   8.651 -0.2617  0.4722  1.0597
 9106SOL     OW38779   3.849   0.743   3.935  0.0261  0.0743  0.8568
 9106SOL    HW138780   3.816   0.653   3.936 -0.6355  0.3107 -1.7930
 9106SOL    HW238781   3.781   0.791   3.984  0.6010  2.7984 -1.0292
 9107SOL     OW38782   3.442   2.403   6.898  0.0003  0.5989  0.9243
 9107SOL    HW138783   3.353   2.439   6.890 -0.2029 -0.0144  0.3844
 9107SOL    HW238784   3.508   2.465   6.867  0.6760  0.3951  1.9712
 9108SOL     OW38785   4.668   3.466   4.263 -0.2981  0.0488  0.2695
 9108SOL    HW138786   0.009   3.538   4.257  0.7418 -1.0073 -1.1639
 9108SOL    HW238787   4.712   3.390   4.300 -1.3800 -1.1894 -1.0133
 9109SOL     OW38788   0.008   2.946   6.227  0.8633 -0.3676 -0.2064
 9109SOL    HW138789   0.055   2.925   6.147  0.0353 -1.7713 -0.3322
 9109SOL    HW238790   0.019   2.864   6.274 -2.2672 -0.9608 -0.4534
 9110SOL     OW38791   1.751   0.698  16.477 -0.5438  0.0783 -0.3181
 9110SOL    HW138792   1.680   0.740  16.428 -1.0096 -0.3630 -0.0221
 9110SOL    HW238793   1.791   0.642  16.410 -0.7940 -0.4651 -0.0123
 9111SOL     OW38794   1.864   2.979   5.052  0.0748 -0.0583  0.0685
 9111SOL    HW138795   1.873   2.899   5.001  0.5050 -0.4756  0.8090
 9111SOL    HW238796   1.947   2.996   5.096 -1.1198  4.0012  0.8323
 9112SOL     OW38797   4.394   0.811   5.484  0.0709  0.9577 -0.7765
 9112SOL    HW138798   4.369   0.753   5.556  1.7331 -0.9560 -1.7307
 9112SOL    HW238799   4.475   0.774   5.450  1.1802  3.0384 -0.3849
 9113SOL     OW38800   3.433   1.191   3.970 -0.0616 -0.0742 -0.0930
 9113SOL    HW138801   3.437   1.276   3.926 -2.5339  0.1356  0.0963
 9113SOL    HW238802   3.359   1.141   3.937 -1.7142  1.3935  1.4255
 9114SOL     OW38803   4.241   0.738  12.697  0.0002  0.3153  0.1738
 9114SOL    HW138804   4.204   0.696  12.619  1.3444  1.5731 -1.1361
 9114SOL    HW238805   4.222   0.675  12.767  0.6787  0.5444  0.5620
 9115SOL     OW38806   2.102   3.679   0.459 -0.3999 -0.4206  0.4610
 9115SOL    HW138807   2.130   3.765   0.490  0.6992 -1.1497  1.5047
 9115SOL    HW238808   2.169   3.616   0.488 -1.1585 -0.3571  2.3885
 9116SOL     OW38809   0.848   0.126   3.546 -0.0290  0.1744 -0.4833
 9116SOL    HW138810   0.825   0.196   3.486 -1.5842  1.4087  1.5597
 9116SOL    HW238811   0.778   0.063   3.531 -0.8030  0.3738  2.2350
 9117SOL     OW38812   1.658   2.724   0.024 -1.0917  0.4676  0.0840
 9117SOL    HW138813   1.660   2.790  17.647  0.7107 -0.3533 -0.6323
 9117SOL    HW238814   1.685   2.782   0.095 -0.5160  1.3797 -0.8653
 9118SOL     OW38815   1.218   1.110  13.350 -0.0766 -0.0385  0.3295
 9118SOL    HW138816   1.206   1.150  13.436  0.5225  1.3683 -0.2405
 9118SOL    HW238817   1.133   1.067  13.342  0.8969 -1.7513 -0.6948
 9119SOL     OW38818   2.557   1.781   8.849 -0.0314  0.3211  0.2856
 9119SOL    HW138819   2.605   1.725   8.789  1.0103 -0.7903  2.1752
 9119SOL    HW238820   2.558   1.734   8.933  0.8114  1.0544  0.6924
 9120SOL     OW38821   1.704   3.308   7.281  0.1000  0.6332 -0.4015
 9120SOL    HW138822   1.749   3.383   7.241 -0.1567  0.8793 -0.2232
 9120SOL    HW238823   1.741   3.303   7.369  0.6520 -2.5131 -0.7906
 9121SOL     OW38824   4.084   1.876   5.758 -0.4552  0.2925 -0.5160
 9121SOL    HW138825   4.001   1.831   5.745 -0.3964  0.1009 -0.2315
 9121SOL    HW238826   4.154   1.811   5.752 -1.0070 -0.0766 -2.7745
 9122SOL     OW38827   3.764   4.588   6.097  0.1102  0.5347  0.0482
 9122SOL    HW138828   3.710   4.559   6.170  0.8483  0.0012  0.3844
 9122SOL    HW238829   3.694   4.595   6.032  1.9599  0.5830 -1.9156
 9123SOL     OW38830   0.561   0.367   2.864  0.2732  0.4614  0.3824
 9123SOL    HW138831   0.488   0.312   2.835 -0.1920  0.8690  0.7831
 9123SOL    HW238832   0.540   0.379   2.957  2.8523  0.3517  0.9728
 9124SOL     OW38833   2.538   3.377   0.228  0.2193 -0.1326  0.3037
 9124SOL    HW138834   2.571   3.454   0.273  1.9192 -0.1054 -0.9941
 9124SOL    HW238835   2.456   3.363   0.275  0.1251  0.8398  0.4235
 9125SOL     OW38836   3.314   4.143  14.241 -0.0195 -0.1300 -0.2884
 9125SOL    HW138837   3.299   4.236  14.230  2.3078  0.3054  0.1416
 9125SOL    HW238838   3.285   4.105  14.158  1.0794 -0.1107 -0.6793
 9126SOL     OW38839   3.298   1.025   9.939  0.0957  0.2382 -0.2379
 9126SOL    HW138840   3.269   1.005   9.850 -1.4679 -0.7926  0.5022
 9126SOL    HW238841   3.217   1.029   9.990  0.7471 -0.3638  0.8505
 9127SOL     OW38842   3.454   4.175   2.246 -0.3081 -0.3801  0.1906
 9127SOL    HW138843   3.389   4.105   2.242  2.0457 -2.4019 -2.9658
 9127SOL    HW238844   3.521   4.153   2.181  1.3216  1.4644  1.2444
 9128SOL     OW38845   1.371   2.337   4.976  0.0065  0.8336 -0.2270
 9128SOL    HW138846   1.403   2.401   5.040  0.0427  0.5654  0.0217
 9128SOL    HW238847   1.354   2.258   5.027 -0.1261  0.7892 -0.3409
 9129SOL     OW38848   2.239   0.305   6.230 -0.8441  0.0634 -1.1173
 9129SOL    HW138849   2.322   0.259   6.219 -0.7228  0.7162 -2.7847
 9129SOL    HW238850   2.250   0.338   6.320 -1.6980 -2.4347 -0.0880
 9130SOL     OW38851   3.229   3.121  14.011 -0.2998  0.2644 -0.5156
 9130SOL    HW138852   3.162   3.152  14.071 -1.8651 -1.0117 -1.6087
 9130SOL    HW238853   3.303   3.152  14.064  0.3816  0.1073 -1.3778
 9131SOL     OW38854   1.839   0.822   9.271  0.4126 -0.1938  1.1252
 9131SOL    HW138855   1.886   0.864   9.199 -0.0733 -1.2468  0.1879
 9131SOL    HW238856   1.808   0.899   9.318 -0.9567 -0.4195  0.5801
 9132SOL     OW38857   1.273   0.303   7.551 -0.0931 -0.5633 -0.3191
 9132SOL    HW138858   1.321   0.228   7.517  0.4890 -0.1358 -0.4383
 9132SOL    HW238859   1.194   0.296   7.497 -0.5927  2.3524  0.0403
 9133SOL     OW38860   1.101   2.921   2.663  0.1821 -0.2430 -0.1185
 9133SOL    HW138861   1.146   2.973   2.597  2.4414  0.1078  1.6955
 9133SOL    HW238862   1.153   2.956   2.735  1.0162  0.9350 -1.2987
 9134SOL     OW38863   0.871   0.587   8.776 -0.4902  0.2278  0.2588
 9134SOL    HW138864   0.832   0.556   8.858 -1.5644  0.6717 -0.0842
 9134SOL    HW238865   0.948   0.628   8.816 -1.3568  1.6167  0.4943
 9135SOL     OW38866   1.425   3.957   0.315  0.1686  0.0357 -0.1361
 9135SOL    HW138867   1.444   3.864   0.300  0.7855  0.4473 -1.9167
 9135SOL    HW238868   1.505   3.999   0.283  0.5968  0.7933  1.9316
 9136SOL     OW38869   3.451   1.975   6.342  0.4043 -0.0144 -0.0396
 9136SOL    HW138870   3.466   1.880   6.341 -2.1704 -0.4001 -1.0864
 9136SOL    HW238871   3.361   1.998   6.364  0.4629  0.1410  0.0352
 9137SOL     OW38872   2.508   0.176   6.452 -0.4976  0.0287  0.1138
 9137SOL    HW138873   2.421   0.215   6.460 -1.1070 -1.0989 -0.8943
 9137SOL    HW238874   2.506   0.169   6.356 -0.2443  1.0194  0.0394
 9138SOL     OW38875   3.120   0.172   2.035  0.3292  0.2438 -0.1117
 9138SOL    HW138876   3.160   0.178   2.122 -0.4491 -1.0309  0.3519
 9138SOL    HW238877   3.072   0.255   2.029 -0.2781 -0.0983 -0.0707
 9139SOL     OW38878   1.709   2.099   3.978 -0.3473 -0.0417  0.0553
 9139SOL    HW138879   1.661   2.180   3.995 -0.9356 -0.3602 -0.1133
 9139SOL    HW238880   1.643   2.031   3.992 -0.7173 -0.1069 -2.1130
 9140SOL     OW38881   0.021   1.754   4.162 -0.5738  0.2467 -0.1859
 9140SOL    HW138882   0.038   1.780   4.252  0.6599 -1.4138  0.0619
 9140SOL    HW238883   4.675   1.689   4.178  0.2751 -0.1678  1.7185
 9141SOL     OW38884   2.984   1.095   3.138 -0.3785 -0.1317  0.2211
 9141SOL    HW138885   2.924   1.025   3.162 -0.5803  0.6998  2.0990
 9141SOL    HW238886   3.067   1.059   3.169  0.4297 -0.9275 -2.8370
 9142SOL     OW38887   3.214   2.757   2.743 -0.5213 -0.0499 -0.0908
 9142SOL    HW138888   3.244   2.669   2.764  2.2085  1.0895  0.8544
 9142SOL    HW238889   3.225   2.799   2.828 -1.1698 -0.2121  0.0748
 9143SOL     OW38890   0.279   1.326   0.219  0.2270 -0.1022  0.0710
 9143SOL    HW138891   0.222   1.289   0.286  1.1503  0.3129  1.0847
 9143SOL    HW238892   0.301   1.406   0.266  4.5832 -0.7255 -0.9188
 9144SOL     OW38893   1.817   0.171  15.546 -0.2350  0.0796  0.4346
 9144SOL    HW138894   1.888   0.222  15.506  0.5906 -1.3295  0.1189
 9144SOL    HW238895   1.743   0.217  15.506  0.1486  0.2128 -0.1257
 9145SOL     OW38896   4.717   4.460   5.970  0.4160  0.6307 -0.4408
 9145SOL    HW138897   0.031   4.424   6.051 -0.8221  1.1183  0.3338
 9145SOL    HW238898   4.641   4.501   6.010  0.4654  0.0476  0.2681
 9146SOL     OW38899   0.288   1.337  12.392 -0.2761  0.3456 -0.5074
 9146SOL    HW138900   0.229   1.263  12.409 -0.9041  0.6217 -1.5264
 9146SOL    HW238901   0.342   1.298  12.323  1.3937  1.4270  0.1847
 9147SOL     OW38902   3.151   2.694   1.578 -0.4652 -0.5980 -0.3932
 9147SOL    HW138903   3.166   2.703   1.672  1.6040  0.2610 -0.8043
 9147SOL    HW238904   3.083   2.628   1.582  0.5943 -1.6151  0.8271
 9148SOL     OW38905   2.157   1.134   8.554  0.0452 -0.2398 -0.1979
 9148SOL    HW138906   2.094   1.205   8.563  3.4935  2.5812  1.6754
 9148SOL    HW238907   2.146   1.122   8.460 -0.6379 -2.9546  0.2040
 9149SOL     OW38908   4.327   3.635  16.769 -0.0733 -0.2995  0.1079
 9149SOL    HW138909   4.240   3.674  16.778 -0.1893 -0.4325 -0.4258
 9149SOL    HW238910   4.295   3.583  16.696  0.1860 -0.4412  0.0946
 9150SOL     OW38911   1.948   2.363  13.211 -0.4034  0.4846 -0.4628
 9150SOL    HW138912   2.040   2.361  13.186 -0.6789  1.2718 -1.5386
 9150SOL    HW238913   1.939   2.271  13.188 -0.6236 -0.4430  3.2688
 9151SOL     OW38914   1.369   0.262   0.665 -0.0057  0.2535  0.1924
 9151SOL    HW138915   1.386   0.241   0.573  1.7856  0.6733  0.4385
 9151SOL    HW238916   1.357   0.180   0.713 -2.8937  0.5679  0.0199
 9152SOL     OW38917   1.498   0.602  16.741  0.7311 -0.2729  0.1058
 9152SOL    HW138918   1.583   0.559  16.741  0.9492  0.1556 -1.1396
 9152SOL    HW238919   1.440   0.531  16.770 -0.2173  0.6180  0.3783
 9153SOL     OW38920   3.808   3.849  10.752  0.3080 -0.0014  0.7652
 9153SOL    HW138921   3.816   3.821  10.843 -2.4844  0.3052  1.0922
 9153SOL    HW238922   3.713   3.854  10.747  0.4177  0.7112 -0.9393
 9154SOL     OW38923   0.625   0.904   8.295  0.5924 -0.5351 -0.6329
 9154SOL    HW138924   0.615   0.859   8.379 -1.4941 -0.1820 -0.6900
 9154SOL    HW238925   0.569   0.981   8.302  1.9012  0.4991 -1.5946
 9155SOL     OW38926   1.872   3.150   3.411 -0.1660 -0.1218 -0.4461
 9155SOL    HW138927   1.809   3.133   3.482 -0.4706 -2.3573 -1.2573
 9155SOL    HW238928   1.862   3.066   3.366  0.4475  0.3342 -1.4371
 9156SOL     OW38929   3.083   0.419   6.751  0.7297  0.3275  0.3560
 9156SOL    HW138930   3.039   0.501   6.772 -1.4610 -0.5833 -0.5597
 9156SOL    HW238931   3.111   0.428   6.660 -0.7705  1.0907 -0.0344
 9157SOL     OW38932   1.385   3.417  10.685 -0.4154 -0.2265 -0.5663
 9157SOL    HW138933   1.419   3.328  10.693 -0.4729 -0.4252 -2.3202
 9157SOL    HW238934   1.392   3.432  10.590 -2.3754 -1.1360 -0.8694
 9158SOL     OW38935   4.594   3.256   8.304 -0.1895 -0.5695  0.0910
 9158SOL    HW138936   4.543   3.330   8.271 -0.5987 -0.6999  0.4321
 9158SOL    HW238937   4.545   3.191   8.254 -1.5058 -0.7873  1.7090
 9159SOL     OW38938   3.275   0.548  15.905 -0.0815 -0.2816 -0.2292
 9159SOL    HW138939   3.321   0.572  15.824  2.4984 -1.2812  0.9159
 9159SOL    HW238940   3.345   0.561  15.969 -0.7686  0.3841  0.3725
 9160SOL     OW38941   2.118   3.281   3.364 -0.2883 -0.0238  0.2584
 9160SOL    HW138942   2.112   3.341   3.290 -0.8935 -1.7654 -1.0980
 9160SOL    HW238943   2.040   3.228   3.351  1.4522 -3.2295  2.9936
 9161SOL     OW38944   0.378   0.647  10.889  0.2714  0.6769 -0.1522
 9161SOL    HW138945   0.310   0.654  10.955 -0.8328  2.1768 -1.4570
 9161SOL    HW238946   0.452   0.665  10.947  1.0909  2.6620 -1.8021
 9162SOL     OW38947   1.414   0.901   3.187  0.0111 -0.0021  0.0232
 9162SOL    HW138948   1.499   0.940   3.166 -1.4793  2.9149 -0.5169
 9162SOL    HW238949   1.429   0.816   3.146  2.4891 -0.2530  1.4531
 9163SOL     OW38950   2.508   4.613   2.301  0.0374  0.6524 -0.1009
 9163SOL    HW138951   2.429   4.621   2.354 -0.9737 -3.1767 -1.0418
 9163SOL    HW238952   2.462   4.573   2.227 -1.2675 -0.7193  1.4652
 9164SOL     OW38953   2.670   0.844  13.117 -0.5807  0.1445  0.4826
 9164SOL    HW138954   2.734   0.840  13.046 -0.3555 -0.4148  0.7119
 9164SOL    HW238955   2.613   0.776  13.081 -0.3185 -0.5038  1.2857
 9165SOL     OW38956   1.941   3.491   8.681  0.1757  0.2646 -0.1415
 9165SOL    HW138957   2.010   3.529   8.627 -1.0134 -0.3111 -2.0520
 9165SOL    HW238958   1.894   3.569   8.711 -1.0402 -0.7944  0.6684
 9166SOL     OW38959   0.623   4.027   8.075  0.2463 -0.2697  0.5202
 9166SOL    HW138960   0.557   4.056   8.012 -0.2941  0.2926  1.3331
 9166SOL    HW238961   0.661   4.114   8.092  1.6026 -1.1598  2.0619
 9167SOL     OW38962   0.979   3.935  14.808  0.2013 -0.4099  0.2724
 9167SOL    HW138963   0.938   4.011  14.767 -0.2134 -1.3999 -1.1560
 9167SOL    HW238964   1.018   3.985  14.880 -0.9679  0.6428  0.1708
 9168SOL     OW38965   4.276   3.318   2.413  0.8996 -0.0257 -0.0846
 9168SOL    HW138966   4.188   3.353   2.404  0.4027 -2.0322 -3.1024
 9168SOL    HW238967   4.267   3.258   2.488  0.7288 -0.5931 -0.5589
 9169SOL     OW38968   1.537   3.280  10.997  0.2540  0.0851 -0.8294
 9169SOL    HW138969   1.545   3.205  10.938  1.4821 -0.1215 -0.4086
 9169SOL    HW238970   1.617   3.282  11.050 -1.5062  1.1060  1.7661
 9170SOL     OW38971   0.120   3.884   2.653  0.3831 -0.1477  0.1511
 9170SOL    HW138972   0.206   3.924   2.663  0.1271  0.2135  0.8954
 9170SOL    HW238973   0.058   3.957   2.658 -1.4640 -1.7787  1.4162
 9171SOL     OW38974   3.821   4.015   6.079  0.3762  0.4589  0.1388
 9171SOL    HW138975   3.915   4.007   6.099  0.6422  0.4004 -1.1104
 9171SOL    HW238976   3.815   3.990   5.987 -0.7917  1.9524 -0.1903
 9172SOL     OW38977   1.552   4.606   4.621 -0.1683  0.0242  0.5345
 9172SOL    HW138978   1.619   4.667   4.653  0.1356  1.4766 -2.7743
 9172SOL    HW238979   1.522   4.552   4.693  2.2161 -2.3907 -0.3022
 9173SOL     OW38980   3.717   1.818  15.406 -0.0995  0.0107  0.0210
 9173SOL    HW138981   3.658   1.838  15.479 -1.2691  0.3924 -1.0176
 9173SOL    HW238982   3.647   1.797  15.343 -1.0495 -0.4886  1.2504
 9174SOL     OW38983   3.345   4.129   8.103  0.1807 -0.3269 -0.1464
 9174SOL    HW138984   3.363   4.077   8.025  3.8224  0.1256  0.4204
 9174SOL    HW238985   3.251   4.145   8.088  0.4443  1.0061 -0.3650
 9175SOL     OW38986   4.416   2.404   8.333 -0.2070 -0.2226 -0.2541
 9175SOL    HW138987   4.457   2.424   8.417 -1.2999  0.7756  0.0521
 9175SOL    HW238988   4.377   2.491   8.319  0.1043 -0.1121 -0.4264
 9176SOL     OW38989   2.410   2.483   6.095 -0.3591 -0.3394 -0.1413
 9176SOL    HW138990   2.367   2.542   6.157  1.9034 -0.7166  1.7784
 9176SOL    HW238991   2.463   2.422   6.146  0.5061 -0.5619 -1.3299
 9177SOL     OW38992   1.666   4.318   0.401 -0.4235 -0.0749 -0.3828
 9177SOL    HW138993   1.584   4.287   0.438  1.1022 -0.6179  2.5413
 9177SOL    HW238994   1.725   4.305   0.475  0.9395  0.0604 -1.4396
 9178SOL     OW38995   1.758   4.321  17.502  0.1585 -0.4225 -0.7514
 9178SOL    HW138996   1.697   4.285  17.567  0.4952  0.8825  0.2940
 9178SOL    HW238997   1.842   4.317  17.548  0.5143 -1.7002 -1.5068
 9179SOL     OW38998   0.735   2.755   3.408  0.0752  0.0937 -0.7765
 9179SOL    HW138999   0.667   2.699   3.448 -0.1019 -0.9360 -2.5125
 9179SOL    HW239000   0.732   2.727   3.317 -0.0236 -3.2642  0.2481
 9180SOL     OW39001   2.128   3.299   8.341  0.7850  0.6987 -0.3370
 9180SOL    HW139002   2.048   3.287   8.291  0.3960 -3.0091  1.1899
 9180SOL    HW239003   2.138   3.393   8.325 -4.8705  1.0092 -2.0560
 9181SOL     OW39004   0.315   3.533   5.964 -0.2522 -0.3709  0.1449
 9181SOL    HW139005   0.321   3.438   5.975  1.8891 -0.1954  0.5176
 9181SOL    HW239006   0.407   3.557   5.971  0.1537 -1.6775 -0.6652
 9182SOL     OW39007   2.446   0.532  10.743  0.1138  0.7595  0.0339
 9182SOL    HW139008   2.402   0.581  10.812 -0.3338  1.0728 -0.4742
 9182SOL    HW239009   2.410   0.571  10.663  0.7199 -0.6689 -0.9391
 9183SOL     OW39010   0.861   3.962  14.542 -0.2891  0.5043 -0.1682
 9183SOL    HW139011   0.863   4.003  14.628 -0.5135 -0.7127  0.4108
 9183SOL    HW239012   0.946   3.988  14.507 -0.0796 -1.7506 -1.3337
 9184SOL     OW39013   3.283   0.697   5.802 -0.7421  0.2549 -0.3390
 9184SOL    HW139014   3.260   0.788   5.820 -2.0907  0.4711 -3.1519
 9184SOL    HW239015   3.375   0.704   5.775 -0.6696  1.0477  0.1362
 9185SOL     OW39016   1.976   1.840  10.451 -0.3444 -0.0730  0.2726
 9185SOL    HW139017   1.894   1.804  10.486  0.6561 -1.3064  1.3178
 9185SOL    HW239018   2.036   1.817  10.521 -0.1123  0.6008  0.2900
 9186SOL     OW39019   4.253   1.823  14.226  0.0207 -0.6981  0.1391
 9186SOL    HW139020   4.227   1.883  14.296  1.9201 -0.2579  0.4609
 9186SOL    HW239021   4.341   1.854  14.204 -0.0748  0.5059  1.4765
 9187SOL     OW39022   3.131   0.035   3.984 -0.0468  0.0444 -0.2828
 9187SOL    HW139023   3.056   0.011   4.039 -0.4664  0.2576 -0.7640
 9187SOL    HW239024   3.165   0.110   4.032 -0.2777  2.4550 -3.9407
 9188SOL     OW39025   0.653   2.301   0.400 -0.6211 -0.0140 -0.5225
 9188SOL    HW139026   0.607   2.363   0.343 -1.5442  0.3399  0.6167
 9188SOL    HW239027   0.608   2.311   0.484 -1.6337 -2.8223 -0.7230
 9189SOL     OW39028   3.145   2.212   3.574 -0.2834  0.1845 -0.0654
 9189SOL    HW139029   3.173   2.128   3.539  0.6849  1.3465 -2.0507
 9189SOL    HW239030   3.051   2.215   3.557 -0.5060 -2.5113  0.6636
 9190SOL     OW39031   4.545   2.393   4.352 -0.1479 -0.1209 -0.4896
 9190SOL    HW139032   4.560   2.368   4.443 -0.6727 -0.1637 -0.4179
 9190SOL    HW239033   4.622   2.344   4.324  0.4369 -0.0876  1.0739
 9191SOL     OW39034   3.260   0.915   8.762  0.1369  0.3181  0.7113
 9191SOL    HW139035   3.234   0.960   8.842 -0.1935  0.0934  0.7318
 9191SOL    HW239036   3.355   0.910   8.770  0.0692  1.5931  2.4012
 9192SOL     OW39037   0.921   1.924   5.486 -0.4845 -0.7456  0.0487
 9192SOL    HW139038   1.010   1.947   5.461 -1.3650  0.9841 -1.4970
 9192SOL    HW239039   0.868   1.973   5.423  1.3412 -0.0917 -0.9631
 9193SOL     OW39040   4.493   3.103  15.011  0.2701  0.3090  0.5247
 9193SOL    HW139041   4.501   3.182  15.065 -0.8645  0.9394 -0.2359
 9193SOL    HW239042   4.421   3.129  14.953  0.9418 -1.3778 -1.0591
 9194SOL     OW39043   0.704   1.877   0.630 -0.5088  0.3288 -0.1345
 9194SOL    HW139044   0.727   1.802   0.575 -2.2884 -1.9208  2.1947
 9194SOL    HW239045   0.628   1.910   0.581 -0.9530 -0.9021 -0.2502
 9195SOL     OW39046   1.953   0.123   9.711 -0.7250  0.2052 -0.0899
 9195SOL    HW139047   1.985   0.091   9.796 -1.1093  1.6821  0.6256
 9195SOL    HW239048   1.933   0.214   9.734  0.1947  0.6577 -1.0657
 9196SOL     OW39049   4.120   1.019   2.526 -0.2955  0.3524  0.1282
 9196SOL    HW139050   4.045   0.962   2.509  0.4654 -1.3729  2.4762
 9196SOL    HW239051   4.126   1.003   2.621  2.1999  1.8446  0.2377
 9197SOL     OW39052   3.534   3.540   2.704  0.0105  0.1617  0.2746
 9197SOL    HW139053   3.605   3.597   2.732 -1.0055  0.9562  1.2542
 9197SOL    HW239054   3.466   3.596   2.742  0.0526  1.6632 -1.8078
 9198SOL     OW39055   0.597   2.104   2.820  0.5024  0.6190  0.1575
 9198SOL    HW139056   0.644   2.074   2.742 -0.1529 -0.6755  0.2540
 9198SOL    HW239057   0.567   2.189   2.790  0.1035  1.3799  2.7075
 9199SOL     OW39058   2.403   2.494   8.575 -0.3605 -1.1905 -0.6397
 9199SOL    HW139059   2.369   2.517   8.661  0.3109  1.4941 -1.0946
 9199SOL    HW239060   2.328   2.445   8.541 -0.9845 -0.3087 -0.5127
 9200SOL     OW39061   1.636   2.638   5.166 -0.5720  0.5059  0.5560
 9200SOL    HW139062   1.630   2.546   5.188  1.4412  0.2627  0.0628
 9200SOL    HW239063   1.566   2.633   5.100 -1.7002  2.2772  1.5998
 9201SOL     OW39064   2.432   1.197  16.703 -0.0079  0.4555 -0.4703
 9201SOL    HW139065   2.510   1.151  16.671 -1.0574 -1.2438 -0.6248
 9201SOL    HW239066   2.404   1.148  16.781  0.9567  0.8024  0.0859
 9202SOL     OW39067   0.101   3.222   0.739  0.2436  0.0546  0.2584
 9202SOL    HW139068   0.177   3.208   0.683  0.3259  1.2347  0.0792
 9202SOL    HW239069   0.043   3.276   0.685  0.5343  0.5836  0.4704
 9203SOL     OW39070   0.909   0.655  17.144  0.3297  0.1482 -0.0369
 9203SOL    HW139071   0.982   0.594  17.132 -1.0178 -1.5841  0.7235
 9203SOL    HW239072   0.948   0.739  17.121 -0.8581  0.8015  0.3277
 9204SOL     OW39073   2.802   0.371   7.374 -0.1920  0.3145 -0.5193
 9204SOL    HW139074   2.812   0.406   7.285  0.8562 -1.9782 -1.2950
 9204SOL    HW239075   2.715   0.410   7.384 -1.0432 -1.8713  0.6347
 9205SOL     OW39076   2.856   0.879   8.480 -0.0208  0.2068  0.1176
 9205SOL    HW139077   2.859   0.821   8.404  1.3731  0.0100  0.3229
 9205SOL    HW239078   2.948   0.888   8.506 -0.5857  1.4480  1.6934
 9206SOL     OW39079   0.840   3.292  16.759 -0.2060  0.2440 -0.5561
 9206SOL    HW139080   0.914   3.296  16.698  0.8425  0.9027  0.7552
 9206SOL    HW239081   0.776   3.236  16.715 -0.5228  2.0249 -2.3474
 9207SOL     OW39082   2.712   3.846   1.381  0.1457 -0.1722 -0.1192
 9207SOL    HW139083   2.698   3.752   1.377 -1.0281  0.0045 -0.0592
 9207SOL    HW239084   2.800   3.851   1.419 -0.5011 -0.0861  1.3763
 9208SOL     OW39085   3.076   0.413  16.025  0.0602 -0.0379  0.2218
 9208SOL    HW139086   3.124   0.405  15.943 -1.1103 -2.0291 -0.2671
 9208SOL    HW239087   3.116   0.492  16.060 -0.7864  0.0485  1.0046
 9209SOL     OW39088   3.457   2.675   3.644 -0.7406 -0.2549  0.1179
 9209SOL    HW139089   3.368   2.681   3.611  0.0356  0.7395 -1.7765
 9209SOL    HW239090   3.499   2.630   3.571 -1.2149  1.3502 -1.1272
 9210SOL     OW39091   2.035   4.117   5.443 -0.1313 -0.0381  0.5006
 9210SOL    HW139092   2.042   4.147   5.534 -0.6318 -0.0543  0.5436
 9210SOL    HW239093   2.010   4.027   5.463 -2.5040  0.3311 -0.7748
 9211SOL     OW39094   0.218   3.442  11.308  0.0624 -0.1034 -0.6791
 9211SOL    HW139095   0.294   3.384  11.296  1.1521  1.0077  0.9051
 9211SOL    HW239096   0.232   3.460  11.401 -0.5431 -0.6757 -0.4797
 9212SOL     OW39097   2.427   0.038   6.898  1.1939 -0.2501 -0.2593
 9212SOL    HW139098   2.473   0.121   6.890 -0.5436  0.7698  0.5257
 9212SOL    HW239099   2.340   0.076   6.891  0.3539 -1.7311  2.1191
 9213SOL     OW39100   0.154   4.541  12.431 -0.4756 -0.1043  0.0547
 9213SOL    HW139101   0.069   4.560  12.471 -1.9966 -0.2195 -3.1110
 9213SOL    HW239102   0.129   4.497  12.350  1.5757 -1.1915  0.0013
 9214SOL     OW39103   0.091   2.270   6.407  0.2041  0.2542 -0.1936
 9214SOL    HW139104   0.036   2.225   6.471  0.4690  1.0477  0.5889
 9214SOL    HW239105   0.021   2.318   6.364 -1.3339 -1.1622  0.7314
 9215SOL     OW39106   2.058   1.225   5.901  0.1977 -0.0115 -0.1047
 9215SOL    HW139107   2.141   1.222   5.949 -0.0698 -3.2421  0.1728
 9215SOL    HW239108   2.011   1.274   5.967  0.5140  0.7289 -0.4338
 9216SOL     OW39109   2.947   2.238   8.027 -0.1550 -0.2558 -0.0882
 9216SOL    HW139110   2.910   2.326   8.031  1.2010  0.2733  0.7782
 9216SOL    HW239111   3.027   2.255   8.078 -1.1109  1.5225  0.7935
 9217SOL     OW39112   2.313   1.676   0.547 -0.0973  0.6480 -0.0006
 9217SOL    HW139113   2.373   1.706   0.479 -1.2587  0.3103 -1.1634
 9217SOL    HW239114   2.358   1.603   0.591  0.0447 -0.5283 -2.0825
 9218SOL     OW39115   4.675   0.713   3.441  0.1080 -0.0769  0.1578
 9218SOL    HW139116   4.683   0.626   3.481 -1.3863  0.0087  0.6379
 9218SOL    HW239117   0.042   0.725   3.409  0.5315 -0.5605  1.1601
 9219SOL     OW39118   3.641   4.007   0.323  0.0853  0.5571  0.0878
 9219SOL    HW139119   3.644   3.992   0.229  0.1274 -0.6735  0.2746
 9219SOL    HW239120   3.566   3.953   0.351  0.7669 -0.8925 -0.8581
 9220SOL     OW39121   2.129   0.011   5.978 -0.3994  1.0247 -0.0543
 9220SOL    HW139122   2.101   0.004   5.887  0.7079 -1.2698 -0.2233
 9220SOL    HW239123   2.217   4.697   5.979 -0.2686  1.4477  3.3389
 9221SOL     OW39124   2.918   2.128   0.839 -0.4312 -0.3851  0.1098
 9221SOL    HW139125   2.940   2.185   0.766 -3.9406  1.1583  0.2576
 9221SOL    HW239126   2.823   2.119   0.825  0.3021 -3.6306 -2.7421
 9222SOL     OW39127   3.437   0.467   6.759 -0.2556 -0.5971 -0.6853
 9222SOL    HW139128   3.410   0.554   6.788  0.4936 -0.7683  0.4799
 9222SOL    HW239129   3.507   0.438   6.816 -0.7666  0.6456  0.5811
 9223SOL     OW39130   1.502   0.321  10.638 -0.0697 -0.0147  0.2524
 9223SOL    HW139131   1.555   0.397  10.617  1.8331 -2.0225 -2.1772
 9223SOL    HW239132   1.412   0.354  10.635 -0.4870 -1.2453 -0.6185
 9224SOL     OW39133   3.450   0.583  13.582 -0.2214 -0.0502  0.4229
 9224SOL    HW139134   3.511   0.538  13.523  0.1025 -0.7950  1.3200
 9224SOL    HW239135   3.491   0.667  13.598 -2.1358  1.0962 -0.6724
 9225SOL     OW39136   2.764   2.751  15.898  0.0996 -0.9290  0.0630
 9225SOL    HW139137   2.807   2.810  15.960  2.1709 -0.5693 -1.6969
 9225SOL    HW239138   2.711   2.692  15.952  0.1817  0.4214  1.6003
 9226SOL     OW39139   2.900   1.882   0.363 -0.2182 -0.2314 -0.2538
 9226SOL    HW139140   2.925   1.957   0.416 -3.7165  1.6358 -1.1761
 9226SOL    HW239141   2.938   1.807   0.406 -0.0603  0.3666  0.6421
 9227SOL     OW39142   0.957   1.697   5.673 -0.6408 -0.2956  0.4940
 9227SOL    HW139143   0.931   1.782   5.638 -0.0261 -0.2480  0.1471
 9227SOL    HW239144   0.936   1.643   5.597 -1.5525 -0.8297  1.1236
 9228SOL     OW39145   2.790   0.995   7.392  1.0129  0.1653  0.3323
 9228SOL    HW139146   2.698   0.994   7.420  1.0565 -0.6756  0.4451
 9228SOL    HW239147   2.797   0.953   7.307  0.5018  2.0451 -0.6456
 9229SOL     OW39148   4.674   3.047   7.686 -0.0633 -0.6234 -0.1771
 9229SOL    HW139149   4.696   2.984   7.755 -0.6671 -0.8092 -0.1489
 9229SOL    HW239150   4.639   2.980   7.627 -0.0107  0.3621 -1.3208
 9230SOL     OW39151   0.130   0.964   2.053 -0.0638  0.3056 -0.0137
 9230SOL    HW139152   0.166   1.013   1.980  1.0589  2.0893  1.7228
 9230SOL    HW239153   0.043   1.003   2.063 -0.6300 -0.8085 -0.6564
 9231SOL     OW39154   4.265   3.869  12.657 -1.1452  0.4192  0.9789
 9231SOL    HW139155   4.308   3.790  12.690  0.1251  0.4033 -0.6530
 9231SOL    HW239156   4.310   3.933  12.712  2.0916 -0.8718 -0.1643
 9232SOL     OW39157   3.725   1.214   8.933 -1.1170  0.1485 -0.3503
 9232SOL    HW139158   3.730   1.309   8.947  2.2230 -0.3079  1.5208
 9232SOL    HW239159   3.642   1.183   8.968 -1.3151  1.6304  0.4954
 9233SOL     OW39160   1.134   2.980  16.175 -0.3702  0.3214 -0.0764
 9233SOL    HW139161   1.190   2.953  16.102 -0.6982 -0.0596 -0.1893
 9233SOL    HW239162   1.045   2.978  16.139 -0.4555 -0.4029  0.1706
 9234SOL     OW39163   0.105   4.170   9.459  0.1974  0.1910  0.3014
 9234SOL    HW139164   0.107   4.265   9.470 -0.3480  0.0552  1.6177
 9234SOL    HW239165   0.024   4.142   9.502  0.2330  0.4259  0.5226
 9235SOL     OW39166   1.568   3.756   7.586  0.1586  0.0293  0.6430
 9235SOL    HW139167   1.628   3.682   7.598 -0.6946 -0.7435  0.1387
 9235SOL    HW239168   1.527   3.733   7.503 -1.4852  0.0844  1.4321
 9236SOL     OW39169   2.438   4.140  16.931 -0.3646  0.1289  0.4822
 9236SOL    HW139170   2.522   4.099  16.955 -0.3208 -0.7270 -1.1412
 9236SOL    HW239171   2.459   4.233  16.932 -1.9577  0.4681  1.5413
 9237SOL     OW39172   4.293   0.440  17.687  0.2239  0.0563  0.6546
 9237SOL    HW139173   4.354   0.368   0.012 -2.4870 -2.2481  0.7083
 9237SOL    HW239174   4.292   0.496   0.071  0.2568 -0.7846  1.2714
 9238SOL     OW39175   0.393   1.897  11.195  0.5865  0.2553  0.3038
 9238SOL    HW139176   0.436   1.972  11.236  2.0400  0.7193 -2.0628
 9238SOL    HW239177   0.452   1.827  11.227 -1.3577 -1.1177  0.8873
 9239SOL     OW39178   2.245   0.700   6.089  0.0256  0.8883 -0.4288
 9239SOL    HW139179   2.241   0.608   6.063  1.9170  0.7499 -0.2438
 9239SOL    HW239180   2.150   0.705   6.097  0.0970 -1.3731  1.6050
 9240SOL     OW39181   2.761   1.300  10.848 -0.4510 -0.5601 -0.1696
 9240SOL    HW139182   2.825   1.359  10.890 -0.8627 -0.2354  0.0017
 9240SOL    HW239183   2.790   1.211  10.865  0.5293 -0.2203 -0.0161
 9241SOL     OW39184   1.501   1.443  10.702  0.5130  0.9882  0.0800
 9241SOL    HW139185   1.445   1.520  10.693  0.4779  0.7240 -1.9493
 9241SOL    HW239186   1.584   1.492  10.704  1.6423 -0.9236 -0.5682
 9242SOL     OW39187   3.198   0.955   4.561 -0.5303 -0.1865  0.3294
 9242SOL    HW139188   3.132   1.008   4.604 -2.1308 -0.8901 -1.2523
 9242SOL    HW239189   3.167   0.971   4.472 -1.3984  1.9057  1.0240
 9243SOL     OW39190   0.179   1.793  11.962  0.3138 -0.0608 -0.3155
 9243SOL    HW139191   0.102   1.737  11.974  0.1906  0.2697  0.3814
 9243SOL    HW239192   0.235   1.737  11.908 -0.5522 -1.5556  0.3134
 9244SOL     OW39193   2.742   2.331  16.917  0.1801 -0.8649  0.3377
 9244SOL    HW139194   2.835   2.347  16.899 -0.7398  3.3116 -0.8424
 9244SOL    HW239195   2.695   2.336  16.833 -0.4305  1.8215  0.8158
 9245SOL     OW39196   1.936   1.162   2.450  0.5262  0.3760 -0.1920
 9245SOL    HW139197   2.003   1.127   2.391  0.3485  2.3255 -1.5506
 9245SOL    HW239198   1.973   1.249   2.466 -0.4492  0.8431 -0.4557
 9246SOL     OW39199   3.488   4.261   8.490 -0.3739 -0.2742  0.0931
 9246SOL    HW139200   3.511   4.175   8.453  3.6074 -0.2292  2.5619
 9246SOL    HW239201   3.471   4.242   8.582 -0.4795  0.1377  0.1593
 9247SOL     OW39202   3.666   1.006   8.551  0.1950 -0.5681 -0.2451
 9247SOL    HW139203   3.630   1.014   8.640 -0.5908 -1.6517 -0.4627
 9247SOL    HW239204   3.590   1.029   8.497 -0.2414 -0.6591  0.3206
 9248SOL     OW39205   2.779   0.403   2.200 -0.4329 -0.0004  1.1211
 9248SOL    HW139206   2.758   0.311   2.214  3.6055 -1.0770 -0.0070
 9248SOL    HW239207   2.858   0.396   2.147 -0.8981 -0.1427  0.4457
 9249SOL     OW39208   3.642   0.407   4.173  0.1199 -0.3197  0.3174
 9249SOL    HW139209   3.564   0.440   4.129  0.2765 -0.8212 -0.3266
 9249SOL    HW239210   3.712   0.457   4.131  0.0553 -0.8250 -0.3888
 9250SOL     OW39211   3.129   0.346   4.793 -0.3320  0.0781 -0.5825
 9250SOL    HW139212   3.160   0.407   4.725  1.1640  0.9283  0.8551
 9250SOL    HW239213   3.035   0.345   4.776 -0.3234  3.1945 -0.8473
 9251SOL     OW39214   3.591   2.205   4.090 -0.3703  0.1260 -0.5249
 9251SOL    HW139215   3.636   2.162   4.163  1.2640  1.4105 -0.7727
 9251SOL    HW239216   3.499   2.197   4.114 -0.3540 -1.3230 -0.9300
 9252SOL     OW39217   2.070   4.543   4.582  0.1286 -0.2373 -0.3183
 9252SOL    HW139218   2.103   4.605   4.516  1.9411 -0.4849  0.3511
 9252SOL    HW239219   2.075   4.461   4.533  1.1090 -0.4639  0.1657
 9253SOL     OW39220   4.617   4.345   5.344 -0.3843 -0.0355 -0.0876
 9253SOL    HW139221   4.593   4.298   5.264  0.6211  0.1591 -0.5013
 9253SOL    HW239222   4.546   4.409   5.341 -2.5976 -2.4142  1.6036
 9254SOL     OW39223   2.529   4.165   5.739 -0.4055 -0.2582 -0.2128
 9254SOL    HW139224   2.477   4.113   5.677  0.6482 -0.4309 -0.9466
 9254SOL    HW239225   2.498   4.146   5.828  3.4926 -0.8869  0.9873
 9255SOL     OW39226   4.703   0.048   3.487  0.2773  0.0013  0.1609
 9255SOL    HW139227   0.041   0.122   3.482 -1.3300  1.2951 -0.5819
 9255SOL    HW239228   4.625   0.104   3.494 -2.2913 -3.5044 -0.6715
 9256SOL     OW39229   3.607   3.163  15.295  0.0036 -0.2436 -0.2121
 9256SOL    HW139230   3.646   3.248  15.315  1.0469 -0.2886 -2.0979
 9256SOL    HW239231   3.596   3.113  15.376  1.9835 -0.2619  0.0384
 9257SOL     OW39232   0.162   2.237  11.280 -0.2770  0.1350 -0.0497
 9257SOL    HW139233   0.147   2.308  11.342 -1.9215 -0.5890  0.3916
 9257SOL    HW239234   0.174   2.169  11.346  2.8840  0.0973 -0.6444
 9258SOL     OW39235   4.317   3.796   1.001  0.7069  0.1351  0.0037
 9258SOL    HW139236   4.302   3.730   1.069  1.7220 -0.8445 -0.7245
 9258SOL    HW239237   4.409   3.820   1.018  1.0920 -1.7033  0.5166
 9259SOL     OW39238   3.617   1.105   7.752 -0.1784 -0.1799  0.3320
 9259SOL    HW139239   3.660   1.191   7.758  0.1074 -0.3603  0.8059
 9259SOL    HW239240   3.554   1.130   7.685 -0.0294  2.3575  1.1318
 9260SOL     OW39241   0.395   1.327  10.873  0.4813  0.3882 -0.1302
 9260SOL    HW139242   0.380   1.376  10.954  0.2824  3.5125 -2.0792
 9260SOL    HW239243   0.461   1.377  10.826  0.9491 -0.9435 -0.8912
 9261SOL     OW39244   2.804   1.181  13.786 -1.1195  0.1488  0.7538
 9261SOL    HW139245   2.729   1.240  13.776  0.2414  1.8029  0.2889
 9261SOL    HW239246   2.750   1.105  13.763 -1.1304 -0.1598  1.7619
 9262SOL     OW39247   1.900   0.175   4.249  0.6286  0.6493  0.1209
 9262SOL    HW139248   1.947   0.172   4.166 -3.7511  2.0967 -2.3789
 9262SOL    HW239249   1.862   0.261   4.267 -2.1835 -0.7950  1.1705
 9263SOL     OW39250   0.074   4.335   2.739 -1.0441 -0.3972 -0.0658
 9263SOL    HW139251   0.040   4.421   2.715  1.0597  0.1493 -1.1317
 9263SOL    HW239252   4.716   4.284   2.743 -1.0652 -0.2170  1.6193
 9264SOL     OW39253   2.222   3.566  15.425 -0.0489  0.3240  0.1454
 9264SOL    HW139254   2.311   3.538  15.403  0.7857  0.1178  3.8018
 9264SOL    HW239255   2.229   3.555  15.520 -1.7063 -0.2331  0.2057
 9265SOL     OW39256   3.528   1.124   5.864  0.1169 -0.0711  0.4438
 9265SOL    HW139257   3.507   1.043   5.910 -0.5331 -1.0875 -1.6725
 9265SOL    HW239258   3.491   1.188   5.925 -0.5715 -1.1337  1.1421
 9266SOL     OW39259   0.109   0.788   7.359 -0.2267  0.2501 -0.3217
 9266SOL    HW139260   0.106   0.730   7.435 -0.2337  1.3808  0.5418
 9266SOL    HW239261   0.066   0.734   7.292 -0.0839 -0.0419 -0.1771
 9267SOL     OW39262   2.734   0.239   0.328  0.0866  0.1417  0.0674
 9267SOL    HW139263   2.750   0.178   0.256  0.3015 -0.8042  0.9273
 9267SOL    HW239264   2.667   0.206   0.388 -1.4558  0.2555 -1.5956
 9268SOL     OW39265   4.125   4.346   7.777  0.3711 -0.7011 -0.2846
 9268SOL    HW139266   4.173   4.340   7.694  1.3080 -2.4292  0.3677
 9268SOL    HW239267   4.145   4.432   7.814 -0.2046 -0.3161 -0.8743
 9269SOL     OW39268   4.606   2.932  15.869 -0.6899 -0.3904  0.3175
 9269SOL    HW139269   4.537   2.981  15.825  0.8039 -0.7745 -2.4655
 9269SOL    HW239270   4.565   2.905  15.951 -0.6098 -0.9102  0.1889
 9270SOL     OW39271   2.493   2.565   7.155  0.2823 -0.5786  0.0950
 9270SOL    HW139272   2.581   2.528   7.161 -0.0181 -1.1471  0.9664
 9270SOL    HW239273   2.507   2.660   7.146  0.4267 -0.3723  2.2749
 9271SOL     OW39274   0.422   2.810  11.002 -0.8124  0.3780  0.1412
 9271SOL    HW139275   0.396   2.739  11.061  1.8861  0.0048  0.8794
 9271SOL    HW239276   0.487   2.859  11.053  0.5623  2.0221 -3.1985
 9272SOL     OW39277   3.406   0.729   8.422  0.8673 -0.9669 -0.7054
 9272SOL    HW139278   3.406   0.666   8.351 -0.9654  0.2130 -1.7523
 9272SOL    HW239279   3.402   0.809   8.369  1.6628 -0.4484  0.0057
 9273SOL     OW39280   1.210   1.067  15.473  0.6395  0.3929  0.1675
 9273SOL    HW139281   1.150   0.993  15.485 -0.4554  1.7083  2.7153
 9273SOL    HW239282   1.140   1.132  15.464  2.5226  2.3831 -0.0450
 9274SOL     OW39283   4.375   0.473   7.918  0.1994 -0.3854 -0.1797
 9274SOL    HW139284   4.432   0.409   7.962 -0.0299 -0.2558  0.2969
 9274SOL    HW239285   4.407   0.550   7.965  1.1558 -0.9150  0.0474
 9275SOL     OW39286   0.484   1.106   6.370 -0.0294 -0.2481  0.0271
 9275SOL    HW139287   0.470   1.028   6.422 -0.5115  0.3462  0.7857
 9275SOL    HW239288   0.579   1.101   6.357 -0.0088  1.0363 -0.3387
 9276SOL     OW39289   0.210   1.096   4.475 -0.0116 -0.0505  0.2911
 9276SOL    HW139290   0.157   1.122   4.399  0.5811 -1.4960 -0.6045
 9276SOL    HW239291   0.224   1.179   4.521 -1.6178  0.0157  0.6726
 9277SOL     OW39292   2.969   1.405   2.723  0.0390  0.0268  0.6256
 9277SOL    HW139293   3.004   1.474   2.666  1.2069 -1.2953 -0.2429
 9277SOL    HW239294   2.924   1.363   2.650 -1.7454 -2.1924  3.0314
 9278SOL     OW39295   2.478   1.782   9.356  0.4817 -0.1820  0.0930
 9278SOL    HW139296   2.402   1.752   9.405  0.9570  0.0278  0.9529
 9278SOL    HW239297   2.531   1.703   9.366  1.0838  0.0726 -1.1031
 9279SOL     OW39298   2.011   1.583   7.858  0.5892 -0.0131 -0.0806
 9279SOL    HW139299   1.969   1.661   7.895  1.0749  0.6486 -0.9430
 9279SOL    HW239300   2.098   1.593   7.897 -0.1036 -1.8814  1.9505
 9280SOL     OW39301   3.671   3.982   8.502  0.0313  0.0934 -0.2329
 9280SOL    HW139302   3.616   3.964   8.425 -0.6922  0.8382  0.1124
 9280SOL    HW239303   3.734   3.910   8.496 -0.4898 -0.3292 -0.6178
 9281SOL     OW39304   0.371   1.764   6.571  0.0857  0.1350  0.5255
 9281SOL    HW139305   0.406   1.753   6.659  1.0825  0.8041  0.2101
 9281SOL    HW239306   0.276   1.768   6.585 -0.2090 -1.5222 -0.9552
 9282SOL     OW39307   2.363   4.689   5.055 -0.3566  0.2993  0.1982
 9282SOL    HW139308   2.272   4.713   5.072  0.3977  2.1912  1.5628
 9282SOL    HW239309   2.398   0.007   5.135  0.9483 -0.0731 -0.1801
 9283SOL     OW39310   4.315   2.377   7.506 -0.0459 -0.0528  0.3355
 9283SOL    HW139311   4.378   2.414   7.445  2.9723 -2.5394  1.9615
 9283SOL    HW239312   4.243   2.386   7.444 -0.6289  1.9752  1.3145
 9284SOL     OW39313   4.090   4.122  17.381 -0.1407  0.1745  0.1663
 9284SOL    HW139314   4.009   4.172  17.380 -0.8703 -1.0299 -0.1598
 9284SOL    HW239315   4.057   4.034  17.364 -2.2914  0.6283  1.9885
 9285SOL     OW39316   2.043   1.197   1.859 -0.0981 -0.1493  0.1899
 9285SOL    HW139317   2.086   1.148   1.789 -0.9945 -1.7157  0.7242
 9285SOL    HW239318   2.121   1.244   1.889  0.6630 -0.8440 -0.7035
 9286SOL     OW39319   3.401   3.077  10.535 -0.1450 -0.1411  0.2418
 9286SOL    HW139320   3.434   3.018  10.467  0.8562  0.0421  0.5687
 9286SOL    HW239321   3.462   3.150  10.524 -1.2727  1.2611  3.5047
 9287SOL     OW39322   1.651   4.572   3.991 -0.4776  0.5443  0.0927
 9287SOL    HW139323   1.696   4.601   4.071  0.3361  0.6911 -0.4206
 9287SOL    HW239324   1.726   4.567   3.932 -0.3264 -0.2881  0.3600
 9288SOL     OW39325   0.711   0.434   4.803  0.3025 -0.0819  0.3474
 9288SOL    HW139326   0.646   0.476   4.747 -0.8017 -1.8025  0.3306
 9288SOL    HW239327   0.763   0.510   4.830 -0.2061 -0.1037  1.3736
 9289SOL     OW39328   1.489   1.245  17.392 -0.5438  0.5638 -0.6626
 9289SOL    HW139329   1.446   1.165  17.363  0.4859 -0.7043  1.3329
 9289SOL    HW239330   1.578   1.225  17.363 -1.3078 -0.9533 -1.9358
 9290SOL     OW39331   2.224   1.469  11.776  0.3050 -0.5620 -0.0882
 9290SOL    HW139332   2.198   1.487  11.866 -0.1760  0.2049 -0.3803
 9290SOL    HW239333   2.147   1.430  11.736  1.2846 -2.0762 -0.4702
 9291SOL     OW39334   2.063   0.278  14.113 -0.0613  0.1626  0.1216
 9291SOL    HW139335   1.983   0.228  14.129  1.4580 -2.1047  0.5407
 9291SOL    HW239336   2.033   0.358  14.156  1.3317 -0.3142  1.9531
 9292SOL     OW39337   4.494   2.600   6.758  0.3616 -0.1812  0.5862
 9292SOL    HW139338   4.573   2.633   6.802 -0.5492 -1.6654  3.3564
 9292SOL    HW239339   4.527   2.610   6.668 -0.1069 -0.4801  0.3799
 9293SOL     OW39340   4.247   3.573   7.920 -0.0159 -0.1018  0.6277
 9293SOL    HW139341   4.268   3.641   7.856  0.9124  0.3904  1.4457
 9293SOL    HW239342   4.286   3.614   7.998 -0.2312 -1.1953  1.3120
 9294SOL     OW39343   1.637   1.814  12.680  0.0322 -0.0792 -0.0348
 9294SOL    HW139344   1.557   1.809  12.732  0.9900  2.1714  1.6748
 9294SOL    HW239345   1.698   1.829  12.753 -0.4752  0.1176  0.3467
 9295SOL     OW39346   3.470   4.372   4.873 -0.7019 -0.0119  0.1741
 9295SOL    HW139347   3.528   4.401   4.803 -2.2085  1.5237 -0.4375
 9295SOL    HW239348   3.511   4.407   4.952  0.7370 -0.0122 -0.5813
 9296SOL     OW39349   2.904   3.572   6.073  0.7289 -0.1472  0.1202
 9296SOL    HW139350   2.853   3.625   6.134 -0.1576 -0.4909 -0.3179
 9296SOL    HW239351   2.974   3.538   6.128  0.6163 -2.1203 -0.9532
 9297SOL     OW39352   0.923   1.000   8.433 -0.1861 -0.0335 -0.1045
 9297SOL    HW139353   0.929   0.913   8.473 -1.3291 -0.5508 -1.0886
 9297SOL    HW239354   0.854   1.048   8.479  0.3176  0.6176 -0.0185
 9298SOL     OW39355   0.683   1.966   4.383 -0.2380 -0.0382 -0.4613
 9298SOL    HW139356   0.737   1.890   4.405  0.8067  1.1389  1.0043
 9298SOL    HW239357   0.725   1.998   4.304 -2.0352 -0.2245 -1.5067
 9299SOL     OW39358   4.142   2.915   2.703 -0.5403  0.0570  0.2488
 9299SOL    HW139359   4.155   3.007   2.679 -0.3976  0.5575  2.1962
 9299SOL    HW239360   4.071   2.890   2.645  0.4563 -0.5516 -0.6984
 9300SOL     OW39361   4.090   2.295  16.223  0.2159  0.6920  0.7029
 9300SOL    HW139362   4.176   2.269  16.189 -1.1716 -0.6890 -1.6665
 9300SOL    HW239363   4.042   2.213  16.214  2.1488 -0.1468 -1.9123
 9301SOL     OW39364   3.145   3.290   0.611 -0.1495 -0.8502 -0.7654
 9301SOL    HW139365   3.152   3.196   0.600 -0.6863 -0.5336 -3.7414
 9301SOL    HW239366   3.077   3.296   0.678 -0.3026 -2.0638 -0.8181
 9302SOL     OW39367   3.048   1.708   2.320  0.4216  0.3679  0.1843
 9302SOL    HW139368   3.022   1.667   2.238 -0.4098  0.8243  0.2250
 9302SOL    HW239369   3.041   1.801   2.302  0.3546  0.3918  0.3328
 9303SOL     OW39370   3.056   1.154   3.837  0.2233 -0.0181  0.2305
 9303SOL    HW139371   3.012   1.234   3.811 -0.3139 -0.2632  0.3743
 9303SOL    HW239372   3.072   1.109   3.755 -0.6012 -0.4638  0.3097
 9304SOL     OW39373   4.548   0.844   5.894  0.1109 -1.0057 -0.2637
 9304SOL    HW139374   4.618   0.787   5.928 -0.2235 -0.2334  1.7027
 9304SOL    HW239375   4.586   0.873   5.811  0.4083 -2.6895 -0.7365
 9305SOL     OW39376   1.761   2.512  13.044  0.2285 -0.0247  0.4960
 9305SOL    HW139377   1.818   2.456  13.097  0.7359  0.9689  1.0079
 9305SOL    HW239378   1.705   2.555  13.108 -1.4895 -0.7222 -0.5497
 9306SOL     OW39379   3.574   0.186   0.862  0.1971  0.1318  0.1135
 9306SOL    HW139380   3.646   0.249   0.856  0.8883 -0.7377 -0.7108
 9306SOL    HW239381   3.582   0.153   0.773 -0.2945 -2.1771  0.9305
 9307SOL     OW39382   1.321   0.488  13.327  0.1514  0.4853 -0.5615
 9307SOL    HW139383   1.359   0.406  13.294  0.9432  0.8938 -0.6707
 9307SOL    HW239384   1.361   0.499  13.414  0.2797 -0.1504 -0.5349
 9308SOL     OW39385   3.021   0.865  12.850 -0.1389 -0.0145  0.2741
 9308SOL    HW139386   3.079   0.833  12.781  1.1067  1.7190  0.5025
 9308SOL    HW239387   2.970   0.788  12.873 -0.3111 -0.4229 -1.4821
 9309SOL     OW39388   1.123   4.048  15.044  0.3063 -0.0831 -0.2866
 9309SOL    HW139389   1.176   4.126  15.060  0.4204  0.0226 -1.2135
 9309SOL    HW239390   1.167   3.977  15.091 -1.3794  0.3015  1.8990
 9310SOL     OW39391   3.791   0.815   4.647 -0.2695 -0.2493  0.0798
 9310SOL    HW139392   3.748   0.801   4.563  2.2667 -0.2336 -1.2158
 9310SOL    HW239393   3.780   0.731   4.692  0.3315 -1.0189 -1.2155
 9311SOL     OW39394   3.537   1.152   9.871 -0.0071 -0.2735 -0.0562
 9311SOL    HW139395   3.525   1.226   9.931 -2.1748 -1.6157  1.1884
 9311SOL    HW239396   3.446   1.122   9.869  0.1025 -0.6520  0.6888
 9312SOL     OW39397   0.671   1.130  13.701  0.2877  0.4577  0.4447
 9312SOL    HW139398   0.631   1.106  13.618  0.8897 -3.0585  1.1773
 9312SOL    HW239399   0.741   1.186  13.669  0.9226  0.8874  2.5641
 9313SOL     OW39400   2.286   2.468   3.159 -0.1389 -0.0286  0.4434
 9313SOL    HW139401   2.220   2.439   3.096  1.7410  0.1463 -1.6082
 9313SOL    HW239402   2.338   2.524   3.102 -2.8679  0.2814 -1.7345
 9314SOL     OW39403   3.900   2.533   1.568  0.1367 -0.0189  0.2849
 9314SOL    HW139404   3.875   2.556   1.479 -2.0766  0.1293  0.9428
 9314SOL    HW239405   3.816   2.505   1.604  0.3993 -0.4704  0.5483
 9315SOL     OW39406   2.919   0.814  10.612  0.1366  0.2614  0.8831
 9315SOL    HW139407   2.921   0.787  10.521  0.8775 -0.1089  1.0111
 9315SOL    HW239408   2.984   0.884  10.603  1.9251 -1.2199  2.4228
 9316SOL     OW39409   4.027   3.236   8.554 -0.1476 -0.3984  0.0736
 9316SOL    HW139410   4.082   3.185   8.614  1.3465 -0.5349 -1.4215
 9316SOL    HW239411   4.000   3.175   8.485 -0.4001 -1.0588  0.7464
 9317SOL     OW39412   4.515   2.264   4.676 -0.3423 -0.6973 -0.2881
 9317SOL    HW139413   4.546   2.305   4.757  0.8970  1.4983 -1.8614
 9317SOL    HW239414   4.590   2.208   4.655 -1.7932 -2.4001 -0.8997
 9318SOL     OW39415   4.076   2.981  16.563  0.0946 -0.1293  0.5977
 9318SOL    HW139416   4.002   2.926  16.591 -0.2007  0.9219  1.8573
 9318SOL    HW239417   4.076   3.043  16.635 -3.5533  2.4226 -1.6114
 9319SOL     OW39418   1.503   2.874   2.946 -0.6897  0.1831 -0.4637
 9319SOL    HW139419   1.497   2.933   2.871 -1.3876 -0.2610 -0.7567
 9319SOL    HW239420   1.571   2.919   2.997 -0.5711  2.2114 -2.3850
 9320SOL     OW39421   4.084   2.499  14.948  0.7043  0.3677  0.8815
 9320SOL    HW139422   4.072   2.542  14.864  0.3154 -0.5009  0.4946
 9320SOL    HW239423   4.171   2.528  14.975  0.1035  0.5936  2.6352
 9321SOL     OW39424   4.294   1.624   5.015  0.4070  0.3219 -0.5599
 9321SOL    HW139425   4.372   1.608   4.962 -0.1372 -0.4546 -1.1180
 9321SOL    HW239426   4.231   1.625   4.943 -0.1202  0.3835 -0.0927
 9322SOL     OW39427   2.141   2.638   3.909 -0.4643 -0.4595  0.0583
 9322SOL    HW139428   2.191   2.654   3.829  0.3511  0.9980  0.8471
 9322SOL    HW239429   2.117   2.546   3.902 -3.5540  0.4832 -2.0790
 9323SOL     OW39430   2.880   0.308   3.116  0.1470  0.1534  0.1325
 9323SOL    HW139431   2.884   0.396   3.078  1.0136  0.8870  1.9216
 9323SOL    HW239432   2.910   0.269   3.034 -0.6036 -0.4529  0.1562
 9324SOL     OW39433   3.029   4.215   8.629  0.3793 -0.4298  0.2253
 9324SOL    HW139434   3.075   4.131   8.633  0.2414 -0.4595  1.2777
 9324SOL    HW239435   3.104   4.268   8.656 -1.2946  1.4506  1.1750
 9325SOL     OW39436   0.325   0.827   6.860  0.2119 -0.0399 -0.1509
 9325SOL    HW139437   0.246   0.842   6.809  0.4002 -3.3458 -1.4591
 9325SOL    HW239438   0.302   0.863   6.946 -1.5787  0.0672 -0.6931
 9326SOL     OW39439   0.163   4.287  16.033 -0.8675  0.2358  0.0197
 9326SOL    HW139440   0.074   4.261  16.010 -1.0149  0.4344  0.3762
 9326SOL    HW239441   0.161   4.372  15.990  2.1828 -0.1770 -0.9797
 9327SOL     OW39442   0.433   2.078   6.542 -0.2083  0.3122 -0.4803
 9327SOL    HW139443   0.399   2.122   6.464  0.2789  1.3560 -0.1109
 9327SOL    HW239444   0.360   2.018   6.554  0.7599 -1.3307 -2.6763
 9328SOL     OW39445   4.298   1.905   0.253 -0.0224  0.5729  0.2912
 9328SOL    HW139446   4.219   1.943   0.215  0.9098 -0.3842 -2.5798
 9328SOL    HW239447   4.364   1.910   0.183 -1.8349 -0.7584 -1.4956
 9329SOL     OW39448   0.506   3.886  11.314  0.2311 -0.2399  0.5317
 9329SOL    HW139449   0.447   3.877  11.388  2.2180 -0.2035  2.1441
 9329SOL    HW239450   0.564   3.958  11.339  1.2275 -0.7725 -0.2437
 9330SOL     OW39451   1.203   1.358   3.634 -0.0321  0.0842  0.2109
 9330SOL    HW139452   1.167   1.441   3.666  0.2275  0.9595 -1.7804
 9330SOL    HW239453   1.137   1.332   3.569  0.9017  0.3814 -0.8534
 9331SOL     OW39454   2.160   1.186   3.873 -0.2127 -0.0300  0.2171
 9331SOL    HW139455   2.068   1.163   3.890 -1.0746  1.3786 -2.6080
 9331SOL    HW239456   2.151   1.242   3.796  0.9352  0.3685  0.3886
 9332SOL     OW39457   2.230   0.247   0.664  0.2059  0.2115  0.1358
 9332SOL    HW139458   2.183   0.264   0.746 -1.2956  0.4085 -0.7473
 9332SOL    HW239459   2.265   0.159   0.663 -0.7082 -0.1552 -0.2411
 9333SOL     OW39460   2.772   4.717   7.735  0.4455  0.5718 -0.2385
 9333SOL    HW139461   2.732   0.026   7.815  2.1028  2.3817 -0.1369
 9333SOL    HW239462   2.864   4.705   7.759 -0.0279 -2.2845  0.1478
 9334SOL     OW39463   1.749   1.119   2.947 -0.6485  0.8894  0.2715
 9334SOL    HW139464   1.681   1.182   2.972 -1.3270 -1.4897  4.4127
 9334SOL    HW239465   1.761   1.159   2.861  1.5074 -0.5585 -0.0940
 9335SOL     OW39466   4.646   0.104   2.146  0.3463 -0.2050  0.1259
 9335SOL    HW139467   0.014   0.132   2.131 -0.2416  1.3387 -0.5044
 9335SOL    HW239468   4.601   0.186   2.164 -0.0355 -0.5970  1.0001
 9336SOL     OW39469   4.544   3.834  10.355  0.5421 -0.5648  0.5766
 9336SOL    HW139470   4.480   3.768  10.383  1.5257 -2.4329 -1.5135
 9336SOL    HW239471   4.528   3.818  10.262 -1.8418 -0.0116  0.8976
 9337SOL     OW39472   0.034   4.017   6.162  0.3931 -0.6593 -0.4119
 9337SOL    HW139473   0.019   4.058   6.247  1.6448 -2.4420  0.6509
 9337SOL    HW239474   0.082   4.087   6.117 -0.1773  0.3991  0.6463
 9338SOL     OW39475   0.135   2.853   8.170 -0.4536 -0.4561 -0.0552
 9338SOL    HW139476   0.131   2.771   8.219  1.7362 -1.4821 -1.5301
 9338SOL    HW239477   0.049   2.885   8.197 -0.7008 -1.9000  0.8376
 9339SOL     OW39478   1.703   3.459   6.279  0.1703 -0.6313 -0.0950
 9339SOL    HW139479   1.618   3.503   6.268 -0.0238 -1.2808 -1.1173
 9339SOL    HW239480   1.704   3.403   6.202 -0.5724 -0.3473 -0.3082
 9340SOL     OW39481   4.527   2.647   6.485  0.0099 -0.3313 -0.0709
 9340SOL    HW139482   4.616   2.677   6.467 -0.5239  2.3424  1.7437
 9340SOL    HW239483   4.469   2.679   6.417  1.1412  0.3388 -0.7211
 9341SOL     OW39484   3.801   2.765   8.111  0.3187  0.0427 -0.4613
 9341SOL    HW139485   3.891   2.754   8.082  0.5300  0.9162 -0.1007
 9341SOL    HW239486   3.748   2.816   8.049  0.8056  0.6740 -0.3444
 9342SOL     OW39487   3.250   2.268   5.435 -0.2424 -0.3325 -0.7968
 9342SOL    HW139488   3.209   2.341   5.389 -1.2334 -0.1595  0.3680
 9342SOL    HW239489   3.323   2.239   5.380  0.4596  0.1671 -0.1348
 9343SOL     OW39490   0.152   4.127   5.568  0.7121  0.2450 -0.4243
 9343SOL    HW139491   0.228   4.080   5.602  0.4042  0.9661  1.2533
 9343SOL    HW239492   0.174   4.216   5.597 -0.1944  0.2618  0.2305
 9344SOL     OW39493   4.184   3.833   9.978 -0.0888  0.2926  0.4168
 9344SOL    HW139494   4.168   3.752  10.026 -0.0440 -1.0702 -1.8900
 9344SOL    HW239495   4.141   3.902  10.028 -2.7804  0.0547 -1.5308
 9345SOL     OW39496   1.824   0.976   3.689 -0.2747 -0.1301  0.5673
 9345SOL    HW139497   1.748   0.954   3.635 -0.4212 -1.4225  1.2962
 9345SOL    HW239498   1.884   0.906   3.665  0.6355  1.7186 -2.4986
 9346SOL     OW39499   1.586   3.046   5.134 -0.6415  0.1055  0.1375
 9346SOL    HW139500   1.670   3.008   5.109 -1.2753 -1.2624  0.1239
 9346SOL    HW239501   1.607   3.112   5.200 -0.5136  0.5342 -0.3254
 9347SOL     OW39502   1.284   3.470   2.642 -0.3127 -0.4764 -0.1768
 9347SOL    HW139503   1.207   3.472   2.700 -0.8514 -2.1461 -0.8451
 9347SOL    HW239504   1.260   3.531   2.571  0.0711  1.5217  1.4139
 9348SOL     OW39505   2.115   1.762  11.688 -0.1720  0.1091 -0.3273
 9348SOL    HW139506   2.184   1.817  11.649 -0.7945  0.5239 -0.8577
 9348SOL    HW239507   2.162   1.746  11.769 -0.9663  1.1021  0.3401
 9349SOL     OW39508   2.971   2.520  15.514 -0.2831 -0.1020  0.2916
 9349SOL    HW139509   2.891   2.542  15.563  0.0845  0.6745  0.5309
 9349SOL    HW239510   2.974   2.594  15.453 -2.7383 -1.0991 -1.0706
 9350SOL     OW39511   1.920   2.900   3.723  0.1133  0.3379  0.0308
 9350SOL    HW139512   1.939   2.822   3.670 -1.0962  0.0718 -0.0186
 9350SOL    HW239513   1.966   2.964   3.669 -0.8485  1.3850  0.4480
 9351SOL     OW39514   4.350   0.578  11.134  0.2262 -0.5159  0.2838
 9351SOL    HW139515   4.318   0.492  11.106  1.9752 -1.8240  2.3147
 9351SOL    HW239516   4.281   0.637  11.104 -0.4010 -0.2694  2.2442
 9352SOL     OW39517   2.348   3.277   4.505  0.3256  0.0018  0.1468
 9352SOL    HW139518   2.383   3.336   4.572 -0.2740  2.3504 -1.6220
 9352SOL    HW239519   2.261   3.285   4.546 -0.5950 -3.3473 -1.1856
 9353SOL     OW39520   1.573   3.705   5.621  0.2452 -0.2940  0.0648
 9353SOL    HW139521   1.493   3.696   5.570 -0.4631  0.1943  1.0877
 9353SOL    HW239522   1.621   3.630   5.587  0.5219 -0.7591  1.4613
 9354SOL     OW39523   3.532   3.503   2.047  0.0046 -0.3018 -0.0724
 9354SOL    HW139524   3.473   3.550   1.988 -0.6645  1.0622  1.6742
 9354SOL    HW239525   3.531   3.568   2.118  2.9692  0.7072 -0.9370
 9355SOL     OW39526   3.428   3.338   3.015 -0.2241 -0.2189  0.3635
 9355SOL    HW139527   3.497   3.355   3.079  0.9520 -0.8513 -0.7440
 9355SOL    HW239528   3.467   3.280   2.950 -2.1116 -1.0863  0.0253
 9356SOL     OW39529   4.594   4.167  14.725  0.3532 -0.2048  0.0825
 9356SOL    HW139530   4.519   4.197  14.674 -0.1990 -1.2471  0.2906
 9356SOL    HW239531   4.662   4.162  14.658  0.6134  0.8035  0.2738
 9357SOL     OW39532   3.153   1.566  14.806 -0.1525  0.3966  0.2733
 9357SOL    HW139533   3.241   1.544  14.838  0.0771  2.0434  0.8077
 9357SOL    HW239534   3.121   1.600  14.890  0.4092 -0.6176  0.9041
 9358SOL     OW39535   4.620   2.995   2.314 -0.1316 -0.5309 -0.3997
 9358SOL    HW139536   4.568   2.981   2.393  1.5310 -0.2036  0.7453
 9358SOL    HW239537   4.702   3.033   2.343  0.5000 -1.0938 -1.4414
 9359SOL     OW39538   2.361   4.476   5.491 -0.3978 -0.1785  0.1211
 9359SOL    HW139539   2.297   4.420   5.536 -0.3118 -0.4309 -0.0690
 9359SOL    HW239540   2.340   4.457   5.400 -2.0605  2.3455  0.0040
 9360SOL     OW39541   1.700   2.511   4.219  0.2844  0.1293  0.0087
 9360SOL    HW139542   1.607   2.535   4.221  0.5003  0.9994 -0.1677
 9360SOL    HW239543   1.717   2.518   4.124 -1.1015 -1.0057 -0.3081
 9361SOL     OW39544   4.178   0.972   4.134  0.3545 -0.6302 -0.2766
 9361SOL    HW139545   4.192   1.023   4.054  1.0050 -1.5367 -0.7563
 9361SOL    HW239546   4.213   0.885   4.111 -0.5786 -0.8804 -0.7754
 9362SOL     OW39547   0.625   0.517  11.811  0.3305 -0.4118 -0.8108
 9362SOL    HW139548   0.612   0.595  11.864  1.2751 -1.6726  1.2806
 9362SOL    HW239549   0.642   0.555  11.724 -2.5580  3.3192  0.2626
 9363SOL     OW39550   4.102   4.412  15.601 -0.0728 -0.1097  0.0588
 9363SOL    HW139551   4.180   4.460  15.629 -0.4811  0.6067 -0.0036
 9363SOL    HW239552   4.044   4.486  15.581  1.1814  0.8612  0.0310
 9364SOL     OW39553   2.663   2.366   3.146 -0.0332  0.0835 -0.2647
 9364SOL    HW139554   2.578   2.321   3.150 -0.0515  0.2243  0.7936
 9364SOL    HW239555   2.630   2.452   3.118  1.9574 -0.1791 -3.4293
 9365SOL     OW39556   4.166   2.703  11.238  0.0452  0.0517  0.0101
 9365SOL    HW139557   4.153   2.690  11.144 -0.4023 -1.9329  0.3379
 9365SOL    HW239558   4.110   2.780  11.247  0.0905 -0.0814  1.4279
 9366SOL     OW39559   1.714   3.634   3.639 -0.6905 -0.0792  0.1228
 9366SOL    HW139560   1.655   3.619   3.565 -0.2461 -1.1200 -0.0220
 9366SOL    HW239561   1.691   3.726   3.654 -2.8702 -0.3136 -1.6284
 9367SOL     OW39562   4.075   3.620   3.893  0.3089 -0.3655  0.2960
 9367SOL    HW139563   4.012   3.613   3.821  0.8402 -1.6031 -0.0402
 9367SOL    HW239564   4.155   3.648   3.848 -0.9102 -1.8993 -2.8519
 9368SOL     OW39565   3.334   0.074   6.351  0.3837  0.1706  0.0214
 9368SOL    HW139566   3.332   0.107   6.441 -1.2656  1.0088 -0.3205
 9368SOL    HW239567   3.346   4.704   6.370  1.5919  0.1796 -0.7082
 9369SOL     OW39568   3.244   1.606   7.970  0.1533  1.2023  0.2450
 9369SOL    HW139569   3.237   1.569   8.057  0.2789  0.5610 -0.0210
 9369SOL    HW239570   3.157   1.603   7.932 -0.2635  1.1425  1.2088
 9370SOL     OW39571   3.907   0.640   1.694  0.2053  0.3737 -1.0713
 9370SOL    HW139572   3.886   0.565   1.638 -0.9044  0.3163 -0.5840
 9370SOL    HW239573   3.920   0.700   1.620 -0.1815  1.8432  0.0644
 9371SOL     OW39574   4.297   0.185   6.771  0.8422  0.1288 -0.4499
 9371SOL    HW139575   4.371   0.240   6.747  1.7734 -0.1139  1.9113
 9371SOL    HW239576   4.256   0.191   6.684  1.0006 -3.4860 -0.7639
 9372SOL     OW39577   4.131   1.569   5.239 -0.2894  0.1584  0.0551
 9372SOL    HW139578   4.163   1.614   5.161 -0.0234  0.3918  0.2986
 9372SOL    HW239579   4.162   1.628   5.308 -0.8999  0.0086  0.4618
 9373SOL     OW39580   0.179   3.666  12.422  0.0551 -0.8941 -0.2609
 9373SOL    HW139581   0.114   3.736  12.429 -0.1367 -1.2454  1.5883
 9373SOL    HW239582   0.216   3.670  12.334 -1.3968 -2.1604 -0.9198
 9374SOL     OW39583   1.293   2.011   2.885 -0.1250 -0.1905  0.4952
 9374SOL    HW139584   1.226   2.066   2.926 -1.1699  0.7192 -2.4326
 9374SOL    HW239585   1.366   2.072   2.871  2.3089 -3.9511 -3.0991
 9375SOL     OW39586   1.989   3.333  13.044  0.5664  0.2817  0.0958
 9375SOL    HW139587   2.043   3.273  13.097 -1.3945  0.7415  2.6514
 9375SOL    HW239588   1.961   3.392  13.114  1.2526 -0.6340  1.1515
 9376SOL     OW39589   0.545   3.502  14.791 -0.4710  0.1626 -0.0134
 9376SOL    HW139590   0.461   3.546  14.801 -1.4819 -1.9229  0.5823
 9376SOL    HW239591   0.528   3.419  14.835  2.3493  0.2680  1.2697
 9377SOL     OW39592   4.031   2.755  13.674 -0.2152  0.0610  0.2867
 9377SOL    HW139593   4.017   2.825  13.610 -3.3756 -0.0172  0.8998
 9377SOL    HW239594   3.956   2.772  13.731 -0.9753  1.6237 -1.2096
 9378SOL     OW39595   1.478   2.158   0.364  0.5229  0.0196  0.7859
 9378SOL    HW139596   1.499   2.110   0.444  0.4032 -1.6523 -0.1917
 9378SOL    HW239597   1.399   2.107   0.343 -0.2682  2.2262 -1.6775
 9379SOL     OW39598   2.701   0.470  15.283 -0.5274 -0.2192 -0.5453
 9379SOL    HW139599   2.608   0.483  15.266 -1.1495  1.2107  3.8281
 9379SOL    HW239600   2.707   0.508  15.371 -0.5528 -0.7572 -0.3137
 9380SOL     OW39601   0.520   3.085  10.528  0.3421 -1.2784  0.5803
 9380SOL    HW139602   0.585   3.136  10.575  1.1026 -0.4069 -1.4097
 9380SOL    HW239603   0.452   3.150  10.511  0.9099 -0.2661  2.2303
 9381SOL     OW39604   3.873   0.636   8.085  0.0757 -0.3428 -0.4537
 9381SOL    HW139605   3.956   0.589   8.084  1.8324  2.7984 -1.2386
 9381SOL    HW239606   3.834   0.612   8.169  0.3228  4.6005  1.0285
 9382SOL     OW39607   2.579   1.929  16.782  0.7407  0.5346  0.3497
 9382SOL    HW139608   2.508   1.980  16.822 -1.1833 -1.0734 -1.0489
 9382SOL    HW239609   2.539   1.843  16.790  2.8076 -0.4236  0.1644
 9383SOL     OW39610   3.573   3.222   5.934 -0.4759 -1.2464  0.3913
 9383SOL    HW139611   3.506   3.285   5.961 -0.9669 -0.7902 -1.8926
 9383SOL    HW239612   3.569   3.161   6.008  3.8669 -1.1052  0.7022
 9384SOL     OW39613   4.299   4.358   3.219 -0.6393  0.4112  0.5474
 9384SOL    HW139614   4.323   4.415   3.145  2.2752  1.6247  2.4295
 9384SOL    HW239615   4.219   4.315   3.188 -0.2224  2.4752 -3.4589
 9385SOL     OW39616   2.913   3.158  13.043 -0.4962 -0.2576  0.0617
 9385SOL    HW139617   2.987   3.155  13.103  0.8539 -1.0291 -1.6560
 9385SOL    HW239618   2.945   3.175  12.954  0.0953 -1.1588  0.1071
 9386SOL     OW39619   4.593   1.245   0.596 -0.0021 -0.1381 -0.1460
 9386SOL    HW139620   4.513   1.249   0.542  0.6467  0.9110 -1.0298
 9386SOL    HW239621   4.566   1.192   0.671  0.6736  0.2714  0.3753
 9387SOL     OW39622   1.100   0.941  13.701 -0.0238  0.6294  0.0976
 9387SOL    HW139623   1.080   1.013  13.641 -0.1428 -0.0398 -0.6652
 9387SOL    HW239624   1.094   0.980  13.789 -0.7327 -0.4530  0.5244
 9388SOL     OW39625   4.470   4.496   9.360 -0.4982 -0.5617  0.6861
 9388SOL    HW139626   4.385   4.503   9.316  0.3453 -0.3073 -0.8959
 9388SOL    HW239627   4.445   4.442   9.436 -0.2670  0.6211  1.6099
 9389SOL     OW39628   4.525   0.241   0.883  0.0026  0.1756  0.2060
 9389SOL    HW139629   4.450   0.229   0.825  0.2749 -1.6172  0.1958
 9389SOL    HW239630   4.498   0.193   0.962  1.9385  0.5889  1.1343
 9390SOL     OW39631   0.769   0.633   3.065 -0.1122  0.4281 -0.8269
 9390SOL    HW139632   0.830   0.618   3.137  2.0293  0.3830 -2.6492
 9390SOL    HW239633   0.820   0.620   2.986 -0.0988  0.6819 -0.8583
 9391SOL     OW39634   2.773   1.619   0.060 -0.2905 -0.6092 -0.5514
 9391SOL    HW139635   2.854   1.594   0.106 -0.3726  2.6952  1.4182
 9391SOL    HW239636   2.730   1.667   0.131  0.0386 -2.1266  0.6862
 9392SOL     OW39637   2.680   1.041  10.675 -0.1325 -0.2441 -0.7277
 9392SOL    HW139638   2.754   0.982  10.659 -0.7917 -0.7806 -1.8204
 9392SOL    HW239639   2.691   1.099  10.600 -1.6672 -2.3605 -2.6061
 9393SOL     OW39640   1.322   4.262   4.158 -0.1572 -0.0786 -0.1065
 9393SOL    HW139641   1.326   4.167   4.169 -1.9938 -0.2781 -1.3181
 9393SOL    HW239642   1.396   4.270   4.219 -0.2167  1.9798 -0.3035
 9394SOL     OW39643   0.325   4.488   3.379 -0.2769  0.3302 -0.0324
 9394SOL    HW139644   0.233   4.481   3.404  0.1984 -1.0853  1.3117
 9394SOL    HW239645   0.325   4.563   3.319 -1.0655 -0.5247 -1.0975
 9395SOL     OW39646   2.194   2.718   8.810 -0.1709 -0.0961 -0.0809
 9395SOL    HW139647   2.274   2.734   8.860 -0.8010  1.9664  0.2610
 9395SOL    HW239648   2.213   2.631   8.775  2.1628 -0.5574  2.3459
 9396SOL     OW39649   1.897   2.518   4.384 -0.4507  0.2513  0.1284
 9396SOL    HW139650   1.815   2.531   4.337 -0.5109 -0.6944 -0.0320
 9396SOL    HW239651   1.894   2.425   4.405  0.9493 -0.1231 -1.3362
 9397SOL     OW39652   2.262   0.017  12.459 -0.6450  0.8974  0.2184
 9397SOL    HW139653   2.305   0.099  12.437  0.8411  0.0272 -0.0936
 9397SOL    HW239654   2.322   4.702  12.524 -0.2588 -1.2058 -1.3731
 9398SOL     OW39655   1.208   0.307   4.473 -0.4081  0.9480 -0.1178
 9398SOL    HW139656   1.189   0.236   4.535  0.8775  0.8359  0.1353
 9398SOL    HW239657   1.255   0.259   4.405 -1.0578 -0.6812  0.5784
 9399SOL     OW39658   2.928   2.369   6.797  0.5068 -0.0855 -0.0920
 9399SOL    HW139659   2.965   2.374   6.885  2.7185 -2.1711 -0.8951
 9399SOL    HW239660   2.942   2.456   6.758 -0.2035 -0.0047 -0.1588
 9400SOL     OW39661   2.530   1.178   5.445  0.2584 -0.1287  0.0649
 9400SOL    HW139662   2.463   1.233   5.404 -1.0889 -0.3529  1.9649
 9400SOL    HW239663   2.598   1.206   5.384  0.7470  1.6284  1.4045
 9401SOL     OW39664   2.182   4.689   8.104 -0.3079 -0.2190  0.1997
 9401SOL    HW139665   2.260   0.006   8.066  0.2349 -1.3563  0.1103
 9401SOL    HW239666   2.209   4.687   8.196  2.0169  2.8973 -0.4018
 9402SOL     OW39667   3.336   2.877   6.038  0.0424  0.1870 -0.3398
 9402SOL    HW139668   3.277   2.802   6.025  0.7711 -0.5224  0.4153
 9402SOL    HW239669   3.292   2.949   5.992 -2.3287  1.9004  4.6573
 9403SOL     OW39670   2.682   4.568   5.242 -0.0915  0.0971 -0.0565
 9403SOL    HW139671   2.716   4.543   5.156  0.4295  1.2039 -0.1750
 9403SOL    HW239672   2.688   4.487   5.293  0.8983  0.8834  1.0859
 9404SOL     OW39673   1.107   4.410   9.313 -0.1039 -0.9484  0.0453
 9404SOL    HW139674   1.161   4.378   9.385  2.5101 -0.5773 -1.7676
 9404SOL    HW239675   1.019   4.416   9.350 -0.8494 -0.2826 -1.8059
 9405SOL     OW39676   3.081   2.802  13.391 -0.5398 -0.1550  0.4294
 9405SOL    HW139677   3.043   2.809  13.478 -2.9471 -0.1394 -0.6341
 9405SOL    HW239678   3.029   2.729  13.356  1.0092  1.0441 -4.3617
 9406SOL     OW39679   1.894   1.238  12.443 -0.0417 -0.1067 -0.9663
 9406SOL    HW139680   1.824   1.298  12.467  0.8471  0.0958  1.1153
 9406SOL    HW239681   1.857   1.198  12.364  0.4591  0.2320 -1.3737
 9407SOL     OW39682   4.375   2.783   4.764  0.6661 -0.0826 -0.0161
 9407SOL    HW139683   4.281   2.778   4.778  0.5747  1.1198 -0.2139
 9407SOL    HW239684   4.375   2.826   4.679 -0.8926 -0.1472 -0.0491
 9408SOL     OW39685   3.962   1.890   3.462  0.3957 -0.0656  0.0755
 9408SOL    HW139686   3.995   1.897   3.372 -1.1749 -0.6914 -0.5491
 9408SOL    HW239687   3.940   1.797   3.474 -2.5583  0.8775  1.7504
 9409SOL     OW39688   3.108   3.130   9.149  0.2079  0.5208 -0.1544
 9409SOL    HW139689   3.034   3.161   9.097  0.5852 -0.7486 -1.4519
 9409SOL    HW239690   3.187   3.176   9.119  0.3588  1.1759  1.2469
 9410SOL     OW39691   1.507   4.499   9.464  0.2556 -0.2929  0.5620
 9410SOL    HW139692   1.438   4.445   9.502 -0.0320 -0.4912 -0.2231
 9410SOL    HW239693   1.560   4.528   9.538  1.3139  2.6522 -1.3314
 9411SOL     OW39694   1.018   3.715  14.947  0.1422 -0.8226  0.0070
 9411SOL    HW139695   0.924   3.715  14.960 -0.1419  1.2439 -2.0039
 9411SOL    HW239696   1.024   3.787  14.884 -2.1488 -1.3672 -0.8223
 9412SOL     OW39697   1.695   3.966   3.432 -0.0508 -0.7214  0.2167
 9412SOL    HW139698   1.790   3.959   3.420 -0.0439 -0.9955  0.4133
 9412SOL    HW239699   1.688   3.947   3.526 -1.8615 -1.9460 -0.1758
 9413SOL     OW39700   2.301   3.934   6.858 -0.4263 -0.1029 -0.2978
 9413SOL    HW139701   2.392   3.908   6.867 -0.2741  1.3195  2.3548
 9413SOL    HW239702   2.324   4.005   6.797  1.6537 -0.0412  0.5634
 9414SOL     OW39703   0.218   2.712   6.975  0.3444 -0.0701 -0.0025
 9414SOL    HW139704   0.298   2.685   7.020 -1.3278  1.8654  4.1209
 9414SOL    HW239705   0.239   2.685   6.886  3.9110  0.4101  0.6888
 9415SOL     OW39706   0.856   0.138  14.519 -0.3657  0.4451 -0.2038
 9415SOL    HW139707   0.830   0.096  14.437 -0.4063  1.2098 -0.5748
 9415SOL    HW239708   0.848   0.229  14.491  0.0702  0.7209  0.5610
 9416SOL     OW39709   4.160   1.610   8.126 -0.5403  0.2232 -0.7593
 9416SOL    HW139710   4.097   1.543   8.100 -0.5309  0.7285 -2.1105
 9416SOL    HW239711   4.236   1.577   8.078  0.6044 -1.2317  2.0252
 9417SOL     OW39712   2.937   3.381  12.654  0.1189 -0.1556 -0.3514
 9417SOL    HW139713   2.866   3.432  12.693 -0.4985  0.6106 -2.4444
 9417SOL    HW239714   2.959   3.450  12.591  2.2248 -1.2804 -0.8331
 9418SOL     OW39715   1.081   2.407   4.797 -0.2529 -0.1416 -0.1526
 9418SOL    HW139716   1.135   2.348   4.744  1.3262 -0.2975  1.6210
 9418SOL    HW239717   1.088   2.381   4.890 -1.0795 -3.0325 -0.8952
 9419SOL     OW39718   4.632   3.716   3.843 -0.4160 -0.0934 -0.1415
 9419SOL    HW139719   4.699   3.732   3.776 -0.5789  0.0710 -0.2663
 9419SOL    HW239720   4.658   3.624   3.852  0.6141  0.0800 -1.4098
 9420SOL     OW39721   1.975   0.612  15.960 -0.3589  0.2213 -0.5411
 9420SOL    HW139722   1.903   0.586  15.903 -0.1999  1.6749 -1.4087
 9420SOL    HW239723   2.049   0.599  15.901  1.6937  3.0960  1.3715
 9421SOL     OW39724   2.217   0.093   2.888  0.2039  0.3362 -0.1736
 9421SOL    HW139725   2.226   0.180   2.849 -2.2226  0.6841  0.0327
 9421SOL    HW239726   2.124   0.100   2.908  0.4571 -0.8027  1.4920
 9422SOL     OW39727   1.073   1.414   4.005 -0.1190 -0.3849 -0.5627
 9422SOL    HW139728   1.050   1.496   3.961  0.1487  0.1509  0.3147
 9422SOL    HW239729   0.983   1.390   4.030 -0.5457  2.2895  0.4852
 9423SOL     OW39730   4.358   0.928   3.635 -0.5987 -0.2809  0.0088
 9423SOL    HW139731   4.344   0.907   3.542 -1.9030 -0.2590  0.2052
 9423SOL    HW239732   4.283   0.888   3.678 -0.7458 -0.5270 -0.4685
 9424SOL     OW39733   1.620   3.829   7.964 -0.3141  0.0548  0.0083
 9424SOL    HW139734   1.613   3.924   7.958  0.0715  0.0083 -1.2068
 9424SOL    HW239735   1.553   3.792   7.908 -3.1574  3.1212  1.3937
 9425SOL     OW39736   3.993   2.854   8.343  0.0864 -0.5021  0.1719
 9425SOL    HW139737   3.950   2.939   8.354 -1.3584 -1.1828 -0.2213
 9425SOL    HW239738   3.923   2.796   8.315  0.7047 -0.1500 -2.1097
 9426SOL     OW39739   3.246   0.106   6.093 -0.5537  0.0796 -0.1598
 9426SOL    HW139740   3.268   0.085   6.184 -0.8429 -0.6334 -0.2559
 9426SOL    HW239741   3.324   0.146   6.053 -0.0700 -0.0578  0.6520
 9427SOL     OW39742   0.888   2.524   7.097  0.2916 -0.3317 -0.1235
 9427SOL    HW139743   0.866   2.588   7.029  0.3914 -0.7662 -0.5672
 9427SOL    HW239744   0.891   2.579   7.175 -0.8792 -0.6321  0.1267
 9428SOL     OW39745   1.625   2.754   9.529  0.8643 -0.1455  0.1942
 9428SOL    HW139746   1.657   2.795   9.609  1.9434 -1.1163  0.2726
 9428SOL    HW239747   1.677   2.803   9.465 -0.9213 -0.0108 -1.1578
 9429SOL     OW39748   2.346   4.264   3.570 -0.7921 -0.1167 -0.5129
 9429SOL    HW139749   2.304   4.183   3.600 -0.3850 -0.0398  0.2450
 9429SOL    HW239750   2.351   4.314   3.651  1.1004 -1.0834 -0.0233
 9430SOL     OW39751   2.303   0.532  12.944 -0.0661  0.1283 -0.4004
 9430SOL    HW139752   2.218   0.496  12.968 -0.1479  0.3708 -0.3214
 9430SOL    HW239753   2.351   0.470  12.890 -1.8583 -1.8041  0.2457
 9431SOL     OW39754   3.686   3.623   0.878  0.1231 -0.4301  0.2345
 9431SOL    HW139755   3.628   3.557   0.916 -0.9217  1.0358  1.1796
 9431SOL    HW239756   3.752   3.628   0.948  1.6569  0.0495 -1.2517
 9432SOL     OW39757   1.259   0.710   0.260 -0.6214 -0.6758  0.0374
 9432SOL    HW139758   1.339   0.757   0.285  0.4042 -2.0552 -0.5980
 9432SOL    HW239759   1.203   0.787   0.254 -0.5236 -0.5650  0.5692
 9433SOL     OW39760   1.575   3.563   5.970  0.0501 -0.0624  0.4612
 9433SOL    HW139761   1.652   3.594   5.922  0.9003 -1.5403  0.8761
 9433SOL    HW239762   1.600   3.472   5.984 -0.2008 -0.5167 -1.9495
 9434SOL     OW39763   1.708   2.819   2.622  0.3214 -0.2621  0.2894
 9434SOL    HW139764   1.732   2.867   2.542 -0.8006 -0.0834  0.0596
 9434SOL    HW239765   1.795   2.808   2.660 -0.1676 -2.4808  0.7654
 9435SOL     OW39766   4.511   3.440   8.813 -0.1077  0.1325 -0.7210
 9435SOL    HW139767   4.518   3.418   8.720  0.1661 -2.6107 -0.0502
 9435SOL    HW239768   4.542   3.531   8.815 -2.2831  0.9165 -1.8907
 9436SOL     OW39769   4.355   1.544   7.256 -0.0671  0.5528  0.1367
 9436SOL    HW139770   4.301   1.487   7.310  0.8508  0.6129  1.1046
 9436SOL    HW239771   4.377   1.482   7.186 -3.8335  0.4686 -0.9388
 9437SOL     OW39772   0.361   1.459   6.751  0.0376  0.4785  0.0384
 9437SOL    HW139773   0.282   1.406   6.759  0.0277  0.4778 -0.0727
 9437SOL    HW239774   0.415   1.405   6.693  0.4370  0.8762  0.0387
 9438SOL     OW39775   0.768   4.428   3.132 -0.3764 -0.2129 -0.7031
 9438SOL    HW139776   0.837   4.446   3.196 -1.4771  1.1632  0.0983
 9438SOL    HW239777   0.682   4.452   3.165 -0.7269 -0.5541 -1.3825
 9439SOL     OW39778   3.071   3.489   6.274  0.2101 -0.5704 -0.3446
 9439SOL    HW139779   3.027   3.505   6.358  0.9722  0.0906 -0.0776
 9439SOL    HW239780   3.115   3.573   6.265 -0.3340 -0.1918  0.6058
 9440SOL     OW39781   4.092   0.477   5.783 -0.0409 -0.1840  0.3989
 9440SOL    HW139782   4.080   0.443   5.872  1.3616  1.0560  1.0478
 9440SOL    HW239783   4.078   0.398   5.731 -3.3297  1.1827 -0.7896
 9441SOL     OW39784   0.616   2.779   4.708 -0.3742 -0.0227 -0.1234
 9441SOL    HW139785   0.607   2.685   4.719  0.6036 -0.3550 -2.0590
 9441SOL    HW239786   0.659   2.788   4.623  0.3918 -0.6302  0.2043
 9442SOL     OW39787   3.183   4.465   2.186 -0.1087 -0.0917  0.7478
 9442SOL    HW139788   3.222   4.530   2.244  1.2182 -0.2676  0.0674
 9442SOL    HW239789   3.189   4.514   2.104 -0.8642 -0.7689  0.2832
 9443SOL     OW39790   3.372   3.472   5.335 -0.3373  0.3598  0.4361
 9443SOL    HW139791   3.440   3.409   5.312 -0.8072  0.5271 -1.4206
 9443SOL    HW239792   3.310   3.424   5.390  0.6409 -1.2865  0.0871
 9444SOL     OW39793   3.542   0.510   0.106 -0.1898 -0.3376 -0.3467
 9444SOL    HW139794   3.452   0.543   0.110  0.3527  1.3307 -1.5166
 9444SOL    HW239795   3.528   0.417   0.118 -0.9603 -0.3480 -1.2714
 9445SOL     OW39796   4.009   3.256  11.295  0.5696  0.1170 -0.9685
 9445SOL    HW139797   4.083   3.197  11.308 -0.3896 -1.1338 -1.3240
 9445SOL    HW239798   4.042   3.289  11.211  1.3777  1.6898 -0.0432
 9446SOL     OW39799   2.154   3.089   6.375  0.1871  0.3454 -0.3521
 9446SOL    HW139800   2.103   3.144   6.434  1.1564  1.8800 -0.9429
 9446SOL    HW239801   2.179   3.030   6.445 -0.8101 -0.0295 -0.3135
 9447SOL     OW39802   2.882   2.442   2.212  0.2341 -0.1070  0.0918
 9447SOL    HW139803   2.855   2.385   2.284 -2.4736  3.4939  1.9717
 9447SOL    HW239804   2.908   2.375   2.149  0.2318 -1.3579  1.4216
 9448SOL     OW39805   2.304   4.498   3.317  0.5213 -0.3324 -0.0857
 9448SOL    HW139806   2.266   4.557   3.252 -0.1219  0.7055  1.2404
 9448SOL    HW239807   2.229   4.495   3.377  1.3112  1.4771  0.9600
 9449SOL     OW39808   1.039   1.190  13.567 -0.1926 -0.0964 -0.6148
 9449SOL    HW139809   1.042   1.264  13.627  0.3562  0.2623 -1.0870
 9449SOL    HW239810   0.958   1.192  13.516 -0.5941  0.1205  0.0335
 9450SOL     OW39811   3.408   1.108  14.544  0.3795 -0.0990  0.2211
 9450SOL    HW139812   3.469   1.172  14.582  1.6038 -0.7920 -0.5807
 9450SOL    HW239813   3.362   1.166  14.484 -1.1856 -0.6684  0.8536
 9451SOL     OW39814   0.353   4.558  17.397 -0.0644 -0.0172  0.3651
 9451SOL    HW139815   0.313   4.479  17.433 -3.1022  0.1602 -2.5506
 9451SOL    HW239816   0.420   4.579  17.461  0.0747  0.3904  0.0886
 9452SOL     OW39817   0.656   3.354  10.255 -0.2164  0.0495  0.1247
 9452SOL    HW139818   0.596   3.300  10.203  0.6990  1.1423 -2.0419
 9452SOL    HW239819   0.597   3.384  10.324  0.4018  1.6914 -0.0591
 9453SOL     OW39820   3.184   0.523  11.338  0.1882  0.4972 -0.8478
 9453SOL    HW139821   3.134   0.452  11.379  0.8754  2.5423  3.5398
 9453SOL    HW239822   3.211   0.483  11.256  0.5358 -1.1964  0.0799
 9454SOL     OW39823   2.157   0.311   7.529 -0.4955  0.2542  0.5033
 9454SOL    HW139824   2.132   0.402   7.542 -0.5407  0.5498 -1.7080
 9454SOL    HW239825   2.226   0.323   7.464 -1.5754  1.6161 -0.3906
 9455SOL     OW39826   0.428   3.862   8.306 -0.2427  0.2127  0.4024
 9455SOL    HW139827   0.349   3.897   8.346  0.0327  1.7908 -0.4306
 9455SOL    HW239828   0.477   3.939   8.277 -1.2590  0.2896 -1.1086
 9456SOL     OW39829   2.769   3.768   2.568  0.1179 -0.7344 -0.1919
 9456SOL    HW139830   2.814   3.684   2.582  1.2067 -0.1596 -0.2527
 9456SOL    HW239831   2.692   3.727   2.529 -0.8952  1.1139 -0.1434
 9457SOL     OW39832   1.981   2.518  10.898 -0.3943 -0.1389  0.2173
 9457SOL    HW139833   1.934   2.435  10.890 -1.7987  0.3799  3.0204
 9457SOL    HW239834   1.989   2.520  10.993  1.2369 -1.7644  0.1017
 9458SOL     OW39835   0.176   4.120   1.818  0.2461  0.3270 -0.6193
 9458SOL    HW139836   0.154   4.170   1.896  0.7909 -0.6498  0.1556
 9458SOL    HW239837   0.101   4.063   1.834 -0.1061 -0.2739 -4.3661
 9459SOL     OW39838   4.582   0.535   2.822  0.5209  0.3705  0.0200
 9459SOL    HW139839   4.631   0.460   2.855  0.0054  1.9316  4.3016
 9459SOL    HW239840   4.539   0.554   2.905  1.9193 -0.8240  1.0155
 9460SOL     OW39841   2.270   4.164  17.321 -0.5383  0.2072  0.0480
 9460SOL    HW139842   2.227   4.238  17.279 -0.7795 -1.1971 -2.1616
 9460SOL    HW239843   2.343   4.217  17.355  0.9507 -0.7251 -1.7290
 9461SOL     OW39844   3.747   0.855   3.333  0.3192 -0.9224  0.0596
 9461SOL    HW139845   3.689   0.799   3.283  0.2011 -1.3847  0.7065
 9461SOL    HW239846   3.810   0.868   3.262 -2.0929  2.8191 -1.4356
 9462SOL     OW39847   2.805   1.126  13.017 -0.5376 -0.5271 -0.5276
 9462SOL    HW139848   2.887   1.095  13.054 -0.1805  0.4692 -0.4892
 9462SOL    HW239849   2.762   1.159  13.096 -0.6129  1.0819 -1.2283
 9463SOL     OW39850   0.277   2.766  13.042  0.5358  0.2367  0.1801
 9463SOL    HW139851   0.241   2.697  12.986  0.9593  1.1636 -1.2540
 9463SOL    HW239852   0.348   2.805  12.991  0.3784  0.4302  0.1125
 9464SOL     OW39853   1.510   3.416   4.703 -0.4816  0.2655  0.0727
 9464SOL    HW139854   1.465   3.356   4.762  3.7895 -1.6928  1.3681
 9464SOL    HW239855   1.569   3.357   4.656 -1.3932  0.5322 -1.3868
 9465SOL     OW39856   1.247   1.695   8.612 -0.1568  0.1881  0.2153
 9465SOL    HW139857   1.289   1.614   8.640  0.9823 -0.0537 -2.2433
 9465SOL    HW239858   1.245   1.744   8.695 -0.8386 -1.2454  1.0594
 9466SOL     OW39859   4.442   2.567  10.523 -0.3464  0.3540 -0.3372
 9466SOL    HW139860   4.428   2.548  10.615 -0.2193 -0.3111 -0.4527
 9466SOL    HW239861   4.537   2.557  10.510 -0.4225 -1.3299  0.3288
 9467SOL     OW39862   3.833   4.470   0.981 -0.0862  0.7426 -0.0499
 9467SOL    HW139863   3.777   4.506   0.913 -0.0912 -0.6701 -0.8037
 9467SOL    HW239864   3.832   4.382   0.942 -1.3824 -0.8370  3.5811
 9468SOL     OW39865   2.477   1.766   8.288  0.3120  0.3341  0.6650
 9468SOL    HW139866   2.536   1.837   8.263  1.9681 -1.1052  0.5192
 9468SOL    HW239867   2.425   1.750   8.209  0.6949 -0.6562  0.6063
 9469SOL     OW39868   1.933   2.144  14.613  0.1438 -0.2821  0.3547
 9469SOL    HW139869   1.865   2.085  14.648 -0.5682  1.5444  2.0335
 9469SOL    HW239870   1.890   2.154  14.528 -1.1273 -3.1651  0.6310
 9470SOL     OW39871   1.922   0.396   9.758  0.0334 -0.3150 -0.4580
 9470SOL    HW139872   1.947   0.467   9.817 -1.4516 -0.2188  0.0551
 9470SOL    HW239873   1.829   0.415   9.750  0.3989  0.9952 -1.6819
 9471SOL     OW39874   0.858   4.567   2.066 -0.2311  0.5487 -0.8118
 9471SOL    HW139875   0.894   4.491   2.111  0.1500  0.0769 -1.9322
 9471SOL    HW239876   0.887   4.641   2.120 -0.0961  0.0951 -0.2592
 9472SOL     OW39877   1.716   0.988  16.318  0.5457  0.0355 -0.6446
 9472SOL    HW139878   1.787   0.984  16.382  1.4590  2.7141 -1.4779
 9472SOL    HW239879   1.772   0.981  16.241  1.1444 -0.6880 -0.1410
 9473SOL     OW39880   1.920   0.915   8.349 -0.2097  0.0604 -0.1900
 9473SOL    HW139881   2.015   0.914   8.361 -0.2124  0.4446 -0.1323
 9473SOL    HW239882   1.898   0.845   8.411 -1.2420  1.9146  1.5378
 9474SOL     OW39883   3.298   1.259  14.007 -0.0470 -0.0659  0.4786
 9474SOL    HW139884   3.203   1.247  14.003 -0.2239  0.7882  2.2123
 9474SOL    HW239885   3.324   1.172  14.039 -0.9128 -0.8353 -0.9236
 9475SOL     OW39886   1.774   1.132   0.501 -0.5269  0.5795  0.2146
 9475SOL    HW139887   1.689   1.092   0.483 -0.2843  0.6049 -1.0178
 9475SOL    HW239888   1.813   1.064   0.556 -1.4742 -0.5772 -0.5286
 9476SOL     OW39889   0.067   1.583   0.226  0.0668  0.2651 -0.2081
 9476SOL    HW139890   0.077   1.677   0.212  0.7640  0.5314  2.0986
 9476SOL    HW239891   0.156   1.561   0.252 -1.0273  0.0524  3.3534
 9477SOL     OW39892   2.182   4.505   1.919 -0.4967 -0.3995  1.2662
 9477SOL    HW139893   2.157   4.588   1.879 -0.5025 -0.7173  0.6083
 9477SOL    HW239894   2.106   4.492   1.976 -0.1621 -1.3471  1.5004
 9478SOL     OW39895   0.967   1.634   3.917  0.0935 -0.3598  0.6541
 9478SOL    HW139896   0.999   1.716   3.881  0.9503 -0.5857  0.8984
 9478SOL    HW239897   0.926   1.587   3.844  1.8325 -1.5978  0.4809
 9479SOL     OW39898   0.947   2.647   4.064  0.4322  0.4573 -0.1235
 9479SOL    HW139899   0.989   2.572   4.106 -0.1921 -0.1829 -0.6488
 9479SOL    HW239900   1.008   2.716   4.088  0.5019  0.3160  0.1060
 9480SOL     OW39901   3.569   2.448  14.502 -0.5681  0.3029 -0.4488
 9480SOL    HW139902   3.487   2.432  14.547 -0.0173 -0.6760  0.1981
 9480SOL    HW239903   3.552   2.411  14.415 -2.7930  3.1748 -1.2246
 9481SOL     OW39904   1.020   4.588  17.535  0.1560  0.5567 -0.1678
 9481SOL    HW139905   1.044   4.673  17.570 -1.6397  1.0118 -0.0715
 9481SOL    HW239906   0.952   4.562  17.597 -0.6692  0.2222 -1.1940
 9482SOL     OW39907   4.105   1.294   5.031  0.1324 -0.0464  0.1191
 9482SOL    HW139908   4.163   1.247   5.090 -1.0467 -1.1242  0.4073
 9482SOL    HW239909   4.101   1.381   5.071 -2.8723 -0.3954  0.6233
 9483SOL     OW39910   2.148   3.473   1.640 -0.5156 -0.0945  0.0170
 9483SOL    HW139911   2.173   3.520   1.561 -0.9820 -3.0681 -1.8966
 9483SOL    HW239912   2.069   3.526   1.654  0.5106  1.6291 -0.7222
 9484SOL     OW39913   0.320   3.435   8.991 -0.3331  0.6108 -0.2618
 9484SOL    HW139914   0.263   3.413   9.065 -0.2992  0.5305 -0.2590
 9484SOL    HW239915   0.280   3.382   8.922  0.4224 -1.3967  0.8308
 9485SOL     OW39916   0.609   4.302   3.752  0.1042  0.2774 -0.0214
 9485SOL    HW139917   0.667   4.369   3.716 -1.8670  2.0225  0.0624
 9485SOL    HW239918   0.588   4.330   3.841  4.8911  0.7188  0.9986
 9486SOL     OW39919   0.070   3.216   2.397 -0.1772 -0.2989  0.5662
 9486SOL    HW139920   0.054   3.309   2.378 -0.1015 -1.0245 -2.8836
 9486SOL    HW239921   0.165   3.210   2.383  0.0374 -1.6163  2.5927
 9487SOL     OW39922   3.045   3.897   8.029 -1.0589  0.5793  0.3228
 9487SOL    HW139923   3.101   3.920   8.104 -0.8263 -0.5527  0.4974
 9487SOL    HW239924   2.958   3.898   8.069 -0.3157  1.4233  1.9330
 9488SOL     OW39925   0.682   0.223   4.279 -0.2425  0.1081  0.0545
 9488SOL    HW139926   0.683   0.158   4.209 -1.5184  0.1462  0.0079
 9488SOL    HW239927   0.773   0.249   4.293 -0.5412  1.0260  0.3412
 9489SOL     OW39928   1.887   3.087  10.865 -0.1221  0.2347 -0.0032
 9489SOL    HW139929   1.924   3.010  10.821 -1.7200 -0.0172 -0.8900
 9489SOL    HW239930   1.859   3.149  10.798 -0.5392 -1.7461 -1.6769
 9490SOL     OW39931   0.486   3.703  12.380 -0.1336  0.1147 -0.0619
 9490SOL    HW139932   0.575   3.668  12.372 -0.4032 -0.0925 -2.1272
 9490SOL    HW239933   0.500   3.783  12.329 -1.6435 -0.0556 -0.7259
 9491SOL     OW39934   0.696   2.639  15.611 -0.7202  1.0441 -0.2473
 9491SOL    HW139935   0.657   2.656  15.697  1.5812 -0.4592  1.0780
 9491SOL    HW239936   0.682   2.727  15.577  1.2378  1.6082  0.4108
 9492SOL     OW39937   0.418   1.999   8.677  0.2389 -1.0215  0.2273
 9492SOL    HW139938   0.396   2.067   8.741  0.9907  0.9306 -1.6184
 9492SOL    HW239939   0.340   1.999   8.622  1.5069 -1.3293 -1.5598
 9493SOL     OW39940   2.995   1.081   7.516 -0.4798 -0.1134  0.5086
 9493SOL    HW139941   3.019   0.995   7.548  0.2718 -0.9039 -2.1750
 9493SOL    HW239942   2.919   1.055   7.463 -1.0663  2.4492  0.0977
 9494SOL     OW39943   2.830   3.893   5.606 -0.3762 -0.1028  0.6203
 9494SOL    HW139944   2.812   3.982   5.635 -0.2043  1.0259 -2.6500
 9494SOL    HW239945   2.862   3.858   5.689 -0.1123  0.3173  0.6998
 9495SOL     OW39946   4.328   3.991   8.656 -0.2479 -0.0132  0.0603
 9495SOL    HW139947   4.399   4.053   8.671  0.8494 -0.7058 -2.3353
 9495SOL    HW239948   4.290   4.021   8.574  0.0419  0.8785  0.2546
 9496SOL     OW39949   3.933   0.106  13.161 -0.1285 -0.0600  0.2833
 9496SOL    HW139950   3.875   0.169  13.204  0.3446 -0.1983  1.1209
 9496SOL    HW239951   4.011   0.157  13.139 -1.3306  1.6084 -0.1218
 9497SOL     OW39952   3.009   2.288   5.211 -0.1214  0.4765 -0.2259
 9497SOL    HW139953   3.067   2.358   5.239 -0.9381  0.6367  1.0382
 9497SOL    HW239954   2.964   2.334   5.140  0.0258  2.9153  1.2561
 9498SOL     OW39955   4.134   0.287   1.781 -0.8779 -0.3764 -0.0056
 9498SOL    HW139956   4.149   0.202   1.739  0.6415 -0.4252  0.6338
 9498SOL    HW239957   4.099   0.327   1.701 -1.1127  1.3778  0.9782
 9499SOL     OW39958   1.396   1.547   3.497 -0.0760  0.1841  0.4633
 9499SOL    HW139959   1.330   1.481   3.516 -0.0398  0.5543  1.8853
 9499SOL    HW239960   1.404   1.589   3.583  0.0769  0.8407  0.1271
 9500SOL     OW39961   0.623   4.383   1.294 -0.0023  0.3900  0.3198
 9500SOL    HW139962   0.646   4.426   1.211 -1.1151  0.5304  0.0702
 9500SOL    HW239963   0.529   4.369   1.281 -0.2017  1.1624  0.9005
 9501SOL     OW39964   1.284   3.702   1.361  0.3472 -0.4947 -0.1651
 9501SOL    HW139965   1.347   3.694   1.290 -1.2000 -0.6907 -1.5285
 9501SOL    HW239966   1.213   3.655   1.317  0.9477 -0.0347 -1.6044
 9502SOL     OW39967   0.394   1.367  14.560  0.2996  0.2616  0.1965
 9502SOL    HW139968   0.345   1.331  14.486  1.0121  1.5365 -0.8954
 9502SOL    HW239969   0.432   1.439  14.509  0.6611 -0.6653 -0.8437
 9503SOL     OW39970   0.943   0.823   7.336  0.6592  0.6155 -0.5933
 9503SOL    HW139971   0.856   0.811   7.376  0.2884 -1.5323 -2.0046
 9503SOL    HW239972   0.992   0.858   7.410  2.0965 -0.7668 -0.8788
 9504SOL     OW39973   0.918   2.748   9.732  0.0209 -0.4422  0.2152
 9504SOL    HW139974   0.976   2.771   9.659 -0.1848 -0.1061  0.1557
 9504SOL    HW239975   0.849   2.701   9.686  0.5628  0.4828 -1.5502
 9505SOL     OW39976   0.330   3.588   0.268 -0.0055 -0.2721 -0.0493
 9505SOL    HW139977   0.383   3.617   0.194 -1.8023  2.4553 -0.2745
 9505SOL    HW239978   0.270   3.662   0.274 -0.9706 -0.9493 -1.4964
 9506SOL     OW39979   3.235   3.843   9.682  0.4773  0.0711  0.0133
 9506SOL    HW139980   3.264   3.826   9.772 -1.1264 -3.2825 -0.1093
 9506SOL    HW239981   3.267   3.775   9.623 -0.7474  0.8935 -1.6092
 9507SOL     OW39982   0.186   0.650   4.734 -0.2019  0.0588 -0.1446
 9507SOL    HW139983   0.186   0.721   4.670 -1.0037 -1.4678 -1.8230
 9507SOL    HW239984   0.279   0.628   4.729 -0.5487 -0.9781 -1.9737
 9508SOL     OW39985   0.275   3.760   3.359  0.2884 -0.1693 -0.1570
 9508SOL    HW139986   0.296   3.667   3.356 -1.6624 -0.6889  2.0133
 9508SOL    HW239987   0.354   3.798   3.398  0.4450  1.6594 -2.2503
 9509SOL     OW39988   0.136   3.694   3.123  0.0554 -0.8044  0.0367
 9509SOL    HW139989   0.180   3.743   3.192  0.3938  1.6828 -1.9212
 9509SOL    HW239990   0.213   3.644   3.095  0.1500 -1.1267  0.8931
 9510SOL     OW39991   0.760   1.338   9.806  0.1510  0.3299  0.1472
 9510SOL    HW139992   0.829   1.398   9.834 -0.9201  1.7007 -0.1449
 9510SOL    HW239993   0.790   1.279   9.738 -2.4230 -1.2794  0.4059
 9511SOL     OW39994   1.127   3.915   2.196 -0.0049  0.3615  0.6689
 9511SOL    HW139995   1.043   3.910   2.150  0.8379  0.4470 -0.8660
 9511SOL    HW239996   1.084   3.878   2.273 -0.4033 -1.2105 -0.3094
 9512SOL     OW39997   0.613   1.999   8.373 -0.1948 -0.3793 -0.1419
 9512SOL    HW139998   0.652   2.026   8.456  1.3311 -0.9756 -0.6557
 9512SOL    HW239999   0.650   2.060   8.309 -2.4933  1.1806  0.0364
 9513SOL     OW40000   1.105   2.503   7.798 -0.0712  0.0394  0.2514
 9513SOL    HW140001   1.175   2.516   7.862  1.7364 -1.3606 -1.4135
 9513SOL    HW240002   1.031   2.505   7.858  0.2565 -0.4515  0.6786
 9514SOL     OW40003   3.895   0.780   2.095  0.8506 -0.5949  0.0702
 9514SOL    HW140004   3.946   0.719   2.149 -1.6755 -3.3333 -0.7165
 9514SOL    HW240005   3.846   0.818   2.168  0.8423  0.3217 -0.4184
 9515SOL     OW40006   4.609   1.686  10.286  0.3883 -0.7662  0.2918
 9515SOL    HW140007   4.549   1.728  10.348  2.0729  2.2757 -0.1146
 9515SOL    HW240008   4.568   1.712  10.204  1.0936 -1.7768 -0.3786
 9516SOL     OW40009   3.928   1.159  12.388 -0.3085  0.4100 -0.0143
 9516SOL    HW140010   3.835   1.141  12.371 -0.2554 -0.0441  0.1716
 9516SOL    HW240011   3.970   1.073  12.375  0.4851  1.0556 -1.6576
 9517SOL     OW40012   4.716   2.926   4.920 -0.3114 -0.3294  0.2903
 9517SOL    HW140013   0.033   2.986   4.858 -2.2854  0.4841 -0.2033
 9517SOL    HW240014   0.064   2.922   4.984 -0.8117 -1.5876  0.7788
 9518SOL     OW40015   0.071   1.190   3.735  0.1330  0.7928 -0.0496
 9518SOL    HW140016   0.023   1.130   3.679  0.3690 -0.1036  0.7069
 9518SOL    HW240017   0.031   1.271   3.703 -0.4285 -0.4854 -2.5362
 9519SOL     OW40018   2.214   0.178  13.873 -0.5256 -0.1526 -0.0868
 9519SOL    HW140019   2.148   0.184  13.942 -0.7571 -0.6751 -0.2618
 9519SOL    HW240020   2.288   0.200  13.929 -2.1788  0.8477  1.7067
 9520SOL     OW40021   2.694   4.421   4.639  0.4755  0.0422 -0.3781
 9520SOL    HW140022   2.698   4.517   4.632  1.4267  0.0833  0.7888
 9520SOL    HW240023   2.625   4.414   4.573  0.7344 -0.8788 -0.5519
 9521SOL     OW40024   3.604   0.424   1.121 -0.1488  0.1892 -0.6977
 9521SOL    HW140025   3.663   0.355   1.151  2.3990  2.4020 -0.7033
 9521SOL    HW240026   3.658   0.503   1.116  0.5710 -0.2078  0.7195
 9522SOL     OW40027   3.737   1.900   5.511 -0.2982  0.2281  0.1397
 9522SOL    HW140028   3.698   1.975   5.556  1.2973  2.2097 -1.7445
 9522SOL    HW240029   3.655   1.864   5.476 -1.5122  1.1531  1.9963
 9523SOL     OW40030   4.013   0.277   5.567 -0.0313  0.0279 -0.0815
 9523SOL    HW140031   4.019   0.225   5.487 -2.2116 -1.0790  0.4883
 9523SOL    HW240032   4.020   0.364   5.528 -1.6016 -0.3976 -1.3331
 9524SOL     OW40033   2.982   1.197   1.846 -0.2607 -0.3264  0.4385
 9524SOL    HW140034   2.957   1.282   1.809  0.7517 -0.6313 -0.9321
 9524SOL    HW240035   2.904   1.149   1.817  0.3781 -2.2308  1.8946
 9525SOL     OW40036   1.816   2.085   2.107  0.2892 -0.5217  0.3407
 9525SOL    HW140037   1.812   2.180   2.107  1.7637 -0.4623  0.5304
 9525SOL    HW240038   1.789   2.071   2.198 -2.0088  2.4860  0.1065
 9526SOL     OW40039   2.450   3.583   2.645 -0.1427 -0.4504 -0.4723
 9526SOL    HW140040   2.524   3.522   2.640  0.2275  0.1761 -2.5778
 9526SOL    HW240041   2.403   3.558   2.566 -0.0424  2.3673 -1.4170
 9527SOL     OW40042   3.208   2.494   5.261 -0.2032 -0.4021  0.0585
 9527SOL    HW140043   3.154   2.566   5.227  0.0454 -1.2922 -2.2024
 9527SOL    HW240044   3.294   2.517   5.227 -0.3358  0.4692  0.3113
 9528SOL     OW40045   1.970   1.621  11.503 -0.0655 -0.1485  0.1407
 9528SOL    HW140046   1.940   1.550  11.559  2.6984 -0.8815  0.6902
 9528SOL    HW240047   2.013   1.671  11.572 -1.8230 -0.9615  1.8149
 9529SOL     OW40048   0.893   1.291   6.993 -0.3049  0.3844  0.0766
 9529SOL    HW140049   0.866   1.329   7.077  0.1106  0.4496  0.1809
 9529SOL    HW240050   0.896   1.200   7.024 -0.4602  0.1015 -0.7334
 9530SOL     OW40051   1.757   2.146   6.233 -0.3117  0.1649  0.1680
 9530SOL    HW140052   1.723   2.187   6.313 -0.8593  0.2535 -0.1147
 9530SOL    HW240053   1.845   2.184   6.228 -1.0092  1.8202  0.3206
 9531SOL     OW40054   3.950   0.732   5.503  0.1121 -0.6622  0.4319
 9531SOL    HW140055   4.033   0.776   5.523  0.0965 -0.5775  0.3123
 9531SOL    HW240056   3.924   0.715   5.593  0.5197 -0.0946  0.6560
 9532SOL     OW40057   0.695   2.586   4.140 -0.6514  0.2068  0.2660
 9532SOL    HW140058   0.787   2.595   4.115 -0.9192  2.5696  0.1171
 9532SOL    HW240059   0.686   2.491   4.132 -1.2308  0.1323  1.8372
 9533SOL     OW40060   3.765   2.491   6.661  0.1192 -0.1349 -0.6188
 9533SOL    HW140061   3.723   2.570   6.627  2.1826  0.5549 -1.5363
 9533SOL    HW240062   3.839   2.477   6.601 -0.4845 -0.6244 -1.2522
 9534SOL     OW40063   2.005   4.512   4.172 -0.2055 -0.0178 -0.3439
 9534SOL    HW140064   2.046   4.478   4.251  0.2554  1.7565  0.1724
 9534SOL    HW240065   2.079   4.527   4.113  0.5389 -1.2787  0.2828
 9535SOL     OW40066   1.274   1.373   4.756  0.1008  0.3167  0.6634
 9535SOL    HW140067   1.199   1.431   4.767 -0.2400  0.0980 -0.5518
 9535SOL    HW240068   1.289   1.338   4.844 -1.0014 -1.5886  0.1099
 9536SOL     OW40069   0.652   2.239   8.584  0.3464 -0.0137  0.3496
 9536SOL    HW140070   0.556   2.233   8.587  0.4828 -2.2440  0.3448
 9536SOL    HW240071   0.674   2.279   8.668 -0.7635 -1.0639  1.1400
 9537SOL     OW40072   0.574   2.539  17.153 -0.0611  0.8087 -0.4144
 9537SOL    HW140073   0.542   2.615  17.201 -0.4527 -0.7690  1.8155
 9537SOL    HW240074   0.648   2.586  17.114  0.7758 -0.0517  0.1363
 9538SOL     OW40075   2.739   3.528  11.315 -0.0699 -0.2560 -0.1222
 9538SOL    HW140076   2.647   3.507  11.299  0.2267  0.5812 -2.9759
 9538SOL    HW240077   2.773   3.529  11.225  2.0370  1.3985  0.7182
 9539SOL     OW40078   4.647   1.219   6.235 -0.3515 -0.1839  0.2476
 9539SOL    HW140079   4.635   1.274   6.158  0.3719  0.1643  0.3841
 9539SOL    HW240080   4.596   1.138   6.224  0.0817 -0.3958 -0.2165
 9540SOL     OW40081   3.653   2.185   2.813  0.0431  0.5196  0.3091
 9540SOL    HW140082   3.684   2.146   2.895  1.1004 -2.2109 -1.3793
 9540SOL    HW240083   3.668   2.116   2.748  0.4600 -1.0931  2.1077
 9541SOL     OW40084   1.942   1.194   3.174 -0.0767 -0.0949  0.0289
 9541SOL    HW140085   1.857   1.204   3.131 -0.3057 -1.0591  0.2520
 9541SOL    HW240086   1.988   1.136   3.113 -1.9517  1.1104 -2.5692
 9542SOL     OW40087   2.169   2.655   4.923  0.5323 -0.7040  0.1519
 9542SOL    HW140088   2.078   2.683   4.930  1.5409  3.0103 -1.5647
 9542SOL    HW240089   2.179   2.648   5.018  1.4347 -1.4399  0.0054
 9543SOL     OW40090   1.074   2.342   2.223 -0.3278  0.7403  0.6454
 9543SOL    HW140091   1.092   2.252   2.250  0.3220  1.3514  2.2427
 9543SOL    HW240092   1.139   2.389   2.276  1.1486 -0.7475  0.1692
 9544SOL     OW40093   1.480   2.349   2.154 -0.0280  0.1978 -0.3522
 9544SOL    HW140094   1.572   2.334   2.176 -0.2636  0.7634  1.0123
 9544SOL    HW240095   1.480   2.408   2.078  0.7900 -0.6238 -0.9907
 9545SOL     OW40096   3.841   1.367   6.065 -0.1610 -0.6987  0.3321
 9545SOL    HW140097   3.893   1.411   5.998 -2.5151  0.6138 -0.6622
 9545SOL    HW240098   3.860   1.275   6.051  1.2237 -0.4147  0.3759
 9546SOL     OW40099   4.721   1.328   2.511  0.2888 -0.2726  0.5588
 9546SOL    HW140100   0.062   1.356   2.577 -1.2105  0.2118  1.7940
 9546SOL    HW240101   0.055   1.276   2.453 -1.8364 -0.8992 -0.9578
 9547SOL     OW40102   4.627   2.637   6.022 -0.3714  0.0230  0.3729
 9547SOL    HW140103   4.623   2.729   5.997 -1.8803  0.6180  2.8273
 9547SOL    HW240104   4.565   2.589   5.967 -2.1062  0.9766  1.5118
 9548SOL     OW40105   1.898   4.710   8.948  0.0177 -0.0664 -0.6058
 9548SOL    HW140106   1.871   0.079   8.943 -1.0624 -0.3486 -0.0451
 9548SOL    HW240107   1.919   4.694   9.040 -1.1624 -2.0837 -0.6832
 9549SOL     OW40108   4.156   0.934   6.487 -0.1937 -0.0964  0.2946
 9549SOL    HW140109   4.235   0.969   6.446 -1.4175  1.5035 -0.6874
 9549SOL    HW240110   4.162   0.842   6.462  0.6925 -0.2713  1.1541
 9550SOL     OW40111   0.024   1.188   4.251  0.1999 -0.6504  0.5771
 9550SOL    HW140112   0.033   1.197   4.156  0.7241  1.2776  0.8118
 9550SOL    HW240113   4.665   1.231   4.276 -0.8170 -2.4543  0.3444
 9551SOL     OW40114   3.421   0.603   5.548 -0.3623 -0.1827  0.1114
 9551SOL    HW140115   3.397   0.690   5.518 -0.1567 -0.3282 -0.4724
 9551SOL    HW240116   3.514   0.608   5.526 -0.0604 -0.6286  1.2670
 9552SOL     OW40117   0.334   1.001   5.642  0.2981 -0.1143 -0.0671
 9552SOL    HW140118   0.373   0.916   5.663 -0.6334 -0.2353  1.1700
 9552SOL    HW240119   0.322   0.989   5.548 -0.3106  0.1577 -0.0237
 9553SOL     OW40120   0.386   1.193   2.230  0.0754 -0.3498  0.4034
 9553SOL    HW140121   0.436   1.238   2.161  0.6533 -1.2894  0.2062
 9553SOL    HW240122   0.402   1.101   2.212 -2.1458 -0.4578 -1.1007
 9554SOL     OW40123   1.226   2.035  10.294 -0.2754  0.7184  0.6964
 9554SOL    HW140124   1.146   2.019  10.343  0.3339 -2.2560  0.6873
 9554SOL    HW240125   1.220   1.955  10.242  3.0114  1.0027 -0.1146
 9555SOL     OW40126   3.905   1.288   3.867 -0.0215 -0.3411  0.5417
 9555SOL    HW140127   3.836   1.227   3.895 -2.1912  1.2782 -1.3201
 9555SOL    HW240128   3.877   1.312   3.778 -0.6295 -0.8536  0.5958
 9556SOL     OW40129   3.791   3.768  15.090 -0.7567  0.5888 -0.0047
 9556SOL    HW140130   3.852   3.722  15.147 -1.0566  0.0693 -0.0976
 9556SOL    HW240131   3.844   3.767  15.010 -0.9500  1.8943 -0.1508
 9557SOL     OW40132   2.620   3.055   8.271 -0.1970 -0.3024 -0.2157
 9557SOL    HW140133   2.652   3.144   8.256 -2.3077  0.2980 -1.1994
 9557SOL    HW240134   2.676   3.041   8.347 -2.4181 -1.0264  1.3137
 9558SOL     OW40135   3.911   3.539   7.752 -0.2525 -0.0877  0.1945
 9558SOL    HW140136   3.841   3.594   7.786 -1.3459 -2.5413  1.9502
 9558SOL    HW240137   3.954   3.520   7.836  2.9494 -0.1734 -1.4554
 9559SOL     OW40138   3.679   3.821   5.541  0.0123  0.1537 -0.0039
 9559SOL    HW140139   3.588   3.806   5.514 -0.2000 -1.0316  1.4218
 9559SOL    HW240140   3.703   3.729   5.547 -0.6526 -0.0257 -0.0335
 9560SOL     OW40141   0.155   1.702  10.243 -0.2792 -0.2938  0.4454
 9560SOL    HW140142   0.060   1.700  10.259 -0.1596 -2.1860  0.9703
 9560SOL    HW240143   0.148   1.667  10.154 -0.6572 -0.7368  0.6478
 9561SOL     OW40144   4.294   0.786   4.490  0.4853  0.7680 -0.8067
 9561SOL    HW140145   4.272   0.717   4.427  1.1083  0.5299 -0.7698
 9561SOL    HW240146   4.209   0.818   4.521  0.1450  1.5108 -2.5211
 9562SOL     OW40147   0.678   4.097  11.427  0.4258  0.1622  0.6903
 9562SOL    HW140148   0.752   4.134  11.378 -0.9147 -0.0554 -1.5180
 9562SOL    HW240149   0.690   4.139  11.512 -0.0931 -0.9847  1.3283
 9563SOL     OW40150   4.220   1.199   3.532  0.2816  0.0735 -0.0624
 9563SOL    HW140151   4.182   1.165   3.613  0.2429 -2.8905 -1.2909
 9563SOL    HW240152   4.309   1.219   3.561  0.5244  1.3145 -1.6520
 9564SOL     OW40153   3.072   4.610   5.758 -0.3463 -0.0082  0.4007
 9564SOL    HW140154   3.003   4.571   5.704 -0.3793  1.1180 -0.3670
 9564SOL    HW240155   3.103   4.686   5.709 -1.5087 -0.0103 -0.3556
 9565SOL     OW40156   1.127   3.459   8.346 -0.4866  0.0800 -0.2109
 9565SOL    HW140157   1.096   3.438   8.258 -0.2230  0.0388 -0.2962
 9565SOL    HW240158   1.082   3.541   8.367  0.4768  0.3248  0.9299
 9566SOL     OW40159   2.135   3.930   2.242  0.1537 -0.0521 -0.8565
 9566SOL    HW140160   2.181   3.904   2.322 -2.1721 -1.1331  0.1227
 9566SOL    HW240161   2.190   3.884   2.179  0.1956 -0.8276 -0.2531
 9567SOL     OW40162   2.978   1.575  14.603  0.1326 -0.0985 -0.2389
 9567SOL    HW140163   2.999   1.536  14.688 -0.4655  0.4676  0.1713
 9567SOL    HW240164   3.048   1.637  14.582  0.2349 -0.1181  0.0399
 9568SOL     OW40165   0.291   2.786   2.375 -0.2031 -0.5053  0.6503
 9568SOL    HW140166   0.304   2.870   2.332  1.5365 -2.1676 -2.0740
 9568SOL    HW240167   0.255   2.740   2.299 -1.9794  1.5952  0.2048
   4.72279   4.72279  17.69312
