Membrane in water
40167
    1TCq1    O1    1   4.352   2.098  10.508 -1.3453  0.1148  0.6724
    1TCq1    C1    2   4.432   2.097  10.618 -0.0511 -0.4296  0.8258
    1TCq1    O2    3   4.553   2.082  10.630 -0.3383  0.3791  0.2777
    1TCq1    C2    4   4.361   2.172  10.717  0.1468  0.0599 -0.1045
    1TCq1    C3    5   4.267   2.263  10.680 -0.3270 -0.0633 -0.3613
    1TCq1    C4    6   4.188   2.320  10.784 -0.6385 -0.1488  0.0759
    1TCq1    C5    7   4.203   2.274  10.912 -0.4043  0.4441 -0.3407
    1TCq1    C6    8   4.298   2.179  10.942 -0.4773 -0.3404 -0.0478
    1TCq1    C7    9   4.379   2.130  10.845 -0.3442  0.5863  0.1553
    1TCq1    C8   10   4.301   2.117  11.073  0.0412 -0.2923  0.1434
    1TCq1    O4   11   4.216   2.146  11.155 -0.3354 -0.3269  0.0249
    1TCq1    C9   12   4.102   2.429  10.758 -0.1201  0.3245 -0.3429
    1TCq1    O5   13   4.004   2.459  10.835  0.1142  0.2171 -0.6653
    1TCq1    O6   14   4.102   2.482  10.644 -0.3150  0.6816 -0.0027
    1TCq1    H1   15   4.258   2.122  10.523 -1.0265 -0.9850  4.5078
    1TCq1    H2   16   4.254   2.306  10.582  0.3505  1.7515  0.3314
    1TCq1    H3   17   4.136   2.313  10.988 -0.9569 -0.9613 -0.1003
    1TCq1    H4   18   4.452   2.051  10.857 -0.9806  0.2060  1.5524
    2MPD2     C   19   4.581   1.929  11.444  0.4169 -0.3141 -0.5374
    2MPD2    C1   20   4.450   1.957  11.445  0.5898  1.3050  0.0361
    2MPD2    C2   21   4.396   2.011  11.336  0.1891  0.3483 -0.7839
    2MPD2    C3   22   4.474   2.037  11.223 -0.2797 -0.4368 -0.5829
    2MPD2    C4   23   4.609   2.013  11.226 -0.7063  0.3145 -0.3516
    2MPD2    C5   24   4.664   1.971  11.346  0.4110  0.2674 -0.3369
    2MPD2     H   25   4.288   2.023  11.337  0.2775  1.2276 -3.3767
    2MPD2    H1   26   4.666   2.020  11.134  1.5199  2.1993  1.1844
    2MPD2    H2   27   4.624   1.876  11.528 -1.4341 -1.0988 -0.0720
    2MPD2    H3   28   0.046   1.948  11.353  0.0680 -0.6785  1.6932
    2MPD2     N   29   4.432   2.087  11.097 -0.0036  0.2961 -0.2495
    2MPD2    H5   30   4.504   2.106  11.029 -0.1832  0.9089 -0.2685
    2MPD2    N1   31   4.367   1.917  11.553  0.0177 -0.4378  0.0189
    2MPD2    H7   32   4.275   1.960  11.552 -0.7465 -2.1205 -3.7745
    3TCq1    O1   33   3.648   2.855  10.591 -0.0396  0.4829 -0.2310
    3TCq1    C1   34   3.539   2.890  10.663 -0.0317  0.4278  0.1414
    3TCq1    O2   35   3.434   2.830  10.677  0.2505  0.0409  0.4870
    3TCq1    C2   36   3.546   3.035  10.680  0.2320  0.4342 -0.2026
    3TCq1    C3   37   3.629   3.115  10.603  0.2475 -0.1472 -0.4838
    3TCq1    C4   38   3.588   3.242  10.593 -0.0842 -0.2153 -0.1242
    3TCq1    C5   39   3.475   3.285  10.660 -0.2580  0.5731 -0.5908
    3TCq1    C6   40   3.404   3.200  10.738 -0.1213  0.2256 -0.0217
    3TCq1    C7   41   3.436   3.075  10.752  0.1509  0.0278  0.2192
    3TCq1    C8   42   3.268   3.244  10.782  0.5090 -0.1019 -0.3772
    3TCq1    O4   43   3.193   3.153  10.823 -0.2941  0.2210  0.2842
    3TCq1    C9   44   3.649   3.325  10.489 -0.1123 -0.5929  0.0930
    3TCq1    O5   45   3.739   3.266  10.422 -0.3160 -0.1378  0.1997
    3TCq1    O6   46   3.579   3.425  10.461  0.0957 -0.2590  0.3220
    3TCq1    H1   47   3.730   2.883  10.636 -0.1680  0.1350  0.2196
    3TCq1    H2   48   3.709   3.083  10.538  0.4555  0.9112 -0.7499
    3TCq1    H3   49   3.453   3.390  10.649 -1.1608  0.5617  1.1048
    3TCq1    H4   50   3.381   3.001  10.809  0.7759 -0.2395  0.4669
    4MPD2     C   51   2.889   3.562  10.867  0.1702  0.0602 -0.0575
    4MPD2    C1   52   3.001   3.635  10.831  0.2318 -0.1437 -0.3206
    4MPD2    C2   53   3.114   3.574  10.789 -0.7983  0.0383 -0.1039
    4MPD2    C3   54   3.121   3.437  10.799  0.0011  0.0233  1.0743
    4MPD2    C4   55   3.007   3.364  10.828 -0.0542 -0.4999  0.2155
    4MPD2    C5   56   2.894   3.431  10.851  0.0456  0.0463 -0.2189
    4MPD2     H   57   3.196   3.631  10.746  0.1107 -0.7380  0.6006
    4MPD2    H1   58   3.001   3.256  10.826 -1.8553 -0.3989  0.2401
    4MPD2    H2   59   2.793   3.604  10.893  0.0328 -1.4182  1.7916
    4MPD2    H3   60   2.806   3.374  10.878  1.5447 -1.5316  1.3506
    4MPD2     N   61   3.240   3.378  10.752 -0.1855  0.1038  0.0737
    4MPD2    H5   62   3.316   3.442  10.731  0.1291 -0.0440  0.7649
    4MPD2    N1   63   3.010   3.776  10.842 -0.1546  0.6670 -0.1185
    4MPD2    H7   64   3.094   3.823  10.809 -0.5044  1.2486 -0.1925
    5TCq1    O1   65   4.181   4.677  12.495  0.2860 -0.1064  0.5889
    5TCq1    C1   66   4.123   0.006  12.387  0.3231  0.5313  0.1327
    5TCq1    O2   67   4.019   0.071  12.394 -0.7186  0.0704 -0.2416
    5TCq1    C2   68   4.205   4.721  12.271 -0.5931  0.4348 -0.3759
    5TCq1    C3   69   4.341   4.702  12.288  0.6431 -0.0977  0.0194
    5TCq1    C4   70   4.426   4.661  12.183  0.2668  0.5414 -0.0598
    5TCq1    C5   71   4.364   4.639  12.064  0.0812 -0.0380  0.7420
    5TCq1    C6   72   4.235   4.687  12.045 -0.4690 -0.4117  0.3066
    5TCq1    C7   73   4.156   0.006  12.145  0.3266  1.0127  0.1541
    5TCq1    C8   74   4.184   4.687  11.909 -0.2660  0.1410  0.6928
    5TCq1    O4   75   4.223   4.605  11.829 -0.0741  0.6528  0.5858
    5TCq1    C9   76   4.571   4.649  12.194  0.6190  0.2073 -0.6056
    5TCq1    O5   77   4.629   4.593  12.098 -0.2905 -0.1729 -0.4442
    5TCq1    O6   78   4.630   4.675  12.297 -0.0403  0.2949  0.0660
    5TCq1    H1   79   4.263   4.626  12.476  1.0360  1.1763  0.3799
    5TCq1    H2   80   4.386   0.004  12.383  2.7470  0.3313 -1.1028
    5TCq1    H3   81   4.417   4.605  11.975 -0.6865  1.0618 -0.1360
    5TCq1    H4   82   4.049   0.023  12.137 -0.4002 -4.1757 -1.2823
    6MPD2     C   83   3.928   0.174  11.752  0.7868  0.1255  0.2060
    6MPD2    C1   84   4.013   0.068  11.764  0.2565 -0.3013 -1.1273
    6MPD2    C2   85   4.024   4.711  11.651  0.1616  0.2049  0.8096
    6MPD2    C3   86   3.968   0.021  11.527 -1.2176 -0.2194 -0.1467
    6MPD2    C4   87   3.892   0.132  11.514  0.5672  0.4876  0.2730
    6MPD2    C5   88   3.866   0.208  11.633 -0.1321 -0.3497 -0.7051
    6MPD2     H   89   4.099   4.633  11.652  0.6449  0.6642  0.0780
    6MPD2    H1   90   3.862   0.177  11.420 -1.2333 -0.4677  0.3941
    6MPD2    H2   91   3.913   0.233  11.842 -0.9330 -0.4722  0.3214
    6MPD2    H3   92   3.813   0.303  11.634  1.7237  0.6697  2.3829
    6MPD2     N   93   4.006   4.660  11.413  0.1948 -0.3269 -0.2537
    6MPD2    H5   94   4.063   4.577  11.417  0.5175 -0.2116 -2.4161
    6MPD2    N1   95   4.091   0.057  11.884  0.3922 -0.1017  0.6778
    6MPD2    H7   96   4.073   0.130  11.953 -2.0336  1.0930 -1.2498
    7TCq1    O1   97   0.576   4.651  13.863  0.2126 -0.1716 -0.1571
    7TCq1    C1   98   0.698   4.618  13.916 -1.2879 -0.0134 -0.2681
    7TCq1    O2   99   0.754   4.693  13.996  0.5874 -0.2573 -0.2241
    7TCq1    C2  100   0.678   4.478  13.947 -0.0721 -0.3352  0.3802
    7TCq1    C3  101   0.554   4.440  14.002 -0.1304 -0.2311 -0.0186
    7TCq1    C4  102   0.541   4.313  14.038  0.0737 -0.2399  0.3203
    7TCq1    C5  103   0.648   4.227  14.038 -0.2930 -0.2425 -0.5344
    7TCq1    C6  104   0.762   4.272  13.991 -0.8337 -0.4457 -0.5639
    7TCq1    C7  105   0.783   4.396  13.939 -0.9788  0.4226 -0.4009
    7TCq1    C8  106   0.876   4.175  14.000  0.4306 -0.2623  0.8687
    7TCq1    O4  107   0.850   4.055  14.012  0.2529 -0.0831 -0.1232
    7TCq1    C9  108   0.413   4.268  14.090  0.2441 -0.2004  0.4845
    7TCq1    O5  109   0.407   4.165  14.157  0.3322  0.1371 -0.1684
    7TCq1    O6  110   0.326   4.352  14.079  0.5584 -0.3730  0.2958
    7TCq1    H1  111   0.546   4.581  13.801  0.7724 -1.8947  1.5193
    7TCq1    H2  112   0.466   4.503  14.006  0.3798  0.4170  1.0452
    7TCq1    H3  113   0.638   4.121  14.058  0.4967 -0.5860 -1.9391
    7TCq1    H4  114   0.876   4.434  13.899  0.2863  0.0286  2.1384
    8MPD2     C  115   1.382   4.113  14.008 -0.1853 -0.1368 -0.1036
    8MPD2    C1  116   1.283   4.029  13.960  0.7273 -0.0731  0.4738
    8MPD2    C2  117   1.150   4.068  13.965 -0.3059  0.1090  0.2372
    8MPD2    C3  118   1.123   4.196  14.020  0.0508 -0.3826 -0.4084
    8MPD2    C4  119   1.223   4.280  14.069 -0.1226 -0.6429  0.1803
    8MPD2    C5  120   1.354   4.234  14.066  0.0319 -0.3789 -0.3132
    8MPD2     H  121   1.077   4.007  13.912 -1.1024  0.0617  1.3817
    8MPD2    H1  122   1.201   4.382  14.098  1.0105  0.1541 -1.7147
    8MPD2    H2  123   1.487   4.086  14.016 -0.2341 -0.1672  0.4470
    8MPD2    H3  124   1.431   4.299  14.105  0.5612  0.0856 -2.1440
    8MPD2     N  125   0.991   4.250  14.013 -0.3820  0.0534 -0.4704
    8MPD2    H5  126   0.983   4.351  14.022 -0.4810  0.1881 -2.2125
    8MPD2    N1  127   1.335   3.922  13.890  0.3101 -0.4491 -0.3403
    8MPD2    H7  128   1.436   3.928  13.880  0.3374 -0.2841  0.0470
    9TCq1    O1  129   3.208   2.698  10.707 -0.0671  0.3971  0.1632
    9TCq1    C1  130   3.202   2.580  10.779 -0.0415 -1.2083  0.2683
    9TCq1    O2  131   3.113   2.496  10.765  0.3234  0.6000  0.2924
    9TCq1    C2  132   3.296   2.600  10.882  0.4374 -0.4061 -0.7680
    9TCq1    C3  133   3.379   2.491  10.909  0.4129 -0.3260  0.2391
    9TCq1    C4  134   3.489   2.508  10.982 -0.0690  0.3258 -0.4275
    9TCq1    C5  135   3.514   2.628  11.044  0.0581  0.1603  0.1780
    9TCq1    C6  136   3.424   2.728  11.022  0.3685 -0.5988  0.4869
    9TCq1    C7  137   3.319   2.723  10.934  1.2205 -0.1391 -0.0037
    9TCq1    C8  138   3.439   2.846  11.097 -0.4840  0.3793 -1.3611
    9TCq1    O4  139   3.388   2.943  11.044  0.3287 -0.3770 -0.5066
    9TCq1    C9  140   3.592   2.411  10.991 -0.5855  0.9199  0.4429
    9TCq1    O5  141   3.709   2.467  11.012  0.5495 -0.5737 -0.5214
    9TCq1    O6  142   3.568   2.292  10.961 -0.3528 -0.0331  0.2425
    9TCq1    H1  143   3.297   2.736  10.720 -0.0620  0.5178 -0.2459
    9TCq1    H2  144   3.349   2.393  10.872 -1.6424  1.2391 -2.2638
    9TCq1    H3  145   3.602   2.650  11.104  1.0791 -0.4322 -1.0971
    9TCq1    H4  146   3.255   2.810  10.919 -0.6833 -1.3306  1.3442
   10MPD2     C  147   3.529   3.067  11.274 -0.1069  0.3275 -0.2997
   10MPD2    C1  148   3.498   2.937  11.312 -0.3743 -0.2153 -0.1681
   10MPD2    C2  149   3.504   2.907  11.452  0.2098 -0.5235  0.2106
   10MPD2    C3  150   3.531   3.009  11.540 -0.0504  0.3916 -0.3075
   10MPD2    C4  151   3.541   3.137  11.499 -0.6920  0.3073 -0.4079
   10MPD2    C5  152   3.551   3.158  11.368 -0.0154  0.3100  0.0961
   10MPD2     H  153   3.502   2.804  11.483 -1.3025 -0.3682  0.6452
   10MPD2    H1  154   3.556   3.218  11.571  2.6782  0.3879 -1.2201
   10MPD2    H2  155   3.545   3.095  11.170 -2.0464  0.9083 -0.4373
   10MPD2    H3  156   3.565   3.258  11.330 -0.0329  1.3640  2.8129
   10MPD2     N  157   3.562   2.979  11.671  0.4348  0.1357 -0.8045
   10MPD2    H5  158   3.621   3.047  11.717 -1.4610  1.4541 -0.3648
   10MPD2    N1  159   3.490   2.830  11.224  0.2465  0.3764 -0.6340
   10MPD2    H7  160   3.491   2.734  11.257  0.2813  0.7577  0.4551
   11TCq1    O1  161   4.447   3.686  14.508 -0.2448  0.1426 -0.6196
   11TCq1    C1  162   4.437   3.565  14.562  0.9141 -0.2417 -0.0292
   11TCq1    O2  163   4.363   3.522  14.651  0.6758  0.3143 -0.5805
   11TCq1    C2  164   4.534   3.484  14.498  0.2195  0.0709  0.4492
   11TCq1    C3  165   4.578   3.513  14.372 -0.3603  0.5750 -0.0064
   11TCq1    C4  166   4.693   3.442  14.332 -0.5194  0.1553  0.5061
   11TCq1    C5  167   0.027   3.350  14.412  0.0576 -0.0857  1.2330
   11TCq1    C6  168   4.691   3.309  14.530 -0.0359  0.0389  0.2348
   11TCq1    C7  169   4.580   3.380  14.571 -0.1005 -0.5543  0.8817
   11TCq1    C8  170   4.709   3.182  14.596  0.1146  0.6522 -0.2693
   11TCq1    O4  171   4.706   3.177  14.719  0.3120  0.1610 -0.2322
   11TCq1    C9  172   0.026   3.461  14.196  0.2639  0.8832 -0.4057
   11TCq1    O5  173   0.058   3.355  14.137  0.6864 -0.7980  0.4560
   11TCq1    O6  174   4.711   3.562  14.140  0.0279 -0.5119 -0.5562
   11TCq1    H1  175   4.516   3.696  14.439  1.5824  0.2308  1.2201
   11TCq1    H2  176   4.532   3.582  14.302  0.3034  0.9757 -0.0405
   11TCq1    H3  177   0.120   3.297  14.391  1.9120  2.4862  2.8647
   11TCq1    H4  178   4.527   3.357  14.663 -0.4816  0.8588  1.0084
   12MPD2     C  179   0.013   2.898  14.687 -0.2116  0.9576  0.3628
   12MPD2    C1  180   0.006   2.936  14.556  0.3017  1.1098 -0.2690
   12MPD2    C2  181   0.013   2.839  14.449 -0.4620  0.3642  0.5108
   12MPD2    C3  182   0.017   2.705  14.490  0.1657 -0.1833  0.4065
   12MPD2    C4  183   0.018   2.668  14.622 -1.1365  0.5295  0.1434
   12MPD2    C5  184   0.019   2.767  14.719 -0.7602 -0.3626  0.4261
   12MPD2     H  185   0.019   2.875  14.347 -1.7317  0.0217  0.3144
   12MPD2    H1  186   0.010   2.567  14.660 -1.9269  0.8057  0.7182
   12MPD2    H2  187   4.713   2.963  14.771 -1.9506  0.7192  0.0522
   12MPD2    H3  188   0.007   2.734  14.822  1.7867 -0.9573  0.5438
   12MPD2     N  189   0.009   2.603  14.397  0.4125  0.0463 -0.1780
   12MPD2    H5  190   0.004   2.642  14.304 -0.4323  0.3657 -0.0025
   12MPD2    N1  191   4.718   3.075  14.512  0.3075 -0.3026 -0.0029
   12MPD2    H7  192   0.005   3.081  14.411 -0.0967 -0.1656 -0.0382
   13TCq1    O1  193   3.945   2.074  11.654 -0.0656 -0.4463 -0.0496
   13TCq1    C1  194   3.993   2.061  11.527 -0.0727 -0.7966  0.0026
   13TCq1    O2  195   4.111   2.041  11.499  0.0936  0.2973 -0.4381
   13TCq1    C2  196   3.889   2.081  11.423  1.1242 -0.1151 -0.2446
   13TCq1    C3  197   3.926   2.049  11.298 -0.1312  0.6949 -0.0665
   13TCq1    C4  198   3.846   2.096  11.191 -0.5391 -0.0742  0.6978
   13TCq1    C5  199   3.724   2.156  11.215  0.1600 -0.2572 -0.7820
   13TCq1    C6  200   3.693   2.182  11.342 -0.1146 -0.7050 -0.1009
   13TCq1    C7  201   3.773   2.145  11.445  0.5871 -1.4136  0.3835
   13TCq1    C8  202   3.575   2.263  11.372  0.2878  0.5983  0.4055
   13TCq1    O4  203   3.578   2.339  11.464 -0.2455 -0.0349 -0.3829
   13TCq1    C9  204   3.880   2.065  11.057  0.0139  0.2911  0.4204
   13TCq1    O5  205   3.832   2.135  10.965  0.1426  0.4801  0.0227
   13TCq1    O6  206   3.929   1.946  11.045  0.2812  0.1885  0.3862
   13TCq1    H1  207   3.849   2.058  11.670 -0.0982  1.4676  1.6715
   13TCq1    H2  208   4.019   2.001  11.271 -0.9489 -0.0171 -1.6633
   13TCq1    H3  209   3.682   2.195  11.123 -0.6589 -1.8576 -1.0819
   13TCq1    H4  210   3.767   2.212  11.530  1.1259  1.5230 -1.8936
   14MPD2     C  211   3.267   2.284  11.178 -0.7752 -0.3157  0.3706
   14MPD2    C1  212   3.356   2.314  11.279  0.0334 -0.4433  0.0442
   14MPD2    C2  213   3.329   2.421  11.354  0.2501  0.8989  0.0035
   14MPD2    C3  214   3.207   2.497  11.348  1.1412 -0.3330  0.1963
   14MPD2    C4  215   3.122   2.477  11.244 -0.8251 -0.0035  0.6654
   14MPD2    C5  216   3.155   2.367  11.169  0.0756 -0.2977  0.2653
   14MPD2     H  217   3.398   2.462  11.426 -0.3755 -0.6810  1.5110
   14MPD2    H1  218   3.030   2.532  11.230  1.2073  2.7310 -1.8472
   14MPD2    H2  219   3.280   2.198  11.114 -0.7132  0.5701 -0.7960
   14MPD2    H3  220   3.095   2.345  11.081  0.6469 -0.3686 -0.1104
   14MPD2     N  221   3.198   2.619  11.430  0.1381 -0.3227  0.0167
   14MPD2    H5  222   3.260   2.625  11.510  0.9892  1.4031 -0.7634
   14MPD2    N1  223   3.476   2.246  11.277 -0.0522 -0.6489 -0.1984
   14MPD2    H7  224   3.492   2.186  11.197  0.8694 -0.0780 -0.4461
   15TCq1    O1  225   1.466   4.463   2.895 -0.3350  0.9037  0.5430
   15TCq1    C1  226   1.473   4.571   2.981  0.1179  0.0439 -0.2371
   15TCq1    O2  227   1.420   4.588   3.091 -0.2858 -0.0393  0.7381
   15TCq1    C2  228   1.579   4.659   2.932 -0.0755  0.0998  0.5640
   15TCq1    C3  229   1.698   4.675   3.009  0.1247 -0.0329 -0.0791
   15TCq1    C4  230   1.799   0.010   2.949  0.5365 -0.2984 -0.1414
   15TCq1    C5  231   1.787   0.057   2.821 -0.1783  0.4207 -0.3278
   15TCq1    C6  232   1.663   0.059   2.753  0.2339  0.7769 -0.1199
   15TCq1    C7  233   1.553   4.722   2.809  0.5948  0.1282  0.2041
   15TCq1    C8  234   1.661   0.105   2.616 -0.6126 -0.3359  0.4510
   15TCq1    O4  235   1.771   0.136   2.571 -0.3762 -0.6671 -0.8414
   15TCq1    C9  236   1.930   0.006   3.012  0.3562  0.3030  0.0777
   15TCq1    O5  237   1.935   4.688   3.129  0.0613 -0.0847 -0.1581
   15TCq1    O6  238   2.036   0.009   2.946  0.0309 -0.3142 -0.5601
   15TCq1    H1  239   1.529   4.458   2.820  0.9411  3.2021  1.4617
   15TCq1    H2  240   1.702   4.629   3.107 -0.6790  0.7042  0.2917
   15TCq1    H3  241   1.869   0.113   2.778 -0.7216 -0.3735 -2.4017
   15TCq1    H4  242   1.466   4.694   2.751 -0.0661 -0.1516  1.3419
   16MPD2     C  243   1.406   0.252   2.401 -0.2544  0.0459 -0.1429
   16MPD2    C1  244   1.520   0.181   2.428  0.1611 -0.0721 -0.5382
   16MPD2    C2  245   1.617   0.151   2.329 -0.1681  0.1008  0.0844
   16MPD2    C3  246   1.588   0.194   2.199 -0.0521  0.4403 -0.0445
   16MPD2    C4  247   1.462   0.245   2.169 -0.7058 -0.2803 -0.7225
   16MPD2    C5  248   1.376   0.273   2.272  0.2926  0.6398 -0.3159
   16MPD2     H  249   1.696   0.079   2.349 -0.9800 -0.2966  1.8585
   16MPD2    H1  250   1.428   0.273   2.070 -0.4045 -1.1747 -1.0788
   16MPD2    H2  251   1.325   0.262   2.472 -1.6662 -1.9034 -1.4892
   16MPD2    H3  252   1.277   0.312   2.250  0.7148  2.5053  1.0902
   16MPD2     N  253   1.676   0.171   2.090 -0.4400 -0.2392 -0.2134
   16MPD2    H5  254   1.767   0.134   2.119  0.2343 -0.3850 -2.5437
   16MPD2    N1  255   1.539   0.144   2.563  0.0415  0.9784  0.4804
   16MPD2    H7  256   1.458   0.137   2.625  0.1628  1.6443  0.7120
   17TCq1    O1  257   3.312   1.835  11.572  0.8719 -0.0614 -0.4082
   17TCq1    C1  258   3.436   1.882  11.585  0.6564  0.0054 -0.3303
   17TCq1    O2  259   3.496   1.878  11.692 -0.3082  0.0530  0.4108
   17TCq1    C2  260   3.497   1.829  11.459 -0.6641 -0.1807  0.1742
   17TCq1    C3  261   3.452   1.888  11.343  0.4458  0.0367  0.3640
   17TCq1    C4  262   3.540   1.876  11.239 -0.2551  0.1890 -0.1753
   17TCq1    C5  263   3.657   1.802  11.238 -0.6520  0.1474  0.1059
   17TCq1    C6  264   3.695   1.754  11.361 -0.0479 -0.3506 -0.1385
   17TCq1    C7  265   3.611   1.760  11.464  0.4510 -0.5013  1.4202
   17TCq1    C8  266   3.842   1.737  11.386 -0.2082  0.7691  0.6818
   17TCq1    O4  267   3.872   1.716  11.500 -0.0977 -0.5947 -0.5249
   17TCq1    C9  268   3.504   1.929  11.109 -0.3053  0.0334 -0.1781
   17TCq1    O5  269   3.595   1.935  11.021 -0.1309  0.2230 -0.3472
   17TCq1    O6  270   3.389   1.975  11.095 -0.1929  0.9160 -0.2258
   17TCq1    H1  271   3.281   1.828  11.479  0.4435 -1.7643 -0.1246
   17TCq1    H2  272   3.358   1.941  11.334 -0.0444 -0.9874 -0.6022
   17TCq1    H3  273   3.707   1.790  11.142 -0.6665 -1.8140  0.3321
   17TCq1    H4  274   3.651   1.724  11.558  0.7481 -0.2083  1.4064
   18MPD2     C  275   4.117   1.649  11.401  0.2010  0.1482  0.0193
   18MPD2    C1  276   4.061   1.702  11.286 -0.5752 -0.5308 -0.3812
   18MPD2    C2  277   4.141   1.724  11.178  0.3746  0.5780 -0.3172
   18MPD2    C3  278   4.279   1.701  11.181  1.3021 -0.1912 -0.0242
   18MPD2    C4  279   4.334   1.651  11.298  0.4893 -0.8385  0.4911
   18MPD2    C5  280   4.254   1.628  11.411  0.1463  0.1492  0.9156
   18MPD2     H  281   4.095   1.770  11.091  0.6092  0.6657 -0.3927
   18MPD2    H1  282   4.440   1.626  11.301  0.7050 -0.0243 -0.3678
   18MPD2    H2  283   4.065   1.621  11.492 -1.9790  1.8266 -0.7123
   18MPD2    H3  284   4.292   1.596  11.507 -1.3810  0.6470  1.6914
   18MPD2     N  285   4.367   1.719  11.076 -0.1048 -0.9132 -0.3686
   18MPD2    H5  286   4.466   1.714  11.095 -0.1182  1.0394  0.1656
   18MPD2    N1  287   3.923   1.725  11.278  0.6897 -0.3232 -0.2469
   18MPD2    H7  288   3.885   1.762  11.192  1.7017 -2.6665 -1.7255
   19TMC2    C1  289   1.618   2.621  13.981  0.0620  0.2041  0.4852
   19TMC2    C2  290   1.598   2.700  13.871  0.4538 -0.1008  1.1605
   19TMC2    C3  291   1.473   2.715  13.820  0.2755  0.3188 -0.1469
   19TMC2    C4  292   1.514   2.560  14.043 -0.0500  0.3649  0.0034
   19TMC2    C5  293   1.392   2.564  13.984  0.3137  0.5753  0.2772
   19TMC2    C6  294   1.372   2.641  13.872  0.2851 -0.4660 -0.3090
   19TMC2     C  295   1.744   2.656  14.051  0.1174 -0.3038  0.1256
   19TMC2     O  296   1.796   2.759  14.014  0.1883 -0.1449 -0.5194
   19TMC2     H  297   1.685   2.744  13.824 -0.9250 -1.3007 -2.5750
   19TMC2    H1  298   1.522   2.514  14.141  2.1082  2.2481  0.7102
   19TMC2    H2  299   1.274   2.648  13.825 -1.2189 -3.3193  2.3670
   19TMC2    C7  300   1.284   2.482  14.033  0.3136 -0.3550  0.7459
   19TMC2    C8  301   1.457   2.765  13.684 -0.7704  0.3821  0.3163
   19TMC2    O1  302   1.321   2.401  14.119  0.4331  0.7308  0.0360
   19TMC2    O2  303   1.559   2.777  13.614 -0.0140 -0.0950  0.0504
   19TMC2    O5  304   1.354   2.857  13.688 -0.4107 -0.0755 -0.0936
   19TMC2    H5  305   1.297   2.853  13.767  0.1751 -1.7724  0.2427
   20MPD2     C  306   1.938   2.722  14.269 -0.5522 -0.3814 -0.4447
   20MPD2    C1  307   1.869   2.598  14.259  0.4230 -0.1291 -0.0962
   20MPD2    C2  308   1.892   2.500  14.357 -0.0875  0.0404 -0.3185
   20MPD2    C3  309   1.984   2.522  14.458 -0.2339  0.2856  0.0294
   20MPD2    C4  310   2.057   2.641  14.452 -0.4956  0.3338 -0.4773
   20MPD2    C5  311   2.030   2.741  14.362 -0.1713 -0.3013 -0.3712
   20MPD2     H  312   1.844   2.404  14.340  0.2179  0.0376 -1.1594
   20MPD2    H1  313   2.124   2.668  14.533  0.3078  2.1623 -1.7625
   20MPD2    H2  314   1.920   2.809  14.207  2.8765  1.4342  1.1251
   20MPD2    H3  315   2.080   2.836  14.371 -0.7124  0.0552 -1.1835
   20MPD2     N  316   2.020   2.427  14.556 -0.2477  0.2950 -0.4121
   20MPD2    H5  317   2.099   2.453  14.613  1.0708  3.4732 -3.7175
   20MPD2    N1  318   1.775   2.570  14.157 -0.0221  0.3752  0.7170
   20MPD2    H7  319   1.735   2.477  14.153 -1.2556  0.9962 -1.3746
   21MPD2     C  320   3.781   3.363  14.573 -0.0040  0.4529  0.1517
   21MPD2    C1  321   3.832   3.237  14.594 -0.0793 -0.4157 -0.2551
   21MPD2    C2  322   3.738   3.141  14.631 -0.7278  0.5073 -0.6627
   21MPD2    C3  323   3.603   3.166  14.636 -0.1420 -0.6696 -0.4905
   21MPD2    C4  324   3.556   3.291  14.616  1.1025 -0.6544 -0.1714
   21MPD2    C5  325   3.647   3.391  14.601  0.0267  0.2064 -0.4544
   21MPD2     H  326   3.785   3.048  14.658 -1.0477  0.6108  0.2389
   21MPD2    H1  327   3.452   3.316  14.636  1.1871  0.4450 -1.1146
   21MPD2    H2  328   3.841   3.451  14.551  0.4657 -0.7552 -3.4799
   21MPD2    H3  329   3.605   3.492  14.596  0.1476  0.2901  0.3033
   21MPD2     N  330   3.501   3.077  14.652 -0.1679 -1.0160 -1.3256
   21MPD2    H5  331   3.406   3.114  14.652  0.0656 -0.4049 -2.7671
   21MPD2    N1  332   3.968   3.195  14.592  0.2154  0.6444 -0.4198
   21MPD2    H7  333   3.994   3.102  14.621  2.0540  1.7797  1.5850
   22TCq2    C1  334   3.526   2.939  14.657 -0.3803  0.7344  0.5894
   22TCq2    O2  335   3.633   2.877  14.647  0.0350  0.3039 -0.4645
   22TCq2    C2  336   3.409   2.862  14.683 -0.2368 -0.8107  0.4862
   22TCq2    C3  337   3.431   2.729  14.675  0.5448  0.4321 -0.1729
   22TCq2    C4  338   3.358   2.654  14.764  0.5764  0.4707 -0.4261
   22TCq2    C5  339   3.258   2.700  14.840  0.0858  0.2098  0.4329
   22TCq2    C6  340   3.230   2.826  14.828 -0.5217 -1.6370 -0.1138
   22TCq2    C7  341   3.315   2.913  14.768  0.0029 -0.4573 -0.0234
   22TCq2    C8  342   3.136   2.875  14.933 -0.3897 -0.0807  0.2911
   22TCq2    O4  343   3.117   2.807  15.036 -0.1915 -0.2614  0.1829
   22TCq2    C9  344   3.385   2.516  14.783  0.3158 -0.0399 -0.2122
   22TCq2    O5  345   3.354   2.459  14.887  0.0600 -0.6215 -0.5540
   22TCq2    O6  346   3.457   2.464  14.685  0.3942 -0.5006  0.1383
   22TCq2    H2  347   3.504   2.685  14.609 -0.2038 -2.2878  0.8010
   22TCq2    H3  348   3.217   2.632  14.914  0.0265  1.1715  1.2848
   22TCq2    H4  349   3.295   3.020  14.771 -1.6683 -0.7942  0.8747
   23MPD2     C  350   0.141   4.245  14.643  0.8596  0.2526 -0.1850
   23MPD2    C1  351   0.057   4.252  14.747 -0.0968  0.4038 -0.2208
   23MPD2    C2  352   4.679   4.340  14.758 -0.1487  1.2610 -0.1833
   23MPD2    C3  353   4.652   4.436  14.664 -1.1005  0.4587  0.4274
   23MPD2    C4  354   0.014   4.429  14.553 -0.0857  0.2386  0.2712
   23MPD2    C5  355   0.118   4.339  14.550 -0.4696 -0.1448  0.1441
   23MPD2     H  356   4.616   4.333  14.846  0.4006  2.9085  0.3382
   23MPD2    H1  357   4.724   4.504  14.475 -0.5429  0.2493  0.3631
   23MPD2    H2  358   0.231   4.185  14.635  1.1216  0.8166 -1.4678
   23MPD2    H3  359   0.193   4.340  14.472 -2.0883 -0.9028 -1.4369
   23MPD2     N  360   4.533   4.509  14.661 -0.3076 -0.2637  0.0433
   23MPD2    H5  361   4.524   4.576  14.585  0.1412 -1.3513 -0.9779
   23MPD2    N1  362   0.073   4.165  14.856  0.3046 -0.1197 -0.6259
   23MPD2    H7  363   0.004   4.171  14.930  0.9781  2.5006 -0.2260
   24TCq2    C1  364   4.433   4.504  14.756  0.2681 -0.1396 -0.3954
   24TCq2    O2  365   4.402   4.420  14.840 -0.0110 -0.1969  0.7328
   24TCq2    C2  366   4.316   4.576  14.697  0.2469  0.4843 -0.2279
   24TCq2    C3  367   4.330   4.695  14.633 -0.3925  0.5237 -0.5165
   24TCq2    C4  368   4.228   0.021  14.559  0.5737 -0.2562 -1.3812
   24TCq2    C5  369   4.112   4.672  14.531 -0.3758  0.7610  0.1704
   24TCq2    C6  370   4.097   4.559  14.605 -0.1560 -0.2632 -0.2403
   24TCq2    C7  371   4.195   4.510  14.688 -0.4961  0.6726 -0.6632
   24TCq2    C8  372   3.962   4.497  14.618  0.0809  0.6935  0.2907
   24TCq2    O4  373   3.961   4.379  14.649 -0.0464  0.3420 -0.4992
   24TCq2    C9  374   4.238   0.155  14.495 -0.0728 -0.2967  0.3992
   24TCq2    O5  375   4.335   0.228  14.541 -0.5347  0.5303 -0.6333
   24TCq2    O6  376   4.158   0.199  14.406 -0.0902 -0.2325 -0.1500
   24TCq2    H2  377   4.425   0.023  14.643  0.1213 -0.6920  0.8790
   24TCq2    H3  378   4.032   4.721  14.477  0.4778  0.5483 -1.2970
   24TCq2    H4  379   4.179   4.418  14.743  1.1154  1.3037  0.8430
   25TMC2    C1  380   3.724   1.439  11.638  0.4854 -0.1376  0.3658
   25TMC2    C2  381   3.836   1.500  11.692 -0.7623 -0.6468 -0.2495
   25TMC2    C3  382   3.818   1.582  11.801  0.4172 -0.4087  0.3031
   25TMC2    C4  383   3.596   1.458  11.694 -0.8429 -0.2311  0.6103
   25TMC2    C5  384   3.592   1.544  11.804 -0.0118 -0.1696  0.0751
   25TMC2    C6  385   3.696   1.610  11.847  0.7333 -0.1539 -0.2285
   25TMC2     C  386   3.749   1.352  11.524  0.8806 -1.0395 -0.4654
   25TMC2     O  387   3.839   1.386  11.454  0.1912 -0.2225 -0.4303
   25TMC2     H  388   3.934   1.470  11.658 -0.9162 -1.3525 -0.0713
   25TMC2    H1  389   3.504   1.410  11.662 -0.2708  0.1659 -1.5829
   25TMC2    H2  390   3.678   1.696  11.912  0.9899  0.3054 -0.7645
   25TMC2    C7  391   3.458   1.558  11.863 -0.0185  0.3450 -0.2352
   25TMC2    C8  392   3.920   1.681  11.847  0.5588  0.2624  0.8780
   25TMC2    O1  393   3.363   1.539  11.787  0.2591  0.1431 -0.4460
   25TMC2    O2  394   3.920   1.727  11.964 -0.1640  0.3107 -0.5771
   25TMC2    O5  395   3.985   1.731  11.743 -0.5129  0.1894 -0.2867
   25TMC2    H5  396   3.950   1.704  11.656 -0.2148 -0.9435 -0.0538
   26MPD2     C  397   3.720   0.931  11.235 -0.3518  0.4691 -0.1700
   26MPD2    C1  398   3.601   0.937  11.308 -0.2134 -0.2626 -0.6206
   26MPD2    C2  399   3.583   1.047  11.399 -0.0141 -0.0416 -0.0382
   26MPD2    C3  400   3.683   1.150  11.406 -0.2406 -0.0306  0.7356
   26MPD2    C4  401   3.802   1.135  11.341 -0.0408 -0.4949 -0.0313
   26MPD2    C5  402   3.815   1.026  11.265 -0.1909  0.1741 -0.0228
   26MPD2     H  403   3.493   1.060  11.457  1.0882  2.5228  1.0915
   26MPD2    H1  404   3.886   1.203  11.332 -0.3105 -0.0969  0.4418
   26MPD2    H2  405   3.740   0.848  11.167 -0.2280  0.1007  0.3145
   26MPD2    H3  406   3.907   1.016  11.208 -1.2246 -3.5312 -1.0405
   26MPD2     N  407   3.662   1.249  11.503  0.0857 -0.0512 -0.0216
   26MPD2    H5  408   3.572   1.262  11.547 -0.0352 -0.6696 -0.0867
   26MPD2    N1  409   3.503   0.828  11.284 -0.2148  0.2453 -0.7218
   26MPD2    H7  410   3.535   0.759  11.216  1.0561 -0.9931  1.1472
   27TMC2    C1  411   2.394   3.900  12.659 -0.3611 -0.3280 -0.7232
   27TMC2    C2  412   2.508   3.866  12.595  0.9759  0.1574  0.3749
   27TMC2    C3  413   2.625   3.889  12.675 -0.2124  0.3595 -0.3095
   27TMC2    C4  414   2.382   3.933  12.796  0.2249  0.0790 -0.0304
   27TMC2    C5  415   2.499   3.935  12.872  0.0116 -0.1687 -0.5424
   27TMC2    C6  416   2.622   3.915  12.810 -0.2037  0.3402  0.5094
   27TMC2     C  417   2.273   3.864  12.590 -0.0036 -0.5330 -0.1863
   27TMC2     O  418   2.292   3.848  12.471  0.2623 -0.4940  0.7152
   27TMC2     H  419   2.511   3.846  12.489  1.8130  2.3597 -0.0148
   27TMC2    H1  420   2.290   3.963  12.845 -1.1367 -2.2092 -1.1990
   27TMC2    H2  421   2.716   3.896  12.859 -1.9360 -0.2228  3.5918
   27TMC2    C7  422   2.478   3.919  13.009 -0.1882  0.4672 -0.4080
   27TMC2    C8  423   2.757   3.888  12.617 -0.3732 -0.0577  0.0074
   27TMC2    O1  424   2.373   3.897  13.060 -0.2945  0.5812  0.2573
   27TMC2    O2  425   2.862   3.865  12.681  0.0468  0.2552 -0.2195
   27TMC2    O5  426   2.743   3.886  12.485  0.3365 -0.1206  0.7864
   27TMC2    H5  427   2.658   3.923  12.454  0.4015 -1.1576 -0.6636
   28MPD2     C  428   1.757   3.794  12.578  0.5763  0.0618  0.5226
   28MPD2    C1  429   1.795   3.796  12.706  0.0861  0.7960 -0.0140
   28MPD2    C2  430   1.935   3.806  12.734  0.2922  0.3172 -0.1335
   28MPD2    C3  431   2.029   3.827  12.635  0.0492  0.0134  0.5360
   28MPD2    C4  432   1.987   3.817  12.504 -0.2356 -0.2257 -0.7086
   28MPD2    C5  433   1.852   3.794  12.478  0.2782 -0.4202  0.0612
   28MPD2     H  434   1.957   3.830  12.837  0.6224  1.1728 -0.4036
   28MPD2    H1  435   2.064   3.822  12.428  0.4005 -2.7208 -0.2310
   28MPD2    H2  436   1.652   3.781  12.555  1.1963  0.1207 -2.3615
   28MPD2    H3  437   1.825   3.792  12.373 -3.6947  1.7935  1.0594
   28MPD2     N  438   2.162   3.856  12.671  0.0444  0.0123 -0.5355
   28MPD2    H5  439   2.181   3.858  12.770  1.4502  3.0248 -0.8598
   28MPD2    N1  440   1.697   3.788  12.806  0.3174 -0.0176 -0.4902
   28MPD2    H7  441   1.603   3.780  12.770 -0.8995  0.9014  2.5153
   29MPD2     C  442   2.128   0.743  14.685 -0.3567  0.0857 -0.7694
   29MPD2    C1  443   2.098   0.747  14.819  0.3146  0.2928 -0.1470
   29MPD2    C2  444   2.091   0.865  14.890 -0.0039  0.4438  0.0813
   29MPD2    C3  445   2.102   0.985  14.825 -0.4247  0.1822  0.4343
   29MPD2    C4  446   2.116   0.990  14.685 -0.1905  0.4186 -0.0525
   29MPD2    C5  447   2.120   0.865  14.618 -0.2835  0.2364 -0.1542
   29MPD2     H  448   2.060   0.877  14.993  1.2466 -2.8996  0.8394
   29MPD2    H1  449   2.113   1.082  14.627  0.0951  0.9649  0.8068
   29MPD2    H2  450   2.148   0.659  14.620  3.4498 -0.3681  0.9973
   29MPD2    H3  451   2.143   0.876  14.513 -1.2878  1.8474 -0.2081
   29MPD2     N  452   2.081   1.119  14.879  0.1685 -0.3846  0.3633
   29MPD2    H5  453   2.056   1.184  14.805  0.2267 -0.4643  0.2727
   29MPD2    N1  454   2.079   0.629  14.896  0.3642 -0.3488  0.2716
   29MPD2    H7  455   2.074   0.645  14.997  1.4635 -0.2556  0.3036
   30TCq2    C1  456   2.060   1.151  15.006  0.1056 -0.1184 -0.3284
   30TCq2    O2  457   2.075   1.086  15.110  0.1532 -0.0057  0.2387
   30TCq2    C2  458   2.027   1.289  15.022  0.1450  0.0301  0.3771
   30TCq2    C3  459   1.963   1.333  15.137 -0.5645 -0.3975 -0.2578
   30TCq2    C4  460   1.936   1.469  15.142  0.3074 -0.7762  0.1407
   30TCq2    C5  461   1.979   1.552  15.047  0.0424 -0.2821  0.5140
   30TCq2    C6  462   2.043   1.497  14.940  0.3244  0.4348 -0.3913
   30TCq2    C7  463   2.054   1.369  14.913  0.1052  0.0970  0.3128
   30TCq2    C8  464   2.066   1.583  14.830 -0.5918  0.1965 -0.0395
   30TCq2    O4  465   2.025   1.550  14.720  0.4858  0.7248 -0.0262
   30TCq2    C9  466   1.864   1.521  15.256 -0.3882  0.1462 -0.1029
   30TCq2    O5  467   1.821   1.428  15.329  0.1327 -0.5217 -0.8160
   30TCq2    O6  468   1.848   1.644  15.254 -0.2748 -0.1334  0.3882
   30TCq2    H2  469   1.930   1.267  15.216 -0.3148 -0.6848 -0.3925
   30TCq2    H3  470   1.953   1.656  15.065  1.0195 -0.1393  1.0698
   30TCq2    H4  471   2.116   1.336  14.830 -0.6412  2.3407 -1.1488
   31MPD2     C  472   0.233   0.002  14.610 -0.1401 -0.1567  0.4821
   31MPD2    C1  473   0.127   0.087  14.619 -0.3910  0.2612  0.6399
   31MPD2    C2  474   0.041   0.078  14.732 -0.1783  0.6000  0.5336
   31MPD2    C3  475   0.061   4.710  14.837  0.4166 -0.0457 -0.3043
   31MPD2    C4  476   0.172   4.627  14.827  0.1617  0.3415  0.1836
   31MPD2    C5  477   0.249   4.640  14.714 -0.0682 -1.4062 -0.0068
   31MPD2     H  478   4.681   0.144  14.748 -1.8184 -1.1159 -1.1586
   31MPD2    H1  479   0.195   4.561  14.909 -0.5379  1.5565  1.3519
   31MPD2    H2  480   0.303   4.721  14.528 -0.0676  0.8084  0.4792
   31MPD2    H3  481   0.327   4.565  14.706  0.9373 -0.4143  0.5930
   31MPD2     N  482   4.691   4.692  14.947 -0.4660 -0.3973 -0.2201
   31MPD2    H5  483   4.720   4.630  15.022  0.5994 -2.0022 -1.9531
   31MPD2    N1  484   0.109   0.177  14.512  0.6130 -0.8007  0.3914
   31MPD2    H7  485   0.179   0.176  14.438 -1.5857  4.3089 -1.7701
   32TCq2    C1  486   4.562   0.027  14.957  0.5404  0.4925  0.5246
   32TCq2    O2  487   4.508   0.077  14.859 -0.5737  0.0244  0.0954
   32TCq2    C2  488   4.488   0.033  15.087 -0.3325 -0.3793  0.2306
   32TCq2    C3  489   4.377   0.110  15.089 -0.4169  0.3408  0.3757
   32TCq2    C4  490   4.309   0.111  15.198  1.0581  0.3031  0.1936
   32TCq2    C5  491   4.335   0.038  15.313 -0.2007  0.5986 -0.0230
   32TCq2    C6  492   4.447   4.682  15.307  0.5750 -0.1129  0.4387
   32TCq2    C7  493   4.519   4.673  15.189 -0.3053 -0.3597  0.2033
   32TCq2    C8  494   4.483   4.607  15.427 -0.1338 -0.0729  0.3360
   32TCq2    O4  495   4.570   4.524  15.419  0.3280  0.3429 -0.0422
   32TCq2    C9  496   4.193   0.194  15.208  0.0083  0.1511 -0.3159
   32TCq2    O5  497   4.139   0.198  15.320  0.0103  0.2406  0.2327
   32TCq2    O6  498   4.157   0.268  15.117  0.3513  0.0061  0.1184
   32TCq2    H2  499   4.353   0.181  15.010  0.2063  0.2223  0.0781
   32TCq2    H3  500   4.267   0.038  15.397 -1.0405  0.3145 -0.7107
   32TCq2    H4  501   4.602   4.603  15.194  0.6610  0.7404 -0.2625
   33MPD2     C  502   4.463   1.737  10.208 -0.4411 -0.3995 -0.1689
   33MPD2    C1  503   4.368   1.786  10.298 -0.7182  0.3941 -0.1461
   33MPD2    C2  504   4.260   1.856  10.252  0.1530 -0.1278  0.1409
   33MPD2    C3  505   4.260   1.891  10.115  0.3105 -0.9053  0.7761
   33MPD2    C4  506   4.359   1.855  10.030  0.5585  0.4048  0.7932
   33MPD2    C5  507   4.460   1.770  10.073  0.5591  0.2565 -0.8921
   33MPD2     H  508   4.187   1.897  10.321 -1.5686 -0.2155 -1.6206
   33MPD2    H1  509   4.357   1.877   9.924  0.2056  1.1612  0.9542
   33MPD2    H2  510   4.538   1.664  10.236  1.1941  1.6222  0.8067
   33MPD2    H3  511   4.541   1.741  10.007  1.9235 -0.5379  1.1220
   33MPD2     N  512   4.162   1.973  10.054  0.6014  0.3545  0.1120
   33MPD2    H5  513   4.187   2.000   9.959  0.5687  0.9623  0.2779
   33MPD2    N1  514   4.381   1.771  10.438  0.2959  0.0657 -0.3773
   33MPD2    H7  515   4.306   1.805  10.497 -1.2208  0.1241 -2.3284
   34TCq2    C1  516   4.052   2.024  10.113 -0.0303  0.7048 -0.0569
   34TCq2    O2  517   3.990   1.975  10.205 -0.6344 -0.0037  0.7774
   34TCq2    C2  518   3.987   2.113  10.025  0.2480 -0.1811  0.2380
   34TCq2    C3  519   3.853   2.095  10.006  0.4817  0.2750 -0.2138
   34TCq2    C4  520   3.785   2.202   9.957  0.3406 -0.6090 -0.3981
   34TCq2    C5  521   3.842   2.324   9.934  0.1885  0.6909  0.2731
   34TCq2    C6  522   3.977   2.339   9.958  0.6471  0.0051 -0.0251
   34TCq2    C7  523   4.050   2.233  10.005  0.3748  0.2137  0.5447
   34TCq2    C8  524   4.033   2.469   9.953 -0.4624  0.1724  0.2801
   34TCq2    O4  525   4.136   2.490  10.013 -0.3835 -0.1556 -0.1422
   34TCq2    C9  526   3.635   2.193   9.942 -0.0911  0.4648  0.2975
   34TCq2    O5  527   3.586   2.080   9.954  0.3774  0.3056  0.1746
   34TCq2    O6  528   3.574   2.299   9.914  0.4458 -0.6231 -0.6457
   34TCq2    H2  529   3.806   2.004  10.042 -0.4213  0.3774 -1.1492
   34TCq2    H3  530   3.776   2.404   9.903 -2.0706 -0.7629  1.2281
   34TCq2    H4  531   4.156   2.247  10.019  0.4841  0.9410 -0.9664
   35MPD2     C  532   1.400   3.691  11.865 -0.2423 -0.2142  0.1907
   35MPD2    C1  533   1.271   3.703  11.905 -0.3041  0.0593 -0.7505
   35MPD2    C2  534   1.170   3.721  11.813  0.2322  0.5384 -0.1517
   35MPD2    C3  535   1.206   3.747  11.680  0.5859  0.0054  0.4614
   35MPD2    C4  536   1.338   3.747  11.642  0.2416  0.2973  1.0357
   35MPD2    C5  537   1.432   3.712  11.735  0.1194  0.1035 -0.1045
   35MPD2     H  538   1.069   3.715  11.851  0.1406 -1.3936 -0.7136
   35MPD2    H1  539   1.371   3.771  11.542 -0.0890  0.6679  1.0149
   35MPD2    H2  540   1.483   3.663  11.930  1.2803  3.9754  0.0333
   35MPD2    H3  541   1.536   3.696  11.710  0.1909 -2.4399  1.8764
   35MPD2     N  542   1.105   3.778  11.585 -0.7971  0.7840 -0.4091
   35MPD2    H5  543   1.144   3.790  11.492 -1.4616  2.7565 -0.4338
   35MPD2    N1  544   1.255   3.687  12.046 -0.1244 -0.2464 -0.4467
   35MPD2    H7  545   1.345   3.680  12.094 -0.5127 -0.0222  0.3142
   36TCq2    C1  546   0.970   3.782  11.603 -0.0904 -0.1447 -0.7723
   36TCq2    O2  547   0.901   3.726  11.684 -0.2307 -0.0882  0.4503
   36TCq2    C2  548   0.907   3.827  11.477 -0.8166  0.2106 -0.5653
   36TCq2    C3  549   0.982   3.888  11.384  0.1404 -0.7170  0.0705
   36TCq2    C4  550   0.930   3.898  11.254  0.7213 -0.0931 -0.7398
   36TCq2    C5  551   0.804   3.848  11.229  0.1931 -0.4246 -0.7999
   36TCq2    C6  552   0.729   3.804  11.332  0.0527 -0.4549  0.6872
   36TCq2    C7  553   0.776   3.796  11.456  1.0905 -0.4143  0.7979
   36TCq2    C8  554   0.611   3.724  11.304  0.8873 -0.4090  0.2758
   36TCq2    O4  555   0.598   3.626  11.378 -0.2609 -0.2586 -0.0746
   36TCq2    C9  556   1.008   3.968  11.154 -0.0689 -0.5356 -0.2417
   36TCq2    O5  557   1.091   4.048  11.206 -0.8236  0.2126  0.4522
   36TCq2    O6  558   0.991   3.932  11.034  0.1170 -0.9209  0.3814
   36TCq2    H2  559   1.079   3.933  11.397 -1.3475  1.9553  1.7529
   36TCq2    H3  560   0.768   3.845  11.127  2.0160 -0.2105 -1.4473
   36TCq2    H4  561   0.711   3.747  11.527 -0.3990  1.5336  0.7775
   37TMC2    C1  562   3.367   3.952  11.410  0.8023  0.0555  0.5059
   37TMC2    C2  563   3.369   3.910  11.283  0.1028  0.5988 -0.0075
   37TMC2    C3  564   3.496   3.876  11.226  0.9971 -0.2143 -0.3894
   37TMC2    C4  565   3.472   3.953  11.488 -0.4439  0.2881  0.4297
   37TMC2    C5  566   3.592   3.921  11.429 -0.1345  0.0995 -0.4710
   37TMC2    C6  567   3.614   3.881  11.299  0.5628  0.1656  0.2993
   37TMC2     C  568   3.238   4.001  11.466  0.1464  0.6010 -0.8645
   37TMC2     O  569   3.156   4.052  11.389 -0.8290  0.0461  0.6045
   37TMC2     H  570   3.280   3.898  11.223  0.0423 -1.0936  0.4197
   37TMC2    H1  571   3.477   3.994  11.588 -0.4571 -0.6105  0.7988
   37TMC2    H2  572   3.711   3.839  11.276  0.9301  0.9626  0.4004
   37TMC2    C7  573   3.703   3.923  11.525  0.0664 -0.1138 -0.8103
   37TMC2    C8  574   3.503   3.812  11.099  0.4313 -0.4839  0.6052
   37TMC2    O1  575   3.670   3.898  11.637  0.0673  1.1210 -0.2044
   37TMC2    O2  576   3.590   3.730  11.078 -0.2378 -0.4373  0.4374
   37TMC2    O5  577   3.400   3.839  11.019  0.3203 -0.4179  0.6171
   37TMC2    H5  578   3.366   3.929  11.034 -0.8968 -1.1879  2.4728
   38MPD2     C  579   3.000   4.179  11.893 -0.1560  0.9728  0.1693
   38MPD2    C1  580   3.097   4.087  11.923  0.2494  1.1134 -0.1799
   38MPD2    C2  581   3.163   4.021  11.824  0.7326  0.3264  0.0302
   38MPD2    C3  582   3.146   4.054  11.692 -0.6372 -0.2237 -0.5294
   38MPD2    C4  583   3.045   4.152  11.666  0.1027 -0.0887 -0.7553
   38MPD2    C5  584   2.975   4.208  11.761 -0.2896  0.6696  0.3625
   38MPD2     H  585   3.248   3.957  11.848  0.4288 -0.3541 -0.6719
   38MPD2    H1  586   3.028   4.178  11.562 -1.7463  0.1129 -0.4091
   38MPD2    H2  587   2.936   4.229  11.965  1.5236  2.2034  0.8299
   38MPD2    H3  588   2.898   4.280  11.734  0.1721 -0.0984 -2.9633
   38MPD2     N  589   3.239   3.996  11.605  0.1059  0.0657 -0.3684
   38MPD2    H5  590   3.318   3.944  11.640 -0.5125 -0.9426 -0.4608
   38MPD2    N1  591   3.128   4.053  12.054  0.0191 -0.3279  0.1482
   38MPD2    H7  592   3.213   4.001  12.071 -0.0607 -0.7466 -0.7473
   39MPD2     C  593   1.746   4.426   1.790 -0.6375  0.7975  1.1232
   39MPD2    C1  594   1.665   4.501   1.865 -0.1476  0.3351  0.6603
   39MPD2    C2  595   1.563   4.572   1.808 -0.4536  0.3505  0.3843
   39MPD2    C3  596   1.537   4.573   1.671 -0.6248  0.1546 -0.2763
   39MPD2    C4  597   1.613   4.491   1.594 -0.2334  0.1644  0.0320
   39MPD2    C5  598   1.725   4.429   1.656 -0.3325 -0.6600 -0.5118
   39MPD2     H  599   1.504   4.642   1.867 -1.1003  0.7498 -0.7427
   39MPD2    H1  600   1.595   4.483   1.488  0.4930  2.3620 -0.2579
   39MPD2    H2  601   1.831   4.381   1.840  1.4542 -0.0531 -3.2193
   39MPD2    H3  602   1.797   4.373   1.597  1.4748  1.3009 -0.1858
   39MPD2     N  603   1.430   4.644   1.614  0.2361  0.3501 -0.5135
   39MPD2    H5  604   1.411   4.625   1.516  1.1540  2.7335 -1.1470
   39MPD2    N1  605   1.693   4.503   2.008  0.3110 -0.1107 -0.3337
   39MPD2    H7  606   1.773   4.447   2.038  0.8685  0.3995 -0.8637
   40TCq2    C1  607   1.620   4.564   2.102  0.3503  0.3727  0.8551
   40TCq2    O2  608   1.508   4.611   2.090 -0.3220  0.5389 -1.0344
   40TCq2    C2  609   1.678   4.554   2.237  0.0074 -0.1789  0.7521
   40TCq2    C3  610   1.597   4.541   2.346  0.6234 -0.7316  0.3743
   40TCq2    C4  611   1.655   4.496   2.465 -0.0741  0.0363 -0.6073
   40TCq2    C5  612   1.790   4.511   2.483 -0.0625  0.5352 -0.1067
   40TCq2    C6  613   1.868   4.532   2.371 -0.8989 -0.5974  0.5413
   40TCq2    C7  614   1.813   4.546   2.250  0.1376 -0.2806 -0.0390
   40TCq2    C8  615   2.013   4.532   2.400  0.3137 -0.1278  0.0807
   40TCq2    O4  616   2.048   4.494   2.509  0.1536  0.5408 -0.1002
   40TCq2    C9  617   1.574   4.480   2.584 -0.3071 -0.1300 -0.5769
   40TCq2    O5  618   1.453   4.510   2.579  0.1167  0.4558 -0.9687
   40TCq2    O6  619   1.628   4.441   2.692 -0.3394 -0.9286 -0.3856
   40TCq2    H2  620   1.489   4.556   2.343  0.5154 -1.1163  2.7545
   40TCq2    H3  621   1.834   4.496   2.581 -2.1316  1.1025  0.9124
   40TCq2    H4  622   1.883   4.547   2.167  1.3628  1.1942  0.9882
   41TMC2    C1  623   0.437   3.917  13.913 -0.0094  1.0160  0.9913
   41TMC2    C2  624   0.314   3.957  13.949  0.1249 -0.1553 -0.5756
   41TMC2    C3  625   0.256   4.059  13.880 -0.3002  0.2694 -0.3489
   41TMC2    C4  626   0.502   3.962  13.795 -0.3851  0.1864 -0.6483
   41TMC2    C5  627   0.437   4.063  13.725 -0.8274 -0.3482 -0.5726
   41TMC2    C6  628   0.323   4.118  13.776  0.0592  0.0972 -0.4025
   41TMC2     C  629   0.527   3.853  14.005  0.0693 -0.1442  0.1024
   41TMC2     O  630   0.619   3.784  13.966 -0.0624  0.5230 -0.0824
   41TMC2     H  631   0.256   3.893  14.015 -0.9871  1.1461 -0.2824
   41TMC2    H1  632   0.608   3.946  13.780 -0.1579 -0.8715  2.0330
   41TMC2    H2  633   0.290   4.216  13.743  0.4086  0.4024  0.1601
   41TMC2    C7  634   0.520   4.157  13.656 -0.8396  0.9596 -0.0098
   41TMC2    C8  635   0.117   4.085  13.907 -0.4189 -0.2696 -0.0631
   41TMC2    O1  636   0.502   4.275  13.689 -0.1984 -0.0427  0.1065
   41TMC2    O2  637   0.066   4.022  13.999  0.0593 -0.0463 -0.0308
   41TMC2    O5  638   0.079   4.112  13.778 -0.7232 -0.5205 -0.6886
   41TMC2    H5  639   0.156   4.109  13.717 -0.3097 -3.3513  0.0131
   42MPD2     C  640   0.629   3.715  14.253 -0.0754 -0.4858 -0.5313
   42MPD2    C1  641   0.570   3.838  14.255 -0.5662 -0.4367 -0.6504
   42MPD2    C2  642   0.571   3.912  14.376 -0.3341  0.5905 -1.0667
   42MPD2    C3  643   0.647   3.864  14.485  0.0529 -0.1678  0.0090
   42MPD2    C4  644   0.704   3.741  14.479 -0.3183  0.4496 -0.4100
   42MPD2    C5  645   0.697   3.673  14.363 -0.0250 -0.0847 -0.0084
   42MPD2     H  646   0.529   4.011  14.363 -1.4357  0.3491  0.5269
   42MPD2    H1  647   0.762   3.707  14.564 -0.1249  3.3364  0.6044
   42MPD2    H2  648   0.637   3.649  14.167  0.2900  0.7894 -1.4596
   42MPD2    H3  649   0.737   3.573  14.350 -0.9055 -0.4400  0.0186
   42MPD2     N  650   0.642   3.922  14.619  0.1449 -0.1542 -0.2466
   42MPD2    H5  651   0.692   3.866  14.687 -0.6433 -1.6401 -0.8768
   42MPD2    N1  652   0.502   3.890  14.139 -0.3725 -0.2459 -0.4043
   42MPD2    H7  653   0.451   3.976  14.152 -1.9225 -0.9653 -1.6179
   43MPD2     C  654   1.870   0.635   1.179  0.4071  0.3702 -0.5552
   43MPD2    C1  655   1.961   0.534   1.209  0.1370  0.4115  0.1710
   43MPD2    C2  656   1.973   0.503   1.338  0.2259 -0.1131 -0.0127
   43MPD2    C3  657   1.892   0.558   1.439  0.0964 -0.2451  0.5339
   43MPD2    C4  658   1.800   0.654   1.408 -0.4414  0.5467  0.0752
   43MPD2    C5  659   1.791   0.699   1.281 -0.0224  0.0402 -0.1508
   43MPD2     H  660   2.056   0.439   1.362  0.0062  0.0193  1.1053
   43MPD2    H1  661   1.728   0.700   1.475 -0.5217  0.2178  0.2165
   43MPD2    H2  662   1.868   0.675   1.078  0.1566  1.3471 -0.1627
   43MPD2    H3  663   1.723   0.780   1.257  0.1444  0.6928  1.5240
   43MPD2     N  664   1.902   0.511   1.571  0.1727 -0.6716 -0.0459
   43MPD2    H5  665   1.867   0.576   1.642  0.7544  0.4813 -0.8214
   43MPD2    N1  666   2.053   0.470   1.117 -0.1757  0.0353 -0.5775
   43MPD2    H7  667   2.122   0.406   1.157  0.5293  0.2684 -1.4297
   44TCq2    C1  668   2.219   0.363   1.992 -0.3109  0.6864  0.2218
   44TCq2    O2  669   2.258   0.283   2.074  0.1841  0.3867 -0.5416
   44TCq2    C2  670   2.090   0.357   1.951 -0.1307  0.7579  0.6567
   44TCq2    C3  671   2.002   0.430   2.022  0.4657 -0.5127 -0.0859
   44TCq2    C4  672   1.892   0.485   1.955  0.5996  0.3651 -0.7917
   44TCq2    C5  673   1.876   0.468   1.824  0.1551  1.5698 -0.1027
   44TCq2    C6  674   1.959   0.385   1.759  0.5470 -0.5020 -0.4817
   44TCq2    C7  675   2.065   0.324   1.821  0.1421  0.4884 -0.7504
   44TCq2    C8  676   1.976   0.406   1.617 -0.1844  0.5273  0.7992
   44TCq2    O4  677   2.050   0.321   1.558 -0.4418 -0.1009 -0.1493
   44TCq2    C9  678   1.798   0.568   2.021 -0.0362  0.0855  0.2581
   44TCq2    O5  679   1.708   0.628   1.957  0.5795  0.3922  0.2982
   44TCq2    O6  680   1.818   0.574   2.144 -0.3557 -0.1308 -0.1475
   44TCq2    H2  681   2.018   0.457   2.125  0.4485  0.8875 -0.4475
   44TCq2    H3  682   1.786   0.505   1.776  0.3726 -0.3011 -1.9163
   44TCq2    H4  683   2.148   0.272   1.775  0.8991  2.5610 -1.7390
   45TMC2    C1  684   3.069   3.536   9.550  0.1082 -0.6523  0.2963
   45TMC2    C2  685   3.184   3.482   9.602 -0.1610 -0.0310 -0.3322
   45TMC2    C3  686   3.248   3.560   9.691  0.4267 -0.0085 -0.2510
   45TMC2    C4  687   3.001   3.653   9.591 -0.8590  0.0108  0.3024
   45TMC2    C5  688   3.070   3.719   9.692 -0.5187  0.4256  0.7787
   45TMC2    C6  689   3.191   3.675   9.741  0.7644  0.4322  0.7400
   45TMC2     C  690   3.010   3.449   9.449  0.5985 -0.0873  0.6149
   45TMC2     O  691   3.079   3.363   9.396  0.0289 -0.4536 -0.5102
   45TMC2     H  692   3.232   3.397   9.555  1.4018  0.3830  0.5286
   45TMC2    H1  693   2.909   3.689   9.546 -0.0018  1.0779 -0.6230
   45TMC2    H2  694   3.245   3.739   9.810 -0.1889  0.4342  1.4866
   45TMC2    C7  695   3.040   3.861   9.709  0.7364  0.2287  0.0019
   45TMC2    C8  696   3.352   3.510   9.776 -0.8601  0.0791  0.9713
   45TMC2    O1  697   2.963   3.907   9.622 -0.0968  0.3706 -0.1458
   45TMC2    O2  698   3.365   3.571   9.882 -0.1122  0.0661 -0.0254
   45TMC2    O5  699   3.325   3.377   9.768 -0.0022 -0.2741 -0.4204
   45TMC2    H5  700   3.381   3.344   9.695 -0.5167 -0.0228 -0.9252
   46MPD2     C  701   2.840   3.295   9.259 -0.1767 -0.0730  0.0980
   46MPD2    C1  702   2.791   3.383   9.354 -0.0071  0.6138  0.3530
   46MPD2    C2  703   2.657   3.410   9.357 -0.6185 -0.0213 -0.0142
   46MPD2    C3  704   2.566   3.333   9.290 -0.3274  0.1956  0.1250
   46MPD2    C4  705   2.616   3.232   9.217  0.6613 -0.0620 -0.1101
   46MPD2    C5  706   2.746   3.229   9.188  0.1251  0.8351 -0.0893
   46MPD2     H  707   2.618   3.490   9.418  1.6029 -1.4746  3.2858
   46MPD2    H1  708   2.553   3.168   9.157 -1.5024  0.8328  1.1935
   46MPD2    H2  709   2.945   3.274   9.240  0.1560 -0.2910  2.2684
   46MPD2    H3  710   2.791   3.159   9.119  0.0512 -0.4112  1.1344
   46MPD2     N  711   2.422   3.360   9.314  0.5647 -0.6523 -0.2650
   46MPD2    H5  712   2.401   3.439   9.375 -1.4849 -1.5526  0.1693
   46MPD2    N1  713   2.876   3.456   9.441 -0.4342  1.0438 -0.0266
   46MPD2    H7  714   2.829   3.497   9.521 -0.2641 -0.1756  0.6849
   47TMC2    C1  715   0.664   4.271   9.522 -0.6777 -0.0850  0.4121
   47TMC2    C2  716   0.692   4.177   9.424  0.4693 -0.2523 -0.3853
   47TMC2    C3  717   0.606   4.160   9.321 -0.0151  0.2149  1.0332
   47TMC2    C4  718   0.547   4.340   9.525 -0.4835  0.3369  0.1112
   47TMC2    C5  719   0.464   4.323   9.416 -0.1979 -0.3114 -0.6135
   47TMC2    C6  720   0.489   4.234   9.319 -0.5445  0.2958  0.3883
   47TMC2     C  721   0.746   4.283   9.643  0.1130  0.4192  0.1732
   47TMC2     O  722   0.719   4.367   9.728  0.0585  0.2515  0.1121
   47TMC2     H  723   0.786   4.122   9.425  0.1264 -0.8361 -0.0552
   47TMC2    H1  724   0.530   4.418   9.598  1.8878  1.2964 -0.3574
   47TMC2    H2  725   0.419   4.237   9.237  0.4925 -0.6104 -0.5357
   47TMC2    C7  726   0.351   4.406   9.400 -0.1600  0.6478 -0.5269
   47TMC2    C8  727   0.644   4.090   9.197  0.1075 -0.3198  0.1843
   47TMC2    O1  728   0.339   4.452   9.286 -0.0002 -0.1974 -0.0327
   47TMC2    O2  729   0.739   4.131   9.135  0.3097 -0.4430 -0.2923
   47TMC2    O5  730   0.533   4.054   9.131 -0.0812  0.4102 -0.2943
   47TMC2    H5  731   0.469   4.011   9.192  1.2708 -0.1720  0.7249
   48MPD2     C  732   0.893   4.203   9.892  0.7418  0.3753 -0.1327
   48MPD2    C1  733   0.863   4.121   9.788  0.0907 -0.0467 -0.0852
   48MPD2    C2  734   0.868   3.984   9.804  0.7374  0.5092  0.3801
   48MPD2    C3  735   0.888   3.931   9.927 -0.4557 -0.0596  0.8184
   48MPD2    C4  736   0.914   4.014  10.035 -0.2283 -0.6887 -0.0873
   48MPD2    C5  737   0.926   4.143  10.013  0.7310  0.3726 -0.0514
   48MPD2     H  738   0.826   3.926   9.723  0.9401  2.7637 -1.3481
   48MPD2    H1  739   0.918   3.970  10.134 -0.2875 -0.0900  0.1749
   48MPD2    H2  740   0.890   4.310   9.879 -1.3097  0.3218 -0.0626
   48MPD2    H3  741   0.946   4.201  10.103  4.5282  0.3799 -0.8815
   48MPD2     N  742   0.862   3.786   9.929  0.5139  0.3794  0.0252
   48MPD2    H5  743   0.850   3.732   9.843 -0.5231 -1.5711  1.4096
   48MPD2    N1  744   0.807   4.164   9.670 -0.0049 -0.0149  0.1779
   48MPD2    H7  745   0.768   4.088   9.615 -1.4697  1.2134 -0.4771
   49MPD2     C  746   3.016   1.591   9.920 -0.2190 -0.7826  0.4953
   49MPD2    C1  747   2.982   1.523  10.035  0.4259  0.3093  0.3070
   49MPD2    C2  748   3.031   1.566  10.157  0.2359 -0.0525 -0.3847
   49MPD2    C3  749   3.099   1.686  10.164  0.1113  0.3787  0.7565
   49MPD2    C4  750   3.128   1.756  10.053 -0.1769  0.5101  0.5147
   49MPD2    C5  751   3.077   1.713   9.934 -0.1218  0.1823 -0.3778
   49MPD2     H  752   3.011   1.503  10.243 -1.7453  0.3860 -0.5302
   49MPD2    H1  753   3.183   1.849  10.053  2.3088 -0.9790 -1.6435
   49MPD2    H2  754   2.976   1.560   9.824 -3.5803  2.5923  0.8160
   49MPD2    H3  755   3.093   1.770   9.843  2.3009 -0.1725 -0.1798
   49MPD2     N  756   3.143   1.739  10.286  0.6477 -0.3171 -0.3411
   49MPD2    H5  757   3.212   1.812  10.274  1.7819 -0.9546  2.3528
   49MPD2    N1  758   2.917   1.398  10.034  1.0502  0.1273 -0.8060
   49MPD2    H7  759   2.908   1.352  10.125 -0.3887  2.7166  0.3669
   50TCq2    C1  760   2.877   1.331   9.921 -0.0433 -0.1044  0.3726
   50TCq2    O2  761   2.868   1.376   9.812 -0.3852 -0.2039 -0.1836
   50TCq2    C2  762   2.851   1.191   9.948 -0.3856  0.8497 -0.8034
   50TCq2    C3  763   2.787   1.125   9.847 -0.4213 -0.1684  0.0543
   50TCq2    C4  764   2.794   0.990   9.838 -0.0406  0.2249  0.4511
   50TCq2    C5  765   2.863   0.927   9.936  0.3855 -0.2422 -0.7680
   50TCq2    C6  766   2.927   0.995  10.036 -0.0829  0.4069 -0.6979
   50TCq2    C7  767   2.927   1.130  10.043 -0.5377 -0.3873 -0.2230
   50TCq2    C8  768   2.983   0.920  10.155  0.1535  0.7062 -0.0695
   50TCq2    O4  769   3.029   0.981  10.250  0.0207  0.2249  0.5492
   50TCq2    C9  770   2.731   0.922   9.731 -0.2357  0.2881 -0.3709
   50TCq2    O5  771   2.681   0.985   9.634 -0.0273 -0.0128 -0.0662
   50TCq2    O6  772   2.746   0.796   9.738  0.7527 -0.4094 -0.1178
   50TCq2    H2  773   2.735   1.174   9.766 -0.5858  0.6740  0.6654
   50TCq2    H3  774   2.870   0.819   9.936  0.3422 -0.2469  1.2011
   50TCq2    H4  775   2.982   1.176  10.124 -1.9622  1.1776 -0.1529
   51MPD2     C  776   4.169   4.168   1.517  0.2658  0.1195 -0.4243
   51MPD2    C1  777   4.261   4.065   1.522 -0.2535 -0.2301 -0.1546
   51MPD2    C2  778   4.305   4.029   1.649 -0.2267  0.5941 -0.7362
   51MPD2    C3  779   4.275   4.108   1.761 -0.4981 -0.2871 -0.0529
   51MPD2    C4  780   4.200   4.224   1.745 -0.3275 -0.5041  0.1730
   51MPD2    C5  781   4.139   4.249   1.626 -0.1823  0.7040 -0.1059
   51MPD2     H  782   4.380   3.952   1.659 -0.4788  0.6548  1.7307
   51MPD2    H1  783   4.173   4.285   1.831 -2.6630 -1.4839  0.1317
   51MPD2    H2  784   4.145   4.211   1.420 -1.7509  0.7007  0.3309
   51MPD2    H3  785   4.066   4.328   1.622 -0.1127  0.8105  0.6746
   51MPD2     N  786   4.329   4.082   1.890 -0.3777  0.0352 -0.0307
   51MPD2    H5  787   4.325   4.161   1.952 -3.6331 -0.3056  0.1918
   51MPD2    N1  788   4.305   3.990   1.412 -0.4248 -0.2506  0.2912
   51MPD2    H7  789   4.353   3.905   1.439 -0.6294 -0.2012  0.8012
   52TCq2    C1  790   4.401   3.975   1.924  0.0508 -0.4424 -0.4928
   52TCq2    O2  791   4.429   3.877   1.859  0.0224 -0.1432  0.6941
   52TCq2    C2  792   4.464   3.987   2.056 -0.2596  0.3266  0.0427
   52TCq2    C3  793   4.571   3.906   2.072  0.4860 -0.2310 -0.6122
   52TCq2    C4  794   4.622   3.902   2.199  0.8264 -0.1653  0.0189
   52TCq2    C5  795   4.566   3.960   2.309 -0.2267 -1.2769 -0.0490
   52TCq2    C6  796   4.454   4.041   2.287  0.3838  0.2695  0.4204
   52TCq2    C7  797   4.405   4.059   2.157  0.1058 -0.9811  0.5389
   52TCq2    C8  798   4.413   4.135   2.390 -0.5433  0.5596 -0.3748
   52TCq2    O4  799   4.436   4.104   2.506  0.0232  1.1973  0.3076
   52TCq2    C9  800   0.015   3.816   2.215  0.2430 -0.4152  0.0870
   52TCq2    O5  801   0.090   3.844   2.313  0.3148  0.2211  0.1825
   52TCq2    O6  802   0.053   3.747   2.118 -0.6498 -0.4296  0.0721
   52TCq2    H2  803   4.616   3.860   1.985  1.7836 -0.1111 -0.0062
   52TCq2    H3  804   4.616   3.952   2.405 -0.2254  0.8845  0.1391
   52TCq2    H4  805   4.311   4.111   2.139  1.1706  0.3083 -1.2504
   53TMC2    C1  806   4.182   3.934  12.072 -0.3034 -0.2657 -0.7849
   53TMC2    C2  807   4.282   3.864  12.146  0.2668  0.4183  0.2157
   53TMC2    C3  808   4.255   3.867  12.280 -0.2205 -0.5738  0.5492
   53TMC2    C4  809   4.088   4.012  12.126  0.3088  0.1180  0.0246
   53TMC2    C5  810   4.080   4.025  12.265  0.3117  0.9596  0.1118
   53TMC2    C6  811   4.164   3.942  12.342  0.4922  0.3407 -0.7434
   53TMC2     C  812   4.199   3.932  11.930  0.0657 -1.3839 -0.1641
   53TMC2     O  813   4.311   3.905  11.885  0.4875  0.3100 -0.2988
   53TMC2     H  814   4.377   3.829  12.107 -0.4001 -0.4120 -0.6925
   53TMC2    H1  815   4.019   4.070  12.064 -0.4780  0.5470  1.3107
   53TMC2    H2  816   4.156   3.950  12.449 -1.5758 -0.5537 -0.8362
   53TMC2    C7  817   3.947   4.057  12.319  0.5810 -0.4032 -0.2011
   53TMC2    C8  818   4.368   3.843  12.366 -0.2864  0.2525  0.1249
   53TMC2    O1  819   3.877   4.106  12.231 -0.7072  0.0564 -0.1228
   53TMC2    O2  820   4.414   3.946  12.416  0.0571  0.1363  0.4963
   53TMC2    O5  821   4.439   3.747  12.307  0.8028 -0.4563  0.0561
   53TMC2    H5  822   4.386   3.668  12.279  0.6732  1.3935 -4.9793
   54MPD2     C  823   4.195   4.006  11.639  0.4450 -0.1863 -1.0472
   54MPD2    C1  824   4.086   3.971  11.720 -0.4458  0.2583 -0.2276
   54MPD2    C2  825   3.961   3.966  11.668  0.5518 -0.6549  0.1533
   54MPD2    C3  826   3.940   3.970  11.530  0.6950 -0.8589 -0.5411
   54MPD2    C4  827   4.052   4.005  11.450  0.0499  0.3101 -0.4969
   54MPD2    C5  828   4.175   4.018  11.502 -0.4222 -0.0576  0.1195
   54MPD2     H  829   3.877   3.939  11.730 -0.1866  1.5941  0.1252
   54MPD2    H1  830   4.038   4.029  11.346  1.9209  2.4001 -0.2672
   54MPD2    H2  831   4.297   4.015  11.677  0.1421 -3.0794  0.4529
   54MPD2    H3  832   4.259   4.049  11.439 -2.2062  0.7741 -1.8396
   54MPD2     N  833   3.823   3.949  11.462  0.0426 -1.0147  0.5958
   54MPD2    H5  834   3.834   3.952  11.361 -0.5618 -1.7487  0.5059
   54MPD2    N1  835   4.090   3.971  11.859  0.3956 -0.1660  0.1959
   54MPD2    H7  836   4.000   3.966  11.905 -0.5673 -1.2620 -1.8108
   55MPD2     C  837   0.141   1.077   0.286  1.0289 -0.6142 -0.3110
   55MPD2    C1  838   0.109   0.995   0.389  0.6404  0.1033 -0.1790
   55MPD2    C2  839   4.712   1.013   0.458 -0.1388  0.8310  0.5830
   55MPD2    C3  840   4.623   1.118   0.432  0.0303 -0.1841 -0.6105
   55MPD2    C4  841   4.670   1.212   0.348 -0.5553  0.2814 -0.2724
   55MPD2    C5  842   0.063   1.187   0.268 -0.8283  0.5396 -0.2705
   55MPD2     H  843   4.687   0.939   0.534 -1.0337  0.3108 -0.2242
   55MPD2    H1  844   4.613   1.301   0.324 -0.5260  0.5836  0.7761
   55MPD2    H2  845   0.213   1.041   0.213  1.4565 -1.5480  0.5788
   55MPD2    H3  846   0.077   1.256   0.185  0.6479  1.3612  0.6601
   55MPD2     N  847   4.493   1.120   0.492  0.3176  0.3556 -0.0018
   55MPD2    H5  848   4.477   1.032   0.541  1.4362 -0.0100 -0.2881
   55MPD2    N1  849   0.195   0.885   0.403 -0.0887 -0.1665  0.0447
   55MPD2    H7  850   0.275   0.873   0.341  1.3014  0.6769  1.6739
   56TCq2    C1  851   0.188   0.782   0.496  0.7028 -0.5823  0.1290
   56TCq2    O2  852   0.115   0.770   0.597 -0.1484  0.2964  0.0017
   56TCq2    C2  853   0.284   0.678   0.464  0.1439  0.0340  0.3964
   56TCq2    C3  854   0.344   0.671   0.337 -0.2114  0.3525 -0.4916
   56TCq2    C4  855   0.453   0.590   0.328 -0.3795 -0.0686 -0.3076
   56TCq2    C5  856   0.495   0.509   0.425 -0.8618 -0.8681  0.6147
   56TCq2    C6  857   0.422   0.510   0.541  0.1122  0.3507 -0.1429
   56TCq2    C7  858   0.316   0.595   0.570 -0.4712  0.2268  0.2088
   56TCq2    C8  859   0.449   0.395   0.630 -1.4703 -0.3177  0.1618
   56TCq2    O4  860   0.557   0.344   0.632 -0.1086  0.5191 -0.4836
   56TCq2    C9  861   0.529   0.598   0.209 -0.1950 -0.0858  0.3818
   56TCq2    O5  862   0.478   0.651   0.108 -0.5793  0.1449 -0.7234
   56TCq2    O6  863   0.641   0.535   0.206  0.2911  0.1654  0.5423
   56TCq2    H2  864   0.325   0.737   0.253 -0.5483 -2.3748 -2.5447
   56TCq2    H3  865   0.585   0.449   0.410 -0.7297 -0.8212  1.2255
   56TCq2    H4  866   0.274   0.606   0.669  0.1270  1.0313  0.3807
   57TMC2    C1  867   4.247   2.946  13.911  0.4515  0.9044 -0.0186
   57TMC2    C2  868   4.326   2.888  14.006 -0.0852  0.0855 -0.0580
   57TMC2    C3  869   4.455   2.850  13.968 -0.0787  0.1726 -0.4642
   57TMC2    C4  870   4.283   2.938  13.773 -0.5063  0.0505 -0.6838
   57TMC2    C5  871   4.414   2.898  13.744  0.7753 -0.3387 -0.2955
   57TMC2    C6  872   4.498   2.848  13.838  0.2401  0.2854 -0.2705
   57TMC2     C  873   4.117   3.001  13.951  0.1778  0.3856 -0.0630
   57TMC2     O  874   4.063   3.063  13.861  0.0126 -0.1931  0.8637
   57TMC2     H  875   4.322   2.895  14.114  2.1729  2.7427 -0.1402
   57TMC2    H1  876   4.220   2.992  13.704  1.3027  2.2374 -0.6264
   57TMC2    H2  877   4.601   2.825  13.815  0.1785 -0.1400 -0.1125
   57TMC2    C7  878   4.445   2.876  13.598  0.0702 -0.9608 -0.5107
   57TMC2    C8  879   4.551   2.872  14.073  0.3472  0.1222 -0.3872
   57TMC2    O1  880   4.564   2.876  13.566  0.0376  0.2234 -0.2317
   57TMC2    O2  881   4.535   2.961  14.155 -0.5735  0.0307  0.2847
   57TMC2    O5  882   4.649   2.779  14.074 -0.1348  0.0518  0.3174
   57TMC2    H5  883   4.628   2.704  14.015 -1.1499 -1.3938  2.5494
   58MPD2     C  884   3.713   3.076  14.269 -0.8526  0.0249  0.2757
   58MPD2    C1  885   3.751   3.129  14.149 -0.3848 -0.3863 -0.4664
   58MPD2    C2  886   3.866   3.093  14.084 -0.2499  0.2921  0.2863
   58MPD2    C3  887   3.957   3.007  14.144  0.1958  0.6405 -0.4379
   58MPD2    C4  888   3.917   2.959  14.263 -0.3084  0.4595  0.1322
   58MPD2    C5  889   3.801   2.988  14.330 -0.4165 -0.1753  0.4537
   58MPD2     H  890   3.888   3.131  13.985  1.9080 -1.7236 -0.0108
   58MPD2    H1  891   3.979   2.883  14.309 -0.4684  1.4279  1.9560
   58MPD2    H2  892   3.622   3.101  14.322 -0.6975  0.6538  0.2503
   58MPD2    H3  893   3.778   2.942  14.425  0.8578  1.0548  1.3717
   58MPD2     N  894   4.077   2.962  14.075 -0.3995 -0.0993 -0.1057
   58MPD2    H5  895   4.149   2.918  14.132 -1.1838 -0.5684  0.5288
   58MPD2    N1  896   3.667   3.212  14.078  0.2016 -0.2068 -0.2172
   58MPD2    H7  897   3.694   3.239  13.984  0.7908  0.3933  0.1252
   59MPD2     C  898   1.753   3.678  13.468  0.4705  0.3680 -0.3606
   59MPD2    C1  899   1.841   3.580  13.452 -0.3694  0.4787 -0.0715
   59MPD2    C2  900   1.967   3.603  13.509 -0.7474 -0.4598  1.3201
   59MPD2    C3  901   2.016   3.727  13.551 -0.7022 -0.1098  0.3766
   59MPD2    C4  902   1.923   3.827  13.549  0.3973  0.0033  0.0444
   59MPD2    C5  903   1.795   3.801  13.509 -0.3684  0.0652  0.4012
   59MPD2     H  904   2.038   3.520  13.507 -0.7876 -0.4309 -1.7442
   59MPD2    H1  905   1.949   3.927  13.584 -0.1870 -0.0915  0.7386
   59MPD2    H2  906   1.650   3.673  13.435 -0.1124 -0.9997  1.6659
   59MPD2    H3  907   1.725   3.884  13.502 -1.1543 -0.5381  1.0231
   59MPD2     N  908   2.148   3.751  13.598 -0.0383 -0.3100  0.9111
   59MPD2    H5  909   2.160   3.852  13.598  0.6900 -0.3832 -0.5441
   59MPD2    N1  910   1.815   3.457  13.383  0.0534  0.4357  0.7595
   59MPD2    H7  911   1.894   3.400  13.355  0.5972  1.9550 -0.7663
   60TCq2    C1  912   1.699   3.427  13.321 -0.8239  0.1886 -0.2815
   60TCq2    O2  913   1.594   3.488  13.315 -0.2290  0.1691  0.5337
   60TCq2    C2  914   1.705   3.304  13.242  0.1588 -0.3001  0.4092
   60TCq2    C3  915   1.767   3.185  13.288  0.2534 -0.6234  0.0107
   60TCq2    C4  916   1.789   3.083  13.202  0.4056 -0.7727  0.4220
   60TCq2    C5  917   1.748   3.098  13.072 -0.2098 -0.2777 -0.4045
   60TCq2    C6  918   1.697   3.212  13.025  0.4538 -0.1480  0.1277
   60TCq2    C7  919   1.674   3.317  13.107 -0.2574 -0.8389  0.2247
   60TCq2    C8  920   1.711   3.220  12.880 -0.1183 -0.6731 -0.4805
   60TCq2    O4  921   1.793   3.148  12.823 -0.2580  0.0051 -0.7042
   60TCq2    C9  922   1.856   2.965  13.256 -0.4270  0.5688  0.4204
   60TCq2    O5  923   1.917   2.891  13.172  0.6837  0.0389  1.0323
   60TCq2    O6  924   1.844   2.945  13.376 -0.4127  0.3310  0.4642
   60TCq2    H2  925   1.786   3.178  13.395  0.3614 -1.0277 -0.0374
   60TCq2    H3  926   1.761   3.012  13.007  1.1548 -0.8529  0.6280
   60TCq2    H4  927   1.642   3.414  13.070 -0.8672 -1.3317 -0.5456
   61MPD2     C  928   1.168   4.386  14.741  0.7325  1.1293 -0.2998
   61MPD2    C1  929   1.041   4.427  14.768 -0.0816  0.2381  0.3082
   61MPD2    C2  930   0.992   4.549  14.724  0.4132  0.8150 -0.1478
   61MPD2    C3  931   1.073   4.640  14.659  0.4404 -0.2475 -0.3714
   61MPD2    C4  932   1.205   4.598  14.636  0.2322 -0.1553  0.3060
   61MPD2    C5  933   1.248   4.467  14.666  0.1935 -0.0275 -0.8708
   61MPD2     H  934   0.890   4.582  14.735  0.5825  1.6093 -0.9532
   61MPD2    H1  935   1.274   4.655  14.576 -2.3824  2.8664  0.1359
   61MPD2    H2  936   1.201   4.284  14.749 -0.5528  0.8631  1.4614
   61MPD2    H3  937   1.341   4.430  14.624  1.8230  1.9452  0.9716
   61MPD2     N  938   1.025   0.042  14.623  0.2278 -0.2907 -0.4544
   61MPD2    H5  939   0.926   0.055  14.642  0.4265  2.3398 -1.2074
   61MPD2    N1  940   0.948   4.355  14.849 -0.5130  0.4568  0.0463
   61MPD2    H7  941   0.851   4.383  14.835 -0.4611  0.4291 -0.3742
   62TCq2    C1  942   0.977   4.270  14.955 -0.4108 -0.3070 -0.6126
   62TCq2    O2  943   1.083   4.206  14.961 -0.6422 -0.5598  0.1168
   62TCq2    C2  944   0.870   4.250  15.051  0.0373  0.1420 -0.3012
   62TCq2    C3  945   0.881   4.150  15.140 -0.2803 -0.0702  0.1810
   62TCq2    C4  946   0.813   4.171  15.262  0.2103  0.6048 -0.4814
   62TCq2    C5  947   0.754   4.286  15.294  0.2216 -0.1283 -0.1772
   62TCq2    C6  948   0.736   4.378  15.193 -0.2433  0.2777  0.3660
   62TCq2    C7  949   0.800   4.359  15.081  0.4233 -0.1878  0.3366
   62TCq2    C8  950   0.734   4.522  15.228 -0.5127  0.7794  0.2016
   62TCq2    O4  951   0.816   4.591  15.171 -0.0258 -0.3761  0.0402
   62TCq2    C9  952   0.821   4.066  15.355 -1.1740 -0.0926  0.5892
   62TCq2    O5  953   0.901   3.972  15.341 -0.4863  0.3275  0.1012
   62TCq2    O6  954   0.743   4.079  15.454 -0.1680 -0.1003 -0.7776
   62TCq2    H2  955   0.934   4.059  15.114 -0.5976 -0.0139 -0.6644
   62TCq2    H3  956   0.706   4.305  15.389 -1.4332 -1.7909 -0.6619
   62TCq2    H4  957   0.777   4.433  15.005  0.1800 -0.4156  0.1879
   63TMC2    C1  958   0.566   4.625  10.744  0.0896 -0.6774 -0.1663
   63TMC2    C2  959   0.644   4.712  10.813 -0.9765  0.0243 -0.5905
   63TMC2    C3  960   0.754   0.034  10.745  0.2658 -0.6729  0.2742
   63TMC2    C4  961   0.581   4.598  10.608  0.7795  0.2085 -0.0743
   63TMC2    C5  962   0.690   4.651  10.546  0.0804  0.0148  0.3464
   63TMC2    C6  963   0.780   0.006  10.614 -0.0664 -0.2988  0.2980
   63TMC2     C  964   0.460   4.569  10.810  1.0079 -0.0936  0.0327
   63TMC2     O  965   0.424   4.627  10.910 -0.3013  0.3569 -0.1636
   63TMC2     H  966   0.619   0.018  10.914 -0.7112 -0.9955 -0.2186
   63TMC2    H1  967   0.499   4.549  10.557  0.7139 -1.0546  1.2319
   63TMC2    H2  968   0.869   0.049  10.570 -1.7963  0.6192 -2.3340
   63TMC2    C7  969   0.676   4.669  10.402 -0.0169  0.3375 -0.8135
   63TMC2    C8  970   0.849   0.124  10.809 -0.1147 -0.4910  0.4020
   63TMC2    O1  971   0.573   4.631  10.359 -0.1454  0.2151 -0.3766
   63TMC2    O2  972   0.879   0.224  10.742 -0.6959 -0.3048 -0.4578
   63TMC2    O5  973   0.847   0.116  10.942 -0.9809  0.3728  0.0447
   63TMC2    H5  974   0.811   0.035  10.984 -2.9584  1.1964 -0.1020
   64MPD2     C  975   0.116   4.212  10.904  0.3409  1.0660  0.3102
   64MPD2    C1  976   0.216   4.156  10.827 -0.1621  0.3276 -0.2141
   64MPD2    C2  977   0.322   4.234  10.770  0.1465  0.4708  0.4592
   64MPD2    C3  978   0.323   4.372  10.799 -0.2465 -0.0798 -0.4101
   64MPD2    C4  979   0.220   4.424  10.879 -0.0106  0.1387  1.1879
   64MPD2    C5  980   0.120   4.344  10.920 -0.2960 -0.1237  0.2415
   64MPD2     H  981   0.393   4.188  10.703 -0.9021  0.3329 -0.5428
   64MPD2    H1  982   0.206   4.530  10.895 -3.0940 -0.0727 -0.1730
   64MPD2    H2  983   0.034   4.158  10.952  1.2152 -1.2699 -0.8269
   64MPD2    H3  984   0.042   4.399  10.971 -0.8682  0.0824 -0.8402
   64MPD2     N  985   0.437   4.448  10.761 -0.1063  0.3066 -0.0962
   64MPD2    H5  986   0.507   4.415  10.695 -2.4043 -1.4088 -1.7083
   64MPD2    N1  987   0.230   4.016  10.826  0.5994  0.3274 -0.0608
   64MPD2    H7  988   0.308   3.988  10.767  0.2305  0.2006 -0.4814
   65MPD2     C  989   1.655   3.788  15.846 -0.0460 -0.0437  0.6548
   65MPD2    C1  990   1.634   3.832  15.716 -0.2812 -0.0234 -0.0293
   65MPD2    C2  991   1.588   3.751  15.620  0.3637  0.4583  0.3119
   65MPD2    C3  992   1.563   3.616  15.653 -0.4650  0.2103 -0.2244
   65MPD2    C4  993   1.573   3.572  15.783 -0.5628 -0.0616 -0.5771
   65MPD2    C5  994   1.609   3.665  15.877 -0.0294  0.0088  0.3663
   65MPD2     H  995   1.571   3.791  15.521 -1.2343  1.6283  1.0564
   65MPD2    H1  996   1.549   3.471  15.815  0.1430 -0.2756 -0.7300
   65MPD2    H2  997   1.694   3.845  15.929  0.4935  1.5906 -0.7090
   65MPD2    H3  998   1.617   3.630  15.979 -0.6805  0.2892  0.5169
   65MPD2     N  999   1.525   3.524  15.554  0.4754  0.1003 -0.5635
   65MPD2    H5 1000   1.494   3.435  15.592  2.7383 -0.1518  0.7254
   65MPD2    N1 1001   1.676   3.960  15.672  1.0654 -0.0410 -0.0755
   65MPD2    H7 1002   1.651   3.985  15.577 -1.5575 -1.0301  0.3372
   66TCq2    C1 1003   1.729   4.062  15.756 -0.7148  0.6340  0.3871
   66TCq2    O2 1004   1.729   4.074  15.876 -0.7948  0.1427 -0.2157
   66TCq2    C2 1005   1.771   4.182  15.675 -1.0231 -0.0911  0.4375
   66TCq2    C3 1006   1.811   4.166  15.544  0.5326  0.4425 -0.3209
   66TCq2    C4 1007   1.837   4.280  15.472  0.2872 -0.0632  0.1717
   66TCq2    C5 1008   1.794   4.405  15.520  0.8087  0.0190 -0.1279
   66TCq2    C6 1009   1.762   4.415  15.653  0.2349  0.2060 -0.1194
   66TCq2    C7 1010   1.759   4.305  15.734 -0.0859  0.0202  0.2604
   66TCq2    C8 1011   1.747   4.544  15.717  0.3662  0.3697  0.2552
   66TCq2    O4 1012   1.788   4.640  15.651  0.3218 -0.1455  0.5245
   66TCq2    C9 1013   1.856   4.284  15.329  0.0352 -0.5162 -0.1975
   66TCq2    O5 1014   1.829   4.188  15.259 -0.0220 -0.3893  0.0895
   66TCq2    O6 1015   1.887   4.394  15.283  0.1908  0.1362 -0.7186
   66TCq2    H2 1016   1.829   4.071  15.496  1.1209  0.9438 -1.0977
   66TCq2    H3 1017   1.783   4.489  15.453  1.3579  1.3152  1.3966
   66TCq2    H4 1018   1.741   4.306  15.841 -1.6691 -1.7253  0.0086
   67MPD2     C 1019   1.520   3.225  13.843  0.5103 -0.3832 -0.9477
   67MPD2    C1 1020   1.467   3.319  13.933 -0.1549 -0.6408  0.8166
   67MPD2    C2 1021   1.338   3.369  13.925  0.1772 -0.3211 -0.0507
   67MPD2    C3 1022   1.243   3.308  13.841  0.8086  0.6424 -0.7244
   67MPD2    C4 1023   1.294   3.212  13.756 -0.3995 -0.4549  0.6582
   67MPD2    C5 1024   1.425   3.172  13.757 -0.0962  0.7396  0.5597
   67MPD2     H 1025   1.303   3.449  13.988 -1.1572 -0.8210 -0.1599
   67MPD2    H1 1026   1.231   3.160  13.685 -2.1694  0.1986  1.7564
   67MPD2    H2 1027   1.618   3.179  13.842  0.4006 -0.6249 -0.5715
   67MPD2    H3 1028   1.450   3.092  13.688 -0.2887 -0.0474  1.3889
   67MPD2     N 1029   1.108   3.338  13.839 -0.3647  0.2367  0.4305
   67MPD2    H5 1030   1.047   3.281  13.781  0.9760 -0.7167 -0.0276
   67MPD2    N1 1031   1.551   3.367  14.034  0.0731  0.2895 -0.7568
   67MPD2    H7 1032   1.505   3.437  14.092  1.9227 -0.4367  1.5643
   68TCq2    C1 1033   1.680   3.339  14.065 -0.1611  0.2978 -0.7773
   68TCq2    O2 1034   1.749   3.250  14.015  0.6579  0.1557  0.1427
   68TCq2    C2 1035   1.730   3.427  14.170 -0.1778 -0.0341  0.5030
   68TCq2    C3 1036   1.656   3.535  14.218  0.2859  0.2050  0.4929
   68TCq2    C4 1037   1.689   3.593  14.336 -0.6105 -0.0213 -0.1157
   68TCq2    C5 1038   1.800   3.555  14.405 -0.3621 -1.1117 -0.2772
   68TCq2    C6 1039   1.870   3.448  14.357 -0.4847  0.0032  0.1635
   68TCq2    C7 1040   1.839   3.377  14.237  0.3654 -0.4678 -0.1955
   68TCq2    C8 1041   1.974   3.397  14.445  1.0066  0.3397 -0.2916
   68TCq2    O4 1042   2.049   3.316  14.394  0.4327  0.1060  0.3518
   68TCq2    C9 1043   1.602   3.689  14.395 -0.5569  0.0109 -0.3060
   68TCq2    O5 1044   1.510   3.731  14.320 -0.2853 -0.1995  0.4798
   68TCq2    O6 1045   1.629   3.727  14.511  0.6027 -0.4509  0.2307
   68TCq2    H2 1046   1.573   3.568  14.157 -1.4234 -4.9072  0.0283
   68TCq2    H3 1047   1.826   3.603  14.498  0.2405 -0.3819 -0.8247
   68TCq2    H4 1048   1.896   3.290  14.206  2.2682  0.5835  0.3097
   69TMC2    C1 1049   3.821   4.336  12.967 -0.2692 -0.0156 -0.0833
   69TMC2    C2 1050   3.685   4.360  12.969 -0.2902  0.6170  0.5461
   69TMC2    C3 1051   3.646   4.451  12.868  0.1894  0.0693 -0.9119
   69TMC2    C4 1052   3.904   4.382  12.876  0.2766 -0.7139 -1.2071
   69TMC2    C5 1053   3.859   4.453  12.773 -0.0101 -0.6541 -0.0141
   69TMC2    C6 1054   3.729   4.490  12.767 -0.6130 -0.0503 -0.2245
   69TMC2     C 1055   3.857   4.214  13.039 -0.4525 -0.6545 -0.5287
   69TMC2     O 1056   3.771   4.134  13.074 -0.2566  0.2329 -0.0570
   69TMC2     H 1057   3.621   4.313  13.043  1.2469 -1.7850  0.3475
   69TMC2    H1 1058   4.008   4.354  12.875  0.5965  0.4307 -0.4852
   69TMC2    H2 1059   3.681   4.546  12.688  2.0716  1.3219 -0.8633
   69TMC2    C7 1060   3.937   4.453  12.653  1.0297 -1.1231  0.4638
   69TMC2    C8 1061   3.510   4.499  12.853  0.2872 -0.3976 -0.7470
   69TMC2    O1 1062   4.057   4.416  12.657  0.4515 -0.5040 -0.0686
   69TMC2    O2 1063   3.471   4.561  12.755 -0.6297 -0.4361 -0.2246
   69TMC2    O5 1064   3.435   4.445  12.963  0.6623 -0.4949  0.3245
   69TMC2    H5 1065   3.495   4.428  13.039 -0.0451  1.6141  1.3467
   70MPD2     C 1066   4.201   4.125  13.135  0.1613 -0.3667  0.0097
   70MPD2    C1 1067   4.065   4.096  13.120  0.6861  0.6566 -0.4880
   70MPD2    C2 1068   4.001   3.970  13.148  0.6452  0.3159  0.1608
   70MPD2    C3 1069   4.082   3.871  13.195 -1.3482  0.0635  0.7977
   70MPD2    C4 1070   4.209   3.904  13.229  0.0801 -0.0255  0.3542
   70MPD2    C5 1071   4.270   4.023  13.192  0.6460  0.3114 -0.0040
   70MPD2     H 1072   3.897   3.948  13.125  0.1423  2.1501  0.7485
   70MPD2    H1 1073   4.280   3.831  13.266  1.4306 -0.5044 -3.1648
   70MPD2    H2 1074   4.242   4.218  13.099 -2.3880  0.7976  0.0713
   70MPD2    H3 1075   4.377   4.032  13.204  0.6828  0.4273 -0.4073
   70MPD2     N 1076   4.042   3.732  13.214 -0.0465 -0.7643 -0.6982
   70MPD2    H5 1077   4.111   3.682  13.269  0.4417  0.2601 -0.3651
   70MPD2    N1 1078   3.990   4.211  13.071 -0.7681 -0.1292  0.0958
   70MPD2    H7 1079   4.047   4.290  13.044  0.8409 -0.8687  1.2521
   71TMC2    C1 1080   1.527   4.200   2.098 -0.2362 -0.5527  0.2836
   71TMC2    C2 1081   1.577   4.162   2.219  0.0881  0.5576  0.2891
   71TMC2    C3 1082   1.497   4.191   2.326  0.9052 -0.2933  0.0306
   71TMC2    C4 1083   1.407   4.267   2.079 -0.9452 -0.3603  0.0617
   71TMC2    C5 1084   1.331   4.286   2.191  0.0511  0.3029 -0.5511
   71TMC2    C6 1085   1.374   4.254   2.319 -0.1309 -0.3036 -0.3378
   71TMC2     C 1086   1.571   4.120   1.992  0.1975 -0.2195  0.2559
   71TMC2     O 1087   1.653   4.035   2.003 -0.3632 -0.0388 -0.3340
   71TMC2     H 1088   1.670   4.107   2.214 -0.0146  0.3482  0.6404
   71TMC2    H1 1089   1.362   4.291   1.983  0.6993 -0.9424 -0.8542
   71TMC2    H2 1090   1.322   4.269   2.412  2.3019  0.1799  0.9465
   71TMC2    C7 1091   1.197   4.347   2.192 -0.5011  0.2185 -0.6022
   71TMC2    C8 1092   1.531   4.141   2.456 -0.5857 -0.4635 -0.1924
   71TMC2    O1 1093   1.159   4.409   2.291 -0.2191 -0.1826  0.2426
   71TMC2    O2 1094   1.458   4.068   2.520  0.3560 -0.0631 -0.3022
   71TMC2    O5 1095   1.662   4.122   2.449  0.5687  0.4795 -0.4747
   71TMC2    H5 1096   1.713   4.181   2.390  0.4578 -0.7621 -1.8200
   72MPD2     C 1097   1.514   3.964   1.501 -0.5742 -0.2313 -0.1438
   72MPD2    C1 1098   1.488   4.097   1.502 -0.6691  0.6211 -0.4700
   72MPD2    C2 1099   1.492   4.157   1.631 -0.4085 -0.4216 -0.4340
   72MPD2    C3 1100   1.530   4.087   1.747 -0.3210  0.2612 -0.0759
   72MPD2    C4 1101   1.557   3.952   1.731  0.2712  0.0813 -0.3920
   72MPD2    C5 1102   1.556   3.897   1.610 -0.7313 -0.2775 -0.1066
   72MPD2     H 1103   1.461   4.260   1.646  1.1055  0.0854 -0.8437
   72MPD2    H1 1104   1.591   3.899   1.819 -0.4308  0.1530 -0.0812
   72MPD2    H2 1105   1.515   3.908   1.408  0.6722  2.7752 -1.9195
   72MPD2    H3 1106   1.591   3.795   1.604 -1.1636 -0.3928 -0.6776
   72MPD2     N 1107   1.525   4.157   1.866 -0.4438 -0.1883 -0.4144
   72MPD2    H5 1108   1.482   4.249   1.854 -0.1055  0.0674  0.3066
   72MPD2    N1 1109   1.444   4.171   1.390  0.6370  0.1018  0.2704
   72MPD2    H7 1110   1.434   4.271   1.404 -0.1297 -0.2104  2.0732
   73TMC2    C1 1111   1.456   2.064  14.092  0.7255 -1.1502  0.6085
   73TMC2    C2 1112   1.420   2.110  14.214 -1.1066 -0.1204 -0.1806
   73TMC2    C3 1113   1.518   2.165  14.296  0.3752  0.0040 -0.0374
   73TMC2    C4 1114   1.588   2.040  14.058 -0.4395 -0.2035 -0.2347
   73TMC2    C5 1115   1.676   2.113  14.137  0.3353  0.7783  0.1977
   73TMC2    C6 1116   1.648   2.163  14.261 -0.3654  0.5013  0.0661
   73TMC2     C 1117   1.376   2.104  13.980 -0.2431 -0.5561  0.3881
   73TMC2     O 1118   1.443   2.133  13.881 -0.3706 -1.2169 -0.0617
   73TMC2     H 1119   1.320   2.140  14.243 -0.7506 -0.0788  0.9928
   73TMC2    H1 1120   1.618   1.994  13.965  0.4383  0.2509 -0.1751
   73TMC2    H2 1121   1.715   2.235  14.309 -2.3199  0.8591  2.2423
   73TMC2    C7 1122   1.747   2.222  14.060  0.4438  0.1230 -0.0890
   73TMC2    C8 1123   1.474   2.275  14.384 -0.9000 -0.5337 -0.4832
   73TMC2    O1 1124   1.835   2.283  14.120  0.1400 -0.0622 -0.1621
   73TMC2    O2 1125   1.543   2.375  14.402  0.0821 -0.6131  0.1679
   73TMC2    O5 1126   1.401   2.213  14.480  0.5214  0.0816  0.8333
   73TMC2    H5 1127   1.372   2.119  14.481 -2.5058  1.0253  1.5070
   74MPD2     C 1128   0.955   2.221  13.707  0.4635  0.9106 -0.1289
   74MPD2    C1 1129   1.088   2.241  13.682  0.4340 -0.2635  0.3013
   74MPD2    C2 1130   1.185   2.196  13.774 -0.3040  0.0317 -0.0921
   74MPD2    C3 1131   1.144   2.143  13.896  0.2413 -0.6064  0.3409
   74MPD2    C4 1132   1.011   2.121  13.911  0.2955  0.4228  0.3494
   74MPD2    C5 1133   0.918   2.159  13.828  0.0846  0.6423  0.7244
   74MPD2     H 1134   1.290   2.208  13.750  0.2626 -1.3105  1.7554
   74MPD2    H1 1135   0.973   2.068  13.998 -0.2761  1.7535  0.9004
   74MPD2    H2 1136   0.876   2.262  13.645  0.3064  1.1762  0.2521
   74MPD2    H3 1137   0.815   2.142  13.856  0.2606 -0.4290  0.7089
   74MPD2     N 1138   1.241   2.101  13.996  0.0054  0.5842 -0.6473
   74MPD2    H5 1139   1.201   2.077  14.086 -2.0483  0.6732 -1.5523
   74MPD2    N1 1140   1.114   2.307  13.559 -0.3839 -0.0079  0.0651
   74MPD2    H7 1141   1.034   2.310  13.496 -0.3235 -0.4574 -0.0293
   75TCq2    C1 1142   1.052   3.434  13.923  0.8684  0.1488  0.7747
   75TCq2    O2 1143   1.097   3.499  14.011  0.4868 -0.2337  0.7043
   75TCq2    C2 1144   0.912   3.439  13.909 -0.0169  0.3908 -0.1951
   75TCq2    C3 1145   0.832   3.397  14.013 -0.0481 -0.0538 -0.6455
   75TCq2    C4 1146   0.698   3.389  13.993 -0.0149 -0.3723 -0.0701
   75TCq2    C5 1147   0.647   3.428  13.871 -0.5439  0.1310 -0.7890
   75TCq2    C6 1148   0.733   3.479  13.776 -0.6442  0.1080 -0.0472
   75TCq2    C7 1149   0.869   3.478  13.788 -0.1822  0.4735  1.1841
   75TCq2    C8 1150   0.678   3.542  13.668  0.7478  0.7594  0.1498
   75TCq2    O4 1151   0.751   3.541  13.566 -0.0699  0.1260  0.2662
   75TCq2    C9 1152   0.607   3.343  14.097 -0.4685  0.4063 -0.0482
   75TCq2    O5 1153   0.481   3.356  14.072 -0.3061 -0.5884  0.0008
   75TCq2    O6 1154   0.659   3.290  14.201 -0.1736 -0.9021 -0.1424
   75TCq2    H2 1155   0.877   3.364  14.107  0.0747  1.2942 -0.2275
   75TCq2    H3 1156   0.540   3.411  13.864 -0.7154  0.9909 -0.3550
   75TCq2    H4 1157   0.934   3.519  13.711 -0.5757  0.7461  0.9971
   76MPD2     C 1158   0.309   4.208  12.239  0.1663 -0.7916 -0.2414
   76MPD2    C1 1159   0.220   4.120  12.190 -0.5061  0.1317  0.4416
   76MPD2    C2 1160   0.249   3.985  12.168  0.2959 -0.9089  0.5818
   76MPD2    C3 1161   0.378   3.944  12.205 -0.2229 -0.9191  0.2996
   76MPD2    C4 1162   0.463   4.035  12.258  0.3493 -0.0892 -0.0672
   76MPD2    C5 1163   0.429   4.157  12.283 -0.0615  0.1133 -0.2063
   76MPD2     H 1164   0.182   3.909  12.129  0.5940 -1.1377  0.5223
   76MPD2    H1 1165   0.558   3.994  12.291 -0.0300 -0.6712  0.3058
   76MPD2    H2 1166   0.280   4.306  12.275 -0.0866 -0.1152 -2.2774
   76MPD2    H3 1167   0.496   4.229  12.328 -0.2436 -0.2262  0.6018
   76MPD2     N 1168   0.438   3.827  12.167  0.0417 -0.2058 -0.1523
   76MPD2    H5 1169   0.534   3.808  12.194 -0.0247  0.1964  0.3675
   76MPD2    N1 1170   0.090   4.154  12.162  0.4075 -0.0950 -0.0291
   76MPD2    H7 1171   0.023   4.086  12.128  1.1787  0.0526 -1.8763
   77TCq2    C1 1172   0.398   3.740  12.068  0.1050 -0.2923 -0.0941
   77TCq2    O2 1173   0.306   3.756  11.992  0.5728  0.3467  0.7128
   77TCq2    C2 1174   0.483   3.624  12.048  0.3715  0.1428 -0.2909
   77TCq2    C3 1175   0.448   3.546  11.939  0.2078 -0.2045 -0.1580
   77TCq2    C4 1176   0.512   3.427  11.933 -0.7480 -0.1794  0.6733
   77TCq2    C5 1177   0.606   3.388  12.021  0.6335  0.6918 -0.7441
   77TCq2    C6 1178   0.643   3.469  12.124 -0.4245 -0.5134  0.2388
   77TCq2    C7 1179   0.580   3.589  12.141 -0.4889 -0.0233  0.0810
   77TCq2    C8 1180   0.766   3.429  12.192 -0.5090 -0.5397  0.7035
   77TCq2    O4 1181   0.816   3.318  12.181 -0.3018  0.6291 -0.1733
   77TCq2    C9 1182   0.495   3.353  11.813  0.3408  0.6626 -0.0473
   77TCq2    O5 1183   0.407   3.390  11.732 -1.0925 -0.3526  0.4828
   77TCq2    O6 1184   0.564   3.244  11.807 -0.1482 -0.7374  0.4668
   77TCq2    H2 1185   0.384   3.575  11.856 -0.1500  1.2960  0.6463
   77TCq2    H3 1186   0.661   3.295  12.011 -0.1717  0.1818 -0.4663
   77TCq2    H4 1187   0.598   3.652  12.227 -0.9601 -0.5875  0.5936
   78MPD1     C 1188   2.562   1.733   1.418  0.3563  0.1790  0.1081
   78MPD1    C1 1189   2.605   1.845   1.482  0.3044  0.4388  0.2644
   78MPD1    C2 1190   2.739   1.851   1.522 -0.5253  0.5380 -0.0452
   78MPD1    C3 1191   2.822   1.739   1.517 -0.4499 -0.0618  0.5870
   78MPD1    C4 1192   2.767   1.616   1.477  0.6032 -0.2782 -0.5555
   78MPD1    C5 1193   2.637   1.613   1.429  0.2885 -0.2497 -0.1250
   78MPD1     H 1194   2.772   1.944   1.566 -1.1976  0.0234  1.5517
   78MPD1    H1 1195   2.819   1.520   1.484  0.5580 -0.3747 -1.5056
   78MPD1    H2 1196   2.470   1.723   1.362  1.3650 -2.6141 -1.0854
   78MPD1    H3 1197   2.594   1.522   1.390  1.5859 -0.7495 -0.3990
   78MPD1     N 1198   2.952   1.734   1.580 -0.2862  0.1757 -0.4055
   78MPD1    H5 1199   2.993   1.643   1.598  0.1279  0.4799  0.2126
   78MPD1    N1 1200   2.522   1.957   1.482 -0.1266 -0.0954  0.1611
   78MPD1    H6 1201   2.567   2.037   1.527  0.2912 -0.0078 -0.4216
   78MPD1    H7 1202   2.431   1.933   1.521  0.1444 -0.5524  0.5164
   79TCq2    C1 1203   3.019   1.839   1.637 -0.4705  0.4319 -0.9833
   79TCq2    O2 1204   2.991   1.959   1.636 -0.0230  0.0015 -0.0221
   79TCq2    C2 1205   3.147   1.798   1.688 -0.8396  0.3297 -0.0772
   79TCq2    C3 1206   3.180   1.664   1.693  0.1003 -0.2404  0.6937
   79TCq2    C4 1207   3.315   1.642   1.719  0.1251 -1.0199  0.3102
   79TCq2    C5 1208   3.410   1.736   1.747 -0.0756  0.5293 -0.2164
   79TCq2    C6 1209   3.360   1.862   1.770  0.3514  0.3721  0.1704
   79TCq2    C7 1210   3.231   1.898   1.730  0.3555 -0.4618 -1.0462
   79TCq2    C8 1211   3.451   1.975   1.808 -0.3732 -0.3333  0.3242
   79TCq2    O4 1212   3.393   2.080   1.829  0.2143  0.0782  0.5040
   79TCq2    C9 1213   3.369   1.504   1.704 -0.1641 -0.7789 -0.0357
   79TCq2    O5 1214   3.286   1.415   1.675  0.3216  0.2602 -0.0225
   79TCq2    O6 1215   3.494   1.492   1.704  0.9186  0.0890 -0.3920
   79TCq2    H2 1216   3.127   1.577   1.656 -0.7350  0.2844  0.6583
   79TCq2    H3 1217   3.510   1.714   1.784 -1.0415 -2.6697  0.5337
   79TCq2    H4 1218   3.197   1.999   1.751  0.9456 -0.3647 -0.5529
   80MPD2     C 1219   3.874   3.642  12.289  0.4681 -0.2267  0.1191
   80MPD2    C1 1220   3.814   3.716  12.193 -0.1258  0.4983  0.5164
   80MPD2    C2 1221   3.699   3.782  12.226 -0.0400 -0.2993 -0.6415
   80MPD2    C3 1222   3.650   3.787  12.353 -0.8268  0.8493  0.7684
   80MPD2    C4 1223   3.714   3.719  12.450 -0.1662  0.2993  0.0834
   80MPD2    C5 1224   3.828   3.646  12.423 -0.1030  0.1095 -0.3359
   80MPD2     H 1225   3.651   3.833  12.143 -0.4931  0.7344  0.2544
   80MPD2    H1 1226   3.691   3.722  12.556  0.6284 -0.8302  0.2967
   80MPD2    H2 1227   3.961   3.580  12.267 -0.8362 -1.5074 -1.4873
   80MPD2    H3 1228   3.876   3.602  12.509  0.3492  0.2127 -0.5352
   80MPD2     N 1229   3.538   3.855  12.397  0.0325  0.0731 -0.3288
   80MPD2    H5 1230   3.509   3.836  12.492  0.1289 -0.9385 -0.4945
   80MPD2    N1 1231   3.846   3.708  12.056 -0.0478 -0.2305 -0.0501
   80MPD2    H7 1232   3.783   3.756  11.992 -0.7862 -1.6726 -0.4042
   81TCq2    C1 1233   3.960   3.646  12.006 -0.7901 -0.8311 -1.0999
   81TCq2    O2 1234   4.058   3.600  12.064 -0.4818 -0.5437 -0.3336
   81TCq2    C2 1235   3.944   3.627  11.857  0.2407 -0.2556  0.0317
   81TCq2    C3 1236   4.056   3.631  11.782  0.1844 -0.0524 -0.2372
   81TCq2    C4 1237   4.042   3.609  11.646  0.2824  0.4467  0.2293
   81TCq2    C5 1238   3.914   3.600  11.595  0.1039  0.3289  0.0761
   81TCq2    C6 1239   3.808   3.586  11.673  0.4329  0.6686 -0.1758
   81TCq2    C7 1240   3.822   3.600  11.806 -0.1227 -0.2898 -0.8359
   81TCq2    C8 1241   3.685   3.555  11.609  0.0453  0.1086 -0.3791
   81TCq2    O4 1242   3.658   3.592  11.493 -0.2258 -0.3491  0.3735
   81TCq2    C9 1243   4.159   3.602  11.561 -0.3024  0.3831 -0.6196
   81TCq2    O5 1244   4.268   3.621  11.623  0.0488  0.5264  0.4493
   81TCq2    O6 1245   4.143   3.574  11.446 -0.3110  0.2933  0.2721
   81TCq2    H2 1246   4.154   3.635  11.828  0.1567  1.2064 -0.2947
   81TCq2    H3 1247   3.908   3.584  11.488  3.0446  0.8291 -0.1622
   81TCq2    H4 1248   3.732   3.612  11.865  0.6908  2.6302 -0.1705
   82MPD2     C 1249   1.984   3.542  10.367 -0.0551 -0.2566  0.3266
   82MPD2    C1 1250   1.940   3.467  10.265  0.2719 -0.0403 -0.2074
   82MPD2    C2 1251   2.017   3.362  10.220 -0.4008  0.6814  0.3079
   82MPD2    C3 1252   2.142   3.341  10.279 -0.7863  0.5564  0.3491
   82MPD2    C4 1253   2.182   3.415  10.382 -0.3950 -1.2416 -0.2608
   82MPD2    C5 1254   2.105   3.521  10.430 -1.0742 -0.2153  0.2257
   82MPD2     H 1255   1.989   3.299  10.137 -0.3451  1.2843 -0.1673
   82MPD2    H1 1256   2.279   3.396  10.425  0.5505  3.4204 -0.2935
   82MPD2    H2 1257   1.932   3.635  10.389  1.6041  1.1516 -1.6168
   82MPD2    H3 1258   2.149   3.587  10.503  1.8701  0.3398 -2.0603
   82MPD2     N 1259   2.219   3.230  10.231  0.3874  0.5280 -0.8080
   82MPD2    H5 1260   2.303   3.208  10.284 -1.4429 -0.7037  1.5949
   82MPD2    N1 1261   1.820   3.503  10.208  0.1500 -0.2337  0.0438
   82MPD2    H7 1262   1.774   3.583  10.249  1.0664  0.7028 -0.7605
   83TCq2    C1 1263   2.186   3.150  10.123  0.1395  0.1046 -0.3440
   83TCq2    O2 1264   2.109   3.166  10.030 -0.9086  0.3082 -0.0817
   83TCq2    C2 1265   2.256   3.024  10.128  0.8892  0.1534 -0.9800
   83TCq2    C3 1266   2.380   3.018  10.182 -0.4885 -0.2389 -0.0930
   83TCq2    C4 1267   2.426   2.901  10.224  0.5045  0.4388 -0.2896
   83TCq2    C5 1268   2.352   2.790  10.226  0.4489 -0.5650 -0.1863
   83TCq2    C6 1269   2.229   2.796  10.182  0.3162  0.7121  0.0143
   83TCq2    C7 1270   2.177   2.908  10.122 -0.4300 -1.1218  0.2842
   83TCq2    C8 1271   2.153   2.674  10.191 -0.9976  0.0971  0.0895
   83TCq2    O4 1272   2.065   2.654  10.107  0.0663  0.3470 -0.4510
   83TCq2    C9 1273   2.559   2.893  10.272  0.2988 -0.6816  0.5750
   83TCq2    O5 1274   2.638   2.980  10.230  0.5706  0.5608  0.8190
   83TCq2    O6 1275   2.584   2.790  10.343 -0.0907 -0.4538  0.0405
   83TCq2    H2 1276   2.449   3.102  10.186 -1.1542  0.3262 -0.4507
   83TCq2    H3 1277   2.402   2.695  10.244  2.1327  0.7293  1.8575
   83TCq2    H4 1278   2.078   2.913  10.078 -1.2075  1.5768  2.3090
   84TCq2    C1 1279   3.108   1.681  10.411 -0.1901  0.0388 -0.0219
   84TCq2    O2 1280   3.017   1.609  10.451  0.4601 -0.0113 -0.1394
   84TCq2    C2 1281   3.195   1.738  10.517 -0.0511 -0.2810  0.0364
   84TCq2    C3 1282   3.301   1.822  10.488 -0.4958  0.0177  0.4995
   84TCq2    C4 1283   3.367   1.878  10.596  0.8033 -0.4471  0.2259
   84TCq2    C5 1284   3.335   1.838  10.725 -0.4583 -0.8918  0.4253
   84TCq2    C6 1285   3.231   1.752  10.752  0.0312  0.1205  0.3406
   84TCq2    C7 1286   3.157   1.702  10.642 -0.5786  0.3090 -0.3710
   84TCq2    C8 1287   3.226   1.688  10.877 -0.3708 -0.3183 -0.5132
   84TCq2    O4 1288   3.120   1.662  10.932 -0.4584 -0.6135 -0.3440
   84TCq2    C9 1289   3.493   1.952  10.574 -0.0747 -0.5901 -0.0455
   84TCq2    O5 1290   3.522   1.993  10.460 -0.0229  0.0130 -0.1545
   84TCq2    O6 1291   3.569   1.972  10.675 -0.1866 -0.1177  0.6652
   84TCq2    H2 1292   3.340   1.847  10.390 -0.7105  0.0627  0.4263
   84TCq2    H3 1293   3.391   1.882  10.806  1.6144 -3.3429  0.3645
   84TCq2    H4 1294   3.074   1.638  10.671  0.4189 -0.7871  0.0532
   85MPD2     C 1295   3.193   0.090  16.555 -0.4179 -0.6298  0.0669
   85MPD2    C1 1296   3.302   0.023  16.504 -0.2344 -0.9574 -0.6831
   85MPD2    C2 1297   3.408   0.097  16.455  0.8780 -0.8228  0.2425
   85MPD2    C3 1298   3.394   0.239  16.448  0.2436  0.5390 -0.9623
   85MPD2    C4 1299   3.274   0.299  16.487  1.0780 -1.0047  0.7289
   85MPD2    C5 1300   3.179   0.219  16.538  0.2776 -0.2009  0.7926
   85MPD2     H 1301   3.499   0.041  16.440  1.1125 -0.5927  0.7765
   85MPD2    H1 1302   3.259   0.407  16.488  0.3893 -1.1247  2.4844
   85MPD2    H2 1303   3.103   0.038  16.583 -0.1428 -1.3818 -0.4352
   85MPD2    H3 1304   3.085   0.259  16.575  0.0013 -1.1512  1.1159
   85MPD2     N 1305   3.509   0.317  16.407  0.4932  0.0264  0.1841
   85MPD2    H5 1306   3.495   0.417  16.395 -1.6025 -0.2215  0.4856
   85MPD2    N1 1307   3.309   4.612  16.488 -0.3734 -0.5062  0.4251
   85MPD2    H7 1308   3.402   4.578  16.466 -0.1747 -0.0065  0.4845
   86TCq2    C1 1309   3.631   0.267  16.370  0.3901  0.5501 -0.2763
   86TCq2    O2 1310   3.691   0.164  16.408  0.9051  0.1333  0.1343
   86TCq2    C2 1311   3.705   0.387  16.344 -0.3558  0.9701  0.5892
   86TCq2    C3 1312   3.640   0.495  16.287 -0.3764  0.5915 -1.4218
   86TCq2    C4 1313   3.716   0.607  16.270  0.1019  0.6447 -0.0089
   86TCq2    C5 1314   3.849   0.616  16.304  0.3280  0.3827 -0.1662
   86TCq2    C6 1315   3.913   0.509  16.355  0.6813  0.5458 -0.4300
   86TCq2    C7 1316   3.837   0.391  16.379  0.0684  0.7247  0.6960
   86TCq2    C8 1317   4.054   0.493  16.357  0.5701  0.5894  0.9989
   86TCq2    O4 1318   4.103   0.398  16.422 -0.3545 -0.1232 -0.0754
   86TCq2    C9 1319   3.647   0.720  16.228  0.0576  0.2658  0.2601
   86TCq2    O5 1320   3.714   0.814  16.175 -0.0015  0.3207  0.1460
   86TCq2    O6 1321   3.523   0.717  16.252 -0.2090 -0.2070  0.6225
   86TCq2    H2 1322   3.537   0.488  16.255 -0.1343  3.7561 -2.8862
   86TCq2    H3 1323   3.895   0.715  16.303 -0.9483  1.0093  4.0711
   86TCq2    H4 1324   3.875   0.308  16.438 -0.0764  0.4330  0.3787
   87MPD2     C 1325   2.516   3.498   1.185  0.2991 -0.3916  1.0460
   87MPD2    C1 1326   2.463   3.414   1.276 -1.0626  0.0425 -0.1397
   87MPD2    C2 1327   2.321   3.411   1.299 -0.4223 -0.0584 -0.0544
   87MPD2    C3 1328   2.240   3.502   1.232  0.2631  0.1039  0.0220
   87MPD2    C4 1329   2.299   3.587   1.143  0.4607  0.0841 -0.2052
   87MPD2    C5 1330   2.433   3.590   1.128 -0.7979 -0.1030 -0.0445
   87MPD2     H 1331   2.282   3.344   1.374  1.5162 -0.5163  0.5385
   87MPD2    H1 1332   2.251   3.672   1.095  0.0004  0.5664  1.0834
   87MPD2    H2 1333   2.622   3.493   1.162  0.2205 -0.3457  0.6756
   87MPD2    H3 1334   2.479   3.657   1.057 -0.9277 -0.3707 -0.3823
   87MPD2     N 1335   2.100   3.503   1.235  0.3182  0.6747  0.2864
   87MPD2    H5 1336   2.054   3.572   1.176 -2.0196 -0.0634  1.2573
   87MPD2    N1 1337   2.563   3.336   1.340  0.3901 -0.0778  0.0219
   87MPD2    H7 1338   2.659   3.348   1.306  0.4235 -2.8618 -0.8618
   88TCq2    C1 1339   2.535   3.242   1.433  0.5987  0.8152 -0.3076
   88TCq2    O2 1340   2.429   3.222   1.492 -0.8857  0.3457  0.6716
   88TCq2    C2 1341   2.654   3.164   1.469 -0.4090  0.7332  0.2923
   88TCq2    C3 1342   2.634   3.064   1.556  0.0925 -0.2835 -0.9732
   88TCq2    C4 1343   2.714   2.956   1.559  0.7819  0.4681  0.0816
   88TCq2    C5 1344   2.808   2.935   1.467 -0.0195  0.2522  0.6700
   88TCq2    C6 1345   2.829   3.034   1.372  0.6622 -0.2213  0.4406
   88TCq2    C7 1346   2.758   3.150   1.383 -0.3295  0.1203 -0.5812
   88TCq2    C8 1347   2.841   2.996   1.228 -0.4014 -0.4977  0.5106
   88TCq2    O4 1348   2.798   3.079   1.150 -0.3367  0.0830 -0.1630
   88TCq2    C9 1349   2.673   2.838   1.637  0.2417  0.4744  0.0094
   88TCq2    O5 1350   2.726   2.727   1.612 -0.5960 -1.0688 -0.5771
   88TCq2    O6 1351   2.609   2.871   1.738 -0.5348  0.6739 -0.3938
   88TCq2    H2 1352   2.548   3.054   1.621  1.7360 -2.3749  0.8871
   88TCq2    H3 1353   2.853   2.836   1.462 -2.3747 -0.6969 -1.7797
   88TCq2    H4 1354   2.792   3.230   1.319  0.7332  0.9390  1.0090
   89MPD2     C 1355   2.306   4.569   2.419  0.2742  0.1423 -0.1493
   89MPD2    C1 1356   2.229   4.615   2.310 -0.1767 -0.1228  0.2636
   89MPD2    C2 1357   2.295   4.671   2.200  0.1524  0.0396 -0.4041
   89MPD2    C3 1358   2.434   4.693   2.203 -0.1384 -0.9089 -0.1552
   89MPD2    C4 1359   2.502   4.656   2.319 -0.1852 -0.6027  0.0020
   89MPD2    C5 1360   2.441   4.594   2.427  0.8098  0.0206 -0.3078
   89MPD2     H 1361   2.243   4.706   2.112  1.3592  0.0960 -1.0947
   89MPD2    H1 1362   2.606   4.673   2.343  0.1002 -1.3064 -0.7529
   89MPD2    H2 1363   2.273   4.513   2.506  1.2969  0.6373  0.5661
   89MPD2    H3 1364   2.500   4.559   2.511 -0.6542 -0.4372  0.5305
   89MPD2     N 1365   2.501   0.025   2.090 -0.8895  0.1941 -0.0311
   89MPD2    H5 1366   2.445   0.063   2.014 -0.8440 -1.0398 -0.6827
   89MPD2    N1 1367   2.084   4.600   2.308 -0.7110  0.5210  0.1396
   89MPD2    H7 1368   2.035   4.633   2.226 -0.3249 -0.3901 -0.4579
   90TCq2    C1 1369   2.639   0.029   2.072  0.2228 -0.5525 -0.6024
   90TCq2    O2 1370   2.728   4.716   2.148 -0.2320 -0.0859  0.1153
   90TCq2    C2 1371   2.669   0.089   1.947  0.0070  0.4662  0.0645
   90TCq2    C3 1372   2.808   0.102   1.930 -0.1436 -0.3890 -0.0886
   90TCq2    C4 1373   2.853   0.172   1.817  0.0284  0.1469 -0.0997
   90TCq2    C5 1374   2.763   0.229   1.730 -0.5867  0.5955 -0.2968
   90TCq2    C6 1375   2.626   0.213   1.753 -0.2542 -0.1486 -0.0557
   90TCq2    C7 1376   2.575   0.134   1.856  0.4281 -0.2518  0.8280
   90TCq2    C8 1377   2.536   0.271   1.656 -0.3277  0.3825  0.3584
   90TCq2    O4 1378   2.417   0.247   1.670 -0.5343 -0.6206  0.2683
   90TCq2    C9 1379   2.992   0.218   1.807  0.6707 -1.0789  0.1995
   90TCq2    O5 1380   3.071   0.200   1.905 -0.8830  0.1083 -0.5765
   90TCq2    O6 1381   3.024   0.291   1.709  0.3907  0.1139 -0.0302
   90TCq2    H2 1382   2.883   0.073   2.003  0.7589  0.5717 -0.6285
   90TCq2    H3 1383   2.805   0.303   1.663  0.4610 -1.0781 -1.4867
   90TCq2    H4 1384   2.469   0.136   1.876  0.5668 -1.3660  1.6246
   91TMC2    C1 1385   3.963   1.127  16.673  0.2514  0.3826  0.1532
   91TMC2    C2 1386   4.032   1.166  16.558 -0.2242 -0.9316 -0.2271
   91TMC2    C3 1387   3.956   1.212  16.457  0.4411 -0.1140 -0.4417
   91TMC2    C4 1388   3.832   1.152  16.689  0.3163  0.7261  0.4459
   91TMC2    C5 1389   3.759   1.185  16.580  0.7705  0.0439 -0.1260
   91TMC2    C6 1390   3.817   1.231  16.468 -0.5150  0.5741 -0.2876
   91TMC2     C 1391   4.030   1.052  16.785 -0.5398  0.0322 -0.3289
   91TMC2     O 1392   3.977   1.059  16.896 -0.6335  0.5404  0.3914
   91TMC2     H 1393   4.128   1.126  16.528 -0.8005 -1.8961 -0.8004
   91TMC2    H1 1394   3.781   1.145  16.784  0.9148 -4.0812  0.4294
   91TMC2    H2 1395   3.757   1.283  16.394 -0.9188  2.3369  1.2731
   91TMC2    C7 1396   3.617   1.176  16.607 -0.8587  0.7382 -0.5855
   91TMC2    C8 1397   4.019   1.237  16.332 -0.2111 -0.3842  0.6862
   91TMC2    O1 1398   3.592   1.103  16.701  0.0775  0.2293  0.2509
   91TMC2    O2 1399   4.142   1.241  16.322  0.2675  0.7211 -0.5697
   91TMC2    O5 1400   3.945   1.162  16.247 -0.6663  0.2703  0.1933
   91TMC2    H5 1401   3.852   1.144  16.274 -0.6509 -0.4348 -0.2092
   92MPD2     C 1402   4.238   0.960  16.971  0.3694 -0.2747  1.1736
   92MPD2    C1 1403   4.263   0.994  16.841  0.2268  0.1846  0.2035
   92MPD2    C2 1404   4.389   0.991  16.787 -0.2256  0.4859 -0.7817
   92MPD2    C3 1405   4.498   0.951  16.859  0.4166  0.3471 -0.0317
   92MPD2    C4 1406   4.473   0.920  16.991 -0.1457  0.4745  0.4567
   92MPD2    C5 1407   4.348   0.923  17.048 -0.2244 -0.5131  0.2751
   92MPD2     H 1408   4.407   1.015  16.683  0.3123  0.8518 -0.6015
   92MPD2    H1 1409   4.555   0.895  17.058  0.6161 -0.3608 -0.7907
   92MPD2    H2 1410   4.139   0.959  17.015 -0.0616  1.5318  0.2708
   92MPD2    H3 1411   4.338   0.912  17.156 -2.1627  0.2931  0.1728
   92MPD2     N 1412   4.625   0.959  16.800 -0.2984 -0.1643 -0.2137
   92MPD2    H5 1413   4.630   1.017  16.716 -0.9983 -1.3779 -1.1013
   92MPD2    N1 1414   4.160   1.028  16.750  0.4097 -0.8275  0.5090
   92MPD2    H7 1415   4.183   1.051  16.654 -0.2298 -0.0980  0.5373
   93MPD2     C 1416   0.982   1.777  14.000 -0.2761  0.2878 -0.1663
   93MPD2    C1 1417   0.961   1.707  14.121 -0.4127  0.6801 -0.8811
   93MPD2    C2 1418   0.834   1.665  14.165  0.5168  0.4745 -0.0598
   93MPD2    C3 1419   0.720   1.712  14.090 -0.7261 -0.2277  0.1294
   93MPD2    C4 1420   0.743   1.791  13.978  0.0450  0.3985  0.3288
   93MPD2    C5 1421   0.870   1.818  13.934  0.2151 -0.0033 -0.2934
   93MPD2     H 1422   0.827   1.604  14.255 -0.0826 -0.7879 -0.9692
   93MPD2    H1 1423   0.667   1.842  13.921 -0.7933 -1.1444  0.0656
   93MPD2    H2 1424   1.071   1.824  13.961 -0.3381  0.0404 -0.6023
   93MPD2    H3 1425   0.890   1.884  13.849  2.0008 -1.4152 -0.9795
   93MPD2     N 1426   0.583   1.690  14.116 -0.2417 -0.3358  0.2512
   93MPD2    H5 1427   0.515   1.757  14.081 -1.9836 -0.7337  2.8665
   93MPD2    N1 1428   1.080   1.672  14.185  0.4200 -0.4141  0.0909
   93MPD2    H7 1429   1.081   1.651  14.284 -2.1655  2.3578  0.7090
   94TCq2    C1 1430   1.201   1.664  14.123 -0.0799 -0.2853 -0.2805
   94TCq2    O2 1431   1.238   1.659  14.009 -0.0896 -0.0607 -0.0940
   94TCq2    C2 1432   1.314   1.666  14.214  0.4507  0.5360 -0.1831
   94TCq2    C3 1433   1.328   1.764  14.308  0.0229  0.0026 -0.8184
   94TCq2    C4 1434   1.447   1.781  14.374  0.5039  0.1783 -0.2351
   94TCq2    C5 1435   1.554   1.705  14.345 -0.2062  0.9653  0.4182
   94TCq2    C6 1436   1.534   1.605  14.257  0.4684  0.2350  0.3192
   94TCq2    C7 1437   1.421   1.587  14.184 -0.5161  0.1013 -0.1482
   94TCq2    C8 1438   1.651   1.524  14.219 -0.5412 -0.0547 -0.2159
   94TCq2    O4 1439   1.636   1.449  14.121 -0.0426  0.2357 -1.0245
   94TCq2    C9 1440   1.452   1.887  14.478 -0.9927 -0.4863  0.4361
   94TCq2    O5 1441   1.564   1.915  14.526  0.1585  0.0069 -0.0824
   94TCq2    O6 1442   1.351   1.963  14.477  0.1877 -0.2469  0.2778
   94TCq2    H2 1443   1.236   1.819  14.322  0.4362  0.9822 -1.9386
   94TCq2    H3 1444   1.648   1.737  14.391  0.4731  0.4879 -0.6557
   94TCq2    H4 1445   1.395   1.518  14.105  0.3896 -0.6189  0.1750
   95TMC2    C1 1446   0.802   2.786  15.772  0.1757  0.4864 -0.6963
   95TMC2    C2 1447   0.801   2.655  15.808  0.6252  0.5055 -0.0875
   95TMC2    C3 1448   0.679   2.604  15.856 -0.3538  0.1053  0.1321
   95TMC2    C4 1449   0.698   2.870  15.783  0.0886  0.0635 -0.8783
   95TMC2    C5 1450   0.579   2.823  15.829  0.1214  0.3466 -0.4255
   95TMC2    C6 1451   0.572   2.686  15.866 -0.1493  0.0894 -0.2684
   95TMC2     C 1452   0.905   2.838  15.688 -0.1222  0.1846  0.0433
   95TMC2     O 1453   0.917   2.960  15.694 -0.0685 -0.0015 -0.6591
   95TMC2     H 1454   0.893   2.597  15.808  0.4581  0.2351 -1.5076
   95TMC2    H1 1455   0.701   2.972  15.747  0.9658  0.5642  0.5990
   95TMC2    H2 1456   0.478   2.634  15.886 -0.4261  0.8270  0.3287
   95TMC2    C7 1457   0.461   2.897  15.806 -0.4651  0.1097  0.1858
   95TMC2    C8 1458   0.648   2.464  15.871 -0.8164 -0.5972 -0.2678
   95TMC2    O1 1459   0.457   2.984  15.721  0.5936  0.3956  0.4717
   95TMC2    O2 1460   0.556   2.428  15.939  0.1279  0.1192 -0.2254
   95TMC2    O5 1461   0.759   2.391  15.857  0.2709  0.1290  0.1682
   95TMC2    H5 1462   0.824   2.428  15.794 -0.5464  0.2339 -0.6090
   96MPD2     C 1463   1.283   2.767  15.338 -0.1663 -0.1186  0.1232
   96MPD2    C1 1464   1.230   2.882  15.383  0.4339  0.0135 -0.7768
   96MPD2    C2 1465   1.133   2.873  15.481  0.5988 -0.1998 -0.0259
   96MPD2    C3 1466   1.086   2.760  15.535 -0.4826 -0.7019 -0.1027
   96MPD2    C4 1467   1.143   2.641  15.488 -0.3012 -0.2904 -0.0279
   96MPD2    C5 1468   1.235   2.647  15.385 -0.1405  0.1287 -0.5002
   96MPD2     H 1469   1.098   2.964  15.530  2.1008  0.1994  0.3094
   96MPD2    H1 1470   1.115   2.546  15.532  0.3361  0.0334  1.0890
   96MPD2    H2 1471   1.360   2.766  15.262  1.7743  0.1836  2.0743
   96MPD2    H3 1472   1.274   2.554  15.346  0.8214  0.1321  0.4779
   96MPD2     N 1473   0.984   2.746  15.630  0.0438 -0.2191 -0.3063
   96MPD2    H5 1474   0.962   2.649  15.650  0.9228 -0.4516 -0.4742
   96MPD2    N1 1475   1.298   2.999  15.347  0.7008 -0.0121  0.2702
   96MPD2    H7 1476   1.385   2.984  15.297  0.6395 -0.4916  0.3049
   97MPD2     C 1477   4.130   3.637   1.277 -0.6435  0.0399  0.6737
   97MPD2    C1 1478   4.039   3.737   1.259  1.0796  0.2344  0.3144
   97MPD2    C2 1479   4.001   3.767   1.128  0.3765  0.2890  0.0038
   97MPD2    C3 1480   4.057   3.709   1.021  0.5531 -0.4252  0.6487
   97MPD2    C4 1481   4.143   3.601   1.043  0.0375  0.3743 -0.5752
   97MPD2    C5 1482   4.174   3.565   1.172  0.3124 -0.4902  0.3159
   97MPD2     H 1483   3.932   3.851   1.121 -0.5609 -0.5777 -1.1270
   97MPD2    H1 1484   4.181   3.547   0.957 -0.4363 -0.3581 -0.3314
   97MPD2    H2 1485   4.159   3.612   1.378 -0.1115  1.6349  0.9227
   97MPD2    H3 1486   4.246   3.485   1.190  0.2573 -0.3823  1.0088
   97MPD2     N 1487   4.024   3.740   0.885  0.1284 -0.3931  0.4802
   97MPD2    H5 1488   4.056   3.673   0.816 -3.1664 -0.2600 -1.1850
   97MPD2    N1 1489   3.977   3.784   1.381 -0.0293  0.1408 -0.4494
   97MPD2    H7 1490   4.007   3.737   1.465 -1.4866  0.0860  0.0411
   98TCq2    C1 1491   3.967   3.861   0.849 -0.6702  0.4864  0.0402
   98TCq2    O2 1492   3.963   3.957   0.927  0.4506 -0.3618  0.1036
   98TCq2    C2 1493   3.930   3.868   0.705  0.1003 -0.6333  0.0008
   98TCq2    C3 1494   3.893   3.751   0.640 -0.1370 -0.8096 -0.1975
   98TCq2    C4 1495   3.869   3.755   0.506 -0.2128  0.2257 -0.4078
   98TCq2    C5 1496   3.848   3.877   0.438 -0.4637 -0.3690  0.1173
   98TCq2    C6 1497   3.871   3.990   0.515 -0.7861 -0.4596 -0.1806
   98TCq2    C7 1498   3.916   3.989   0.642 -0.1031  0.0517  0.2528
   98TCq2    C8 1499   3.894   4.117   0.441  1.1585 -0.2489  0.1880
   98TCq2    O4 1500   3.980   4.191   0.486 -0.2906  0.2310 -0.0759
   98TCq2    C9 1501   3.851   3.636   0.431  0.0564 -0.2097  0.2411
   98TCq2    O5 1502   3.831   3.646   0.308  0.3598 -0.0777  0.2144
   98TCq2    O6 1503   3.858   3.526   0.492  0.1183  0.1353  0.0146
   98TCq2    H2 1504   3.901   3.657   0.693 -0.1631 -0.8066 -0.1881
   98TCq2    H3 1505   3.810   3.878   0.337 -2.0682  1.8857  0.7476
   98TCq2    H4 1506   3.949   4.078   0.695 -0.6433 -1.0621  2.4811
   99MPD2     C 1507   2.677   0.567   1.948  0.6902 -0.2901 -0.1401
   99MPD2    C1 1508   2.594   0.610   1.842  0.1276 -0.9067  0.1466
   99MPD2    C2 1509   2.464   0.566   1.833 -0.2698  0.3250 -0.7153
   99MPD2    C3 1510   2.410   0.491   1.934  0.6234 -0.1583  0.3296
   99MPD2    C4 1511   2.499   0.441   2.031 -0.2711 -0.4392  0.3535
   99MPD2    C5 1512   2.632   0.471   2.036 -0.0445 -0.0299 -0.1119
   99MPD2     H 1513   2.398   0.601   1.755  0.3988  3.6868  0.2216
   99MPD2    H1 1514   2.469   0.361   2.097  0.8903 -1.7630 -0.7269
   99MPD2    H2 1515   2.778   0.602   1.963  1.1706 -0.9481 -1.8512
   99MPD2    H3 1516   2.705   0.428   2.104  0.3963 -0.6209 -0.9566
   99MPD2     N 1517   2.276   0.463   1.925  0.3575 -0.5312 -0.0481
   99MPD2    H5 1518   2.222   0.526   1.865  0.9840 -0.8817 -0.9717
   99MPD2    N1 1519   2.630   0.707   1.750  0.6366 -0.0311 -0.3129
   99MPD2    H7 1520   2.568   0.727   1.673 -0.2707 -0.4736  0.2989
  100TCq2    C1 1521   2.751   0.773   1.744  0.1442  0.0730  0.4332
  100TCq2    O2 1522   2.855   0.756   1.804 -0.0073 -0.6370  0.3169
  100TCq2    C2 1523   2.750   0.872   1.633 -0.5608  0.0011 -0.3401
  100TCq2    C3 1524   2.868   0.903   1.574  0.4029  0.3553  0.5317
  100TCq2    C4 1525   2.876   1.028   1.522 -0.1658 -0.1016 -0.5371
  100TCq2    C5 1526   2.774   1.123   1.521 -1.4137 -0.1457 -0.4994
  100TCq2    C6 1527   2.654   1.076   1.562 -0.3793 -0.6989  0.0950
  100TCq2    C7 1528   2.643   0.957   1.626 -0.3576 -0.5728  0.4058
  100TCq2    C8 1529   2.578   1.184   1.618 -0.2255 -0.1682 -0.6516
  100TCq2    O4 1530   2.643   1.277   1.665 -0.0327  0.1845 -0.1222
  100TCq2    C9 1531   3.011   1.061   1.495 -0.4548  0.0117 -0.3428
  100TCq2    O5 1532   3.096   1.024   1.575 -0.6364  0.1133 -0.2973
  100TCq2    O6 1533   3.025   1.166   1.429  0.3839 -0.1316 -0.3352
  100TCq2    H2 1534   2.957   0.842   1.586  2.6124  3.7148  1.2074
  100TCq2    H3 1535   2.787   1.219   1.472 -0.5687  0.2943  0.5966
  100TCq2    H4 1536   2.561   0.943   1.695  0.4185  3.4728  2.1503
  101MPD2     C 1537   2.686   4.289  13.209  0.4485 -0.1166  0.5616
  101MPD2    C1 1538   2.553   4.252  13.200  0.4586 -0.3666  0.0848
  101MPD2    C2 1539   2.493   4.177  13.307 -0.2252  0.1982  0.1487
  101MPD2    C3 1540   2.575   4.134  13.412 -0.1358  0.0907  0.1371
  101MPD2    C4 1541   2.705   4.180  13.422  0.3466  0.4914 -0.6487
  101MPD2    C5 1542   2.762   4.248  13.318 -0.0055 -0.1923 -0.2326
  101MPD2     H 1543   2.393   4.134  13.309 -0.7355  1.3376 -2.0393
  101MPD2    H1 1544   2.772   4.150  13.501  0.6515  0.4879 -0.9083
  101MPD2    H2 1545   2.748   4.347  13.142  1.0842 -1.0191  0.3713
  101MPD2    H3 1546   2.865   4.278  13.334 -0.7935  2.5063 -0.2185
  101MPD2     N 1547   2.514   4.050  13.509 -0.1451  0.1026 -0.1207
  101MPD2    H5 1548   2.418   4.022  13.492 -0.3094  0.3385  0.4146
  101MPD2    N1 1549   2.487   4.297  13.089 -0.7609  0.7709 -0.2339
  101MPD2    H7 1550   2.542   4.363  13.034 -0.0165 -0.4497 -0.9558
  102TCq2    C1 1551   2.430   4.300  12.595 -0.9049  0.6994  0.3399
  102TCq2    O2 1552   2.532   4.232  12.605  0.7484  0.4540 -0.1616
  102TCq2    C2 1553   2.337   4.295  12.701 -0.4476 -0.1197 -0.4721
  102TCq2    C3 1554   2.213   4.359  12.693  0.6041 -0.1868  0.7926
  102TCq2    C4 1555   2.146   4.387  12.802 -0.2830 -0.3901  0.1469
  102TCq2    C5 1556   2.197   4.354  12.924  0.2600 -0.9136  0.1428
  102TCq2    C6 1557   2.319   4.301  12.933  0.2172  0.3940 -0.6764
  102TCq2    C7 1558   2.394   4.274  12.824  0.7111  0.3407  0.4000
  102TCq2    C8 1559   2.357   4.268  13.064 -0.2946 -0.0402  0.0628
  102TCq2    O4 1560   2.275   4.226  13.140  0.0148  0.9574  0.1077
  102TCq2    C9 1561   2.014   4.455  12.790 -0.7022  0.2708 -0.0732
  102TCq2    O5 1562   1.982   4.477  12.674  0.2933  0.0512 -0.4273
  102TCq2    O6 1563   1.943   4.460  12.893  0.1974 -0.9280 -0.2824
  102TCq2    H2 1564   2.175   4.382  12.594  0.4527  1.1621  1.1556
  102TCq2    H3 1565   2.148   4.401  13.007  0.7220 -5.0396  2.7756
  102TCq2    H4 1566   2.494   4.236  12.837  0.2135 -1.1793 -0.3002
  103TMC2    C1 1567   1.014   3.849  12.847 -0.2154 -0.5780  0.1774
  103TMC2    C2 1568   1.148   3.873  12.839  0.2018 -1.5941  0.5431
  103TMC2    C3 1569   1.213   3.927  12.948  0.1094 -0.2232 -0.2519
  103TMC2    C4 1570   0.947   3.893  12.961 -0.3927 -0.3779  1.1654
  103TMC2    C5 1571   1.013   3.950  13.061 -0.3427  0.1167 -0.7177
  103TMC2    C6 1572   1.147   3.961  13.066  0.0823 -0.2555  0.5514
  103TMC2     C 1573   0.955   3.768  12.744 -0.1943 -0.4604  0.3508
  103TMC2     O 1574   0.839   3.780  12.709  0.3878  0.4603 -0.2892
  103TMC2     H 1575   1.208   3.843  12.755 -1.1414 -1.6951 -0.3862
  103TMC2    H1 1576   0.838   3.890  12.959 -0.3221 -1.6033 -1.4275
  103TMC2    H2 1577   1.197   3.984  13.160  0.6732  3.0805 -0.5894
  103TMC2    C7 1578   0.929   3.979  13.176 -0.0835  0.7710  0.3638
  103TMC2    C8 1579   1.345   3.979  12.924 -0.0808 -0.1562 -0.3113
  103TMC2    O1 1580   0.836   3.903  13.207  0.0610 -0.2025 -0.1104
  103TMC2    O2 1581   1.427   3.933  12.841  0.0149  0.0536  0.8035
  103TMC2    O5 1582   1.363   4.096  12.987 -0.6518  0.5887  0.5870
  103TMC2    H5 1583   1.280   4.128  13.029  0.0631  3.2728 -0.0011
  104MPD2     C 1584   1.108   3.490  12.572 -0.0850 -0.2102  0.0258
  104MPD2    C1 1585   1.018   3.587  12.584  0.3214  0.2940 -0.0790
  104MPD2    C2 1586   0.916   3.608  12.490 -0.1617 -0.1028 -0.3700
  104MPD2    C3 1587   0.909   3.517  12.386 -0.2898 -0.2405 -0.2679
  104MPD2    C4 1588   1.005   3.422  12.380  0.2602 -0.3415  0.4033
  104MPD2    C5 1589   1.098   3.403  12.471  0.0891  0.2068 -0.3544
  104MPD2     H 1590   0.848   3.692  12.495 -0.1554 -0.1040 -0.2638
  104MPD2    H1 1591   1.020   3.367  12.288  0.0767  1.1067 -0.4898
  104MPD2    H2 1592   1.194   3.483  12.637 -1.3251 -0.7756  1.5978
  104MPD2    H3 1593   1.170   3.324  12.456  0.1353  0.2169 -0.1874
  104MPD2     N 1594   0.804   3.528  12.287 -0.2737 -0.9980 -0.0231
  104MPD2    H5 1595   0.739   3.606  12.294  1.1264  0.2753 -1.3133
  104MPD2    N1 1596   1.040   3.672  12.699  0.6195 -0.1766  0.3220
  104MPD2    H7 1597   1.130   3.667  12.746  0.6161 -2.1940  0.1115
  105MPD2     C 1598   2.779   3.074  17.385  0.3805  0.0350 -0.4078
  105MPD2    C1 1599   2.683   3.111  17.473 -0.0576  0.0349 -0.3028
  105MPD2    C2 1600   2.714   3.106  17.606 -0.0744  0.0560 -0.3103
  105MPD2    C3 1601   2.836   3.074  17.651  0.3716 -0.1274 -0.2537
  105MPD2    C4 1602   2.932   3.035  17.564 -0.1104 -0.4096  0.5474
  105MPD2    C5 1603   2.899   3.028  17.435 -1.1232 -0.1895 -0.5421
  105MPD2     H 1604   2.634   3.119  17.678  1.1365  2.6103  0.5813
  105MPD2    H1 1605   3.029   3.002  17.601  0.0781  0.6166  0.9856
  105MPD2    H2 1606   2.750   3.055  17.282  1.2855 -0.2346 -0.6099
  105MPD2    H3 1607   2.971   3.012  17.356 -0.7543 -0.8764 -0.0713
  105MPD2     N 1608   2.846   3.077   0.093  0.3535  0.4274  0.2331
  105MPD2    H5 1609   2.767   3.117   0.141  0.0719 -1.2106  1.1435
  105MPD2    N1 1610   2.549   3.144  17.442  0.2573  0.7126  0.6358
  105MPD2    H7 1611   2.480   3.143  17.516 -1.2298  0.1015 -0.7561
  106TCq2    C1 1612   2.939   3.021   0.167  0.2741 -0.4170  0.8123
  106TCq2    O2 1613   3.031   2.945   0.144 -0.2963  0.0623  0.2420
  106TCq2    C2 1614   2.907   3.033   0.307 -0.3434 -0.2226 -0.5780
  106TCq2    C3 1615   2.830   3.133   0.356  0.1091 -0.2493  0.1225
  106TCq2    C4 1616   2.774   3.124   0.478  0.3699 -0.3411 -0.9692
  106TCq2    C5 1617   2.811   3.028   0.566  0.5973 -0.5614  0.3482
  106TCq2    C6 1618   2.911   2.938   0.517 -0.0027 -0.3486  0.2417
  106TCq2    C7 1619   2.958   2.936   0.385 -0.1509  0.2917  0.4177
  106TCq2    C8 1620   2.970   2.852   0.616  0.2925 -0.7660  0.2581
  106TCq2    O4 1621   3.049   2.767   0.576 -0.5297  0.2518 -0.3910
  106TCq2    C9 1622   2.682   3.226   0.512  0.0845  0.4132  1.0374
  106TCq2    O5 1623   2.660   3.313   0.421 -0.1439  0.3007 -0.2944
  106TCq2    O6 1624   2.629   3.219   0.623  0.0229 -0.1144 -0.0651
  106TCq2    H2 1625   2.801   3.215   0.291  0.3189 -0.4260 -0.1920
  106TCq2    H3 1626   2.764   3.019   0.664 -1.1852  1.8218 -0.2747
  106TCq2    H4 1627   3.037   2.866   0.357 -1.5773 -0.5889 -1.3797
  107TMC2    C1 1628   3.015   1.576  11.691 -0.3686  0.3533  0.6869
  107TMC2    C2 1629   2.969   1.468  11.763 -0.4157 -0.8542  0.0581
  107TMC2    C3 1630   3.020   1.345  11.740  0.3024  0.1598 -0.0079
  107TMC2    C4 1631   3.124   1.559  11.599  0.1359  0.6297 -0.3059
  107TMC2    C5 1632   3.167   1.431  11.575 -0.1835 -0.2801  0.0149
  107TMC2    C6 1633   3.118   1.320  11.651  0.7313  0.5596 -0.0448
  107TMC2     C 1634   2.974   1.704  11.736  0.1445  0.1737 -0.1246
  107TMC2     O 1635   2.853   1.730  11.763  0.1040  0.1404  0.4593
  107TMC2     H 1636   2.899   1.495  11.842  0.4241  0.4128  0.3693
  107TMC2    H1 1637   3.160   1.651  11.556  0.2232  0.9611  0.4798
  107TMC2    H2 1638   3.167   1.224  11.642 -1.2380 -0.2731 -2.1573
  107TMC2    C7 1639   3.266   1.405  11.475 -0.2027 -0.2441 -0.1701
  107TMC2    C8 1640   2.930   1.242  11.785  0.2230 -0.1709  0.4524
  107TMC2    O1 1641   3.326   1.301  11.486  0.4202  0.1234 -0.3404
  107TMC2    O2 1642   2.860   1.263  11.882  0.1326 -0.0826 -0.1862
  107TMC2    O5 1643   2.899   1.168  11.676  0.2552 -0.0140 -0.0331
  107TMC2    H5 1644   2.949   1.178  11.593 -0.3277 -1.6403 -0.5828
  108MPD2     C 1645   3.209   1.922  11.891 -0.5726 -0.3670 -0.3465
  108MPD2    C1 1646   3.089   1.886  11.848  0.1209 -0.7126 -0.2727
  108MPD2    C2 1647   2.977   1.972  11.856  0.6916 -0.1786  0.6046
  108MPD2    C3 1648   2.990   2.087  11.922  0.2666 -0.1797 -0.6957
  108MPD2    C4 1649   3.115   2.130  11.958 -0.5324  0.6004  0.5011
  108MPD2    C5 1650   3.223   2.049  11.939  0.2738 -0.6522  0.5199
  108MPD2     H 1651   2.879   1.945  11.819  1.0149  0.4060 -0.6610
  108MPD2    H1 1652   3.133   2.224  12.009  1.3659  0.4282  0.1469
  108MPD2    H2 1653   3.301   1.868  11.872 -0.3133 -0.1277  0.2376
  108MPD2    H3 1654   3.318   2.087  11.976  0.5060 -1.0768  0.3708
  108MPD2     N 1655   2.884   2.169  11.971 -0.1127 -0.8834 -0.2646
  108MPD2    H5 1656   2.916   2.246  12.029 -1.0032 -1.7685  1.3898
  108MPD2    N1 1657   3.090   1.768  11.775 -0.0745  0.4944 -0.3573
  108MPD2    H7 1658   3.178   1.721  11.759 -0.5795 -0.9900  1.2384
  109MPD2     C 1659   4.274   2.742   2.121 -0.0229  0.0846 -0.4107
  109MPD2    C1 1660   4.167   2.823   2.149  0.2603  0.4263  0.2300
  109MPD2    C2 1661   4.187   2.955   2.186  0.0217  0.1238  0.2314
  109MPD2    C3 1662   4.316   3.002   2.208 -0.1156 -0.2426  0.6586
  109MPD2    C4 1663   4.418   2.918   2.186 -0.7656 -0.8130  0.2891
  109MPD2    C5 1664   4.398   2.792   2.143  0.1377 -0.6818 -0.6428
  109MPD2     H 1665   4.101   3.013   2.218 -0.3797 -0.2063 -0.2559
  109MPD2    H1 1666   4.523   2.942   2.203 -1.3040  1.3694  0.5842
  109MPD2    H2 1667   4.258   2.638   2.096 -0.3807  0.3298 -1.1980
  109MPD2    H3 1668   4.480   2.722   2.135  1.0374  0.3662 -0.6471
  109MPD2     N 1669   4.333   3.131   2.264  0.6140  0.3355 -0.0693
  109MPD2    H5 1670   4.249   3.186   2.281  0.0953  0.0625 -1.7877
  109MPD2    N1 1671   4.030   2.775   2.124  0.4521  0.4167 -0.0386
  109MPD2    H7 1672   4.020   2.679   2.093 -0.2042  0.1094  1.0947
  110TCq2    C1 1673   4.453   3.184   2.309  0.6191  0.3218 -1.0840
  110TCq2    O2 1674   4.557   3.133   2.340 -0.0877  0.2048  0.5075
  110TCq2    C2 1675   4.447   3.322   2.357  0.1510  0.1185  0.4978
  110TCq2    C3 1676   4.548   3.362   2.441  0.1882 -0.3035 -0.4258
  110TCq2    C4 1677   4.567   3.501   2.451 -0.5862  0.4709 -0.2959
  110TCq2    C5 1678   4.483   3.588   2.376  0.1640  0.1061  0.1099
  110TCq2    C6 1679   4.404   3.535   2.280 -0.5778  0.1758  0.0301
  110TCq2    C7 1680   4.372   3.402   2.272 -0.0817 -0.0174  0.3557
  110TCq2    C8 1681   4.324   3.620   2.203 -0.4654  0.5164  0.4129
  110TCq2    O4 1682   4.291   3.580   2.093 -0.0246  0.0643  0.1757
  110TCq2    C9 1683   4.654   3.562   2.557  0.2536 -0.0244 -0.5814
  110TCq2    O5 1684   4.631   3.685   2.581 -0.7680  0.6874  0.1863
  110TCq2    O6 1685   4.717   3.478   2.624  0.4576  0.0330  0.0438
  110TCq2    H2 1686   4.600   3.294   2.507 -0.0212  0.9805  1.0732
  110TCq2    H3 1687   4.496   3.695   2.388  0.9094  0.3048 -2.4156
  110TCq2    H4 1688   4.313   3.378   2.185  1.7604 -3.1595 -0.0343
  111TMC2    C1 1689   3.057   4.618  11.240  0.0289 -0.6203  0.0276
  111TMC2    C2 1690   3.159   4.581  11.149 -0.5150  1.1088  0.1138
  111TMC2    C3 1691   3.283   4.545  11.204  0.4381 -0.2087  0.7537
  111TMC2    C4 1692   3.082   4.599  11.376 -0.5374 -0.2344  0.4753
  111TMC2    C5 1693   3.203   4.557  11.414 -1.0251 -0.4160 -0.7760
  111TMC2    C6 1694   3.311   4.536  11.335  0.4637  0.1846  0.1235
  111TMC2     C 1695   2.928   4.657  11.190 -0.2818 -0.6334 -0.5965
  111TMC2     O 1696   2.919   4.648  11.071 -0.0199  0.7554 -0.4918
  111TMC2     H 1697   3.136   4.600  11.045 -2.9073 -0.3637  0.3858
  111TMC2    H1 1698   3.011   4.615  11.457  0.7666 -0.5724  1.6841
  111TMC2    H2 1699   3.415   4.538  11.365  1.2257 -1.4211 -2.5312
  111TMC2    C7 1700   3.207   4.497  11.546  0.0899  0.0207  0.3879
  111TMC2    C8 1701   3.393   4.543  11.112  0.0922 -0.0207 -0.2539
  111TMC2    O1 1702   3.145   4.548  11.637  0.6187 -0.4360  0.1517
  111TMC2    O2 1703   3.504   4.581  11.141  0.0265  0.1754  0.5287
  111TMC2    O5 1704   3.357   4.458  11.019  0.3469  0.1083 -0.1325
  111TMC2    H5 1705   3.291   4.393  11.051  1.7932 -0.4689  1.6737
  112MPD2     C 1706   2.477   0.174  11.203  0.1162 -0.0748 -0.6842
  112MPD2    C1 1707   2.540   0.112  11.094  0.2721  0.4140 -0.9325
  112MPD2    C2 1708   2.665   0.052  11.122  0.4735 -0.4464 -0.8946
  112MPD2    C3 1709   2.718   0.051  11.248  0.7968 -0.1217  0.0023
  112MPD2    C4 1710   2.653   0.118  11.353 -0.1176  0.2541 -0.5801
  112MPD2    C5 1711   2.531   0.165  11.329  0.7721  0.2854  0.3569
  112MPD2     H 1712   2.720   0.007  11.041 -2.9747 -4.3462 -1.1069
  112MPD2    H1 1713   2.689   0.123  11.455 -2.0014  0.2062  0.0890
  112MPD2    H2 1714   2.380   0.222  11.191 -0.3084 -1.4977 -2.9010
  112MPD2    H3 1715   2.476   0.202  11.415 -0.2528 -0.6765  0.1072
  112MPD2     N 1716   2.844   4.714  11.280  0.4604  0.0538 -0.3099
  112MPD2    H5 1717   2.889   0.010  11.369  1.7164 -0.0667 -0.9146
  112MPD2    N1 1718   2.505   0.126  10.954  0.3281 -0.6669 -0.0037
  112MPD2    H7 1719   2.568   0.098  10.879 -0.6947  0.3381 -1.2492
  113MPD2     C 1720   1.431   0.999   1.204  0.3357 -0.6696  0.0947
  113MPD2    C1 1721   1.427   1.134   1.239  0.9336 -0.6374  0.1114
  113MPD2    C2 1722   1.313   1.206   1.208 -0.0553  0.4239 -0.6386
  113MPD2    C3 1723   1.212   1.147   1.138  0.1375 -0.4066  0.2220
  113MPD2    C4 1724   1.221   1.011   1.104 -0.7633  0.0246  0.3559
  113MPD2    C5 1725   1.330   0.941   1.138 -0.6333 -0.7224 -0.3298
  113MPD2     H 1726   1.316   1.309   1.239  2.9665 -0.3902  1.8295
  113MPD2    H1 1727   1.138   0.970   1.047 -0.4545  2.0855 -1.5674
  113MPD2    H2 1728   1.511   0.930   1.230  0.3848 -0.5131  0.3590
  113MPD2    H3 1729   1.338   0.836   1.112  0.2431 -0.6084 -0.5020
  113MPD2     N 1730   1.088   1.212   1.110 -0.3168  0.2387 -0.1706
  113MPD2    H5 1731   1.016   1.158   1.063 -0.3068 -0.9989  1.2344
  113MPD2    N1 1732   1.534   1.196   1.298  0.2158  0.3725  0.1038
  113MPD2    H7 1733   1.520   1.293   1.324  0.4833  0.3314  0.3955
  114TCq2    C1 1734   1.059   1.349   1.128 -0.2342  0.2420 -0.5582
  114TCq2    O2 1735   1.142   1.436   1.139 -0.0658 -0.0646 -0.3493
  114TCq2    C2 1736   0.922   1.373   1.094  0.4198  0.2042 -1.2149
  114TCq2    C3 1737   0.891   1.475   1.018 -0.3017 -0.1144  0.5348
  114TCq2    C4 1738   0.765   1.488   0.960  0.9190  0.5606  0.2389
  114TCq2    C5 1739   0.668   1.397   0.983  0.2082  1.1980 -0.3067
  114TCq2    C6 1740   0.702   1.283   1.053 -0.3556  0.2333 -0.6571
  114TCq2    C7 1741   0.826   1.276   1.115 -0.2456  0.1117 -0.0842
  114TCq2    C8 1742   0.606   1.183   1.089  0.6260  0.4060  0.3152
  114TCq2    O4 1743   0.647   1.080   1.130 -0.3291 -0.1270 -0.1063
  114TCq2    C9 1744   0.745   1.581   0.849 -0.4921  0.7403  0.2969
  114TCq2    O5 1745   0.809   1.684   0.852 -0.1491 -0.5169  0.2524
  114TCq2    O6 1746   0.646   1.561   0.775  0.0008 -0.2368  0.7302
  114TCq2    H2 1747   0.974   1.540   0.990 -0.7275  0.1527 -0.1230
  114TCq2    H3 1748   0.572   1.407   0.932  0.5782  4.2870 -0.3733
  114TCq2    H4 1749   0.848   1.204   1.193 -0.6882 -0.4894 -0.5222
  115TMC2    C1 1750   1.755   4.533   0.227 -0.0945 -0.1005 -0.1203
  115TMC2    C2 1751   1.884   4.501   0.246 -0.2585  0.2821  0.3585
  115TMC2    C3 1752   1.971   4.606   0.261  0.7948 -0.1868 -0.2781
  115TMC2    C4 1753   1.712   4.664   0.192 -0.1029 -0.3631  0.3036
  115TMC2    C5 1754   1.805   0.037   0.198  0.1111 -0.8702 -1.0192
  115TMC2    C6 1755   1.935   0.013   0.240 -0.7371 -0.1662 -0.1207
  115TMC2     C 1756   1.671   4.423   0.186 -0.0581 -0.2608 -0.1922
  115TMC2     O 1757   1.728   4.316   0.174 -0.0159  0.0541 -0.1218
  115TMC2     H 1758   1.907   4.396   0.261 -2.4317  0.2441  3.2998
  115TMC2    H1 1759   1.610   4.695   0.173 -0.9351 -2.6191  1.1420
  115TMC2    H2 1760   2.004   0.095   0.256 -0.1014 -1.0245  1.4868
  115TMC2    C7 1761   1.766   0.174   0.166 -0.3561 -0.2198 -0.4350
  115TMC2    C8 1762   2.106   4.584   0.299 -0.2923 -0.7383  0.8040
  115TMC2    O1 1763   1.652   0.216   0.179  0.0759 -0.1422 -0.0729
  115TMC2    O2 1764   2.179   4.678   0.315 -0.2164 -0.2267 -0.1143
  115TMC2    O5 1765   2.138   4.454   0.289  0.1871 -0.2692 -0.2380
  115TMC2    H5 1766   2.061   4.395   0.302  0.3903 -0.2689  0.9071
  116MPD2     C 1767   1.246   4.219  17.681 -0.1945  0.1844  0.2084
  116MPD2    C1 1768   1.376   4.161  17.694  0.2578 -0.0646  0.0031
  116MPD2    C2 1769   1.476   4.233   0.058 -0.1135  0.1648  0.0213
  116MPD2    C3 1770   1.446   4.363   0.108 -0.5421  0.4921  0.2633
  116MPD2    C4 1771   1.331   4.423   0.067 -0.0445  0.0674  0.4251
  116MPD2    C5 1772   1.228   4.353   0.011 -0.2832 -0.4375 -0.0665
  116MPD2     H 1773   1.573   4.190   0.080  0.2935  0.0060 -2.1211
  116MPD2    H1 1774   1.305   4.525   0.095  0.2439  0.6301 -1.3732
  116MPD2    H2 1775   1.159   4.168  17.641 -0.9061  0.8840  0.8502
  116MPD2    H3 1776   1.131   4.392  17.681 -0.7152 -2.1725 -0.9817
  116MPD2     N 1777   1.534   4.444   0.176  0.2468 -0.3735 -0.3121
  116MPD2    H5 1778   1.495   4.534   0.200  1.7581  0.1554  0.1266
  116MPD2    N1 1779   1.391   4.024  17.647  0.3853  0.2395  0.1996
  116MPD2    H7 1780   1.306   3.981  17.611  0.5269  0.7484 -0.7648
  117TMC2    C1 1781   0.785   1.850  14.451 -0.3409  0.3021 -0.0762
  117TMC2    C2 1782   0.873   1.822  14.556  0.2173 -0.2573  0.4582
  117TMC2    C3 1783   0.984   1.904  14.560 -0.1305 -0.2937 -0.2359
  117TMC2    C4 1784   0.798   1.961  14.372 -0.0232  0.2014  0.5137
  117TMC2    C5 1785   0.919   2.029  14.380  0.2879  0.4291  0.4127
  117TMC2    C6 1786   1.013   2.002  14.472  0.0151 -0.6091 -0.4709
  117TMC2     C 1787   0.648   1.803  14.482  0.1797  0.5279 -0.1605
  117TMC2     O 1788   0.635   1.729  14.580 -0.0425 -0.8546 -0.3412
  117TMC2     H 1789   0.859   1.745  14.630  2.7747  0.9279  2.2007
  117TMC2    H1 1790   0.728   1.983  14.293  0.3042  1.0484  0.4562
  117TMC2    H2 1791   1.096   2.071  14.468  1.3323 -2.0872  0.8563
  117TMC2    C7 1792   0.958   2.120  14.276  0.0798  0.2475  0.6495
  117TMC2    C8 1793   1.057   1.913  14.686 -0.4682  0.1125 -0.7377
  117TMC2    O1 1794   1.073   2.106  14.235  0.5308  0.2281  0.1111
  117TMC2    O2 1795   1.004   1.858  14.783 -0.1325 -0.5279 -0.0208
  117TMC2    O5 1796   1.190   1.903  14.665  0.1819 -0.2309  0.0590
  117TMC2    H5 1797   1.235   1.941  14.586 -0.3020 -1.1805 -0.6755
  118MPD2     C 1798   0.782   2.392  14.123  0.3704 -0.2754 -0.3453
  118MPD2    C1 1799   0.892   2.318  14.159  0.6178  1.0302  0.7442
  118MPD2    C2 1800   1.019   2.370  14.127  0.2230 -0.1069  0.2146
  118MPD2    C3 1801   1.036   2.483  14.054 -0.4840 -0.0903 -0.5635
  118MPD2    C4 1802   0.929   2.550  14.005 -0.0477  0.1662  0.4638
  118MPD2    C5 1803   0.805   2.507  14.041  0.2421  0.0829  0.2957
  118MPD2     H 1804   1.111   2.320  14.155  1.3250  2.2790  0.8804
  118MPD2    H1 1805   0.940   2.632  13.935  1.2401 -0.4461 -0.0444
  118MPD2    H2 1806   0.683   2.361  14.156 -0.5681  1.4555 -1.4941
  118MPD2    H3 1807   0.712   2.555  14.013 -0.5706  0.5478  3.8001
  118MPD2     N 1808   1.161   2.530  14.002  0.6400  0.3913  0.1380
  118MPD2    H5 1809   1.151   2.617  13.950 -0.1185  0.9950  1.2770
  118MPD2    N1 1810   0.861   2.210  14.241  0.2429  0.0704  0.1524
  118MPD2    H7 1811   0.774   2.203  14.292 -0.4732  1.7372 -0.8487
  119MPD2     C 1812   3.686   3.151  13.469  0.1843  0.1995  0.2171
  119MPD2    C1 1813   3.552   3.173  13.500 -0.2441  0.6819  0.0264
  119MPD2    C2 1814   3.457   3.148  13.403  0.4186 -0.2777 -0.5190
  119MPD2    C3 1815   3.493   3.095  13.276  0.3493  0.6284 -0.7784
  119MPD2    C4 1816   3.627   3.065  13.259 -1.0196  0.1255 -0.5362
  119MPD2    C5 1817   3.718   3.091  13.351  0.4379 -0.1809 -0.3573
  119MPD2     H 1818   3.351   3.169  13.414  0.2230 -1.7913  0.5203
  119MPD2    H1 1819   3.650   3.016  13.165 -1.4489 -0.2796 -0.4320
  119MPD2    H2 1820   3.766   3.178  13.537 -0.5569  0.4386  0.9879
  119MPD2    H3 1821   3.823   3.079  13.331  0.9437  1.3090  1.4044
  119MPD2     N 1822   3.393   3.058  13.176  0.4993  0.7828 -0.0690
  119MPD2    H5 1823   3.434   3.047  13.084 -1.8529  1.4562 -1.2042
  119MPD2    N1 1824   3.516   3.230  13.627 -0.0590 -0.5811 -0.7328
  119MPD2    H7 1825   3.587   3.268  13.689  0.1951 -1.7669 -0.2955
  120TCq2    C1 1826   3.256   3.045  13.194 -0.2382 -0.1323 -0.0607
  120TCq2    O2 1827   3.198   3.020  13.300 -0.3447 -0.1975  0.1314
  120TCq2    C2 1828   3.175   3.031  13.072  0.5267 -0.5059  0.3700
  120TCq2    C3 1829   3.206   3.128  12.981 -0.2438 -0.2872 -0.2531
  120TCq2    C4 1830   3.100   3.184  12.917 -0.3031 -0.2617 -0.3094
  120TCq2    C5 1831   2.972   3.142  12.930  0.2822 -0.2092 -1.0315
  120TCq2    C6 1832   2.949   3.054  13.029 -0.2833  0.2094  0.2379
  120TCq2    C7 1833   3.050   2.994  13.102 -0.1715 -0.2306  0.3173
  120TCq2    C8 1834   2.816   3.062  13.089  0.4992  0.3002 -0.0187
  120TCq2    O4 1835   2.717   3.100  13.024  0.5013  0.2543 -0.3896
  120TCq2    C9 1836   3.119   3.313  12.851  0.9825 -0.0463 -0.4068
  120TCq2    O5 1837   3.239   3.354  12.844  0.3085 -0.1292 -0.2023
  120TCq2    O6 1838   3.033   3.356  12.773  0.0284 -0.4472 -0.3968
  120TCq2    H2 1839   3.304   3.173  12.977 -0.1746 -0.4974 -0.8843
  120TCq2    H3 1840   2.894   3.203  12.887 -0.1028 -1.7358 -2.5134
  120TCq2    H4 1841   3.030   2.917  13.175  3.1101  1.5887  3.1545
  121TMC2    C1 1842   0.004   0.107  13.956 -0.1646 -0.2967  0.4017
  121TMC2    C2 1843   4.691   0.010  14.046  0.3390 -0.3157  0.5294
  121TMC2    C3 1844   4.594   0.043  14.132  0.2972 -0.5261 -0.3960
  121TMC2    C4 1845   4.674   0.231  13.956  0.1355  0.0562  0.7575
  121TMC2    C5 1846   4.573   0.259  14.044  0.3441  0.5630 -0.1809
  121TMC2    C6 1847   4.528   0.158  14.124 -0.4756  0.4063 -0.0306
  121TMC2     C 1848   0.105   0.077  13.853  0.4866  0.4186  0.8799
  121TMC2     O 1849   0.180   4.706  13.880 -0.2859 -0.1814  0.3888
  121TMC2     H 1850   0.026   4.644  14.055  1.4842  0.3442 -0.4469
  121TMC2    H1 1851   4.707   0.317  13.898 -0.1289 -1.2865 -1.3626
  121TMC2    H2 1852   4.454   0.187  14.197 -2.1790 -0.2954 -1.4678
  121TMC2    C7 1853   4.480   0.358  13.993 -0.2128  0.1835 -0.1040
  121TMC2    C8 1854   4.524   4.665  14.204 -0.1206 -0.1955 -0.2960
  121TMC2    O1 1855   4.528   0.456  13.937  0.5711  0.0986 -0.0039
  121TMC2    O2 1856   4.413   4.679  14.253  0.1355  0.5446 -1.1725
  121TMC2    O5 1857   4.621   4.585  14.249  0.0603 -0.0380 -0.5171
  121TMC2    H5 1858   4.715   4.595  14.221  0.2956  2.2984  1.0865
  122MPD2     C 1859   0.311   0.094  13.625 -0.1849  0.1958 -0.2210
  122MPD2    C1 1860   0.205   0.173  13.650  0.3563  0.5001  0.1679
  122MPD2    C2 1861   0.183   0.279  13.559  0.1161 -0.9195 -0.1354
  122MPD2    C3 1862   0.275   0.300  13.453 -0.3600 -0.5088  0.1526
  122MPD2    C4 1863   0.384   0.219  13.437 -0.4645 -0.6556 -0.3344
  122MPD2    C5 1864   0.397   0.115  13.521  0.7768  1.0033 -0.3443
  122MPD2     H 1865   0.095   0.337  13.584  0.0816 -0.1289 -2.1238
  122MPD2    H1 1866   0.443   0.225  13.346  0.6927  3.6680  0.6592
  122MPD2    H2 1867   0.349   0.019  13.694  0.2700  2.4554  1.9759
  122MPD2    H3 1868   0.482   0.049  13.505 -1.3246 -1.0847 -2.7298
  122MPD2     N 1869   0.252   0.397  13.352 -0.0147 -0.0526 -0.1023
  122MPD2    H5 1870   0.307   0.405  13.268 -1.0987 -1.5276 -0.9689
  122MPD2    N1 1871   0.113   0.168  13.756 -0.8669  0.0035 -0.1301
  122MPD2    H7 1872   0.035   0.233  13.746  0.0111  1.2670  1.2404
  123MPD2     C 1873   3.060   2.380   9.168 -0.7262  0.6268 -0.4257
  123MPD2    C1 1874   3.019   2.399   9.294 -0.1638  0.0817 -0.0790
  123MPD2    C2 1875   3.088   2.481   9.384  0.8463 -0.4479 -0.0506
  123MPD2    C3 1876   3.203   2.547   9.331  0.9492  0.4182  0.8881
  123MPD2    C4 1877   3.231   2.535   9.198  0.4156 -0.3359  0.6775
  123MPD2    C5 1878   3.164   2.449   9.129 -0.3191 -1.0930  0.1113
  123MPD2     H 1879   3.060   2.488   9.489 -1.8199 -0.3064 -0.7828
  123MPD2    H1 1880   3.322   2.574   9.154 -0.2755  0.6401  0.0996
  123MPD2    H2 1881   3.002   2.321   9.098  1.9118 -0.3062 -1.8305
  123MPD2    H3 1882   3.196   2.440   9.026 -0.0487  0.8500  0.0123
  123MPD2     N 1883   3.268   2.634   9.418 -0.3504  0.4076  0.6351
  123MPD2    H5 1884   3.250   2.619   9.517  0.0564 -2.0357  0.3421
  123MPD2    N1 1885   2.897   2.337   9.334  0.6998  0.4805 -0.2494
  123MPD2    H7 1886   2.836   2.305   9.260 -0.7439 -1.2449  1.7011
  124TCq2    C1 1887   3.352   2.733   9.369 -0.0065 -0.3758 -0.3009
  124TCq2    O2 1888   3.382   2.766   9.259  0.1684 -0.5945 -0.4983
  124TCq2    C2 1889   3.400   2.815   9.479  0.5630  0.4453  0.0451
  124TCq2    C3 1890   3.413   2.950   9.453  0.1745  0.4844 -0.7375
  124TCq2    C4 1891   3.448   3.029   9.552  0.1023  0.4173 -0.3059
  124TCq2    C5 1892   3.462   2.988   9.678  0.0858 -0.6532 -0.3345
  124TCq2    C6 1893   3.454   2.850   9.703 -0.3724  0.4672  0.2262
  124TCq2    C7 1894   3.422   2.763   9.604  0.1510  0.0797 -0.4042
  124TCq2    C8 1895   3.516   2.785   9.814 -0.1975 -0.4130 -0.2192
  124TCq2    O4 1896   3.487   2.672   9.848  0.4030  0.0544 -0.0793
  124TCq2    C9 1897   3.456   3.173   9.518 -0.5220  0.1738 -0.5146
  124TCq2    O5 1898   3.417   3.211   9.403 -1.0170  0.0855  0.2363
  124TCq2    O6 1899   3.487   3.246   9.611 -0.3477 -0.3326 -0.1850
  124TCq2    H2 1900   3.398   2.987   9.352 -0.5571 -2.2338 -1.6130
  124TCq2    H3 1901   3.481   3.057   9.760 -0.5333 -0.5243 -0.3024
  124TCq2    H4 1902   3.413   2.658   9.628  1.5530  0.5135  1.9615
  125TMC2    C1 1903   4.258   4.369   9.980 -0.0608  0.6923 -0.1585
  125TMC2    C2 1904   4.327   4.294  10.070 -0.7193  0.0739 -0.1178
  125TMC2    C3 1905   4.462   4.323  10.091 -0.0270 -0.4007 -0.4878
  125TMC2    C4 1906   4.313   4.472   9.914 -0.5152 -0.3607 -0.3014
  125TMC2    C5 1907   4.442   4.494   9.933 -0.2101 -1.0345  0.4350
  125TMC2    C6 1908   4.525   4.419  10.015  0.3879 -0.3460 -0.3872
  125TMC2     C 1909   4.129   4.324   9.932  0.5816 -0.6773  0.0765
  125TMC2     O 1910   4.069   4.241   9.998  0.3265  0.5101  0.4222
  125TMC2     H 1911   4.283   4.219  10.135  1.9324 -0.6209  0.8749
  125TMC2    H1 1912   4.265   4.550   9.856 -1.7890 -0.6073  0.4192
  125TMC2    H2 1913   4.623   4.463  10.033  0.2169  0.7908 -2.2027
  125TMC2    C7 1914   4.507   4.567   9.825 -0.3199  0.1987 -0.5396
  125TMC2    C8 1915   4.543   4.242  10.174 -0.0775  0.1459  0.2512
  125TMC2    O1 1916   4.435   4.645   9.762 -0.3248 -0.1608 -0.0296
  125TMC2    O2 1917   4.652   4.291  10.202 -0.2133 -0.2340 -0.1203
  125TMC2    O5 1918   4.513   4.116  10.131 -0.4439 -0.1923 -0.1821
  125TMC2    H5 1919   4.419   4.093  10.116 -0.7154  1.2814 -0.7703
  126MPD1     C 1920   3.693   4.359   9.659  0.4682  0.3337  0.3347
  126MPD1    C1 1921   3.791   4.428   9.593 -0.2714  0.5716 -0.2253
  126MPD1    C2 1922   3.922   4.421   9.646 -0.0058  0.3577 -0.5204
  126MPD1    C3 1923   3.949   4.360   9.767 -0.3223 -0.0807 -0.2936
  126MPD1    C4 1924   3.840   4.293   9.831 -0.4190  0.0550 -0.0812
  126MPD1    C5 1925   3.710   4.295   9.779 -0.4644  0.2231 -0.4071
  126MPD1     H 1926   4.002   4.471   9.593  0.0694  0.5965 -0.1828
  126MPD1    H1 1927   3.848   4.241   9.926 -0.0080  1.5069  0.6776
  126MPD1    H2 1928   3.588   4.370   9.632  0.6884  1.8943  0.1223
  126MPD1    H3 1929   3.632   4.236   9.825  1.0670 -0.4479  1.3319
  126MPD1     N 1930   4.082   4.376   9.816  0.0816 -0.1093 -0.2580
  126MPD1    H5 1931   4.147   4.423   9.755  1.6684 -0.6463  1.0155
  126MPD1    N1 1932   3.768   4.485   9.464 -0.0288 -0.4919  0.6249
  126MPD1    H6 1933   3.670   4.513   9.456  0.1568  0.1380  0.5084
  126MPD1    H7 1934   3.836   4.553   9.430 -1.2623  0.7160  0.5807
  127MPD2     C 1935   4.714   3.368   9.701 -0.0155  0.5230 -0.2873
  127MPD2    C1 1936   4.711   3.389   9.840  1.1813  0.0469 -0.2860
  127MPD2    C2 1937   0.094   3.439   9.912 -0.5345 -0.0349  0.7378
  127MPD2    C3 1938   0.205   3.490   9.843  0.5199 -0.3258  0.0572
  127MPD2    C4 1939   0.212   3.474   9.697 -0.3364  1.0505 -0.4138
  127MPD2    C5 1940   0.103   3.418   9.636  0.0103  0.2456  0.6677
  127MPD2     H 1941   0.091   3.459  10.018 -0.6578 -1.2469  0.9604
  127MPD2    H1 1942   0.293   3.512   9.636  0.8845 -1.0962 -0.0976
  127MPD2    H2 1943   4.627   3.326   9.652  1.1331 -0.8941 -1.1191
  127MPD2    H3 1944   0.106   3.397   9.529 -0.6783  1.4894  0.4043
  127MPD2     N 1945   0.321   3.504   9.919  0.3394 -0.2075 -0.4275
  127MPD2    H5 1946   0.314   3.487  10.019 -1.8413  1.7877 -0.2373
  127MPD2    N1 1947   4.599   3.340   9.913  0.1082 -0.4511 -0.3626
  127MPD2    H7 1948   4.549   3.267   9.862  0.3836 -0.7701 -0.1767
  128TCq2    C1 1949   4.580   3.351  10.047  0.2541 -0.1480  0.6670
  128TCq2    O2 1950   4.647   3.400  10.138 -0.6874  0.3288  0.0376
  128TCq2    C2 1951   4.476   3.255  10.084  0.5911  0.2262  0.2847
  128TCq2    C3 1952   4.475   3.198  10.206 -0.5223  0.6799 -0.4611
  128TCq2    C4 1953   4.366   3.131  10.251  0.2126 -0.3815 -0.4648
  128TCq2    C5 1954   4.257   3.114  10.171 -0.2209 -0.0507  0.3273
  128TCq2    C6 1955   4.257   3.174  10.050  0.1304  0.4203 -0.2524
  128TCq2    C7 1956   4.362   3.254  10.003 -0.1898  0.0831  0.1471
  128TCq2    C8 1957   4.163   3.130   9.948  0.5799  0.0030 -0.4232
  128TCq2    O4 1958   4.108   3.208   9.871  0.5297 -0.7447  0.0797
  128TCq2    C9 1959   4.381   3.079  10.379 -0.2547  0.0370 -0.3931
  128TCq2    O5 1960   4.293   3.004  10.415 -0.2263  0.2021  0.0422
  128TCq2    O6 1961   4.470   3.129  10.451 -0.1894  0.7268  0.0960
  128TCq2    H2 1962   4.562   3.214  10.269 -0.0062 -2.5316 -0.3628
  128TCq2    H3 1963   4.173   3.069  10.224 -0.7686  3.0206  2.0804
  128TCq2    H4 1964   4.351   3.312   9.912  2.5055  1.1206  0.4788
  129MPD2     C 1965   4.669   3.240   1.398 -0.4309  0.1120  0.3752
  129MPD2    C1 1966   4.545   3.282   1.437 -0.8568  0.7003 -0.3290
  129MPD2    C2 1967   4.506   3.413   1.394  0.6355  0.1499 -0.2270
  129MPD2    C3 1968   4.590   3.491   1.314 -0.1522  0.2009 -0.2798
  129MPD2    C4 1969   4.701   3.437   1.260 -0.1430  0.0855  0.7860
  129MPD2    C5 1970   0.021   3.314   1.308  0.0958  0.6234 -0.5550
  129MPD2     H 1971   4.411   3.452   1.430  0.9205  0.6263  0.0048
  129MPD2    H1 1972   0.046   3.487   1.193  0.6618 -0.7720  0.9832
  129MPD2    H2 1973   4.712   3.149   1.439 -1.3672  0.4216  2.0623
  129MPD2    H3 1974   0.112   3.274   1.265  0.7841  2.0362 -0.3937
  129MPD2     N 1975   4.532   3.609   1.263  0.0136  0.3652  0.0644
  129MPD2    H5 1976   4.451   3.643   1.315 -2.3741  0.0013 -3.3974
  129MPD2    N1 1977   4.464   3.208   1.522  0.3677  0.2514 -0.0608
  129MPD2    H7 1978   4.382   3.258   1.554 -0.5036 -0.8987 -0.4856
  130TCq2    C1 1979   4.477   3.076   1.554  0.4534  0.0851  0.1182
  130TCq2    O2 1980   4.541   2.980   1.505  0.4833 -0.0917 -0.1506
  130TCq2    C2 1981   4.380   3.047   1.662  0.2324 -0.0214  0.3288
  130TCq2    C3 1982   4.322   3.149   1.735 -0.0194 -1.0754  0.5342
  130TCq2    C4 1983   4.216   3.109   1.814  0.0302 -0.4116  0.1105
  130TCq2    C5 1984   4.178   2.977   1.826 -0.3350 -0.4245  0.6310
  130TCq2    C6 1985   4.256   2.876   1.771 -0.2008  0.5610  0.8164
  130TCq2    C7 1986   4.348   2.912   1.675  0.4429  0.7240  0.0287
  130TCq2    C8 1987   4.183   2.756   1.768  0.3331 -0.0190 -0.0440
  130TCq2    O4 1988   4.067   2.752   1.800  0.5391 -0.0527  0.0142
  130TCq2    C9 1989   4.137   3.203   1.884 -0.3474  0.3392 -0.0078
  130TCq2    O5 1990   4.175   3.320   1.873  0.6965  0.5954 -0.1581
  130TCq2    O6 1991   4.020   3.170   1.912 -0.3230 -0.3814 -0.2698
  130TCq2    H2 1992   4.366   3.248   1.733 -2.1868 -0.1422 -1.2602
  130TCq2    H3 1993   4.097   2.958   1.895 -0.0105  0.1466  1.1730
  130TCq2    H4 1994   4.403   2.846   1.609 -2.4571 -1.3487 -0.3013
  131MPD2     C 1995   2.484   3.016   9.428  0.0130 -0.3246  0.0488
  131MPD2    C1 1996   2.608   2.950   9.442  0.7271  0.1939 -0.3635
  131MPD2    C2 1997   2.623   2.811   9.412  0.3514 -0.2859  0.1487
  131MPD2    C3 1998   2.510   2.737   9.387 -0.2502 -0.6723  0.2919
  131MPD2    C4 1999   2.385   2.801   9.363  0.0574  0.1002  0.3127
  131MPD2    C5 2000   2.376   2.935   9.395 -0.4997 -0.4651  0.2087
  131MPD2     H 2001   2.717   2.763   9.435  1.3887  0.5235 -2.4287
  131MPD2    H1 2002   2.299   2.736   9.354 -1.5079  2.0614  1.0556
  131MPD2    H2 2003   2.465   3.118   9.459 -2.2884 -1.3666  2.0652
  131MPD2    H3 2004   2.276   2.978   9.390  0.0510  0.5039 -2.5304
  131MPD2     N 2005   2.525   2.598   9.389  0.3041  0.8782 -0.4948
  131MPD2    H5 2006   2.614   2.558   9.417 -0.0522  1.3286  1.2766
  131MPD2    N1 2007   2.713   3.023   9.508  0.0461 -0.1104  0.5707
  131MPD2    H7 2008   2.696   3.121   9.529 -1.1617 -0.0782 -0.5061
  132TCq2    C1 2009   3.164   3.051   9.871 -0.1475  0.0335  0.3303
  132TCq2    O2 2010   3.154   2.927   9.881  0.7655 -0.0317  0.0211
  132TCq2    C2 2011   3.077   3.114   9.776  0.5181 -0.7897 -1.2120
  132TCq2    C3 2012   3.026   3.235   9.807  0.1389 -0.7611 -0.5718
  132TCq2    C4 2013   2.913   3.282   9.747 -0.3611  0.6151  1.1094
  132TCq2    C5 2014   2.840   3.196   9.661  0.0628 -0.5597  0.4083
  132TCq2    C6 2015   2.898   3.067   9.635 -0.3367  0.1616  0.5753
  132TCq2    C7 2016   3.015   3.020   9.692  0.2783 -0.5245 -0.1847
  132TCq2    C8 2017   2.828   2.970   9.558 -0.9460  0.4347  0.3655
  132TCq2    O4 2018   2.873   2.859   9.558 -0.1309 -0.0869  0.2520
  132TCq2    C9 2019   2.855   3.407   9.787  0.1106 -0.0675 -0.8208
  132TCq2    O5 2020   2.766   3.467   9.726 -0.6283  0.1747  0.5573
  132TCq2    O6 2021   2.901   3.443   9.901 -0.2830  0.5917 -0.5281
  132TCq2    H2 2022   3.089   3.293   9.874 -1.2416  2.0679 -1.7673
  132TCq2    H3 2023   2.754   3.236   9.608  1.1471  1.5133  0.2267
  132TCq2    H4 2024   3.066   2.930   9.660  0.5936 -0.2973 -0.3277
  133MPD2     C 2025   1.340   3.046   9.253 -0.7333  0.3611 -0.2732
  133MPD2    C1 2026   1.451   2.974   9.295  0.4408 -0.4388 -0.2234
  133MPD2    C2 2027   1.570   3.036   9.326  0.3919  0.1889  0.3392
  133MPD2    C3 2028   1.585   3.172   9.314  0.2755  0.6033 -0.2736
  133MPD2    C4 2029   1.476   3.242   9.274 -1.0426 -0.9157 -0.0218
  133MPD2    C5 2030   1.358   3.184   9.248 -0.2409  0.2227  0.5788
  133MPD2     H 2031   1.661   2.983   9.354 -0.1016  0.0354  1.6334
  133MPD2    H1 2032   1.483   3.349   9.259 -0.7973 -1.3724 -3.1210
  133MPD2    H2 2033   1.245   2.999   9.231 -0.7774  0.2875  0.0723
  133MPD2    H3 2034   1.281   3.253   9.216 -0.0757  0.1293 -0.0155
  133MPD2     N 2035   1.706   3.245   9.317  0.4067  0.0027 -0.2795
  133MPD2    H5 2036   1.695   3.345   9.309 -0.3420 -0.0182  0.4285
  133MPD2    N1 2037   1.446   2.831   9.301 -0.8000  0.2467 -0.5710
  133MPD2    H7 2038   1.353   2.792   9.305 -1.1670  1.0230 -1.6029
  134TCq2    C1 2039   1.558   2.746   9.324 -0.2572 -0.0501  0.2181
  134TCq2    O2 2040   1.676   2.764   9.296 -0.3207 -0.4141 -0.3699
  134TCq2    C2 2041   1.521   2.612   9.343  0.2547 -0.1670  0.1678
  134TCq2    C3 2042   1.603   2.513   9.298  0.0522 -0.2966  0.2583
  134TCq2    C4 2043   1.570   2.383   9.321  0.1655 -0.3351  0.9308
  134TCq2    C5 2044   1.455   2.353   9.383  0.0785  0.3235 -0.0560
  134TCq2    C6 2045   1.382   2.449   9.440 -0.0089 -1.2630 -0.5873
  134TCq2    C7 2046   1.416   2.583   9.426 -0.1503 -0.1116  0.2350
  134TCq2    C8 2047   1.249   2.425   9.499  0.9060  0.0017 -0.6233
  134TCq2    O4 2048   1.185   2.325   9.467 -0.3438 -0.3763  0.2359
  134TCq2    C9 2049   1.663   2.289   9.266 -0.5291 -0.1217 -0.5305
  134TCq2    O5 2050   1.778   2.326   9.222 -0.1633 -0.3912 -0.1499
  134TCq2    O6 2051   1.621   2.168   9.267  0.1328 -0.4731  1.1232
  134TCq2    H2 2052   1.692   2.530   9.238 -0.4185  3.2043  0.5514
  134TCq2    H3 2053   1.415   2.252   9.384 -0.9968  0.7352 -1.9420
  134TCq2    H4 2054   1.355   2.664   9.464 -3.2083 -2.1131 -0.3536
  135MPD2     C 2055   0.291   0.386   9.431 -0.1834  0.2156 -0.0318
  135MPD2    C1 2056   0.221   0.288   9.366  0.2934 -0.4357 -0.3054
  135MPD2    C2 2057   0.295   0.182   9.317  0.2813  0.0598  0.2621
  135MPD2    C3 2058   0.432   0.178   9.335 -0.3632  0.7285 -0.1879
  135MPD2    C4 2059   0.491   0.267   9.420  0.2564 -0.1155  0.1551
  135MPD2    C5 2060   0.419   0.372   9.457 -0.2305  0.1342 -0.1239
  135MPD2     H 2061   0.237   0.100   9.276  0.0671  0.5837 -0.4969
  135MPD2    H1 2062   0.595   0.252   9.445  0.0924 -3.0032 -0.8321
  135MPD2    H2 2063   0.246   0.478   9.468  1.5381  0.2533  1.9812
  135MPD2    H3 2064   0.477   0.442   9.517 -0.2901 -0.0835  0.1888
  135MPD2     N 2065   0.517   0.073   9.291  0.4397 -0.0660 -0.0496
  135MPD2    H5 2066   0.608   0.080   9.334 -0.5229  1.2606  1.7879
  135MPD2    N1 2067   0.084   0.291   9.349  0.1830  0.4866  0.1366
  135MPD2    H7 2068   0.036   0.215   9.300 -0.0498  2.8073 -3.2087
  136TCq2    C1 2069   4.720   0.396   9.395 -0.1300 -0.2168 -0.0727
  136TCq2    O2 2070   0.023   0.507   9.434  0.6139  0.0743 -0.1775
  136TCq2    C2 2071   4.577   0.354   9.412  0.4287 -0.4352  0.3098
  136TCq2    C3 2072   4.529   0.240   9.353  0.3383  0.2390 -0.6065
  136TCq2    C4 2073   4.421   0.180   9.408  0.2678  0.3838 -0.1978
  136TCq2    C5 2074   4.364   0.220   9.519  0.0669  0.3821 -0.2766
  136TCq2    C6 2075   4.409   0.333   9.581  0.0470 -0.2319 -0.6074
  136TCq2    C7 2076   4.520   0.400   9.530  0.3166 -0.0428  0.1892
  136TCq2    C8 2077   4.355   0.367   9.711  0.6896  0.8162  0.4923
  136TCq2    O4 2078   4.369   0.485   9.745 -0.2153  0.0294 -0.1428
  136TCq2    C9 2079   4.363   0.064   9.341 -0.7524 -0.1103  0.1035
  136TCq2    O5 2080   4.433   0.014   9.248  0.1239 -0.3326  0.3232
  136TCq2    O6 2081   4.242   0.037   9.373  0.1524 -0.3596  0.3143
  136TCq2    H2 2082   4.582   0.200   9.267  1.1402  0.4094 -0.1919
  136TCq2    H3 2083   4.274   0.175   9.560  2.1798 -2.4388  1.2543
  136TCq2    H4 2084   4.564   0.484   9.582  1.0168 -0.6103  0.5211
  137MPD2     C 2085   0.508   4.022   9.894 -0.2553  0.3458 -0.3283
  137MPD2    C1 2086   0.382   3.975   9.904  0.2176  0.2264 -0.0112
  137MPD2    C2 2087   0.307   3.997  10.016  0.8224 -0.0613  0.4121
  137MPD2    C3 2088   0.355   4.078  10.115 -0.4074 -0.0812 -1.0356
  137MPD2    C4 2089   0.477   4.132  10.102  0.1178 -0.5352  0.6025
  137MPD2    C5 2090   0.554   4.107   9.990  0.3510  0.0823 -1.1868
  137MPD2     H 2091   0.203   3.968  10.024  0.7123  0.4180  0.7332
  137MPD2    H1 2092   0.520   4.202  10.173  2.3957 -0.4088 -0.8962
  137MPD2    H2 2093   0.571   4.005   9.807  0.6079  3.3172 -0.2964
  137MPD2    H3 2094   0.646   4.162   9.971  1.0743 -1.4420 -2.1186
  137MPD2     N 2095   0.268   4.115  10.219  0.5406 -0.1565 -0.6452
  137MPD2    H5 2096   0.180   4.064  10.221  0.9400 -0.8231 -0.0194
  137MPD2    N1 2097   0.339   3.906   9.792 -0.3468 -0.3063  0.2778
  137MPD2    H7 2098   0.413   3.890   9.725 -0.0486 -0.5548  0.6717
  138TCq2    C1 2099   0.218   3.845   9.772  0.1879 -0.2027 -0.1681
  138TCq2    O2 2100   0.123   3.849   9.852  0.1377 -0.3532 -0.5079
  138TCq2    C2 2101   0.183   3.813   9.635 -0.6425  0.2139  1.0530
  138TCq2    C3 2102   0.251   3.860   9.528  0.0077 -0.6695 -0.3585
  138TCq2    C4 2103   0.194   3.851   9.403  0.2512  0.0789 -0.1221
  138TCq2    C5 2104   0.069   3.786   9.397  0.0367 -0.1670 -0.0235
  138TCq2    C6 2105   0.007   3.735   9.505 -0.3842  0.3018  0.0842
  138TCq2    C7 2106   0.063   3.748   9.630  0.3983 -0.4986  0.2341
  138TCq2    C8 2107   4.609   3.654   9.492  0.8644  0.5526  0.3527
  138TCq2    O4 2108   4.581   3.621   9.376  0.2200 -0.0636  0.1583
  138TCq2    C9 2109   0.259   3.897   9.282  0.2851 -0.2237 -0.0300
  138TCq2    O5 2110   0.194   3.885   9.170  0.0217 -0.1600  0.0653
  138TCq2    O6 2111   0.379   3.936   9.291 -0.3575  0.1358 -0.0877
  138TCq2    H2 2112   0.351   3.902   9.528 -0.9411  1.5990 -0.2101
  138TCq2    H3 2113   0.017   3.787   9.301 -0.4629  0.9634  0.2574
  138TCq2    H4 2114   0.026   3.688   9.712  2.0913 -1.2109  0.4832
  139TMC2    C1 2115   4.682   3.205  13.537 -0.0118  0.8208  0.3084
  139TMC2    C2 2116   4.633   3.239  13.414 -0.2687 -0.4844 -0.4464
  139TMC2    C3 2117   4.512   3.290  13.395 -0.1403 -0.0133  0.0529
  139TMC2    C4 2118   4.594   3.217  13.648  0.2121  0.0381  0.4825
  139TMC2    C5 2119   4.472   3.260  13.621  0.6012  0.0207  0.2471
  139TMC2    C6 2120   4.427   3.303  13.497  0.5982 -0.0269 -0.0370
  139TMC2     C 2121   0.055   3.101  13.541 -0.0696  0.1841 -0.5250
  139TMC2     O 2122   0.082   3.044  13.439 -0.1745  0.1259 -0.5550
  139TMC2     H 2123   4.696   3.227  13.328  0.1697  3.6796 -0.6673
  139TMC2    H1 2124   4.619   3.162  13.738  0.8961  3.4476  2.3867
  139TMC2    H2 2125   4.329   3.345  13.474  1.1375  1.0110 -0.4405
  139TMC2    C7 2126   4.384   3.281  13.731 -0.4983  0.2694 -0.1988
  139TMC2    C8 2127   4.485   3.340  13.262 -0.5413 -0.2742 -0.1341
  139TMC2    O1 2128   4.268   3.295  13.698  0.0091 -0.5197 -0.5023
  139TMC2    O2 2129   4.571   3.361  13.179 -0.2337 -0.0228  0.1507
  139TMC2    O5 2130   4.359   3.308  13.228 -0.0306 -0.3553 -0.4208
  139TMC2    H5 2131   4.314   3.277  13.309 -1.6751  1.6012 -0.5780
  140MPD2     C 2132   0.160   2.931  13.846 -0.4767 -0.3112 -0.0489
  140MPD2    C1 2133   0.133   2.945  13.711  0.8933  0.3384 -0.3950
  140MPD2    C2 2134   0.144   2.837  13.624  0.3843  0.2203  0.4483
  140MPD2    C3 2135   0.149   2.705  13.674 -0.0106  0.2084 -0.2972
  140MPD2    C4 2136   0.171   2.694  13.808  0.2193  0.4438 -0.1434
  140MPD2    C5 2137   0.190   2.805  13.892  0.3420  0.3524  0.1740
  140MPD2     H 2138   0.137   2.843  13.516 -2.8804  3.4460  0.8415
  140MPD2    H1 2139   0.179   2.600  13.861  1.4365  0.7965  0.2999
  140MPD2    H2 2140   0.171   3.013  13.916 -0.2857  1.4843 -2.1696
  140MPD2    H3 2141   0.214   2.800  13.998 -0.9945  1.5001  0.5295
  140MPD2     N 2142   0.112   2.604  13.587  0.4050  0.5113 -0.4319
  140MPD2    H5 2143   0.078   2.640  13.498  1.0319  1.0133 -0.4687
  140MPD2    N1 2144   0.088   3.063  13.666 -0.4348 -0.4683  0.0581
  140MPD2    H7 2145   0.075   3.127  13.743 -0.8284 -0.7815  0.2520
  141TCq2    C1 2146   0.570   4.039  14.652  0.1248  0.0705  0.1535
  141TCq2    O2 2147   0.505   4.111  14.576 -0.2423 -0.3766 -0.1946
  141TCq2    C2 2148   0.584   4.080  14.797 -0.2355 -0.4384  0.1456
  141TCq2    C3 2149   0.601   3.980  14.894  0.3819 -0.3835  1.0662
  141TCq2    C4 2150   0.530   3.990  15.008  0.1467 -0.1949  0.0439
  141TCq2    C5 2151   0.462   4.106  15.037  0.3002  0.5191  0.1985
  141TCq2    C6 2152   0.457   4.207  14.941  0.5882  0.0425 -0.0297
  141TCq2    C7 2153   0.518   4.193  14.823 -0.3380 -0.2537 -0.4387
  141TCq2    C8 2154   0.411   4.338  14.993  1.0165  0.1187 -1.2253
  141TCq2    O4 2155   0.355   4.340  15.104 -0.2787 -0.1918  0.0196
  141TCq2    C9 2156   0.538   3.887  15.104 -0.4217 -0.3203  0.2273
  141TCq2    O5 2157   0.489   3.914  15.220 -0.3080  0.1669  0.0566
  141TCq2    O6 2158   0.611   3.789  15.077 -0.2014 -0.4255  0.1761
  141TCq2    H2 2159   0.652   3.886  14.875  2.1268  0.7281  0.3344
  141TCq2    H3 2160   0.412   4.114  15.133  1.8295  0.7420  0.9746
  141TCq2    H4 2161   0.511   4.268  14.745 -1.7955  0.8284  0.7355
  142MPD2     C 2162   2.898   1.918  10.662 -0.2926 -0.4812 -0.0106
  142MPD2    C1 2163   2.932   1.971  10.537  0.3279 -0.2667  0.3408
  142MPD2    C2 2164   3.024   2.075  10.526  0.8209  0.7751 -0.1627
  142MPD2    C3 2165   3.095   2.115  10.634 -0.2123  0.1344 -0.0643
  142MPD2    C4 2166   3.065   2.057  10.761  0.1412  0.1251 -0.2259
  142MPD2    C5 2167   2.960   1.969  10.768  0.1799  0.5886  0.2147
  142MPD2     H 2168   3.053   2.108  10.427 -0.6358  4.5352  0.7015
  142MPD2    H1 2169   3.124   2.076  10.850  0.5746  1.5297 -0.8194
  142MPD2    H2 2170   2.821   1.843  10.675 -0.3893 -0.2859  0.5810
  142MPD2    H3 2171   2.934   1.937  10.869 -2.5379  1.9094 -0.0678
  142MPD2     N 2172   3.202   2.211  10.620  1.0886 -0.2768 -0.3556
  142MPD2    H5 2173   3.271   2.198  10.694  0.7724  0.6570  0.1066
  142MPD2    N1 2174   2.860   1.915  10.423  0.6325  0.3739  0.7171
  142MPD2    H7 2175   2.800   1.836  10.444 -2.1366  1.7561 -1.9796
  143TCq2    C1 2176   3.216   2.300  10.519 -0.1745  0.9808  0.4681
  143TCq2    O2 2177   3.138   2.332  10.432  0.2817 -0.7527 -0.0528
  143TCq2    C2 2178   3.334   2.389  10.533 -0.0135 -0.3532 -0.2381
  143TCq2    C3 2179   3.447   2.347  10.602 -0.0562 -0.6095  0.7251
  143TCq2    C4 2180   3.557   2.426  10.596  0.0160 -0.0857  0.1827
  143TCq2    C5 2181   3.556   2.548  10.531  0.3971  0.6254  0.1416
  143TCq2    C6 2182   3.443   2.586  10.463 -0.2943  0.2833 -0.1166
  143TCq2    C7 2183   3.333   2.504  10.460 -0.6055  0.4131  0.6981
  143TCq2    C8 2184   3.461   2.673  10.341 -0.2960 -0.3417 -0.1800
  143TCq2    O4 2185   3.385   2.660  10.248  0.1750 -0.9114  0.0521
  143TCq2    C9 2186   3.669   2.375  10.663  0.0870 -0.2552 -0.7467
  143TCq2    O5 2187   3.669   2.258  10.712  0.3982  0.1379 -0.0833
  143TCq2    O6 2188   3.764   2.457  10.677 -0.2090  0.0078  0.5856
  143TCq2    H2 2189   3.452   2.251  10.653  0.0554 -0.4660  0.9865
  143TCq2    H3 2190   3.647   2.605  10.546  1.0144  0.0755 -1.4934
  143TCq2    H4 2191   3.239   2.533  10.414 -0.0262  1.4677  0.1555
  144MPD2     C 2192   0.341   0.797   0.841 -0.3088 -0.1468  0.5023
  144MPD2    C1 2193   0.444   0.863   0.781  0.1704  0.4620  0.3844
  144MPD2    C2 2194   0.568   0.819   0.808 -0.3942  0.2071  0.8315
  144MPD2    C3 2195   0.607   0.718   0.897  0.6081 -0.3148  0.2168
  144MPD2    C4 2196   0.501   0.657   0.958  0.4114  0.0633  0.4607
  144MPD2    C5 2197   0.372   0.695   0.924  0.0886 -0.3868 -0.0964
  144MPD2     H 2198   0.648   0.882   0.769 -0.0613 -0.6665  0.1047
  144MPD2    H1 2199   0.509   0.567   1.018 -0.1406  0.1370  0.6474
  144MPD2    H2 2200   0.238   0.830   0.837 -0.3669 -0.5053 -0.9779
  144MPD2    H3 2201   0.289   0.653   0.979 -0.3125  0.1570 -0.2911
  144MPD2     N 2202   0.741   0.687   0.916 -0.3669  0.2385 -0.4573
  144MPD2    H5 2203   0.806   0.730   0.851 -0.5871  0.3553 -0.6026
  144MPD2    N1 2204   0.429   0.978   0.697  0.5019  0.0349  0.2452
  144MPD2    H7 2205   0.514   1.010   0.652  0.4661 -0.2603 -0.0242
  145TCq2    C1 2206   0.793   0.591   1.002 -0.2321  0.5892 -0.0665
  145TCq2    O2 2207   0.730   0.510   1.073 -0.1223  0.0136 -0.5215
  145TCq2    C2 2208   0.933   0.589   0.991  0.0563  0.2078  0.3892
  145TCq2    C3 2209   0.995   0.661   0.892 -0.2455  0.0843  0.0666
  145TCq2    C4 2210   1.130   0.668   0.911  0.7193 -0.3626 -0.4331
  145TCq2    C5 2211   1.195   0.635   1.026  0.1779  0.1741  0.3936
  145TCq2    C6 2212   1.123   0.582   1.131 -0.7575 -0.8856  0.4337
  145TCq2    C7 2213   0.997   0.547   1.112  0.1700  0.8180 -0.1905
  145TCq2    C8 2214   1.196   0.544   1.243  0.1426 -0.6054  0.4463
  145TCq2    O4 2215   1.234   0.425   1.239  0.7328  0.1900  0.1917
  145TCq2    C9 2216   1.210   0.702   0.792  0.2183  0.5311  0.1666
  145TCq2    O5 2217   1.332   0.672   0.792  0.1106  0.2948  0.4263
  145TCq2    O6 2218   1.143   0.750   0.698  0.1747 -0.2746  0.2538
  145TCq2    H2 2219   0.958   0.687   0.794  0.4089 -2.5712 -0.8623
  145TCq2    H3 2220   1.302   0.651   1.036  0.1761  0.3910  0.0594
  145TCq2    H4 2221   0.951   0.503   1.199 -0.5497  0.3415 -0.8119
  146TMC2    C1 2222   1.982   0.221  12.820 -0.5265 -0.2974  0.7933
  146TMC2    C2 2223   1.879   0.176  12.747 -0.0054 -0.5068 -0.7204
  146TMC2    C3 2224   1.900   0.079  12.652  0.9772  0.4434  0.7529
  146TMC2    C4 2225   2.118   0.181  12.795  0.0333  0.6319  0.6292
  146TMC2    C5 2226   2.134   0.091  12.695  0.0633  0.3082 -0.3834
  146TMC2    C6 2227   2.025   0.043  12.622 -0.3578  0.0757 -0.2537
  146TMC2     C 2228   1.955   0.322  12.931 -0.5881  0.7636  0.3485
  146TMC2     O 2229   1.849   0.385  12.924  0.3821 -0.0463  0.1286
  146TMC2     H 2230   1.778   0.211  12.766 -0.1909  0.2398 -3.0838
  146TMC2    H1 2231   2.201   0.216  12.856  1.0675 -1.8022  0.6269
  146TMC2    H2 2232   2.056   4.701  12.542  0.4086  0.2047 -0.0687
  146TMC2    C7 2233   2.260   0.026  12.675 -0.5180  0.0892 -0.3819
  146TMC2    C8 2234   1.777   0.018  12.598 -0.9358  0.6747  0.5330
  146TMC2    O1 2235   2.277   4.711  12.560 -0.2760 -0.1599 -0.0027
  146TMC2    O2 2236   1.670   0.078  12.585 -0.4456  0.5300 -0.4088
  146TMC2    O5 2237   1.810   4.624  12.535 -0.8361  0.6003 -0.3299
  146TMC2    H5 2238   1.894   4.585  12.568  0.4610  1.6143 -2.3931
  147MPD2     C 2239   2.730   4.607  12.818  0.4949 -0.7046 -0.1311
  147MPD2    C1 2240   2.652   4.623  12.932 -0.6721  0.7303 -0.0970
  147MPD2    C2 2241   2.516   4.652  12.918  0.0876 -0.0342  0.4269
  147MPD2    C3 2242   2.461   4.673  12.791  0.3418  0.5196  0.4813
  147MPD2    C4 2243   2.541   4.654  12.685 -0.5515  0.3492  0.5420
  147MPD2    C5 2244   2.678   4.620  12.693 -0.2418 -0.9161  0.9471
  147MPD2     H 2245   2.463   4.664  13.011 -0.2400  1.2959  0.0749
  147MPD2    H1 2246   2.500   4.671  12.586  0.7136  3.8429  0.6038
  147MPD2    H2 2247   2.834   4.580  12.837  0.8856  1.3608  0.6538
  147MPD2    H3 2248   2.745   4.619  12.608 -0.8479  1.0852  0.4273
  147MPD2     N 2249   2.329   4.722  12.787 -0.4118 -0.0764 -0.3673
  147MPD2    H5 2250   2.281   0.025  12.872 -0.4562 -0.0336 -0.4064
  147MPD2    N1 2251   2.717   4.610  13.051 -0.5779 -0.2816  0.6246
  147MPD2    H7 2252   2.816   4.589  13.057 -0.5652  0.0330  1.6939
  148MPD2     C 2253   2.508   3.879  10.316 -0.3925 -0.0992 -0.6432
  148MPD2    C1 2254   2.532   3.748  10.277  0.5478  0.6609 -0.3695
  148MPD2    C2 2255   2.432   3.677  10.213  0.0635  0.2176  0.1308
  148MPD2    C3 2256   2.311   3.743  10.190 -0.4839 -0.5055 -0.1869
  148MPD2    C4 2257   2.295   3.873  10.230 -0.6582  0.9226 -0.4790
  148MPD2    C5 2258   2.392   3.938  10.289 -0.1685 -0.1864 -0.4761
  148MPD2     H 2259   2.457   3.574  10.190 -0.5253  0.6123 -2.2230
  148MPD2    H1 2260   2.207   3.932  10.210 -0.1681  2.2701  1.2937
  148MPD2    H2 2261   2.585   3.929  10.375  0.1033 -0.0704 -1.3178
  148MPD2    H3 2262   2.364   4.038  10.320  1.0746 -0.0777  0.2981
  148MPD2     N 2263   2.214   3.677  10.107 -0.1234 -0.8777 -0.2007
  148MPD2    H5 2264   2.119   3.712  10.106  1.0981  2.5611  2.9572
  148MPD2    N1 2265   2.653   3.679  10.308  0.2623  0.0594 -0.1224
  148MPD2    H7 2266   2.657   3.586  10.268 -1.1296  0.0682 -0.3076
  149TCq2    C1 2267   2.761   3.724  10.382 -0.2322 -0.4608 -0.1875
  149TCq2    O2 2268   2.783   3.837  10.421  0.1129 -0.0090 -0.3003
  149TCq2    C2 2269   2.871   3.629  10.388  0.2516 -0.4325  0.4762
  149TCq2    C3 2270   2.998   3.677  10.396  0.3074 -0.5029 -0.1987
  149TCq2    C4 2271   3.089   3.599  10.453 -0.6269  0.1466 -0.3500
  149TCq2    C5 2272   3.070   3.465  10.463 -0.4492  0.3163 -0.4480
  149TCq2    C6 2273   2.940   3.423  10.484 -0.8173  0.6359  0.5498
  149TCq2    C7 2274   2.842   3.499  10.437  0.6962  0.0153  0.0907
  149TCq2    C8 2275   2.912   3.283  10.491 -0.0992 -0.8711 -0.3757
  149TCq2    O4 2276   2.804   3.246  10.449  0.5767 -0.4115 -0.4121
  149TCq2    C9 2277   3.224   3.647  10.442 -0.2765  0.4984 -0.0781
  149TCq2    O5 2278   3.241   3.758  10.386 -0.3124 -0.1794 -0.0111
  149TCq2    O6 2279   3.310   3.564  10.468  0.6175 -0.1819  0.1888
  149TCq2    H2 2280   3.018   3.777  10.360 -2.0945 -0.1505 -0.5892
  149TCq2    H3 2281   3.149   3.394  10.485  0.2344  1.3366  0.4086
  149TCq2    H4 2282   2.736   3.479  10.440  0.7524  0.2519  3.0395
  150MPD2     C 2283   4.295   2.784  12.018 -0.5662 -0.3417 -0.0074
  150MPD2    C1 2284   4.216   2.892  11.999  0.8668 -0.4656  0.3355
  150MPD2    C2 2285   4.273   3.020  12.006  0.0119 -0.2618 -0.1675
  150MPD2    C3 2286   4.404   3.036  12.042 -0.6788  0.4509  0.2465
  150MPD2    C4 2287   4.488   2.922  12.051 -0.6943  0.0033  0.4851
  150MPD2    C5 2288   4.430   2.796  12.037 -0.0842  1.0176  0.0498
  150MPD2     H 2289   4.214   3.110  11.987  2.2290  1.2932  0.3535
  150MPD2    H1 2290   4.591   2.909  12.083 -0.8629  1.5872  1.6441
  150MPD2    H2 2291   4.266   2.680  12.015 -0.2287 -0.4099 -0.7866
  150MPD2    H3 2292   4.486   2.704  12.055  0.0654  0.7705 -1.6543
  150MPD2     N 2293   4.451   3.163  12.072  0.3451  0.5474 -0.4921
  150MPD2    H5 2294   4.394   3.241  12.044 -1.4734 -0.7921 -0.5080
  150MPD2    N1 2295   4.081   2.863  11.964  0.0204 -0.1024 -0.1528
  150MPD2    H7 2296   4.065   2.764  11.975  1.8851 -0.2155  1.6491
  151TCq2    C1 2297   4.565   3.196  12.133  0.5131 -0.2053  0.7829
  151TCq2    O2 2298   4.648   3.127  12.192  0.3471  0.2568  0.0379
  151TCq2    C2 2299   4.603   3.338  12.135 -0.1625 -0.6584  0.4381
  151TCq2    C3 2300   4.544   3.429  12.047 -0.0684  0.7033 -0.3507
  151TCq2    C4 2301   4.599   3.550  12.014 -0.4096  0.0680  0.4310
  151TCq2    C5 2302   4.693   3.600  12.105  0.0776  0.0596 -0.1567
  151TCq2    C6 2303   0.027   3.509  12.191  0.1838 -0.0865 -0.3557
  151TCq2    C7 2304   4.711   3.382  12.212  0.1852 -0.6355 -0.6812
  151TCq2    C8 2305   0.133   3.555  12.282 -0.2910 -0.2464 -1.1933
  151TCq2    O4 2306   0.133   3.676  12.301  0.2883 -0.6097  0.1534
  151TCq2    C9 2307   4.540   3.634  11.919  0.0489  0.2943 -0.7558
  151TCq2    O5 2308   4.477   3.578  11.824 -0.2618  0.3172 -0.5660
  151TCq2    O6 2309   4.568   3.757  11.930  0.0437  0.1380 -0.1111
  151TCq2    H2 2310   4.459   3.399  11.986  0.3871  0.3977 -0.8318
  151TCq2    H3 2311   0.005   3.701  12.091  0.2452 -0.0016 -0.1661
  151TCq2    H4 2312   0.033   3.318  12.286 -0.2640 -1.8216 -1.4361
  152MPD2     C 2313   3.834   2.630  12.408 -0.2832 -0.0645  0.3236
  152MPD2    C1 2314   3.852   2.757  12.356 -0.8212 -0.6743 -0.2783
  152MPD2    C2 2315   3.743   2.821  12.294 -0.1678  0.7917  0.7947
  152MPD2    C3 2316   3.621   2.767  12.306 -0.4680  0.2155  0.2233
  152MPD2    C4 2317   3.596   2.647  12.375 -0.8907  0.2626  0.3209
  152MPD2    C5 2318   3.709   2.581  12.424  0.1908  0.0643 -0.4655
  152MPD2     H 2319   3.758   2.911  12.236 -1.0448  0.2841 -0.2144
  152MPD2    H1 2320   3.501   2.594  12.378 -2.2734  2.7580  0.1965
  152MPD2    H2 2321   3.918   2.593  12.466  1.1206  0.8766 -1.1029
  152MPD2    H3 2322   3.693   2.487  12.475 -1.2111  1.7685  2.2455
  152MPD2     N 2323   3.516   2.840  12.248  0.4305  0.0470  0.5089
  152MPD2    H5 2324   3.544   2.921  12.193 -0.7841 -0.1304 -0.3765
  152MPD2    N1 2325   3.986   2.800  12.353  0.7521 -0.0437  0.0858
  152MPD2    H7 2326   4.052   2.738  12.398  2.1228  1.0802 -0.3705
  153TCq2    C1 2327   4.022   2.925  12.316  0.7634  0.2917  0.3246
  153TCq2    O2 2328   3.954   3.019  12.278 -0.2849  0.0487 -1.1243
  153TCq2    C2 2329   4.155   2.957  12.349  0.6850 -0.2692  0.5118
  153TCq2    C3 2330   4.246   2.852  12.364  0.2206  0.2730 -0.5442
  153TCq2    C4 2331   4.369   2.886  12.425  0.2093  0.4122  0.9276
  153TCq2    C5 2332   4.399   3.016  12.464  0.5003 -0.0902 -0.1740
  153TCq2    C6 2333   4.301   3.115  12.449  0.0731 -0.2931 -0.2983
  153TCq2    C7 2334   4.184   3.092  12.382  0.4794 -0.2743  0.4845
  153TCq2    C8 2335   4.336   3.255  12.452 -0.0252 -0.2837  0.4062
  153TCq2    O4 2336   4.256   3.340  12.409 -0.2398  0.1534  1.0938
  153TCq2    C9 2337   4.464   2.779  12.433  0.2850 -0.3680  0.2414
  153TCq2    O5 2338   4.582   2.815  12.447  0.1230  0.0334 -0.4783
  153TCq2    O6 2339   4.416   2.665  12.454  0.4131  0.1928  0.0851
  153TCq2    H2 2340   4.235   2.759  12.310  1.2469  1.9016 -3.5849
  153TCq2    H3 2341   4.501   3.029  12.498 -0.6272 -0.5622  3.3825
  153TCq2    H4 2342   4.108   3.169  12.371  0.5858 -0.1749  0.4429
  154MPD2     C 2343   1.040   2.625   0.654 -0.6341 -1.1207  0.5032
  154MPD2    C1 2344   1.081   2.722   0.740 -0.0186  0.7704 -0.8204
  154MPD2    C2 2345   1.164   2.685   0.846  0.9927 -0.6774 -0.3995
  154MPD2    C3 2346   1.191   2.550   0.869  0.1179 -0.1298 -1.1413
  154MPD2    C4 2347   1.150   2.458   0.776  0.4816  0.9543  0.0040
  154MPD2    C5 2348   1.070   2.498   0.677 -0.0630 -0.0986  0.3835
  154MPD2     H 2349   1.210   2.761   0.908 -1.6430  1.7050 -1.3352
  154MPD2    H1 2350   1.163   2.351   0.790 -1.2116  0.8244  0.5218
  154MPD2    H2 2351   0.982   2.648   0.565 -0.2274  1.2842  0.8663
  154MPD2    H3 2352   1.010   2.424   0.625 -1.4281  1.4247 -0.1953
  154MPD2     N 2353   1.278   2.521   0.975 -0.2324  0.3309 -0.7070
  154MPD2    H5 2354   1.309   2.599   1.033  1.4943 -1.8520  1.3092
  154MPD2    N1 2355   1.073   2.855   0.688 -0.4411 -0.4656  0.8086
  154MPD2    H7 2356   1.026   2.865   0.598 -0.6319  0.3816  0.9941
  155TCq2    C1 2357   1.098   2.969   0.758 -0.2665 -0.2052 -0.1878
  155TCq2    O2 2358   1.156   2.984   0.860 -0.1858  0.1387  0.1279
  155TCq2    C2 2359   1.053   3.084   0.695 -0.1416  0.4203  0.9725
  155TCq2    C3 2360   1.116   3.198   0.739  0.4930 -0.4142 -0.0197
  155TCq2    C4 2361   1.121   3.311   0.662  0.1348 -0.1538  1.0209
  155TCq2    C5 2362   1.078   3.310   0.533 -0.0397  0.5809  0.7706
  155TCq2    C6 2363   0.999   3.199   0.498 -0.0994  0.1772  0.1159
  155TCq2    C7 2364   0.988   3.091   0.578  0.3275 -0.7397 -0.3208
  155TCq2    C8 2365   0.961   3.184   0.356  0.1224  0.4601 -0.0358
  155TCq2    O4 2366   0.965   3.064   0.326  0.0135 -0.1141 -0.4136
  155TCq2    C9 2367   1.201   3.422   0.712  0.6477  0.5553 -1.0186
  155TCq2    O5 2368   1.238   3.412   0.832 -0.3425  0.8532  0.5354
  155TCq2    O6 2369   1.258   3.490   0.624  0.0533 -0.3426  0.0224
  155TCq2    H2 2370   1.159   3.200   0.838  0.9191  1.2381 -0.2410
  155TCq2    H3 2371   1.111   3.390   0.467 -1.2183 -0.4102 -1.0091
  155TCq2    H4 2372   0.930   3.008   0.539  0.6260 -0.6628 -0.9222
  156MPD2     C 2373   4.602   0.141  11.904  0.3919  0.1501 -0.1584
  156MPD2    C1 2374   4.505   0.237  11.889 -0.6210  0.2268  0.5760
  156MPD2    C2 2375   4.501   0.340  11.980  0.3764 -0.0413 -0.9118
  156MPD2    C3 2376   4.591   0.343  12.083 -0.0819 -0.1555 -0.2736
  156MPD2    C4 2377   4.693   0.256  12.088  0.3211 -0.2307 -0.2896
  156MPD2    C5 2378   4.694   0.151  11.998  0.6175 -0.2585 -0.6302
  156MPD2     H 2379   4.432   0.422  11.967  0.8424  0.7126  1.4130
  156MPD2    H1 2380   0.056   0.265  12.153  1.1177 -1.3566 -1.1801
  156MPD2    H2 2381   4.603   0.065  11.826 -2.0769 -0.7078  0.6181
  156MPD2    H3 2382   0.049   0.076  11.995  0.8088 -0.1940  3.2052
  156MPD2     N 2383   4.587   0.460  12.164 -0.0182 -0.0126 -0.5195
  156MPD2    H5 2384   4.522   0.532  12.135  1.0039  1.1318  0.0322
  156MPD2    N1 2385   4.407   0.231  11.780  0.4265  0.7848 -0.0801
  156MPD2    H7 2386   4.430   0.168  11.704 -0.4688  1.1552 -0.6535
  157TCq2    C1 2387   4.309   0.324  11.758  0.2333  0.3504 -0.0306
  157TCq2    O2 2388   4.274   0.418  11.824  0.2684  0.0970  0.1964
  157TCq2    C2 2389   4.243   0.299  11.632 -0.2243 -0.2477  0.2132
  157TCq2    C3 2390   4.290   0.197  11.548  0.6703  0.4911  0.4351
  157TCq2    C4 2391   4.252   0.206  11.423  0.3118 -0.2010 -0.0059
  157TCq2    C5 2392   4.183   0.307  11.370  0.0414 -0.0818 -0.3125
  157TCq2    C6 2393   4.145   0.404  11.454 -0.0694 -0.0410  0.3729
  157TCq2    C7 2394   4.178   0.405  11.588 -0.0056 -0.7648 -0.1901
  157TCq2    C8 2395   4.114   0.535  11.396  0.0483  0.0350 -0.0871
  157TCq2    O4 2396   4.155   0.629  11.454 -0.3876 -0.5888  0.3724
  157TCq2    C9 2397   4.293   0.106  11.327  0.0090  0.3452  0.1308
  157TCq2    O5 2398   4.344   4.724  11.375  0.2394  0.2882 -0.4829
  157TCq2    O6 2399   4.302   0.144  11.209 -0.2543 -0.0330  0.5178
  157TCq2    H2 2400   4.360   0.121  11.581 -1.0605 -1.4839 -0.4247
  157TCq2    H3 2401   4.149   0.302  11.267  0.0503 -1.3604 -0.2494
  157TCq2    H4 2402   4.162   0.496  11.646  1.4826  1.9629 -4.0508
  158TMC2    C1 2403   4.119   4.491  13.503 -0.1023  0.4085 -0.2767
  158TMC2    C2 2404   4.106   4.579  13.399 -0.8297 -0.4312  0.1801
  158TMC2    C3 2405   4.003   4.552  13.314 -0.3897  0.1096 -0.2353
  158TMC2    C4 2406   4.029   4.389  13.529 -0.0745 -0.5857 -0.5451
  158TMC2    C5 2407   3.917   4.378  13.444  0.3844 -0.5704  0.0998
  158TMC2    C6 2408   3.901   4.464  13.336 -0.2009  0.4819  0.2455
  158TMC2     C 2409   4.254   4.491  13.559  0.2497  0.3281  0.3041
  158TMC2     O 2410   4.345   4.534  13.485 -0.2801  0.6288 -0.4420
  158TMC2     H 2411   4.191   4.643  13.379 -0.0031 -1.2090  1.1840
  158TMC2    H1 2412   4.037   4.322  13.614  2.4005 -0.8440 -0.9831
  158TMC2    H2 2413   3.821   4.462  13.263 -0.4534  2.0167  0.5000
  158TMC2    C7 2414   3.798   4.310  13.489 -0.2848  0.0247 -0.5023
  158TMC2    C8 2415   3.988   4.660  13.217  0.5014  0.0890 -0.2247
  158TMC2    O1 2416   3.699   4.346  13.424  0.2054 -0.1263 -0.1415
  158TMC2    O2 2417   3.977   4.636  13.094 -0.7131  0.1965  0.4669
  158TMC2    O5 2418   3.949   0.052  13.271  0.2624  0.1988 -0.0649
  158TMC2    H5 2419   3.947   0.050  13.369  0.4913  1.5285 -0.0330
  159MPD2     C 2420   4.574   4.340  13.931 -0.2613  0.2116 -0.5856
  159MPD2    C1 2421   4.453   4.360  13.995  1.3822  0.1410  0.4876
  159MPD2    C2 2422   4.351   4.389  13.907  0.3458  0.0091 -0.0886
  159MPD2    C3 2423   4.370   4.406  13.770 -0.4904  0.2703  0.0860
  159MPD2    C4 2424   4.496   4.389  13.715  0.3559  0.2000 -0.4161
  159MPD2    C5 2425   4.591   4.356  13.800 -0.2550  0.4840 -0.5022
  159MPD2     H 2426   4.246   4.389  13.934  1.0640 -2.5131  2.7252
  159MPD2    H1 2427   4.516   4.393  13.609  2.7911  1.8411  0.1060
  159MPD2    H2 2428   4.661   4.314  13.990 -0.3267 -1.6956 -1.3325
  159MPD2    H3 2429   4.687   4.352  13.751 -0.3567  0.5024 -0.7015
  159MPD2     N 2430   4.254   4.440  13.689  0.2459 -0.2542  0.4349
  159MPD2    H5 2431   4.165   4.412  13.729  0.5107 -1.5668  0.1067
  159MPD2    N1 2432   4.434   4.326  14.135 -0.2380 -0.7056 -0.5956
  159MPD2    H7 2433   4.516   4.292  14.184 -0.4168  1.8412  1.4540
  160TMC2    C1 2434   0.570   0.992   1.577  0.5481  0.0482  0.0012
  160TMC2    C2 2435   0.643   0.993   1.692 -0.0563  0.3518 -0.2123
  160TMC2    C3 2436   0.723   1.095   1.709  0.1427 -0.0927  0.1663
  160TMC2    C4 2437   0.606   1.077   1.474  0.2045 -0.0398 -0.0806
  160TMC2    C5 2438   0.689   1.178   1.487  0.2568 -0.0460  0.2332
  160TMC2    C6 2439   0.745   1.193   1.617 -0.6945  0.3790  0.0108
  160TMC2     C 2440   0.432   0.967   1.585  0.1428  0.6831  0.0516
  160TMC2     O 2441   0.399   0.875   1.657 -0.0048 -0.5262 -0.2272
  160TMC2     H 2442   0.606   0.941   1.779  1.7550 -1.4827 -0.5414
  160TMC2    H1 2443   0.553   1.069   1.380 -0.8800 -1.7156  0.6597
  160TMC2    H2 2444   0.798   1.279   1.656 -0.0675  0.8505 -1.8924
  160TMC2    C7 2445   0.654   1.304   1.428 -0.1287  0.8764  0.4760
  160TMC2    C8 2446   0.805   1.093   1.829 -1.2002 -0.2439 -0.1865
  160TMC2    O1 2447   0.538   1.317   1.384  0.4323 -0.0444  0.7356
  160TMC2    O2 2448   0.868   1.198   1.861  0.6672 -0.4454  0.0652
  160TMC2    O5 2449   0.855   0.966   1.852 -0.3990  0.0136  0.0591
  160TMC2    H5 2450   0.809   0.887   1.818 -0.9756  0.2421  0.3001
  161MPD2     C 2451   0.122   0.985   1.566 -0.3521 -0.1003  0.6329
  161MPD2    C1 2452   0.219   1.074   1.520 -0.3564 -0.4340 -0.0163
  161MPD2    C2 2453   0.169   1.189   1.461  0.7128 -0.4513 -0.0302
  161MPD2    C3 2454   0.036   1.211   1.438  0.0045 -0.5237 -0.5966
  161MPD2    C4 2455   4.669   1.118   1.480  0.3323  0.3653  0.4066
  161MPD2    C5 2456   4.714   1.007   1.543 -0.6518 -0.4021 -0.3684
  161MPD2     H 2457   0.247   1.256   1.426 -0.9914  1.0728 -0.9424
  161MPD2    H1 2458   4.563   1.123   1.459  0.4807  0.2932 -0.3456
  161MPD2    H2 2459   0.144   0.898   1.627  0.7532  0.0371  0.4377
  161MPD2    H3 2460   4.645   0.935   1.585 -0.8889 -0.3431 -0.6563
  161MPD2     N 2461   4.715   1.326   1.365  0.3724 -0.0064  0.2875
  161MPD2    H5 2462   4.619   1.325   1.332  0.2796  2.4028  0.4798
  161MPD2    N1 2463   0.361   1.067   1.524  0.1773  0.5638  0.3249
  161MPD2    H7 2464   0.419   1.139   1.482 -1.4382 -0.0375 -2.8757
  162TMC2    C1 2465   3.034   3.101   1.651 -0.6200 -0.0190 -0.5523
  162TMC2    C2 2466   2.939   3.189   1.702 -0.4497  0.4686  0.0987
  162TMC2    C3 2467   2.867   3.143   1.804 -0.5325 -0.2392 -0.1786
  162TMC2    C4 2468   3.048   2.976   1.704 -0.2136  0.4448  0.6705
  162TMC2    C5 2469   2.978   2.941   1.822  0.1115 -0.3670 -0.2254
  162TMC2    C6 2470   2.878   3.025   1.867 -0.1105  0.0372  0.0752
  162TMC2     C 2471   3.097   3.127   1.525  0.7922  0.3697 -0.4696
  162TMC2     O 2472   3.125   3.030   1.458 -0.2378 -0.7957  0.4832
  162TMC2     H 2473   2.901   3.273   1.645  1.2827  0.0985 -1.5632
  162TMC2    H1 2474   3.117   2.913   1.649 -1.0257 -0.6339  0.8730
  162TMC2    H2 2475   2.813   3.003   1.952  0.8859  0.5188  0.9667
  162TMC2    C7 2476   2.981   2.807   1.874 -0.2159 -0.1099 -0.4968
  162TMC2    C8 2477   2.777   3.232   1.863 -0.0860  0.3762  0.8954
  162TMC2    O1 2478   2.897   2.778   1.953  0.2071  0.6457  0.3788
  162TMC2    O2 2479   2.717   3.321   1.802  0.4479 -0.4685 -0.1148
  162TMC2    O5 2480   2.819   3.250   1.991 -0.5446  0.3552 -0.0516
  162TMC2    H5 2481   2.875   3.177   2.022 -1.0608  0.8332  2.0258
  163MPD2     C 2482   3.233   3.442   1.144  0.5291 -0.0599  0.3311
  163MPD2    C1 2483   3.188   3.313   1.132  0.1111  0.2246  0.1466
  163MPD2    C2 2484   3.140   3.251   1.245  0.3086 -0.2723 -0.3212
  163MPD2    C3 2485   3.140   3.320   1.368  0.1785  0.3779 -0.2691
  163MPD2    C4 2486   3.179   3.450   1.374  0.5327 -0.2821 -0.5256
  163MPD2    C5 2487   3.223   3.509   1.261 -0.5978 -0.0992 -0.4371
  163MPD2     H 2488   3.090   3.155   1.233  0.8071 -0.7518  1.4587
  163MPD2    H1 2489   3.163   3.514   1.461  1.3810  0.3779 -0.8558
  163MPD2    H2 2490   3.264   3.496   1.055 -0.3770 -1.5955 -0.9235
  163MPD2    H3 2491   3.250   3.613   1.260  2.5404 -0.9270 -0.3224
  163MPD2     N 2492   3.097   3.261   1.500 -0.3792  0.2227 -0.2118
  163MPD2    H5 2493   3.094   3.330   1.574 -1.5597 -0.9592  0.8271
  163MPD2    N1 2494   3.203   3.255   1.005 -0.2504  0.4082  0.8772
  163MPD2    H7 2495   3.232   3.315   0.929 -0.4889  1.0587  1.2919
  164TCq2    C1 2496   2.901   3.855  10.873  0.6205 -0.5926  1.0162
  164TCq2    O2 2497   2.790   3.822  10.906  0.9918  0.2724  0.4389
  164TCq2    C2 2498   2.940   3.995  10.895 -0.3403 -0.0118 -0.1425
  164TCq2    C3 2499   3.070   4.028  10.935 -0.3878  0.4448  1.0258
  164TCq2    C4 2500   3.099   4.146  10.994 -0.3675  0.6260 -0.4781
  164TCq2    C5 2501   3.000   4.238  11.022  0.5905 -0.2430  0.3857
  164TCq2    C6 2502   2.877   4.208  10.973  0.8671  0.4719 -0.1712
  164TCq2    C7 2503   2.848   4.094  10.906 -0.3801 -0.6060  0.1047
  164TCq2    C8 2504   2.768   4.298  11.012 -0.5708 -0.1850 -0.7119
  164TCq2    O4 2505   2.675   4.332  10.935 -0.0798 -0.2825  0.2781
  164TCq2    C9 2506   3.227   4.170  11.049 -0.6394  0.5124 -0.3123
  164TCq2    O5 2507   3.231   4.267  11.129 -0.3349  0.4170  0.3685
  164TCq2    O6 2508   3.328   4.089  11.030  0.2214 -0.3518 -0.2693
  164TCq2    H2 2509   3.149   3.954  10.930 -0.0450  0.9870 -1.6753
  164TCq2    H3 2510   3.030   4.334  11.064 -0.0037 -0.0856  0.4517
  164TCq2    H4 2511   2.744   4.078  10.884 -0.3118  0.0369 -0.6787
  165MPD2     C 2512   4.256   4.333   2.543 -0.9986 -0.0517 -0.4494
  165MPD2    C1 2513   4.281   4.343   2.404 -0.3484 -0.0361  0.5104
  165MPD2    C2 2514   4.240   4.459   2.336 -0.0154  0.3789  0.0144
  165MPD2    C3 2515   4.185   4.564   2.405 -0.6457  0.2186 -0.6742
  165MPD2    C4 2516   4.170   4.556   2.547 -0.1583 -0.0575 -0.4220
  165MPD2    C5 2517   4.207   4.441   2.606  0.4422  0.3094 -0.6040
  165MPD2     H 2518   4.238   4.464   2.228 -0.7647 -0.2120 -0.0004
  165MPD2    H1 2519   4.136   4.647   2.597  1.7392  1.2675 -1.5391
  165MPD2    H2 2520   4.287   4.248   2.603  1.7949  1.7754  0.7131
  165MPD2    H3 2521   4.190   4.443   2.713  0.2201  1.1966 -0.6560
  165MPD2     N 2522   4.150   4.691   2.344 -0.3832  0.4331  0.0679
  165MPD2    H5 2523   4.100   0.038   2.397 -2.0361  0.1154 -1.0752
  165MPD2    N1 2524   4.352   4.243   2.330 -0.3927 -0.7724  0.0391
  165MPD2    H7 2525   4.359   4.247   2.229  0.7477  1.5126  0.2117
  166TCq2    C1 2526   4.186   0.002   2.217 -0.1199 -0.0988  0.6724
  166TCq2    O2 2527   4.247   4.667   2.127  0.1039 -0.5537 -0.6638
  166TCq2    C2 2528   4.151   0.143   2.184 -0.5441 -0.3957 -0.2942
  166TCq2    C3 2529   4.060   0.221   2.253  0.2991  1.3433  0.6334
  166TCq2    C4 2530   4.030   0.347   2.203 -0.0693 -0.6744 -0.0395
  166TCq2    C5 2531   4.098   0.394   2.095  0.6943  0.9035  0.0531
  166TCq2    C6 2532   4.188   0.316   2.027  0.4588 -0.3606  0.7211
  166TCq2    C7 2533   4.206   0.189   2.072  0.2163 -0.1521  0.3006
  166TCq2    C8 2534   4.265   0.361   1.909 -0.4097  0.8662 -0.2367
  166TCq2    O4 2535   4.355   0.290   1.863 -0.1514 -0.0188  1.1102
  166TCq2    C9 2536   3.936   0.431   2.263 -0.1833 -0.3756 -0.1378
  166TCq2    O5 2537   3.861   0.381   2.358 -0.7797  0.1474 -0.4016
  166TCq2    O6 2538   3.912   0.543   2.211  0.2599 -0.0478 -1.0154
  166TCq2    H2 2539   3.997   0.181   2.331  0.1046 -1.2950 -0.8576
  166TCq2    H3 2540   4.083   0.497   2.064  0.4026  1.2056  1.2014
  166TCq2    H4 2541   4.260   0.119   2.009 -0.1513 -1.0548  0.9870
  167TMC2    C1 2542   2.426   3.358  13.437  0.0392  1.3088  0.8130
  167TMC2    C2 2543   2.371   3.303  13.550 -0.1790  0.4480  0.1577
  167TMC2    C3 2544   2.239   3.256  13.548  0.6898  0.0595 -0.0002
  167TMC2    C4 2545   2.358   3.357  13.321 -0.6242  0.0456 -0.0234
  167TMC2    C5 2546   2.235   3.292  13.316  0.2820  0.2832 -0.0859
  167TMC2    C6 2547   2.168   3.263  13.434 -0.2834  0.1042  0.6015
  167TMC2     C 2548   2.526   3.463  13.454 -0.0656  0.5956 -0.4093
  167TMC2     O 2549   2.593   3.466  13.558 -0.3362  0.0242  0.0367
  167TMC2     H 2550   2.423   3.303  13.645  1.6442 -1.0470 -0.8550
  167TMC2    H1 2551   2.401   3.390  13.227 -0.2145  1.0786  0.5191
  167TMC2    H2 2552   2.062   3.241  13.435 -0.3571  0.4471 -0.9572
  167TMC2    C7 2553   2.150   3.330  13.202 -0.5699 -0.8942 -0.4069
  167TMC2    C8 2554   2.172   3.201  13.669  0.1140  0.7610  0.1519
  167TMC2    O1 2555   2.046   3.384  13.235  0.0407  0.1710  0.0100
  167TMC2    O2 2556   2.139   3.082  13.689  0.6788  0.3106  0.4525
  167TMC2    O5 2557   2.192   3.294  13.765  0.0537 -0.3440 -0.2546
  167TMC2    H5 2558   2.213   3.386  13.736  0.0006  0.2323  1.5662
  168MPD2     C 2559   2.700   3.715  13.422  0.2370 -0.2201 -0.0921
  168MPD2    C1 2560   2.585   3.682  13.345 -0.1872 -0.6273 -0.7520
  168MPD2    C2 2561   2.550   3.762  13.238 -0.1992 -0.0358  0.5711
  168MPD2    C3 2562   2.633   3.858  13.193 -1.0116 -0.2474  0.2643
  168MPD2    C4 2563   2.753   3.883  13.263 -0.5878 -0.5945  0.7211
  168MPD2    C5 2564   2.777   3.816  13.379  0.0764 -0.4236  0.2773
  168MPD2     H 2565   2.466   3.724  13.181  1.1161 -1.1175 -0.6102
  168MPD2    H1 2566   2.819   3.965  13.239 -1.2260 -0.4241 -0.4524
  168MPD2    H2 2567   2.717   3.660  13.514 -1.2753 -1.8815 -0.7907
  168MPD2    H3 2568   2.868   3.833  13.434 -0.3273  1.7856  0.2304
  168MPD2     N 2569   2.606   3.925  13.075 -0.7862  0.0984 -0.5818
  168MPD2    H5 2570   2.664   3.999  13.036 -0.3498 -0.5839 -1.2234
  168MPD2    N1 2571   2.506   3.566  13.363  0.2517 -0.1615  0.0746
  168MPD2    H7 2572   2.426   3.565  13.300  0.8367  0.5470 -0.6724
  169MPD1     C 2573   4.543   2.750  10.079 -0.8137 -0.0777 -0.4997
  169MPD1    C1 2574   4.449   2.683  10.008 -0.4315  0.5005  0.4184
  169MPD1    C2 2575   4.402   2.744   9.892  0.7051  0.0856 -0.0499
  169MPD1    C3 2576   4.446   2.868   9.853 -0.3941 -1.0849  0.1486
  169MPD1    C4 2577   4.544   2.930   9.926 -0.0899 -0.0761  0.0612
  169MPD1    C5 2578   4.596   2.867  10.031 -0.6578  0.3352 -0.4615
  169MPD1     H 2579   4.326   2.698   9.830  0.3113  1.4706 -0.5942
  169MPD1    H1 2580   4.602   3.016   9.894  1.5717  0.0864  3.4809
  169MPD1    H2 2581   4.590   2.720  10.172 -0.3635 -1.8194 -1.2872
  169MPD1    H3 2582   4.674   2.921  10.083  0.0619 -1.4661  0.3024
  169MPD1     N 2583   4.396   2.914   9.731  0.1580 -0.5528 -0.0627
  169MPD1    H5 2584   4.346   2.851   9.669  0.5576 -0.1912 -0.7535
  169MPD1    N1 2585   4.414   2.552  10.038  0.4210  0.2734  0.5459
  169MPD1    H6 2586   4.322   2.516  10.017  0.8117 -0.9231  0.8689
  169MPD1    H7 2587   4.440   2.536  10.135  0.9344 -1.6864  0.0932
  170MPD1     C 2588   3.053   0.960  13.669 -0.2769  0.3825  0.3404
  170MPD1    C1 2589   3.034   1.039  13.785 -0.4893 -0.7139 -0.1107
  170MPD1    C2 2590   3.125   1.137  13.815 -0.5205  0.2713  0.3903
  170MPD1    C3 2591   3.201   1.180  13.721  0.3151  0.0145 -0.5102
  170MPD1    C4 2592   3.216   1.111  13.602  0.2738 -0.3287 -0.1287
  170MPD1    C5 2593   3.137   1.001  13.572  0.3042 -0.4690  0.0748
  170MPD1     H 2594   3.123   1.196  13.905  0.5672 -1.6433  1.6630
  170MPD1    H1 2595   3.272   1.159  13.522  0.8338  0.5979  0.8241
  170MPD1    H2 2596   2.989   0.879  13.635  0.7901  0.7730 -2.5674
  170MPD1    H3 2597   3.142   0.949  13.477  0.0440 -0.5950  0.1319
  170MPD1     N 2598   3.280   1.293  13.754  0.6147 -0.3538 -0.1507
  170MPD1    H5 2599   3.259   1.331  13.846 -1.1928  0.3630 -0.8569
  170MPD1    N1 2600   2.959   0.987  13.892 -0.1618 -0.0718  1.2248
  170MPD1    H6 2601   2.937   1.063  13.957 -0.9525 -0.2198  1.1317
  170MPD1    H7 2602   2.881   0.925  13.870 -0.1954  0.3368  0.1675
  171MPD1     C 2603   1.718   2.403  15.019  0.1537  0.8960 -0.2895
  171MPD1    C1 2604   1.683   2.269  15.028  0.0250 -0.3824  0.1674
  171MPD1    C2 2605   1.699   2.208  15.148  0.3365 -0.1967  0.4629
  171MPD1    C3 2606   1.761   2.271  15.258 -0.3730 -0.7350 -0.1163
  171MPD1    C4 2607   1.795   2.403  15.242 -0.2307 -0.8378  0.3460
  171MPD1    C5 2608   1.773   2.474  15.125 -0.2646 -0.6596  0.0600
  171MPD1     H 2609   1.663   2.106  15.155 -0.3539  0.0946  1.3097
  171MPD1    H1 2610   1.818   2.467  15.327 -0.6557 -0.4042  0.1334
  171MPD1    H2 2611   1.688   2.457  14.930  0.4782  2.6013  0.6344
  171MPD1    H3 2612   1.799   2.577  15.108 -1.6955 -0.3033  0.0330
  171MPD1     N 2613   1.786   2.209  15.385 -0.8561  0.3912 -0.4880
  171MPD1    H5 2614   1.817   2.271  15.460  1.6660 -2.0751  0.5023
  171MPD1    N1 2615   1.605   2.214  14.930 -0.7187  0.0776  0.2722
  171MPD1    H6 2616   1.644   2.240  14.839 -1.8774  3.8943  0.8341
  171MPD1    H7 2617   1.605   2.113  14.936 -0.1248  0.1082  0.8261
  172MPD1     C 2618   0.878   1.150   0.672  0.3952  1.0556 -0.0809
  172MPD1    C1 2619   0.975   1.057   0.712  0.0962  0.2998  0.5188
  172MPD1    C2 2620   1.089   1.107   0.773  0.3746  0.4294 -0.7417
  172MPD1    C3 2621   1.112   1.241   0.781  0.2758  0.3725  0.4927
  172MPD1    C4 2622   1.014   1.331   0.738 -0.3508 -0.1779  0.5530
  172MPD1    C5 2623   0.900   1.282   0.679 -0.5390 -0.8890  0.3691
  172MPD1     H 2624   1.152   1.030   0.816 -0.3490 -0.0937 -0.6319
  172MPD1    H1 2625   1.040   1.435   0.750 -0.0588 -0.4103  2.0336
  172MPD1    H2 2626   0.784   1.106   0.641  0.6238  0.7139 -0.2925
  172MPD1    H3 2627   0.827   1.355   0.647 -0.6398 -0.2377  2.0542
  172MPD1     N 2628   1.241   1.293   0.819 -0.0902 -0.4889  0.4272
  172MPD1    H5 2629   1.261   1.392   0.814 -0.6658 -0.3074  1.6121
  172MPD1    N1 2630   0.937   0.926   0.732  0.0774 -0.0176  1.0353
  172MPD1    H6 2631   1.020   0.868   0.747 -0.7922 -1.5467 -0.1722
  172MPD1    H7 2632   0.880   0.887   0.658 -0.1684  0.4575  0.9811
  173MPD1     C 2633   2.545   1.499  14.440  0.1930 -0.0380  0.0360
  173MPD1    C1 2634   2.574   1.362  14.436  0.2202  0.6312  0.1281
  173MPD1    C2 2635   2.559   1.293  14.557 -0.2498 -0.2318 -0.4521
  173MPD1    C3 2636   2.480   1.341  14.652 -0.9804 -0.7962 -0.0074
  173MPD1    C4 2637   2.426   1.467  14.646 -0.9112  0.3217  0.1280
  173MPD1    C5 2638   2.467   1.547  14.539 -0.1543  0.1405 -0.3134
  173MPD1     H 2639   2.604   1.195  14.566  1.4357  0.4424 -1.4891
  173MPD1    H1 2640   2.354   1.509  14.715 -0.6048  1.2341 -0.1064
  173MPD1    H2 2641   2.569   1.563  14.356 -1.2585 -1.7003 -1.6478
  173MPD1    H3 2642   2.435   1.651  14.535  0.2709  0.2572 -0.7127
  173MPD1     N 2643   2.468   1.258  14.765 -0.3579 -0.4959 -0.4725
  173MPD1    H5 2644   2.509   1.167  14.746  2.2063  0.2652  1.5028
  173MPD1    N1 2645   2.664   1.314  14.344  0.0849 -0.3399 -0.4438
  173MPD1    H6 2646   2.654   1.369  14.259  0.5906  1.4992  0.7068
  173MPD1    H7 2647   2.638   1.220  14.313 -0.9545 -0.1218 -0.2325
  174MPD1     C 2648   2.411   0.405  14.756  0.1155 -0.5908 -0.5320
  174MPD1    C1 2649   2.396   0.418  14.887  0.3553 -0.6816 -0.4054
  174MPD1    C2 2650   2.395   0.546  14.944  0.1314  1.0694 -0.9560
  174MPD1    C3 2651   2.434   0.653  14.870 -0.1731  0.0651 -0.7110
  174MPD1    C4 2652   2.454   0.639  14.737  0.3315 -0.3182  0.2576
  174MPD1    C5 2653   2.433   0.516  14.683  0.4235 -0.3686 -0.1784
  174MPD1     H 2654   2.386   0.539  15.052  2.0470 -0.6771 -0.9104
  174MPD1    H1 2655   2.476   0.729  14.681  1.3776 -0.6774  0.0871
  174MPD1    H2 2656   2.410   0.308  14.707  1.3349 -0.3067 -1.1194
  174MPD1    H3 2657   2.463   0.512  14.579 -1.2805 -0.9467 -0.6593
  174MPD1     N 2658   2.450   0.787  14.910 -0.6644 -0.1118  0.0792
  174MPD1    H5 2659   2.469   0.854  14.836 -3.5452 -0.0956 -0.6570
  174MPD1    N1 2660   2.376   0.301  14.968 -0.9107  0.4493 -0.1579
  174MPD1    H6 2661   2.418   0.307  15.061 -0.7334  2.0025 -0.3501
  174MPD1    H7 2662   2.414   0.215  14.928 -0.0081  1.4666 -1.4550
  175MPD1     C 2663   0.903   1.942  15.847 -0.6314 -0.0827 -0.1166
  175MPD1    C1 2664   0.973   1.854  15.921 -0.3034  0.6006 -0.9676
  175MPD1    C2 2665   1.043   1.892  16.034  0.5523 -0.0710 -0.2129
  175MPD1    C3 2666   1.031   2.019  16.078  0.3124 -0.3414 -0.7659
  175MPD1    C4 2667   0.960   2.103  15.997 -0.5328 -0.3323  0.0908
  175MPD1    C5 2668   0.889   2.068  15.885 -0.1975  0.4969 -0.5175
  175MPD1     H 2669   1.091   1.814  16.091 -1.7843  0.0887  1.9646
  175MPD1    H1 2670   0.955   2.210  16.013  0.5007 -0.0654 -1.4148
  175MPD1    H2 2671   0.863   1.915  15.750 -0.2579 -3.7778  0.7479
  175MPD1    H3 2672   0.842   2.139  15.818 -1.3173 -1.0990 -1.4387
  175MPD1     N 2673   1.092   2.065  16.199  0.0027 -0.0988 -0.1793
  175MPD1    H5 2674   1.090   2.166  16.215 -0.1013 -0.2137  0.5624
  175MPD1    N1 2675   0.987   1.726  15.874 -0.5434  0.2966 -0.2510
  175MPD1    H6 2676   1.035   1.664  15.939 -0.7497  1.3023  0.8647
  175MPD1    H7 2677   0.894   1.693  15.852 -0.5044 -0.9661  1.4665
  176MPD1     C 2678   2.734   3.436   0.019  0.5912 -0.1687  0.2164
  176MPD1    C1 2679   2.668   3.500  17.614  0.0272 -0.0247 -0.1024
  176MPD1    C2 2680   2.651   3.633  17.621  0.6048  0.0027  0.2937
  176MPD1    C3 2681   2.725   3.709   0.006  0.1074 -0.2182  0.3064
  176MPD1    C4 2682   2.783   3.647   0.111  0.2542 -0.0125 -0.3786
  176MPD1    C5 2683   2.780   3.511   0.125  0.4746  0.5294 -0.2098
  176MPD1     H 2684   2.581   3.675  17.549 -0.0121  1.1519  1.5631
  176MPD1    H1 2685   2.839   3.707   0.182  1.5021  0.8548 -2.1072
  176MPD1    H2 2686   2.756   3.331   0.028  0.3463 -0.1269  1.2472
  176MPD1    H3 2687   2.831   3.463   0.208 -1.3498 -2.6805 -0.9368
  176MPD1     N 2688   2.717   3.853  17.694  0.3336 -0.3357 -0.2178
  176MPD1    H5 2689   2.645   3.885  17.630  1.0035 -0.9420 -1.2747
  176MPD1    N1 2690   2.603   3.423  17.518 -0.2154  0.2748  0.5266
  176MPD1    H6 2691   2.671   3.350  17.499 -3.0100 -1.5004 -2.7132
  176MPD1    H7 2692   2.585   3.463  17.426  1.4152 -0.5586 -0.1428
  177MPD1     C 2693   0.742   3.237  10.766 -0.1703 -0.7164  0.3275
  177MPD1    C1 2694   0.845   3.310  10.716 -0.3253  0.2903  0.9132
  177MPD1    C2 2695   0.842   3.344  10.583 -0.6155  0.8721  0.2725
  177MPD1    C3 2696   0.732   3.315  10.510  0.6927  0.1158  0.2892
  177MPD1    C4 2697   0.629   3.243  10.568 -0.6774 -0.7424  0.4797
  177MPD1    C5 2698   0.632   3.201  10.692  0.1864 -0.6330  0.6221
  177MPD1     H 2699   0.926   3.391  10.535  1.1413 -2.6105 -0.0739
  177MPD1    H1 2700   0.539   3.224  10.510  0.1158 -1.9607 -0.3636
  177MPD1    H2 2701   0.740   3.212  10.872  2.2777 -0.1152  0.5333
  177MPD1    H3 2702   0.546   3.151  10.736 -0.2296 -1.1772 -0.8302
  177MPD1     N 2703   0.724   3.386  10.385 -0.4058 -0.4152  0.0388
  177MPD1    H5 2704   0.798   3.452  10.362 -1.3938  1.4279  2.1008
  177MPD1    N1 2705   0.964   3.328  10.792 -0.1226  0.0423 -0.8755
  177MPD1    H6 2706   1.021   3.408  10.765 -0.2129  1.0036  1.7243
  177MPD1    H7 2707   0.952   3.343  10.892  0.2158  1.0319 -0.9861
  178MPD1     C 2708   2.969   0.600  17.172  0.0652 -0.2230  0.1011
  178MPD1    C1 2709   2.867   0.508  17.138  0.1520 -0.4630  0.0736
  178MPD1    C2 2710   2.886   0.372  17.183 -0.0062 -0.3171 -0.0611
  178MPD1    C3 2711   3.007   0.321  17.226 -0.5007 -0.1768 -0.6008
  178MPD1    C4 2712   3.111   0.412  17.238  0.2346 -0.4617  0.1302
  178MPD1    C5 2713   3.090   0.546  17.212 -0.1305  0.3516 -0.4645
  178MPD1     H 2714   2.815   0.291  17.168 -0.8062  0.0550  1.6224
  178MPD1    H1 2715   3.213   0.385  17.266  0.6573 -0.4306 -1.3673
  178MPD1    H2 2716   2.976   0.707  17.161  0.6822 -0.1280  1.4831
  178MPD1    H3 2717   3.165   0.621  17.231 -0.1819  0.8642 -2.2595
  178MPD1     N 2718   3.030   0.193  17.273 -0.0613 -0.1568  0.1834
  178MPD1    H5 2719   3.123   0.176  17.310  0.3286 -1.1326 -1.2522
  178MPD1    N1 2720   2.749   0.555  17.087  0.8007  0.1146 -0.2761
  178MPD1    H6 2721   2.695   0.479  17.046 -0.1416  2.6946 -3.8343
  178MPD1    H7 2722   2.742   0.632  17.021 -0.8574 -1.4221 -1.9037
  179MPD1     C 2723   3.180   3.968  15.912 -0.5608 -1.0772  0.7319
  179MPD1    C1 2724   3.048   3.972  15.949  0.0446 -0.1903  0.2789
  179MPD1    C2 2725   3.001   3.878  16.042  0.1162  0.0759 -0.3016
  179MPD1    C3 2726   3.082   3.774  16.078 -0.5907  0.4356  0.4449
  179MPD1    C4 2727   3.219   3.775  16.041  0.7221  0.8683 -0.3687
  179MPD1    C5 2728   3.268   3.882  15.968  0.0581 -0.6512  0.3590
  179MPD1     H 2729   2.899   3.892  16.078  0.9306 -0.8587  2.3809
  179MPD1    H1 2730   3.291   3.703  16.078  0.0524 -0.1188 -1.0085
  179MPD1    H2 2731   3.222   4.044  15.847 -0.6463 -0.8448  0.9481
  179MPD1    H3 2732   3.372   3.886  15.940 -0.5984 -2.7785 -2.4320
  179MPD1     N 2733   3.035   3.654  16.141  0.6331  0.1304  0.3795
  179MPD1    H5 2734   3.097   3.577  16.165  0.6705  0.3618  1.0398
  179MPD1    N1 2735   2.959   4.068  15.902  0.0976  0.6052  0.1050
  179MPD1    H6 2736   2.869   4.041  15.939  0.8826  0.0272  1.6057
  179MPD1    H7 2737   2.976   4.159  15.945  0.8431  1.8551 -2.8487
  180MPD1     C 2738   3.216   4.183  15.239  0.7144 -0.2105 -0.0491
  180MPD1    C1 2739   3.078   4.178  15.243 -0.0468 -0.1112 -0.0268
  180MPD1    C2 2740   3.016   4.304  15.248 -0.3801  0.6740  1.1707
  180MPD1    C3 2741   3.086   4.425  15.270 -0.1423  0.5872  0.6279
  180MPD1    C4 2742   3.228   4.419  15.271 -0.3871  0.3515 -0.2197
  180MPD1    C5 2743   3.287   4.295  15.269 -0.0987 -0.5596 -0.1372
  180MPD1     H 2744   2.908   4.311  15.236 -0.2031  0.1778 -0.7427
  180MPD1    H1 2745   3.284   4.509  15.292 -0.3594 -0.0061  1.2838
  180MPD1    H2 2746   3.276   4.093  15.232 -0.0041 -0.6250 -0.8598
  180MPD1    H3 2747   3.395   4.292  15.274 -0.2535 -1.0622  2.4980
  180MPD1     N 2748   3.014   4.535  15.233  0.2810  0.1633  0.3288
  180MPD1    H5 2749   2.920   4.511  15.205 -0.3729  1.5140  1.3450
  180MPD1    N1 2750   3.009   4.058  15.218  0.2060 -0.2717 -0.1774
  180MPD1    H6 2751   3.062   3.973  15.234 -1.4368 -1.0601  1.0790
  180MPD1    H7 2752   2.918   4.055  15.264  0.8787 -3.0504  0.9821
  181MPD1     C 2753   4.422   1.272  10.122  0.3339  0.0109  0.6936
  181MPD1    C1 2754   4.520   1.358  10.164 -0.1880 -0.8559  0.2274
  181MPD1    C2 2755   4.623   1.369  10.078  0.7073  0.0229  0.8101
  181MPD1    C3 2756   4.630   1.301   9.954 -1.0289  0.1906 -0.3143
  181MPD1    C4 2757   4.518   1.223   9.920 -0.0766  0.6117 -0.2797
  181MPD1    C5 2758   4.413   1.212  10.000  0.4308 -0.4635 -0.1923
  181MPD1     H 2759   4.709   1.431  10.102  1.1322 -0.7556  1.2717
  181MPD1    H1 2760   4.513   1.171   9.825 -1.0126 -1.2894  0.8351
  181MPD1    H2 2761   4.338   1.247  10.186 -0.0967  1.5802  0.7585
  181MPD1    H3 2762   4.331   1.149   9.968 -1.7430  2.5365 -0.4901
  181MPD1     N 2763   0.014   1.319   9.860 -0.1580 -0.0191 -0.0764
  181MPD1    H5 2764   0.012   1.252   9.783 -0.1840 -0.2154  0.0947
  181MPD1    N1 2765   4.535   1.415  10.295  0.5628  0.4039  0.0998
  181MPD1    H6 2766   4.585   1.503  10.292 -0.1316  0.7946  0.0056
  181MPD1    H7 2767   4.457   1.402  10.359  0.7577  1.3844  0.5393
  182MPD1     C 2768   1.126   4.224   1.526 -0.7298  0.5893 -0.1707
  182MPD1    C1 2769   1.095   4.332   1.601  0.9596 -0.2591 -0.8240
  182MPD1    C2 2770   1.039   4.447   1.540 -0.4865 -0.6858  0.2243
  182MPD1    C3 2771   0.994   4.437   1.406 -0.0062  0.3871 -0.1778
  182MPD1    C4 2772   1.018   4.318   1.338  0.2161  0.2768  0.3576
  182MPD1    C5 2773   1.094   4.215   1.390 -0.5449 -0.4299 -0.3266
  182MPD1     H 2774   1.026   4.538   1.597 -3.0296 -2.5787  2.7134
  182MPD1    H1 2775   0.977   4.310   1.238  0.5777 -2.4267  0.4405
  182MPD1    H2 2776   1.178   4.139   1.570  0.8164  0.6178 -1.9451
  182MPD1    H3 2777   1.105   4.119   1.339 -2.1681 -0.0782 -1.3716
  182MPD1     N 2778   0.930   4.547   1.335  0.4956 -0.0485 -0.0369
  182MPD1    H5 2779   0.900   4.529   1.240 -0.1243 -1.8398  0.4891
  182MPD1    N1 2780   1.147   4.339   1.730 -0.3974  0.8855  0.1415
  182MPD1    H6 2781   1.161   4.242   1.757  0.6676  1.2509  0.9195
  182MPD1    H7 2782   1.088   4.385   1.799  0.8319  1.4666  0.8087
  183MPD1     C 2783   0.200   0.462   8.996  0.2703 -0.1692 -0.0858
  183MPD1    C1 2784   0.339   0.453   8.995 -0.5298  0.6594 -0.1770
  183MPD1    C2 2785   0.420   0.564   8.999 -0.0485  0.0439 -1.1114
  183MPD1    C3 2786   0.366   0.695   9.022  0.0827  0.0261  0.3387
  183MPD1    C4 2787   0.224   0.701   9.015 -0.5576  0.0762  0.2127
  183MPD1    C5 2788   0.147   0.584   9.012  0.0870  0.1077  0.2759
  183MPD1     H 2789   0.528   0.555   9.002 -0.1953 -1.7071 -1.3068
  183MPD1    H1 2790   0.174   0.797   9.027  0.5986  0.5356  1.3005
  183MPD1    H2 2791   0.144   0.369   8.994 -0.8494  0.5186 -0.8888
  183MPD1    H3 2792   0.039   0.595   9.012  0.3766  2.9682 -0.6819
  183MPD1     N 2793   0.445   0.809   9.049  0.1698  0.1512 -0.3231
  183MPD1    H5 2794   0.394   0.897   9.044 -1.1887 -0.4835  2.3153
  183MPD1    N1 2795   0.401   0.329   8.967  0.4358 -0.1789 -0.0572
  183MPD1    H6 2796   0.489   0.326   9.017  0.0459  1.9401  0.7538
  183MPD1    H7 2797   0.342   0.253   9.002 -0.5217  1.4232  1.8021
  184MPD1     C 2798   4.000   3.464  10.581 -0.7831  0.5660 -0.0181
  184MPD1    C1 2799   4.060   3.571  10.513 -0.6164 -0.0540 -0.2993
  184MPD1    C2 2800   4.191   3.552  10.481  0.5790 -0.3024 -0.3812
  184MPD1    C3 2801   4.265   3.436  10.508 -0.2639  0.2160 -0.0468
  184MPD1    C4 2802   4.192   3.320  10.550  0.2858  0.4256  0.1827
  184MPD1    C5 2803   4.065   3.342  10.596 -0.3300  0.6390  0.0790
  184MPD1     H 2804   4.250   3.631  10.436 -2.5728  1.0562 -2.1122
  184MPD1    H1 2805   4.245   3.227  10.566  1.4167  0.6434 -2.1592
  184MPD1    H2 2806   3.898   3.476  10.617 -0.6714  0.6059  0.2862
  184MPD1    H3 2807   4.011   3.260  10.644  1.5248  0.4397  1.7883
  184MPD1     N 2808   4.399   3.418  10.483 -0.2585  0.5052  0.2578
  184MPD1    H5 2809   4.439   3.328  10.507  0.8741  0.3488 -2.2738
  184MPD1    N1 2810   4.011   3.701  10.514  0.1874 -0.1589  0.5455
  184MPD1    H6 2811   4.027   3.761  10.433 -0.3867 -1.4376 -0.5000
  184MPD1    H7 2812   3.909   3.699  10.514  0.2326 -1.8156 -2.2081
  185MPD1     C 2813   0.048   2.667  10.542 -0.3375  0.1989 -0.8444
  185MPD1    C1 2814   0.160   2.741  10.549  0.2007  0.6188 -0.3552
  185MPD1    C2 2815   0.157   2.876  10.533 -0.8263  0.0234 -0.0082
  185MPD1    C3 2816   0.034   2.939  10.501  0.0407  0.1516 -0.1411
  185MPD1    C4 2817   4.646   2.861  10.491 -0.1013 -0.1563 -0.1923
  185MPD1    C5 2818   4.653   2.728  10.520  0.1375  0.4881  0.3547
  185MPD1     H 2819   0.251   2.929  10.540 -1.3032  1.3518 -3.4900
  185MPD1    H1 2820   4.556   2.907  10.451 -0.4468 -0.3079  0.4276
  185MPD1    H2 2821   0.036   2.559  10.551 -0.4813  0.2825 -0.0151
  185MPD1    H3 2822   4.563   2.667  10.522 -1.5688  2.9381 -1.8516
  185MPD1     N 2823   0.012   3.078  10.482 -0.7945  0.2080  0.6525
  185MPD1    H5 2824   4.641   3.108  10.461  0.0739  3.0651  0.8842
  185MPD1    N1 2825   0.282   2.674  10.536 -0.2100  0.6401  0.1233
  185MPD1    H6 2826   0.356   2.733  10.571 -0.1193  1.2079 -1.0271
  185MPD1    H7 2827   0.287   2.583  10.582 -1.4526  0.3171 -0.3762
  186MPD1     C 2828   3.206   3.018  15.862 -0.1713  0.3689 -0.1524
  186MPD1    C1 2829   3.130   3.129  15.885 -0.2247  0.3035 -0.3967
  186MPD1    C2 2830   3.164   3.205  15.997 -0.3432 -0.2055  0.0866
  186MPD1    C3 2831   3.280   3.181  16.067  0.6239  0.0977 -0.4394
  186MPD1    C4 2832   3.347   3.070  16.038  0.0885 -0.4005 -0.4246
  186MPD1    C5 2833   3.308   2.986  15.946  0.2470 -0.1421  0.1011
  186MPD1     H 2834   3.111   3.298  16.014 -0.5388 -0.2594 -0.2303
  186MPD1    H1 2835   3.445   3.060  16.084  0.1855 -0.9423 -0.7389
  186MPD1    H2 2836   3.177   2.960  15.775  0.2207 -3.1610  2.0834
  186MPD1    H3 2837   3.371   2.902  15.922 -1.1753 -1.0480 -0.4806
  186MPD1     N 2838   3.340   3.261  16.167  0.8039 -0.3632 -0.0788
  186MPD1    H5 2839   3.432   3.235  16.203  0.5846 -1.4925 -0.3273
  186MPD1    N1 2840   3.012   3.152  15.818 -0.1311  0.6609 -0.3112
  186MPD1    H6 2841   3.025   3.123  15.721  1.7543  0.8736 -0.1269
  186MPD1    H7 2842   2.989   3.251  15.812 -0.2398  0.6078 -0.8043
  187MPD1     C 2843   3.139   4.671   0.015 -0.3454 -0.1587  0.1249
  187MPD1    C1 2844   3.036   4.587   0.051 -0.3702  0.0437 -0.2068
  187MPD1    C2 2845   2.906   4.623   0.013 -0.1160  0.2585 -0.3169
  187MPD1    C3 2846   2.875   0.030  17.666  0.5602 -0.0375 -0.3371
  187MPD1    C4 2847   2.980   0.114  17.646  0.4386  0.7842  0.4363
  187MPD1    C5 2848   3.108   0.068  17.668  0.9469 -0.3085  0.0017
  187MPD1     H 2849   2.826   4.551   0.026  0.8040 -0.8286 -0.7009
  187MPD1    H1 2850   2.980   0.220  17.623 -0.3833  0.3523 -1.5692
  187MPD1    H2 2851   3.244   4.643   0.009 -0.1793  0.2831  0.9390
  187MPD1    H3 2852   3.187   0.140  17.645  2.7736 -2.1769  0.4332
  187MPD1     N 2853   2.748   0.086  17.655  0.1912 -0.2934 -0.1344
  187MPD1    H5 2854   2.745   0.183  17.624 -0.2756 -0.4810 -0.6839
  187MPD1    N1 2855   3.073   4.458   0.087  0.5250 -0.4887  0.1416
  187MPD1    H6 2856   3.004   4.416   0.150  0.9221  0.5092  1.2463
  187MPD1    H7 2857   3.158   4.457   0.142  0.1544 -1.3802  0.6887
  188MPD1     C 2858   2.385   0.761  10.332  0.6087  0.1417  0.5238
  188MPD1    C1 2859   2.519   0.705  10.342 -0.3990 -0.5832  0.3923
  188MPD1    C2 2860   2.530   0.573  10.287  0.3969  0.5637 -0.1085
  188MPD1    C3 2861   2.424   0.500  10.241 -0.3415 -0.1301  0.7005
  188MPD1    C4 2862   2.303   0.563  10.231  0.1223  0.2204  0.6218
  188MPD1    C5 2863   2.290   0.696  10.271 -1.0696 -0.4038 -0.3460
  188MPD1     H 2864   2.624   0.519  10.297 -0.4608 -1.0183 -0.6100
  188MPD1    H1 2865   2.224   0.513  10.177  2.1444 -0.3328 -1.7837
  188MPD1    H2 2866   2.373   0.864  10.365 -0.9862  0.1310 -0.0574
  188MPD1    H3 2867   2.191   0.742  10.273 -0.8489  0.0221  0.8906
  188MPD1     N 2868   2.432   0.365  10.194  0.4397 -0.6703  0.2399
  188MPD1    H5 2869   2.339   0.332  10.170  0.7863  0.4562 -2.5998
  188MPD1    N1 2870   2.629   0.784  10.371  0.0286 -0.1021  0.2288
  188MPD1    H6 2871   2.703   0.722  10.405 -0.4163 -0.5582  0.3661
  188MPD1    H7 2872   2.612   0.850  10.446  0.6679  0.4159 -0.0800
  189MPD1     C 2873   0.131   4.558   0.642 -0.3766  0.7343 -0.7481
  189MPD1    C1 2874   0.018   4.488   0.680 -0.1801  0.5243 -0.3461
  189MPD1    C2 2875   4.627   4.522   0.617 -0.1514  0.4991 -0.7498
  189MPD1    C3 2876   4.614   4.643   0.547  0.1866 -0.2205  0.2704
  189MPD1    C4 2877   4.718   0.002   0.544  0.5338  0.2603  0.2056
  189MPD1    C5 2878   0.116   4.676   0.578 -0.7689 -0.0502  0.0038
  189MPD1     H 2879   4.539   4.463   0.639 -1.8184  3.2687  0.0370
  189MPD1    H1 2880   4.720   0.103   0.506 -1.1236  0.7716  1.4499
  189MPD1    H2 2881   0.229   4.540   0.685 -1.3428 -2.2059  0.1965
  189MPD1    H3 2882   0.206   0.011   0.569 -1.4507  0.7880 -1.3505
  189MPD1     N 2883   4.486   4.676   0.494 -0.4529  0.2954 -0.1095
  189MPD1    H5 2884   4.413   4.605   0.495 -0.2846  0.1440  0.7625
  189MPD1    N1 2885   0.031   4.365   0.744 -0.2836  0.3610 -0.7325
  189MPD1    H6 2886   0.105   4.361   0.813  0.0651  0.6493 -1.0909
  189MPD1    H7 2887   4.666   4.339   0.786 -0.2914  1.5889  0.0199
  190MPD1     C 2888   2.851   0.505  16.357  0.0420 -0.2705 -0.6210
  190MPD1    C1 2889   2.851   0.388  16.426  0.2114  0.0179  0.3582
  190MPD1    C2 2890   2.890   0.273  16.362 -0.6039  0.4354 -0.4106
  190MPD1    C3 2891   2.936   0.276  16.230 -0.1813  0.4922  0.1065
  190MPD1    C4 2892   2.935   0.398  16.166 -0.0822  0.1315 -0.3649
  190MPD1    C5 2893   2.887   0.512  16.228  0.6232 -0.3023  0.5693
  190MPD1     H 2894   2.884   0.180  16.417  1.0561  0.9303  0.6121
  190MPD1    H1 2895   2.987   0.417  16.073  0.9144  2.2497  0.6392
  190MPD1    H2 2896   2.820   0.599  16.401  0.5531 -0.3241 -0.1537
  190MPD1    H3 2897   2.887   0.613  16.188  1.5468 -0.4187  0.2816
  190MPD1     N 2898   2.987   0.156  16.177  0.6590  0.0307  0.2396
  190MPD1    H5 2899   2.988   0.069  16.229  1.9610  0.0168  0.2035
  190MPD1    N1 2900   2.800   0.379  16.556 -0.4927  0.3225  0.3568
  190MPD1    H6 2901   2.709   0.420  16.571 -0.1806  0.9165  0.6296
  190MPD1    H7 2902   2.787   0.280  16.579 -0.3982 -0.3536 -2.4611
  191MPD1     C 2903   2.261   1.381  12.944 -0.2407 -0.1854  0.6220
  191MPD1    C1 2904   2.387   1.411  12.901  0.7264  0.2895 -0.3153
  191MPD1    C2 2905   2.411   1.518  12.820  0.3523  0.9817  0.0862
  191MPD1    C3 2906   2.308   1.607  12.793  0.4449  0.2819  0.3661
  191MPD1    C4 2907   2.185   1.575  12.840 -0.3668 -0.7612 -0.0780
  191MPD1    C5 2908   2.160   1.474  12.924  0.4794 -0.1941 -0.3452
  191MPD1     H 2909   2.514   1.546  12.803  0.3316  1.5519  0.9058
  191MPD1    H1 2910   2.109   1.651  12.820  0.3351  0.2172  0.9823
  191MPD1    H2 2911   2.247   1.296  13.010  0.6618 -0.9961 -0.2300
  191MPD1    H3 2912   2.062   1.447  12.964  1.1085 -1.6752  0.2204
  191MPD1     N 2913   2.334   1.716  12.706 -0.0722  0.3571 -0.0153
  191MPD1    H5 2914   2.432   1.734  12.685 -0.2851  0.9431 -0.5144
  191MPD1    N1 2915   2.491   1.317  12.902 -0.0136 -0.4067 -0.4585
  191MPD1    H6 2916   2.464   1.253  12.976  1.7833 -0.4444  0.1703
  191MPD1    H7 2917   2.579   1.367  12.916 -0.1155 -0.2830 -0.2551
  192MPD1     C 2918   1.993   2.663  12.355 -0.4897 -0.0324  0.4246
  192MPD1    C1 2919   1.913   2.557  12.357  0.0194 -0.5300  0.6785
  192MPD1    C2 2920   1.972   2.432  12.349  0.1271  0.0844 -0.1688
  192MPD1    C3 2921   2.114   2.419  12.365 -0.3043  0.4436  0.0870
  192MPD1    C4 2922   2.192   2.529  12.372 -0.3035 -0.1509 -1.0718
  192MPD1    C5 2923   2.131   2.651  12.371 -0.4310 -0.6187  0.6060
  192MPD1     H 2924   1.908   2.345  12.343  1.6395 -0.9491 -1.2758
  192MPD1    H1 2925   2.298   2.529  12.393 -0.6564  2.7722  0.6568
  192MPD1    H2 2926   1.955   2.764  12.345  0.8996  0.3201 -1.3850
  192MPD1    H3 2927   2.192   2.740  12.377  0.6285 -1.2593 -0.6485
  192MPD1     N 2928   2.185   2.291  12.366 -0.1556 -0.2789 -0.6676
  192MPD1    H5 2929   2.286   2.296  12.378 -0.2349  1.7946 -0.7221
  192MPD1    N1 2930   1.772   2.569  12.334 -0.4871  0.4431  0.3239
  192MPD1    H6 2931   1.734   2.648  12.387 -0.5448  0.7476 -0.1662
  192MPD1    H7 2932   1.716   2.484  12.343  2.6837 -1.5075  1.3463
  193MPD1     C 2933   1.913   1.718  16.178 -0.3115  0.4235 -0.2733
  193MPD1    C1 2934   1.826   1.780  16.261  0.1237  0.8748  0.4422
  193MPD1    C2 2935   1.846   1.911  16.307  0.0261  0.2807  0.2391
  193MPD1    C3 2936   1.959   1.982  16.259  1.4156 -0.0155 -0.0500
  193MPD1    C4 2937   2.023   1.920  16.160  0.3509  0.1406  0.4120
  193MPD1    C5 2938   2.019   1.783  16.134 -0.4335  0.0182 -0.5602
  193MPD1     H 2939   1.770   1.951  16.373 -0.8948 -1.6056  0.3103
  193MPD1    H1 2940   2.108   1.979  16.128  0.3349  0.5252  1.0839
  193MPD1    H2 2941   1.916   1.613  16.153 -1.0184  0.0471  1.2462
  193MPD1    H3 2942   2.099   1.735  16.079  0.4920  0.5344  0.3239
  193MPD1     N 2943   1.991   2.118  16.285  0.2841  0.2677 -0.3552
  193MPD1    H5 2944   2.063   2.152  16.223  1.4241  0.7642  1.2618
  193MPD1    N1 2945   1.721   1.714  16.325 -0.1305 -0.9025 -0.1838
  193MPD1    H6 2946   1.686   1.639  16.267  0.2941 -2.2650  1.3354
  193MPD1    H7 2947   1.645   1.769  16.364  0.5691  0.3256 -0.5281
  194MPD1     C 2948   0.093   3.860  17.149 -0.7020 -0.0987 -0.1966
  194MPD1    C1 2949   0.081   3.731  17.111 -0.1080 -0.2523  0.3465
  194MPD1    C2 2950   0.136   3.634  17.193  0.4173  0.1905 -1.4163
  194MPD1    C3 2951   0.199   3.656  17.312 -0.2754 -0.5145 -0.0550
  194MPD1    C4 2952   0.219   3.797  17.342  0.5782  0.5922 -0.8949
  194MPD1    C5 2953   0.170   3.891  17.261 -0.0790 -0.8551 -0.7316
  194MPD1     H 2954   0.105   3.535  17.162 -2.4895  0.2958  1.0552
  194MPD1    H1 2955   0.276   3.834  17.427  2.2550 -2.2620 -0.7719
  194MPD1    H2 2956   0.036   3.932  17.092 -0.4552  0.0138 -0.3005
  194MPD1    H3 2957   0.178   3.994  17.293 -2.6893 -0.6307 -0.7715
  194MPD1     N 2958   0.249   3.545  17.395  0.4284 -0.5325  0.1621
  194MPD1    H5 2959   0.298   3.570  17.480 -0.5947  1.3292  0.2076
  194MPD1    N1 2960   0.009   3.698  16.997 -0.0141 -0.4688 -0.9253
  194MPD1    H6 2961   4.722   3.771  16.927 -0.6611  0.1920 -0.1400
  194MPD1    H7 2962   0.044   3.610  16.961  0.8677 -0.7725  0.6589
  195MPD1     C 2963   2.088   0.997  17.693  0.4612 -0.2102  0.3836
  195MPD1    C1 2964   2.067   0.991   0.130 -0.2241 -0.0361  0.5792
  195MPD1    C2 2965   2.075   0.876   0.204 -0.2703 -0.1146 -0.2904
  195MPD1    C3 2966   2.111   0.757   0.138  0.1304 -0.9619  0.1253
  195MPD1    C4 2967   2.154   0.767   0.005 -0.0004  0.2706  0.1964
  195MPD1    C5 2968   2.131   0.885  17.629 -0.3858 -0.1634 -0.3021
  195MPD1     H 2969   2.031   0.866   0.303 -2.3954 -0.2816 -1.2569
  195MPD1    H1 2970   2.189   0.678  17.652  2.3670  1.0370  0.4701
  195MPD1    H2 2971   2.066   1.086  17.635 -1.3808 -0.9002  0.0175
  195MPD1    H3 2972   2.154   0.886  17.523 -0.9924  1.2607 -0.4142
  195MPD1     N 2973   2.124   0.633   0.202 -0.1384  0.0128 -1.2994
  195MPD1    H5 2974   2.171   0.563   0.146  2.3793 -0.5518  1.5520
  195MPD1    N1 2975   2.000   1.103   0.186 -0.7120 -0.8783 -0.2783
  195MPD1    H6 2976   2.005   1.110   0.287 -0.0221 -3.7981 -0.1176
  195MPD1    H7 2977   2.017   1.192   0.139  0.8607 -1.2774 -0.4528
  196MPD1     C 2978   1.046   4.056   0.472 -0.0073  0.4043 -0.1782
  196MPD1    C1 2979   1.099   4.174   0.479  0.2142 -0.3482  0.0240
  196MPD1    C2 2980   1.135   4.228   0.600 -0.3047 -0.3132  0.5772
  196MPD1    C3 2981   1.123   4.160   0.722  0.7169 -0.1843  0.1314
  196MPD1    C4 2982   1.065   4.039   0.714 -0.2763 -0.6708 -1.3902
  196MPD1    C5 2983   1.039   3.988   0.592 -0.2214  0.0130 -0.0210
  196MPD1     H 2984   1.190   4.321   0.595 -1.0023  0.3489  4.7930
  196MPD1    H1 2985   1.041   3.975   0.798 -1.9487 -0.6976 -1.8913
  196MPD1    H2 2986   1.017   3.999   0.385 -1.1769  1.4187 -0.4567
  196MPD1    H3 2987   0.997   3.887   0.588 -3.1636  1.2602 -0.8585
  196MPD1     N 2988   1.167   4.206   0.845 -0.6759  0.2826 -0.1680
  196MPD1    H5 2989   1.155   4.152   0.930  1.5657  0.7921  0.4654
  196MPD1    N1 2990   1.130   4.241   0.360  0.1700  0.2250 -0.0016
  196MPD1    H6 2991   1.065   4.231   0.283  0.3964  0.3847 -0.2100
  196MPD1    H7 2992   1.130   4.341   0.382 -2.1374  0.2620 -0.1002
  197MPD1     C 2993   1.057   2.395  17.661 -0.2888  0.4256 -0.4607
  197MPD1    C1 2994   1.038   2.311  17.548 -0.3171  0.1747  0.1357
  197MPD1    C2 2995   0.972   2.358  17.439 -0.2229 -0.2559  0.1844
  197MPD1    C3 2996   0.941   2.491  17.429 -0.2759  0.2849  0.3845
  197MPD1    C4 2997   0.975   2.573  17.538 -0.2708 -0.3752 -0.3181
  197MPD1    C5 2998   1.024   2.518  17.654  0.7524  0.3904  0.6486
  197MPD1     H 2999   0.945   2.292  17.357 -1.7253  0.7252 -0.1137
  197MPD1    H1 3000   0.966   2.681  17.533  0.8189 -0.3543 -2.0312
  197MPD1    H2 3001   1.095   2.359   0.058  1.2594  0.4764 -1.0472
  197MPD1    H3 3002   1.039   2.583   0.042  1.0699  0.0901  0.8226
  197MPD1     N 3003   0.891   2.558  17.312  0.0458  0.1985  0.3822
  197MPD1    H5 3004   0.879   2.658  17.314  0.1639  0.2202  0.0073
  197MPD1    N1 3005   1.067   2.172  17.548 -0.2112  0.2326  0.1124
  197MPD1    H6 3006   1.130   2.146  17.623 -0.3230 -2.9726 -0.8854
  197MPD1    H7 3007   1.091   2.134  17.456 -0.9271 -2.3591  1.0011
  198MPD1     C 3008   2.375   2.021  16.458 -0.3035  0.2574  0.1997
  198MPD1    C1 3009   2.507   2.025  16.488 -0.0656  0.0038 -0.0033
  198MPD1    C2 3010   2.602   1.936  16.425 -1.5552  0.2137  0.7912
  198MPD1    C3 3011   2.560   1.858  16.320 -0.2339  0.1653  0.0156
  198MPD1    C4 3012   2.427   1.869  16.277 -0.1227 -0.0651  0.3501
  198MPD1    C5 3013   2.335   1.940  16.348  0.2157 -0.5002 -0.1738
  198MPD1     H 3014   2.707   1.927  16.449 -0.9184  0.7734 -1.6916
  198MPD1    H1 3015   2.391   1.810  16.194 -0.5534  1.2822 -0.4163
  198MPD1    H2 3016   2.299   2.088  16.498  0.2820  0.1840  1.4193
  198MPD1    H3 3017   2.231   1.939  16.315  0.6298  2.0676 -1.5582
  198MPD1     N 3018   2.653   1.779  16.262 -0.3590 -0.5095  0.0324
  198MPD1    H5 3019   2.749   1.787  16.293 -0.3493 -0.0632 -0.1036
  198MPD1    N1 3020   2.544   2.110  16.594  0.1329  0.5963  0.3758
  198MPD1    H6 3021   2.643   2.127  16.579  0.3995 -1.2778  0.0864
  198MPD1    H7 3022   2.484   2.192  16.590 -2.7963 -1.4709  1.8347
  199MPD1     C 3023   4.210   1.538   9.906 -0.1724  0.0634 -0.3746
  199MPD1    C1 3024   4.264   1.610   9.806 -0.6438  0.3240  0.0152
  199MPD1    C2 3025   4.189   1.712   9.744 -0.3644 -0.0474 -0.3378
  199MPD1    C3 3026   4.059   1.736   9.776  0.9477  0.2054 -0.6319
  199MPD1    C4 3027   4.007   1.669   9.879 -0.7468  0.0964  0.3385
  199MPD1    C5 3028   4.081   1.565   9.937  0.2415  0.2168  0.9173
  199MPD1     H 3029   4.235   1.758   9.658 -2.6797  1.1394 -0.9489
  199MPD1    H1 3030   3.912   1.681   9.929 -2.1662 -1.8248 -1.8825
  199MPD1    H2 3031   4.271   1.465   9.958 -0.5921 -0.7045 -0.9645
  199MPD1    H3 3032   4.042   1.499  10.013 -0.2618  0.7084  1.0815
  199MPD1     N 3033   3.970   1.830   9.719 -0.4054 -0.0900  0.1015
  199MPD1    H5 3034   3.872   1.827   9.744 -0.7185 -1.2230 -1.2278
  199MPD1    N1 3035   4.399   1.579   9.769 -0.5488  0.9728  0.3357
  199MPD1    H6 3036   4.443   1.658   9.721 -0.1079  0.4737 -0.0886
  199MPD1    H7 3037   4.461   1.539   9.839  0.0692 -1.0615 -1.3384
  200MPD1     C 3038   3.689   2.372  15.172 -0.3202  0.0619 -0.1467
  200MPD1    C1 3039   3.717   2.317  15.050  0.8909 -0.2160  0.6051
  200MPD1    C2 3040   3.852   2.279  15.031  0.2691 -0.1471 -0.0515
  200MPD1    C3 3041   3.946   2.315  15.119  0.5830  0.1861  0.1287
  200MPD1    C4 3042   3.915   2.375  15.239 -0.1473 -0.0691 -0.1077
  200MPD1    C5 3043   3.778   2.398  15.265 -0.1312 -0.0886 -0.2575
  200MPD1     H 3044   3.880   2.224  14.941  0.7445 -0.2035  0.1277
  200MPD1    H1 3045   3.984   2.394  15.320 -0.2911  0.1781 -0.0446
  200MPD1    H2 3046   3.584   2.386  15.195 -0.8107 -1.4880 -1.4523
  200MPD1    H3 3047   3.740   2.444  15.355 -1.0064  1.4778 -1.4329
  200MPD1     N 3048   4.076   2.292  15.074  0.0439  0.1629  0.4732
  200MPD1    H5 3049   4.083   2.264  14.976  0.4727  0.8997  0.2903
  200MPD1    N1 3050   3.621   2.281  14.954 -0.1574  0.1681 -0.2128
  200MPD1    H6 3051   3.526   2.320  14.954  0.3272  1.3414  2.1936
  200MPD1    H7 3052   3.655   2.280  14.858 -1.8178 -1.7642 -0.7877
  201MPD1     C 3053   1.306   1.336  12.767  0.5756  0.1555 -0.2451
  201MPD1    C1 3054   1.316   1.335  12.909 -0.0297 -0.1665 -0.1897
  201MPD1    C2 3055   1.365   1.218  12.959  0.1087 -0.4219 -0.2036
  201MPD1    C3 3056   1.384   1.102  12.882  0.1087 -0.2699 -0.0532
  201MPD1    C4 3057   1.360   1.106  12.747 -0.0364 -0.3317  0.7374
  201MPD1    C5 3058   1.326   1.225  12.690 -0.3728 -0.3425  0.5974
  201MPD1     H 3059   1.386   1.218  13.065 -2.0118  2.6181  0.2129
  201MPD1    H1 3060   1.371   1.027  12.674 -0.8706 -0.2278  0.4967
  201MPD1    H2 3061   1.285   1.430  12.717  0.0733 -0.1500 -0.6140
  201MPD1    H3 3062   1.298   1.226  12.585 -0.2647 -0.4922  0.5686
  201MPD1     N 3063   1.418   0.981  12.945 -0.1619 -0.0141 -0.1319
  201MPD1    H5 3064   1.421   0.982  13.047 -0.1078 -0.9422 -0.1203
  201MPD1    N1 3065   1.325   1.448  12.994 -0.1996 -0.1648  0.3060
  201MPD1    H6 3066   1.256   1.519  12.970 -0.4959 -0.6893 -0.3973
  201MPD1    H7 3067   1.310   1.419  13.090  0.6729  1.9455  1.0878
  202MPD1     C 3068   1.264   4.439   8.979 -0.6504 -0.1324 -1.1545
  202MPD1    C1 3069   1.299   4.570   8.946 -0.1421 -0.1060 -0.5443
  202MPD1    C2 3070   1.355   4.644   9.046  0.2505 -0.4421 -0.9829
  202MPD1    C3 3071   1.365   4.615   9.180 -0.2316 -1.1057 -0.6030
  202MPD1    C4 3072   1.325   4.489   9.212 -0.0334 -0.0176  0.3945
  202MPD1    C5 3073   1.278   4.406   9.112 -0.0692  0.3135 -0.5142
  202MPD1     H 3074   1.360   0.026   9.021 -2.6926 -0.3713 -1.1964
  202MPD1    H1 3075   1.325   4.451   9.313 -1.7771 -1.5717 -0.1921
  202MPD1    H2 3076   1.243   4.362   8.905 -0.4117  0.0159 -1.3746
  202MPD1    H3 3077   1.237   4.311   9.143  1.4829  0.7602  2.9436
  202MPD1     N 3078   1.399   4.705   9.278  0.1706 -0.1572 -0.6465
  202MPD1    H5 3079   1.404   4.671   9.374 -1.2140 -0.8096 -0.8055
  202MPD1    N1 3080   1.330   4.587   8.807 -0.3160  0.0590  0.2967
  202MPD1    H6 3081   1.339   4.685   8.782  0.4866  0.3575  1.7702
  202MPD1    H7 3082   1.264   4.541   8.744 -0.3501  0.9684 -0.3191
  203MPD1     C 3083   0.756   2.160  13.110  0.6640 -0.0472  0.2717
  203MPD1    C1 3084   0.739   2.043  13.188 -0.1112  0.6327 -0.8145
  203MPD1    C2 3085   0.695   1.927  13.134  0.2384  0.0774  0.1101
  203MPD1    C3 3086   0.686   1.915  12.996  0.4476 -0.1205 -0.1439
  203MPD1    C4 3087   0.712   2.022  12.917  0.5379 -0.6609 -0.2106
  203MPD1    C5 3088   0.749   2.140  12.975 -0.2287 -0.4970  0.4744
  203MPD1     H 3089   0.681   1.837  13.193 -0.0069 -0.2113 -0.3971
  203MPD1    H1 3090   0.693   2.027  12.811  1.9509  1.0217 -0.3789
  203MPD1    H2 3091   0.786   2.254  13.156  0.6600 -0.4995  1.2084
  203MPD1    H3 3092   0.750   2.232  12.917  0.1718 -0.2661  0.8510
  203MPD1     N 3093   0.656   1.788  12.937 -0.0447  0.0039 -0.6650
  203MPD1    H5 3094   0.638   1.712  13.001 -0.1594 -0.6535 -1.4698
  203MPD1    N1 3095   0.745   2.061  13.329 -0.2431 -0.8072 -0.0845
  203MPD1    H6 3096   0.819   2.129  13.342  0.0562 -1.0415 -0.5537
  203MPD1    H7 3097   0.773   1.977  13.379 -1.4167 -0.3436  1.3628
  204MPD1     C 3098   3.605   1.979  17.250 -0.1467 -0.2100  0.0693
  204MPD1    C1 3099   3.665   1.955  17.374  0.0802 -0.1875 -0.0291
  204MPD1    C2 3100   3.806   1.970  17.369 -0.2837 -0.3606  0.2379
  204MPD1    C3 3101   3.877   2.003  17.257 -0.1268 -0.2022  0.7244
  204MPD1    C4 3102   3.812   2.032  17.135  0.4180  0.6093  0.3973
  204MPD1    C5 3103   3.679   2.017  17.138 -0.3683  0.8436  0.3041
  204MPD1     H 3104   3.851   1.954  17.466 -0.5651 -0.5226  0.3423
  204MPD1    H1 3105   3.861   2.063  17.044 -0.3977 -0.6978 -0.4809
  204MPD1    H2 3106   3.497   1.982  17.237  0.0596 -0.9723 -1.7919
  204MPD1    H3 3107   3.618   2.044  17.053  1.1797 -1.0973 -1.4450
  204MPD1     N 3108   4.017   2.016  17.285 -0.4277 -0.3527 -0.6227
  204MPD1    H5 3109   4.045   1.992  17.379  0.4028 -3.3166 -1.6201
  204MPD1    N1 3110   3.585   1.946  17.495 -0.2950  0.2371 -0.3211
  204MPD1    H6 3111   3.641   1.898  17.565 -2.6966  0.9908  2.1247
  204MPD1    H7 3112   3.495   1.901  17.482  0.5163 -1.6269  0.5137
  205MPD1     C 3113   0.819   1.001  17.328  0.0768 -0.5133  0.3283
  205MPD1    C1 3114   0.726   1.079  17.253  1.1045 -0.2930  0.5222
  205MPD1    C2 3115   0.600   1.105  17.305  0.5569  0.2011  0.3667
  205MPD1    C3 3116   0.559   1.052  17.423  0.6108  0.2806  0.6590
  205MPD1    C4 3117   0.656   0.993  17.499  0.1230 -0.6118 -0.1398
  205MPD1    C5 3118   0.784   0.977  17.456 -0.3297 -0.2924 -0.1262
  205MPD1     H 3119   0.533   1.149  17.232 -1.3046 -0.6337  1.5656
  205MPD1    H1 3120   0.630   0.952  17.596  1.6735 -2.0756 -0.3302
  205MPD1    H2 3121   0.917   0.973  17.292  0.6248 -1.2936  2.4328
  205MPD1    H3 3122   0.856   0.920  17.514  2.6829  2.6225 -0.9578
  205MPD1     N 3123   0.430   1.075  17.467 -0.4265  0.3397  0.0685
  205MPD1    H5 3124   0.395   1.021  17.546 -0.6988  0.5328  0.0802
  205MPD1    N1 3125   0.742   1.119  17.117 -0.1464  0.0987  0.2354
  205MPD1    H6 3126   0.695   1.208  17.103  1.3191  1.3284  3.1866
  205MPD1    H7 3127   0.839   1.138  17.092  0.5166 -0.7094  2.1488
  206MPD1     C 3128   0.033   3.968  16.794  0.5012  0.2361  0.2242
  206MPD1    C1 3129   0.083   3.868  16.705  0.2218 -0.4072 -0.1005
  206MPD1    C2 3130   0.044   3.873  16.575  0.2339  0.0054  0.5455
  206MPD1    C3 3131   4.680   3.971  16.529 -0.2216 -0.0708 -0.4729
  206MPD1    C4 3132   4.627   4.064  16.618 -0.7610 -0.1659 -0.1584
  206MPD1    C5 3133   4.666   4.057  16.751 -0.3410 -0.0241  0.5831
  206MPD1     H 3134   0.091   3.794  16.517 -0.6021 -1.5619  1.9945
  206MPD1    H1 3135   4.557   4.139  16.584 -0.4635 -0.3020 -1.0731
  206MPD1    H2 3136   0.074   3.985  16.893  1.1913  0.3208 -0.0737
  206MPD1    H3 3137   4.636   4.127  16.828  1.4823  0.0721  1.2031
  206MPD1     N 3138   4.650   3.992  16.395  0.7972  0.4108 -0.2726
  206MPD1    H5 3139   4.577   4.061  16.386  0.0352 -0.3418  0.1885
  206MPD1    N1 3140   0.200   3.793  16.743  0.2227  0.0183 -0.3104
  206MPD1    H6 3141   0.204   3.712  16.681 -0.6004  1.1309 -1.8141
  206MPD1    H7 3142   0.206   3.760  16.839 -1.7226  0.2629 -0.1166
  207MPD1     C 3143   2.691   1.904   9.335  0.7332  0.3135 -0.1966
  207MPD1    C1 3144   2.800   1.929   9.418  0.5867 -0.3174 -0.1882
  207MPD1    C2 3145   2.810   1.899   9.546 -0.2329 -0.2745  0.3570
  207MPD1    C3 3146   2.697   1.858   9.610  0.6596 -0.0647 -0.6463
  207MPD1    C4 3147   2.590   1.822   9.528  0.3768  0.2693 -0.4288
  207MPD1    C5 3148   2.581   1.850   9.395  0.1776 -0.0131 -0.1830
  207MPD1     H 3149   2.899   1.920   9.604 -1.4331  0.9166  1.8004
  207MPD1    H1 3150   2.504   1.778   9.578  0.3115 -1.5794 -2.1710
  207MPD1    H2 3151   2.693   1.932   9.231 -0.0747 -0.1279 -0.3335
  207MPD1    H3 3152   2.494   1.834   9.333  0.1495 -0.3881 -0.0435
  207MPD1     N 3153   2.699   1.829   9.750 -0.4003 -0.0407 -0.1531
  207MPD1    H5 3154   2.619   1.779   9.788 -1.0305  2.6991  2.0492
  207MPD1    N1 3155   2.914   1.969   9.355 -0.1445  0.7884  0.2392
  207MPD1    H6 3156   2.985   2.007   9.418  0.2817 -0.7443  0.6899
  207MPD1    H7 3157   2.906   2.046   9.290 -1.1755 -1.0635 -1.8271
  208MPD1     C 3158   0.560   0.117  17.159  0.0690  0.2367  0.0714
  208MPD1    C1 3159   0.521   0.238  17.211 -0.3300  0.0447 -0.7876
  208MPD1    C2 3160   0.508   0.257  17.346 -0.0097  0.1766  0.0368
  208MPD1    C3 3161   0.540   0.157  17.433 -0.1103 -0.2369  0.4050
  208MPD1    C4 3162   0.592   0.042  17.385  0.4998 -0.9255 -0.8991
  208MPD1    C5 3163   0.593   0.019  17.246  0.0452  0.3028 -0.2260
  208MPD1     H 3164   0.473   0.354  17.381 -2.0453 -0.3737 -0.4744
  208MPD1    H1 3165   0.616   4.677  17.443 -2.4294  0.1112  1.8987
  208MPD1    H2 3166   0.555   0.096  17.053  0.5585  2.1400 -0.3354
  208MPD1    H3 3167   0.616   4.641  17.216  0.5341  0.7831 -1.4944
  208MPD1     N 3168   0.536   0.186  17.567  0.0101  0.1931 -0.2964
  208MPD1    H5 3169   0.490   0.272  17.595 -0.1686 -0.0682  0.2069
  208MPD1    N1 3170   0.456   0.335  17.128  0.5188  0.2974 -0.2264
  208MPD1    H6 3171   0.479   0.322  17.029 -1.3882  0.2259 -0.6442
  208MPD1    H7 3172   0.472   0.428  17.167  2.2960 -0.4640  0.8868
  209MPD1     C 3173   1.909   1.070   9.470  0.4394 -0.4037 -0.6277
  209MPD1    C1 3174   1.967   1.166   9.543 -0.1983 -0.3347  0.2139
  209MPD1    C2 3175   2.051   1.118   9.642 -0.4485 -1.1088 -0.8234
  209MPD1    C3 3176   2.063   0.989   9.680  0.4367 -0.2803 -0.8069
  209MPD1    C4 3177   1.987   0.897   9.612 -0.4891 -0.4226 -0.0691
  209MPD1    C5 3178   1.909   0.939   9.506  0.1481  0.3176 -0.2949
  209MPD1     H 3179   2.114   1.192   9.691 -2.9777 -0.6425  1.7622
  209MPD1    H1 3180   1.985   0.792   9.637  0.9204 -0.4564 -0.0990
  209MPD1    H2 3181   1.858   1.095   9.377  0.2351  1.7413  0.0597
  209MPD1    H3 3182   1.848   0.870   9.449 -0.4561  0.9640 -0.4299
  209MPD1     N 3183   2.176   0.961   9.761  0.1031  0.2419  0.1091
  209MPD1    H5 3184   2.235   1.036   9.797  0.1548 -1.2927  3.2567
  209MPD1    N1 3185   1.973   1.300   9.500 -0.0700  0.4560  0.0176
  209MPD1    H6 3186   1.883   1.318   9.455  0.2501 -0.2377 -0.8902
  209MPD1    H7 3187   1.975   1.357   9.585 -0.2803  0.2015  0.1942
  210MPD1     C 3188   2.830   0.152   9.855  0.5485 -0.2280  0.0883
  210MPD1    C1 3189   2.867   0.245   9.947  0.1650  0.0859 -0.6050
  210MPD1    C2 3190   2.788   0.360   9.956 -1.0737 -0.4695 -0.5715
  210MPD1    C3 3191   2.670   0.382   9.882  0.3764 -0.4783  0.0811
  210MPD1    C4 3192   2.627   0.279   9.809  0.1124 -0.4170  0.1448
  210MPD1    C5 3193   2.705   0.168   9.800 -0.3725  0.1005 -0.2459
  210MPD1     H 3194   2.820   0.425  10.037 -1.3470  0.0126 -0.8501
  210MPD1    H1 3195   2.533   0.277   9.754  1.5067 -0.9306 -2.1967
  210MPD1    H2 3196   2.868   0.052   9.840  0.9815 -0.1395  0.5996
  210MPD1    H3 3197   2.674   0.087   9.736  0.5424 -0.3026 -0.1808
  210MPD1     N 3198   2.585   0.497   9.893  0.3616 -0.0686 -0.3637
  210MPD1    H5 3199   2.497   0.496   9.843 -0.2556 -1.3791  0.7456
  210MPD1    N1 3200   2.978   0.229  10.030 -0.1170 -0.4124  0.2164
  210MPD1    H6 3201   3.006   0.131  10.039  1.5979  0.0030 -0.5263
  210MPD1    H7 3202   2.978   0.284  10.116 -1.9627  1.5594 -1.0411
  211MPD1     C 3203   0.928   0.775  16.590  0.2599 -0.2329 -0.1025
  211MPD1    C1 3204   0.895   0.875  16.501 -0.2318  0.0801  0.5174
  211MPD1    C2 3205   0.756   0.895  16.489  0.1083  0.0195  1.1771
  211MPD1    C3 3206   0.665   0.815  16.565 -1.4756 -0.4253 -0.2642
  211MPD1    C4 3207   0.703   0.714  16.643  0.8126 -0.3451  0.1533
  211MPD1    C5 3208   0.832   0.694  16.650 -0.2695 -0.3772 -0.5962
  211MPD1     H 3209   0.720   0.967  16.417  0.4389 -1.5961 -0.6107
  211MPD1    H1 3210   0.643   0.649  16.706  1.9765 -1.8109 -0.2681
  211MPD1    H2 3211   1.031   0.760  16.619  0.6452  0.3185 -1.2117
  211MPD1    H3 3212   0.869   0.612  16.710  1.1478  1.5823  1.2039
  211MPD1     N 3213   0.536   0.869  16.553  0.4403  0.1453  0.1307
  211MPD1    H5 3214   0.538   0.962  16.512  2.6101 -0.3414 -0.8477
  211MPD1    N1 3215   0.982   0.973  16.450  0.0970  0.5731  0.1627
  211MPD1    H6 3216   1.067   0.935  16.410  1.3585  1.6235  1.8622
  211MPD1    H7 3217   0.936   1.039  16.388 -3.7314 -2.3103 -0.1236
  212MPD1     C 3218   3.888   4.455  16.798 -0.4448 -0.4737 -0.0429
  212MPD1    C1 3219   4.007   4.398  16.756  0.3545  0.1977  0.1060
  212MPD1    C2 3220   4.032   4.272  16.801 -0.0580  0.5369 -0.0057
  212MPD1    C3 3221   3.953   4.211  16.902  0.2352 -0.1391  0.1162
  212MPD1    C4 3222   3.845   4.275  16.947  0.2684 -0.3979 -0.2424
  212MPD1    C5 3223   3.813   4.404  16.900 -0.1091 -0.3789  1.1507
  212MPD1     H 3224   4.118   4.212  16.773  0.5537  2.1167 -1.5225
  212MPD1    H1 3225   3.778   4.233  17.021  0.1301 -1.1772 -0.8146
  212MPD1    H2 3226   3.860   4.554  16.764  0.1039  0.2479  1.6231
  212MPD1    H3 3227   3.727   4.461  16.934  1.1723 -0.1365  3.8961
  212MPD1     N 3228   3.983   4.091  16.966  0.1495 -1.2324 -0.3861
  212MPD1    H5 3229   3.915   4.056  17.032 -0.8080  2.0395  0.3905
  212MPD1    N1 3230   4.084   4.456  16.651  0.6497 -0.6411 -0.1369
  212MPD1    H6 3231   4.181   4.426  16.643  1.2390  0.5762  2.4584
  212MPD1    H7 3232   4.079   4.558  16.654 -1.7896 -0.6816 -2.1175
  213MPD1     C 3233   1.984   1.454  16.438 -0.7094  1.4328  0.5505
  213MPD1    C1 3234   1.910   1.339  16.420 -0.4306  0.0586 -0.4971
  213MPD1    C2 3235   1.980   1.249  16.345  0.0645 -0.2954 -1.1445
  213MPD1    C3 3236   2.118   1.245  16.333  0.2188 -0.4838  0.1216
  213MPD1    C4 3237   2.189   1.355  16.374 -0.5410  0.5307  0.2290
  213MPD1    C5 3238   2.120   1.462  16.426 -0.3871 -0.3059  0.5083
  213MPD1     H 3239   1.935   1.156  16.312 -0.7130  0.1300 -1.2694
  213MPD1    H1 3240   2.295   1.372  16.364 -0.2241 -0.1099  2.5498
  213MPD1    H2 3241   1.928   1.543  16.465  2.1184  2.4434  3.1803
  213MPD1    H3 3242   2.168   1.557  16.444 -2.8715  1.1215 -0.4275
  213MPD1     N 3243   2.175   1.130  16.271 -0.3619  0.0465 -0.3650
  213MPD1    H5 3244   2.104   1.067  16.234  0.1957  0.9348 -2.9401
  213MPD1    N1 3245   1.773   1.342  16.410  0.6197  0.4344  0.3057
  213MPD1    H6 3246   1.738   1.397  16.488 -1.6319 -0.5447  0.0067
  213MPD1    H7 3247   1.736   1.247  16.406 -0.9356  1.0885 -0.6987
  214MPD1     C 3248   2.317   0.154  16.492  0.1621  0.0526 -0.0998
  214MPD1    C1 3249   2.402   0.254  16.540  0.8268  0.3177  0.0898
  214MPD1    C2 3250   2.424   0.356  16.461  0.2471 -0.3658  0.4637
  214MPD1    C3 3251   2.357   0.380  16.339 -0.5302 -0.3781 -0.0565
  214MPD1    C4 3252   2.279   0.280  16.289  0.4886 -0.1171  1.1068
  214MPD1    C5 3253   2.266   0.171  16.367  0.1041 -0.2437 -0.0991
  214MPD1     H 3254   2.492   0.434  16.493 -1.4287  1.2658  0.0520
  214MPD1    H1 3255   2.217   0.288  16.200  1.6031  3.7540  0.6885
  214MPD1    H2 3256   2.316   0.063  16.551  1.3137 -1.0513 -1.7446
  214MPD1    H3 3257   2.193   0.095  16.340 -1.2182  0.9613  0.0580
  214MPD1     N 3258   2.359   0.502  16.270  0.2474 -0.6687 -0.0493
  214MPD1    H5 3259   2.306   0.495  16.183  1.5159  0.4110 -0.9139
  214MPD1    N1 3260   2.486   0.224  16.648  0.4211 -0.3494 -0.0993
  214MPD1    H6 3261   2.512   0.299  16.712 -0.1643 -0.3043  0.0865
  214MPD1    H7 3262   2.438   0.155  16.705  1.0102  0.1463  1.0058
  215MPD1     C 3263   2.677   0.462  10.821  0.5455  0.1926 -0.0687
  215MPD1    C1 3264   2.591   0.523  10.906 -0.0001  0.5738 -0.4901
  215MPD1    C2 3265   2.589   0.662  10.895  0.4350  0.0622  0.1999
  215MPD1    C3 3266   2.660   0.735  10.800  0.4573 -0.5038 -0.7029
  215MPD1    C4 3267   2.739   0.664  10.710 -0.0986  0.1873  0.0265
  215MPD1    C5 3268   2.730   0.526  10.710 -0.6849 -0.2586  0.2628
  215MPD1     H 3269   2.544   0.702  10.985  0.3571 -1.9499  1.0615
  215MPD1    H1 3270   2.800   0.716  10.638  0.4336 -2.5912 -1.5262
  215MPD1    H2 3271   2.687   0.354  10.823 -0.7698  0.0842  0.2110
  215MPD1    H3 3272   2.786   0.468  10.637  0.3405 -0.6263  1.3455
  215MPD1     N 3273   2.664   0.873  10.818  0.0520  0.5289  0.1838
  215MPD1    H5 3274   2.608   0.917  10.890 -2.1626 -0.8535 -0.6918
  215MPD1    N1 3275   2.543   0.450  11.020  0.0142 -0.2063 -0.4418
  215MPD1    H6 3276   2.520   0.354  10.996 -0.4850 -0.4566  1.0016
  215MPD1    H7 3277   2.452   0.487  11.046 -0.4883 -1.5097 -0.3118
  216MPD1     C 3278   0.066   2.546  17.107  0.1648 -0.0411  0.4981
  216MPD1    C1 3279   4.667   2.536  17.175  0.3557 -0.4692 -0.4836
  216MPD1    C2 3280   4.678   2.474  17.302 -0.2205 -0.1490  0.1265
  216MPD1    C3 3281   0.073   2.427  17.361 -1.0825  0.4367  0.1103
  216MPD1    C4 3282   0.193   2.443  17.299 -0.6696 -0.1770  0.1583
  216MPD1    C5 3283   0.184   2.499  17.170 -0.2827 -0.1187 -0.5615
  216MPD1     H 3284   4.592   2.441  17.358 -0.0553  0.8782  1.0051
  216MPD1    H1 3285   0.291   2.418  17.336 -0.3845 -1.6354 -1.5847
  216MPD1    H2 3286   0.081   2.589  17.009 -0.4487 -3.0916 -0.9063
  216MPD1    H3 3287   0.273   2.515  17.109 -0.2141  2.9215  0.3208
  216MPD1     N 3288   0.064   2.347  17.479 -0.0361 -0.6343  0.8471
  216MPD1    H5 3289   4.701   2.354  17.530 -0.0516 -0.0762  0.7452
  216MPD1    N1 3290   4.542   2.548  17.112 -0.0009 -0.6818 -0.4901
  216MPD1    H6 3291   4.471   2.574  17.180 -0.7326 -1.7828 -0.8271
  216MPD1    H7 3292   4.549   2.629  17.049 -0.1365 -0.9015 -0.7886
  217MPD1     C 3293   0.447   4.135   8.492  0.2224  0.1673 -0.5823
  217MPD1    C1 3294   0.580   4.163   8.510  0.2454 -0.0207  0.4131
  217MPD1    C2 3295   0.615   4.231   8.620 -0.6686 -0.2385  0.5804
  217MPD1    C3 3296   0.519   4.281   8.710 -0.0155 -0.0958 -0.2045
  217MPD1    C4 3297   0.389   4.261   8.684 -0.7457  0.3965  0.8945
  217MPD1    C5 3298   0.351   4.183   8.578 -0.1526  0.2469 -0.1851
  217MPD1     H 3299   0.721   4.251   8.630 -0.5051 -1.2452  0.8180
  217MPD1    H1 3300   0.320   4.312   8.750 -0.5810  1.8079 -0.0170
  217MPD1    H2 3301   0.409   4.073   8.412  0.9892 -0.0741 -0.7667
  217MPD1    H3 3302   0.246   4.156   8.572  0.9276 -3.6373 -1.6515
  217MPD1     N 3303   0.548   4.351   8.831  0.2144 -0.2333 -0.1703
  217MPD1    H5 3304   0.468   4.356   8.894 -0.3861  0.4470 -0.9770
  217MPD1    N1 3305   0.687   4.118   8.442 -0.4624 -0.2119 -0.2021
  217MPD1    H6 3306   0.760   4.185   8.463 -1.8476  0.8002  1.3790
  217MPD1    H7 3307   0.672   4.109   8.342 -2.1991 -1.0300  0.1282
  218MPD1     C 3308   1.567   1.951  12.485 -0.1182  0.2245  0.5072
  218MPD1    C1 3309   1.701   1.977  12.463  0.6008 -0.3660  0.5957
  218MPD1    C2 3310   1.783   1.878  12.489  0.3754  0.4960 -0.1319
  218MPD1    C3 3311   1.745   1.753  12.542 -0.4068 -0.2608  0.1039
  218MPD1    C4 3312   1.610   1.731  12.554 -0.9272 -0.1335  0.1075
  218MPD1    C5 3313   1.526   1.832  12.530  0.0763 -0.2345  0.3219
  218MPD1     H 3314   1.887   1.897  12.464 -0.0662  0.6194 -1.8476
  218MPD1    H1 3315   1.574   1.640  12.600 -0.7175 -0.2969 -0.0498
  218MPD1    H2 3316   1.495   2.029  12.462 -0.1050  0.0626 -0.0698
  218MPD1    H3 3317   1.421   1.812  12.542 -0.0383  0.3087  0.2250
  218MPD1     N 3318   1.846   1.655  12.559 -0.3477  0.2761  0.0376
  218MPD1    H5 3319   1.938   1.693  12.540 -0.8418  2.6436  2.3171
  218MPD1    N1 3320   1.740   2.083  12.382 -0.5625 -0.2827  0.6202
  218MPD1    H6 3321   1.835   2.110  12.404 -0.6679  0.6420 -0.0377
  218MPD1    H7 3322   1.678   2.161  12.402 -1.2377 -0.4746 -0.6640
  219MPD1     C 3323   2.581   1.663  12.098 -0.6087  0.5391  0.6466
  219MPD1    C1 3324   2.628   1.610  12.216  0.5608 -0.5025  0.2743
  219MPD1    C2 3325   2.533   1.549  12.304  0.2394  0.2561 -0.4503
  219MPD1    C3 3326   2.397   1.575  12.274 -0.1807  0.5039 -0.0168
  219MPD1    C4 3327   2.355   1.623  12.154  0.0787 -0.0749 -0.4034
  219MPD1    C5 3328   2.454   1.664  12.063 -0.9347 -0.3531  0.4964
  219MPD1     H 3329   2.567   1.519  12.403  2.0069 -4.1891 -2.3608
  219MPD1    H1 3330   2.253   1.612  12.122  0.5043  0.8364 -2.0521
  219MPD1    H2 3331   2.648   1.697  12.020 -2.3964  1.6584 -0.4175
  219MPD1    H3 3332   2.404   1.685  11.969  0.9199  1.6206 -0.0483
  219MPD1     N 3333   2.295   1.535  12.367 -0.9792 -0.3355 -0.0676
  219MPD1    H5 3334   2.205   1.582  12.358 -0.9427 -0.8247 -2.9515
  219MPD1    N1 3335   2.760   1.596  12.247 -0.0266 -0.3562 -0.1405
  219MPD1    H6 3336   2.812   1.679  12.218 -1.7370  0.0985 -1.8945
  219MPD1    H7 3337   2.774   1.585  12.347 -0.3183 -1.1757 -0.1900
  220MPD1     C 3338   1.910   0.469   9.956  0.7584 -0.0394 -0.4376
  220MPD1    C1 3339   1.861   0.537   9.850  0.0022 -0.6547 -0.8221
  220MPD1    C2 3340   1.847   0.675   9.865  0.6502 -0.2850 -0.4119
  220MPD1    C3 3341   1.920   0.738   9.963  0.2196 -0.2167  0.5777
  220MPD1    C4 3342   1.974   0.667  10.069 -0.0443  0.1996  0.1846
  220MPD1    C5 3343   1.960   0.536  10.064  0.8127  0.0193  0.1209
  220MPD1     H 3344   1.788   0.734   9.796  1.1225 -0.2749 -0.8135
  220MPD1    H1 3345   2.014   0.708  10.161  0.9802  1.4213 -0.8050
  220MPD1    H2 3346   1.900   0.362   9.970 -3.4854  0.3565 -0.4588
  220MPD1    H3 3347   1.987   0.473  10.148 -1.3087  1.3055  1.7629
  220MPD1     N 3348   1.921   0.880   9.969 -0.1450  0.0075  0.1646
  220MPD1    H5 3349   1.860   0.921   9.899 -0.5558  0.2901  0.6875
  220MPD1    N1 3350   1.792   0.476   9.746 -0.4876 -0.4717 -0.4805
  220MPD1    H6 3351   1.787   0.529   9.660 -3.2328  2.8085  1.7011
  220MPD1    H7 3352   1.821   0.379   9.731 -1.1710 -0.7456 -0.0613
  221MPD1     C 3353   3.830   0.742  16.793  0.5272  0.3879 -0.0833
  221MPD1    C1 3354   3.844   0.792  16.663  0.3167  0.5727 -0.0105
  221MPD1    C2 3355   3.963   0.772  16.603  0.2988  0.2164  0.5469
  221MPD1    C3 3356   4.067   0.705  16.658  0.3628  0.2197 -0.1226
  221MPD1    C4 3357   4.062   0.662  16.794 -0.2129 -0.2937  0.5296
  221MPD1    C5 3358   3.940   0.670  16.852 -0.2338  0.6065  0.2506
  221MPD1     H 3359   3.986   0.815  16.507  1.5982 -0.1444  0.6963
  221MPD1    H1 3360   4.137   0.601  16.843 -0.0371 -1.2334 -0.8940
  221MPD1    H2 3361   3.732   0.755  16.839  1.4116  0.7872  1.6905
  221MPD1    H3 3362   3.933   0.632  16.954 -1.0301  0.2533  0.0594
  221MPD1     N 3363   4.195   0.681  16.598 -0.1364 -0.2506  0.0866
  221MPD1    H5 3364   4.250   0.606  16.639  0.6112  0.6612  0.7440
  221MPD1    N1 3365   3.732   0.836  16.591  0.5003 -0.3372 -0.5586
  221MPD1    H6 3366   3.746   0.910  16.523  0.7687  1.0355  0.9824
  221MPD1    H7 3367   3.665   0.866  16.662 -0.6969  0.6361 -2.1116
  222MPD1     C 3368   0.080   3.435  16.466  0.7331 -0.0446 -0.6500
  222MPD1    C1 3369   0.136   3.349  16.561 -0.4912  0.4596 -0.8627
  222MPD1    C2 3370   0.082   3.349  16.685 -0.3936 -0.3479  0.7181
  222MPD1    C3 3371   4.691   3.422  16.716  0.1955 -0.4772  1.0536
  222MPD1    C4 3372   4.635   3.501  16.613  0.1056 -1.0374 -0.1372
  222MPD1    C5 3373   4.699   3.516  16.496  0.5990  0.0290 -0.2338
  222MPD1     H 3374   0.139   3.294  16.759  1.1490 -0.1442 -0.3158
  222MPD1    H1 3375   4.543   3.558  16.616  0.1447 -0.9248 -1.1838
  222MPD1    H2 3376   0.120   3.430  16.365 -1.4750 -0.0295 -1.5336
  222MPD1    H3 3377   4.661   3.565  16.408 -1.4411 -0.7879  0.1702
  222MPD1     N 3378   4.630   3.414  16.849 -0.2900 -0.0437  0.5509
  222MPD1    H5 3379   4.565   3.490  16.868  0.9959  1.0159  0.7720
  222MPD1    N1 3380   0.269   3.305  16.543 -0.5522  0.4484  0.2537
  222MPD1    H6 3381   0.288   3.284  16.445  1.7854  0.4473  0.7083
  222MPD1    H7 3382   0.286   3.216  16.591 -0.0620  0.9261  0.9683
  223MPD1     C 3383   0.163   3.081   0.139  0.3460 -0.0032  0.4019
  223MPD1    C1 3384   0.102   3.206   0.152  0.0220 -0.1762  0.2451
  223MPD1    C2 3385   0.038   3.263   0.041 -0.2367 -0.4245 -1.0672
  223MPD1    C3 3386   0.030   3.193  17.620  0.5457 -0.1233  0.1861
  223MPD1    C4 3387   0.090   3.068  17.610 -0.0901 -0.1027  0.2418
  223MPD1    C5 3388   0.149   3.012   0.017 -0.1982 -0.0991  0.5904
  223MPD1     H 3389   4.722   3.363   0.048 -1.0890 -0.7923 -0.6981
  223MPD1    H1 3390   0.079   3.013  17.517  2.3135  0.9850 -0.6739
  223MPD1    H2 3391   0.226   3.041   0.218  1.2037 -0.2196 -0.3938
  223MPD1    H3 3392   0.203   2.918   0.017 -1.1600 -0.6435 -0.7280
  223MPD1     N 3393   4.687   3.262  17.520  0.4386  0.2937 -0.3309
  223MPD1    H5 3394   4.656   3.357  17.534 -1.3694 -0.2090 -0.9731
  223MPD1    N1 3395   0.114   3.270   0.269  0.2595 -0.0828 -0.3118
  223MPD1    H6 3396   0.174   3.221   0.334  0.6633  1.7419  0.6865
  223MPD1    H7 3397   0.149   3.366   0.265 -2.3030  0.9628  2.1912
  224MPD1     C 3398   0.862   4.683   8.773 -0.2205  0.0098  0.1833
  224MPD1    C1 3399   0.768   0.055   8.790 -0.6770 -0.0628  0.2454
  224MPD1    C2 3400   0.773   0.144   8.891 -0.3473 -0.2555  0.1788
  224MPD1    C3 3401   0.878   0.139   8.976 -0.1647  0.6396 -0.4661
  224MPD1    C4 3402   0.981   0.042   8.959 -0.2498  0.6012  0.7608
  224MPD1    C5 3403   0.965   4.674   8.858 -0.8550  1.0075 -0.6345
  224MPD1     H 3404   0.683   0.201   8.908 -0.4564 -0.1842 -0.6632
  224MPD1    H1 3405   1.061   0.028   9.032  0.5067  1.6461  0.1384
  224MPD1    H2 3406   0.858   4.609   8.694 -0.4758  1.3477 -1.0492
  224MPD1    H3 3407   1.041   4.599   8.842 -1.6338 -0.1033  0.9855
  224MPD1     N 3408   0.886   0.236   9.083 -0.9641  0.4629 -0.0680
  224MPD1    H5 3409   0.969   0.227   9.141 -1.0137  1.2811  0.1245
  224MPD1    N1 3410   0.659   0.070   8.699 -0.0472 -0.4743 -0.3688
  224MPD1    H6 3411   0.638   4.708   8.647 -1.7913  0.2682 -0.8711
  224MPD1    H7 3412   0.573   0.097   8.745  0.0376 -1.8534  0.5910
  225MPD1     C 3413   1.464   3.076  10.751 -0.2919  1.0250  0.6630
  225MPD1    C1 3414   1.492   2.951  10.807  0.3343  0.4612 -0.4159
  225MPD1    C2 3415   1.504   2.935  10.944  0.4494  0.0613 -0.0707
  225MPD1    C3 3416   1.502   3.043  11.025  0.0760  0.2368 -0.5262
  225MPD1    C4 3417   1.473   3.169  10.975 -0.3271  0.1948 -0.0394
  225MPD1    C5 3418   1.455   3.183  10.837 -0.6331  0.1166  0.4461
  225MPD1     H 3419   1.502   2.836  10.989 -1.0174  0.2880  0.3560
  225MPD1    H1 3420   1.479   3.256  11.039 -1.4964 -0.0926  0.4695
  225MPD1    H2 3421   1.432   3.094  10.649 -1.7266  0.7059  1.0510
  225MPD1    H3 3422   1.419   3.279  10.802 -0.6507 -0.6698 -1.7252
  225MPD1     N 3423   1.521   3.024  11.162 -0.3068 -0.6587  0.4950
  225MPD1    H5 3424   1.502   3.101  11.226 -0.0205 -0.2413  0.0792
  225MPD1    N1 3425   1.492   2.837  10.720 -0.2074  0.2540  0.2733
  225MPD1    H6 3426   1.487   2.854  10.620 -0.4680  0.1196  0.2633
  225MPD1    H7 3427   1.567   2.771  10.741 -1.3644 -2.0387 -2.6899
  226MPD1     C 3428   0.760   2.461   9.258 -0.1161  0.3744 -0.6067
  226MPD1    C1 3429   0.684   2.519   9.357  0.2181 -0.0938  0.2628
  226MPD1    C2 3430   0.581   2.447   9.414  0.6656  0.6988 -0.2017
  226MPD1    C3 3431   0.563   2.315   9.373  0.4723  0.1228 -0.2031
  226MPD1    C4 3432   0.655   2.261   9.277 -0.7064 -0.7476 -0.2341
  226MPD1    C5 3433   0.753   2.335   9.226 -0.5109  0.5525  0.1465
  226MPD1     H 3434   0.518   2.493   9.489  0.5278  1.4012 -0.7503
  226MPD1    H1 3435   0.649   2.164   9.229 -1.3901 -0.8502  0.0521
  226MPD1    H2 3436   0.842   2.523   9.223 -1.3376  1.4308 -1.6277
  226MPD1    H3 3437   0.814   2.288   9.150  0.0709  2.2342 -0.4279
  226MPD1     N 3438   0.462   2.233   9.435  0.1924 -0.3837 -0.3287
  226MPD1    H5 3439   0.407   2.277   9.507  1.8979 -0.1008  0.8077
  226MPD1    N1 3440   0.683   2.655   9.368  0.7569  0.5192  0.2195
  226MPD1    H6 3441   0.768   2.702   9.338  0.4622 -1.1976 -3.3258
  226MPD1    H7 3442   0.673   2.678   9.467  2.5683  2.5047 -0.0584
  227MPD1     C 3443   4.641   2.241  10.234 -0.1918  1.2976  0.3981
  227MPD1    C1 3444   4.617   2.107  10.199  0.5665 -0.9476 -0.6112
  227MPD1    C2 3445   4.674   2.061  10.088  0.6310  0.5801 -0.3521
  227MPD1    C3 3446   0.009   2.150   9.994 -0.2366 -0.6192  0.0529
  227MPD1    C4 3447   0.005   2.287  10.017 -0.4955 -0.4074 -0.5546
  227MPD1    C5 3448   4.678   2.330  10.142 -0.0790  0.0258 -0.8966
  227MPD1     H 3449   4.678   1.955  10.067 -0.9215  0.8180 -1.8954
  227MPD1    H1 3450   0.045   2.366   9.954  0.2417 -0.8820 -0.6910
  227MPD1    H2 3451   4.613   2.272  10.334  0.4700 -0.7539  1.2143
  227MPD1    H3 3452   4.688   2.437  10.156  2.2113 -0.3259  0.2462
  227MPD1     N 3453   0.069   2.088   9.879 -0.3445  0.0766 -0.2394
  227MPD1    H5 3454   0.073   1.986   9.882  0.0360  0.1092  0.1771
  227MPD1    N1 3455   4.579   2.010  10.294 -0.0729 -0.2734  0.1935
  227MPD1    H6 3456   4.515   2.052  10.361  0.4383 -2.2600  1.9091
  227MPD1    H7 3457   4.526   1.938  10.245 -2.2070  0.5438  1.3008
  228MPD1     C 3458   3.563   0.055  13.105 -0.3291 -0.5256 -0.4081
  228MPD1    C1 3459   3.451   0.084  13.025  0.1320 -0.3490 -0.8896
  228MPD1    C2 3460   3.332   0.050  13.074  0.4470  0.5056 -0.2385
  228MPD1    C3 3461   3.311   4.702  13.188 -0.2338  0.3747 -0.6941
  228MPD1    C4 3462   3.425   4.667  13.255  0.3410 -0.3305  1.3234
  228MPD1    C5 3463   3.548   4.700  13.213 -0.1322 -1.3984 -0.2109
  228MPD1     H 3464   3.248   0.094  13.021  0.5211 -2.0724 -2.4759
  228MPD1    H1 3465   3.425   4.615  13.351 -2.6422  0.1473  1.5906
  228MPD1    H2 3466   3.658   0.104  13.084  0.3936 -1.4132  0.7877
  228MPD1    H3 3467   3.635   4.692  13.278 -0.7012 -0.1724  0.7158
  228MPD1     N 3468   3.176   4.678  13.227  0.3373 -0.3206 -0.0207
  228MPD1    H5 3469   3.119   0.019  13.174  1.7989  0.1047 -1.0834
  228MPD1    N1 3470   3.477   0.162  12.905 -0.0054 -1.4692  0.3313
  228MPD1    H6 3471   3.571   0.160  12.868  0.5648  0.4814  1.6362
  228MPD1    H7 3472   3.412   0.143  12.829  0.5785 -1.1182 -0.2462
  229MPD1     C 3473   3.111   3.559  14.803  0.8431  0.2184  0.1626
  229MPD1    C1 3474   3.068   3.594  14.927 -0.1363 -0.6551  0.4363
  229MPD1    C2 3475   3.110   3.520  15.038  0.0492 -0.1270  0.2948
  229MPD1    C3 3476   3.195   3.414  15.031  0.2454  0.0782  0.5803
  229MPD1    C4 3477   3.243   3.386  14.905 -0.0987 -0.3771  0.1779
  229MPD1    C5 3478   3.200   3.455  14.798  0.0859  0.2622 -0.2083
  229MPD1     H 3479   3.074   3.539  15.139  1.9570  1.5425  0.6490
  229MPD1    H1 3480   3.299   3.295  14.887  2.7173  1.2831  0.6597
  229MPD1    H2 3481   3.081   3.599  14.706  1.2056  0.8723  0.3278
  229MPD1    H3 3482   3.226   3.425  14.697  0.0887 -1.4532  0.3047
  229MPD1     N 3483   3.232   3.330  15.144 -0.0018 -0.5025  0.2943
  229MPD1    H5 3484   3.292   3.251  15.121  0.4185 -0.1580  0.1906
  229MPD1    N1 3485   2.999   3.714  14.932 -0.6250 -0.2935  0.2743
  229MPD1    H6 3486   2.967   3.726  14.836 -0.0299 -3.1942 -0.2690
  229MPD1    H7 3487   2.925   3.718  15.002  1.1008  0.5052  2.0470
  230MPD1     C 3488   3.629   3.474  16.139  0.4329  0.2202 -0.0708
  230MPD1    C1 3489   3.655   3.341  16.110  0.5503 -0.2027  0.4814
  230MPD1    C2 3490   3.617   3.297  15.981  0.4331  0.8147 -0.2444
  230MPD1    C3 3491   3.551   3.377  15.894 -0.5150 -0.0773  0.8274
  230MPD1    C4 3492   3.515   3.504  15.932 -0.2844 -0.5804 -0.5776
  230MPD1    C5 3493   3.561   3.550  16.053 -0.9776 -0.2669  0.0720
  230MPD1     H 3494   3.636   3.194  15.952 -0.1361  1.1958 -1.9940
  230MPD1    H1 3495   3.453   3.573  15.876 -0.2459 -1.2389 -1.4286
  230MPD1    H2 3496   3.638   3.518  16.237 -0.7393  1.1556 -0.3819
  230MPD1    H3 3497   3.529   3.650  16.079 -1.4548 -0.5552  0.5893
  230MPD1     N 3498   3.509   3.325  15.766 -0.4453 -0.2010  0.2936
  230MPD1    H5 3499   3.544   3.239  15.727  0.9871  0.3956  0.2510
  230MPD1    N1 3500   3.704   3.254  16.213  0.2252  0.1701  0.4688
  230MPD1    H6 3501   3.762   3.298  16.284  1.1608 -1.1525  0.5100
  230MPD1    H7 3502   3.760   3.176  16.180  0.6484  1.4367 -1.8359
  231MPD1     C 3503   1.056   0.156  15.794 -0.2857  0.7316 -0.5700
  231MPD1    C1 3504   1.028   0.254  15.707  0.1865 -0.1629 -0.3658
  231MPD1    C2 3505   1.136   0.334  15.669 -0.6486  0.2140 -0.4027
  231MPD1    C3 3506   1.256   0.324  15.724  1.0573 -0.1151 -0.0517
  231MPD1    C4 3507   1.283   0.229  15.825 -0.8407  0.1716  0.2578
  231MPD1    C5 3508   1.178   0.150  15.862 -0.4856 -0.1186  0.4931
  231MPD1     H 3509   1.123   0.399  15.582  0.1798 -2.2830 -2.3987
  231MPD1    H1 3510   1.376   0.215  15.879 -0.7749 -0.5789 -0.0594
  231MPD1    H2 3511   0.981   0.079  15.811  0.2651  1.0347  3.1091
  231MPD1    H3 3512   1.194   0.077  15.940  0.7807  1.3191  1.5960
  231MPD1     N 3513   1.354   0.418  15.678  0.0388 -0.2070  0.6922
  231MPD1    H5 3514   1.332   0.474  15.596 -0.2398 -1.3264  0.0011
  231MPD1    N1 3515   0.913   0.246  15.619  0.0939  0.3840  0.4998
  231MPD1    H6 3516   0.831   0.220  15.674 -0.5969  0.4294 -0.5161
  231MPD1    H7 3517   0.904   0.336  15.573 -0.6139  0.6664  1.2025
  232MPD1     C 3518   3.715   1.271   0.670  0.1605  0.0608  0.0906
  232MPD1    C1 3519   3.580   1.263   0.703  0.2640  0.3415 -0.0768
  232MPD1    C2 3520   3.484   1.267   0.603 -0.5321 -0.2870 -0.3867
  232MPD1    C3 3521   3.525   1.295   0.475 -0.5276  0.2659  0.3714
  232MPD1    C4 3522   3.659   1.298   0.446 -0.1267 -0.2199 -0.3560
  232MPD1    C5 3523   3.751   1.276   0.539 -0.6711  0.2886 -0.2846
  232MPD1     H 3524   3.376   1.262   0.616 -0.3038 -0.2642  1.6311
  232MPD1    H1 3525   3.684   1.311   0.341 -0.4276 -0.5645 -0.4688
  232MPD1    H2 3526   3.787   1.300   0.746  0.5142 -1.3746  0.2985
  232MPD1    H3 3527   3.857   1.282   0.520 -0.8812  1.7751 -0.9199
  232MPD1     N 3528   3.422   1.299   0.378  0.3557 -0.5589  0.4821
  232MPD1    H5 3529   3.332   1.277   0.418 -0.1186 -0.2390 -0.4010
  232MPD1    N1 3530   3.543   1.270   0.836  0.3295  0.0046  0.2793
  232MPD1    H6 3531   3.627   1.248   0.890 -0.6659  0.6546  2.0914
  232MPD1    H7 3532   3.464   1.210   0.859 -0.1171  0.0307 -1.1612
  233MPD1     C 3533   3.888   0.523   1.500  0.0467  0.3110  0.0969
  233MPD1    C1 3534   3.878   0.397   1.552  0.0860  0.2906 -0.1951
  233MPD1    C2 3535   3.988   0.316   1.572  0.2315 -0.4272  0.6663
  233MPD1    C3 3536   4.114   0.352   1.516  0.2279  0.7846 -0.6577
  233MPD1    C4 3537   4.129   0.485   1.472  0.1955 -0.4716 -0.0741
  233MPD1    C5 3538   4.014   0.563   1.461  0.0372  0.1608  0.6718
  233MPD1     H 3539   3.969   0.218   1.615 -1.3146  0.4636  1.9982
  233MPD1    H1 3540   4.221   0.530   1.436 -0.0650  1.4060  1.6019
  233MPD1    H2 3541   3.812   0.600   1.491 -0.1106 -0.0436 -1.6788
  233MPD1    H3 3542   4.024   0.665   1.427  0.8393  0.4436  1.7319
  233MPD1     N 3543   4.229   0.269   1.519  0.2685  0.2583  0.7789
  233MPD1    H5 3544   4.314   0.315   1.487  1.8063 -2.6067  0.7501
  233MPD1    N1 3545   3.761   0.364   1.620  0.1157 -0.2144  0.5184
  233MPD1    H6 3546   3.733   0.266   1.625  1.4684 -0.6867 -1.4773
  233MPD1    H7 3547   3.681   0.408   1.575 -0.2164 -0.3467  0.9733
  234MPD1     C 3548   1.310   4.183  10.677 -0.4670  0.4726 -0.0905
  234MPD1    C1 3549   1.310   4.323  10.664  0.8443  0.2871 -0.4529
  234MPD1    C2 3550   1.334   4.377  10.537  0.1943 -0.2595  0.0549
  234MPD1    C3 3551   1.324   4.304  10.423  0.2518 -0.4768 -0.5832
  234MPD1    C4 3552   1.327   4.169  10.440 -0.5604  0.0741  0.3304
  234MPD1    C5 3553   1.322   4.105  10.568  0.1556  0.4078 -0.9090
  234MPD1     H 3554   1.346   4.484  10.523 -0.5420 -0.4642 -2.0634
  234MPD1    H1 3555   1.332   4.110  10.349 -1.6922 -0.0358  0.3378
  234MPD1    H2 3556   1.318   4.127  10.770 -2.5361 -0.3128 -0.3752
  234MPD1    H3 3557   1.339   3.998  10.565 -1.1555  0.1775 -0.0613
  234MPD1     N 3558   1.306   4.370  10.297  0.0175 -0.1067 -0.1946
  234MPD1    H5 3559   1.317   4.471  10.291 -0.0427 -0.1115 -0.3922
  234MPD1    N1 3560   1.326   4.400  10.777  0.3084  0.1384 -0.5976
  234MPD1    H6 3561   1.276   4.372  10.861  1.4338  0.1132  0.0610
  234MPD1    H7 3562   1.313   4.501  10.773 -0.7764  0.0143 -0.3589
  235MPD1     C 3563   2.393   1.896  10.090 -0.0618 -0.1482  0.1356
  235MPD1    C1 3564   2.473   2.009  10.109  0.3259 -0.0949  0.4198
  235MPD1    C2 3565   2.505   2.082   9.995  0.0616 -0.2619  0.4997
  235MPD1    C3 3566   2.459   2.041   9.873 -0.5274  0.2900  0.6061
  235MPD1    C4 3567   2.374   1.938   9.862  0.4816 -0.6466 -0.5636
  235MPD1    C5 3568   2.342   1.861   9.973  0.0375 -0.0821 -0.1809
  235MPD1     H 3569   2.562   2.171  10.016 -0.2712  0.6319 -2.3980
  235MPD1    H1 3570   2.344   1.899   9.766  0.5281 -0.5592 -0.6137
  235MPD1    H2 3571   2.350   1.834  10.168  0.2811  2.1620  2.1490
  235MPD1    H3 3572   2.298   1.762   9.964 -1.7642  0.6622  0.5626
  235MPD1     N 3573   2.494   2.117   9.759  0.1966 -0.3412 -0.0112
  235MPD1    H5 3574   2.567   2.185   9.781  1.1530 -1.0963 -0.8715
  235MPD1    N1 3575   2.495   2.059  10.240 -0.8573 -0.1168  0.5987
  235MPD1    H6 3576   2.510   1.988  10.311  1.9884 -0.5255 -0.4149
  235MPD1    H7 3577   2.575   2.122  10.236  0.6003 -2.0140 -0.1529
  236MPD1     C 3578   1.539   4.055   9.477  0.0274 -0.0336  0.0198
  236MPD1    C1 3579   1.611   4.094   9.583 -0.6493 -0.0672  0.0804
  236MPD1    C2 3580   1.681   3.994   9.646 -0.8864  0.3081  0.4831
  236MPD1    C3 3581   1.701   3.868   9.597 -0.9121 -0.2000 -0.1523
  236MPD1    C4 3582   1.632   3.846   9.482  0.0689 -0.0674  0.4860
  236MPD1    C5 3583   1.548   3.934   9.426 -0.1471  0.4857  0.0033
  236MPD1     H 3584   1.729   4.025   9.738 -1.8321 -3.4143  2.2189
  236MPD1    H1 3585   1.643   3.747   9.438  0.8764  0.8780 -1.4404
  236MPD1    H2 3586   1.474   4.124   9.424  0.8271  0.6564 -0.0671
  236MPD1    H3 3587   1.479   3.902   9.348  0.0937  0.6516 -0.2781
  236MPD1     N 3588   1.793   3.776   9.652 -0.2575  0.0020 -0.1081
  236MPD1    H5 3589   1.800   3.682   9.614  1.3964 -0.3258  1.0140
  236MPD1    N1 3590   1.599   4.224   9.626  0.3970 -0.3242 -0.9511
  236MPD1    H6 3591   1.691   4.266   9.636 -0.4252  0.9528  1.2563
  236MPD1    H7 3592   1.547   4.289   9.567  0.9340 -0.5726 -1.7015
  237MPD1     C 3593   2.156   1.445  16.001 -0.6163  0.4362  0.3130
  237MPD1    C1 3594   2.162   1.543  15.910 -0.4396 -0.3839 -0.1194
  237MPD1    C2 3595   2.054   1.566  15.821 -0.3481  0.1811 -0.1966
  237MPD1    C3 3596   1.942   1.484  15.824  0.0635 -0.2347 -0.7344
  237MPD1    C4 3597   1.942   1.383  15.920  0.1692 -0.1380 -0.6865
  237MPD1    C5 3598   2.044   1.368  16.009 -0.3378 -0.1476 -0.3132
  237MPD1     H 3599   2.077   1.633  15.738 -0.4284 -0.6529 -0.9001
  237MPD1    H1 3600   1.864   1.309  15.931  0.8413 -0.9005 -1.0180
  237MPD1    H2 3601   2.236   1.428  16.072  0.0806  0.0750 -0.5519
  237MPD1    H3 3602   2.042   1.280  16.073  0.0772 -0.4704 -0.7521
  237MPD1     N 3603   1.835   1.491  15.732 -0.1512  0.1479  0.1461
  237MPD1    H5 3604   1.754   1.430  15.733  1.2374 -1.6709  1.3797
  237MPD1    N1 3605   2.277   1.622  15.892 -0.0557  0.1303  0.0314
  237MPD1    H6 3606   2.249   1.707  15.843  0.1455  0.3112  0.2288
  237MPD1    H7 3607   2.320   1.639  15.983  0.8694  1.8511 -0.7312
  238MPD1     C 3608   3.726   4.659  15.323 -0.1121  1.1028  0.0311
  238MPD1    C1 3609   3.743   0.051  15.248  0.7378  0.0399 -0.5891
  238MPD1    C2 3610   3.643   0.145  15.234 -0.0376  0.8703 -0.5981
  238MPD1    C3 3611   3.514   0.105  15.265 -0.4125 -0.7397 -0.1823
  238MPD1    C4 3612   3.490   4.712  15.333  0.3446 -0.4397  0.0515
  238MPD1    C5 3613   3.598   4.634  15.365  0.3712 -0.5733 -0.1998
  238MPD1     H 3614   3.661   0.240  15.186  0.1882  0.9814 -0.2974
  238MPD1    H1 3615   3.393   4.680  15.369 -0.1040  2.0744  1.0669
  238MPD1    H2 3616   3.805   4.587  15.340  0.7024  1.8875 -0.4070
  238MPD1    H3 3617   3.572   4.544  15.420 -0.7730 -0.7643 -1.0496
  238MPD1     N 3618   3.397   0.190  15.249  0.8646  0.3037  0.1025
  238MPD1    H5 3619   3.312   0.146  15.282  0.6632 -0.3751 -1.2948
  238MPD1    N1 3620   3.870   0.085  15.208  0.0250 -0.0617 -0.3542
  238MPD1    H6 3621   3.870   0.158  15.138 -1.2127 -0.1953 -0.4849
  238MPD1    H7 3622   3.926   0.005  15.179  1.9633  1.4197 -0.6670
  239MPD1     C 3623   3.922   1.470  15.252  0.0779  0.1639  0.2746
  239MPD1    C1 3624   3.787   1.432  15.221 -0.1544  0.6953  0.6930
  239MPD1    C2 3625   3.732   1.495  15.107 -0.5354  0.2749 -0.1262
  239MPD1    C3 3626   3.808   1.572  15.021 -0.4564 -0.0540  0.0425
  239MPD1    C4 3627   3.941   1.577  15.042 -0.7423  0.9862 -0.1717
  239MPD1    C5 3628   3.995   1.534  15.160 -0.5043 -0.1982  0.2524
  239MPD1     H 3629   3.629   1.470  15.085  0.0073 -0.8433 -1.3482
  239MPD1    H1 3630   3.997   1.639  14.972 -1.4812  0.4820 -1.2086
  239MPD1    H2 3631   3.967   1.430  15.341 -0.6170 -0.9884  0.1195
  239MPD1    H3 3632   4.100   1.548  15.183  0.2892 -1.7469 -2.4603
  239MPD1     N 3633   3.755   1.641  14.914 -0.1357 -0.0774  0.4828
  239MPD1    H5 3634   3.809   1.695  14.847 -2.5049  0.1885 -1.2045
  239MPD1    N1 3635   3.713   1.370  15.324  0.8077  0.0452  0.1646
  239MPD1    H6 3636   3.630   1.317  15.298  0.5911  0.2422  0.4584
  239MPD1    H7 3637   3.777   1.309  15.375  1.0712  0.3386  0.1821
  240MPD1     C 3638   3.243   0.911  15.122 -0.7021 -0.2873 -0.1118
  240MPD1    C1 3639   3.110   0.939  15.091 -0.4231 -0.3630  0.3236
  240MPD1    C2 3640   3.018   0.921  15.190  0.2002  0.2264 -0.4123
  240MPD1    C3 3641   3.056   0.852  15.308  0.6769  0.3657 -0.5486
  240MPD1    C4 3642   3.189   0.831  15.341 -0.3217  0.1887  0.2389
  240MPD1    C5 3643   3.280   0.867  15.251  0.2752 -0.3006 -0.3752
  240MPD1     H 3644   2.913   0.945  15.180  0.3761  0.9222 -0.5810
  240MPD1    H1 3645   3.231   0.765  15.416 -0.0371  1.2011  0.9725
  240MPD1    H2 3646   3.320   0.927  15.047 -2.2115  3.4409 -0.8601
  240MPD1    H3 3647   3.383   0.845  15.278  1.0243  0.6778 -2.3873
  240MPD1     N 3648   2.952   0.799  15.392 -0.3171 -0.3109  0.1939
  240MPD1    H5 3649   2.857   0.789  15.359  1.3810 -0.1591 -4.6789
  240MPD1    N1 3650   3.087   1.009  14.971  0.4435  0.3767  0.5895
  240MPD1    H6 3651   3.150   0.975  14.899 -0.3506  2.7567 -1.2460
  240MPD1    H7 3652   2.992   1.009  14.933 -0.0578  2.0347  1.8337
  241MPD1     C 3653   2.744   1.042  16.296 -0.6458 -0.2643  0.0123
  241MPD1    C1 3654   2.712   0.908  16.310  0.6178 -0.1512  0.3638
  241MPD1    C2 3655   2.724   0.840  16.190  0.4789  0.0727 -0.3074
  241MPD1    C3 3656   2.769   0.897  16.071  0.2619  0.1255  0.0356
  241MPD1    C4 3657   2.791   1.031  16.060 -0.1423  0.2532 -0.9677
  241MPD1    C5 3658   2.776   1.104  16.173 -0.2413 -0.2683 -0.6578
  241MPD1     H 3659   2.715   0.732  16.195  1.1053 -0.1120 -2.8968
  241MPD1    H1 3660   2.815   1.080  15.966  0.5195 -1.6345 -1.7816
  241MPD1    H2 3661   2.750   1.109  16.381 -0.5189 -1.7969  1.2095
  241MPD1    H3 3662   2.794   1.211  16.169 -1.4675 -0.1255 -2.3475
  241MPD1     N 3663   2.762   0.825  15.954  0.7350  0.1875  0.0572
  241MPD1    H5 3664   2.785   0.886  15.876 -2.5099  1.4646  0.1005
  241MPD1    N1 3665   2.692   0.848  16.434 -0.8237 -0.2429 -0.3578
  241MPD1    H6 3666   2.641   0.916  16.489 -0.8688 -0.8166  0.3201
  241MPD1    H7 3667   2.631   0.767  16.421 -1.4765  0.8140 -3.9792
  242MPD1     C 3668   2.439   4.323  16.335  0.0367 -0.0698 -0.2038
  242MPD1    C1 3669   2.490   4.433  16.271 -0.1773 -0.6817 -0.1786
  242MPD1    C2 3670   2.557   4.420  16.152 -0.5359 -0.4273  0.1411
  242MPD1    C3 3671   2.588   4.291  16.099 -0.0186 -0.1844  0.3851
  242MPD1    C4 3672   2.554   4.180  16.175 -0.3486 -0.6628 -0.5621
  242MPD1    C5 3673   2.481   4.198  16.289 -0.3547 -0.1284 -0.7712
  242MPD1     H 3674   2.594   4.509  16.102 -0.0034  0.2316  1.7073
  242MPD1    H1 3675   2.587   4.081  16.145 -1.6875 -1.3888  0.3633
  242MPD1    H2 3676   2.390   4.343  16.430  0.0302 -0.5331 -0.1077
  242MPD1    H3 3677   2.462   4.111  16.350  0.3309 -0.2498 -0.7415
  242MPD1     N 3678   2.650   4.266  15.981 -0.3739 -0.6715 -0.2415
  242MPD1    H5 3679   2.660   4.176  15.934 -0.4525 -0.2158 -1.1196
  242MPD1    N1 3680   2.461   4.564  16.320 -0.3322  0.1493 -0.5743
  242MPD1    H6 3681   2.533   4.630  16.292  0.0808 -0.5268 -1.1236
  242MPD1    H7 3682   2.432   4.574  16.417 -0.6710  0.4973 -0.7130
  243MPD1     C 3683   0.258   2.043  17.247 -0.9074  0.3162  0.2877
  243MPD1    C1 3684   0.388   2.016  17.210  0.9968 -0.1602  0.6050
  243MPD1    C2 3685   0.440   2.089  17.105 -0.0719  0.9024 -0.1032
  243MPD1    C3 3686   0.359   2.170  17.019 -0.0705  0.1802 -0.3007
  243MPD1    C4 3687   0.231   2.201  17.058 -0.4061 -0.4488 -0.5584
  243MPD1    C5 3688   0.183   2.138  17.175  0.1635  0.4257 -0.3884
  243MPD1     H 3689   0.541   2.068  17.073  0.1289  1.3578  0.2368
  243MPD1    H1 3690   0.165   2.270  17.006 -0.6654 -0.4129 -0.1809
  243MPD1    H2 3691   0.204   1.989  17.325  0.2718 -0.9713  0.2187
  243MPD1    H3 3692   0.081   2.159  17.207 -0.1925 -0.7274 -0.7813
  243MPD1     N 3693   0.421   2.223  16.902  0.1647 -0.4161  0.5372
  243MPD1    H5 3694   0.508   2.183  16.870  0.4056 -0.1010  0.8049
  243MPD1    N1 3695   0.465   1.927  17.279  0.1825  0.0215  0.1014
  243MPD1    H6 3696   0.416   1.842  17.306  0.6167 -0.0580  0.6391
  243MPD1    H7 3697   0.540   1.904  17.214  0.4430 -0.7993  0.6918
  244MPD1     C 3698   0.843   1.698  16.428  0.7778 -0.3012  0.5903
  244MPD1    C1 3699   0.799   1.709  16.561 -0.3830  0.0539 -0.1241
  244MPD1    C2 3700   0.751   1.834  16.599 -0.1446 -0.1222  0.3752
  244MPD1    C3 3701   0.708   1.917  16.501 -0.0481  0.1387  0.5349
  244MPD1    C4 3702   0.736   1.899  16.367  0.1731  0.1936  0.1612
  244MPD1    C5 3703   0.813   1.788  16.333 -0.3390 -0.0352  0.2425
  244MPD1     H 3704   0.733   1.860  16.703 -1.2357 -0.5611  0.2957
  244MPD1    H1 3705   0.708   1.955  16.278  0.6024  1.3297  0.7521
  244MPD1    H2 3706   0.881   1.599  16.404 -0.5863 -1.0252  1.3621
  244MPD1    H3 3707   0.825   1.769  16.227 -2.9007  0.2815 -0.1035
  244MPD1     N 3708   0.647   2.041  16.542  0.3876 -0.0502  0.5355
  244MPD1    H5 3709   0.627   2.065  16.639 -3.6621 -2.4265  0.2953
  244MPD1    N1 3710   0.829   1.618  16.666  0.3865  0.1698  0.4299
  244MPD1    H6 3711   0.819   1.523  16.630  0.7725  0.8068 -1.3880
  244MPD1    H7 3712   0.773   1.633  16.749  0.9974  2.2651  0.4611
  245MPD1     C 3713   1.170   3.123  13.173  0.1036 -0.5100  0.3074
  245MPD1    C1 3714   1.308   3.128  13.188  0.9410  0.4058 -0.0915
  245MPD1    C2 3715   1.352   3.227  13.276  0.3352 -0.4321  0.2814
  245MPD1    C3 3716   1.267   3.316  13.343 -0.1464  0.1560 -0.5615
  245MPD1    C4 3717   1.133   3.312  13.313  0.5245  0.1879 -1.0524
  245MPD1    C5 3718   1.090   3.211  13.233 -0.0579  0.5443 -0.2781
  245MPD1     H 3719   1.457   3.249  13.294  0.1444  1.3569 -0.9041
  245MPD1    H1 3720   1.057   3.377  13.356  1.9211  0.7155  0.6330
  245MPD1    H2 3721   1.115   3.050  13.116  0.4778 -1.4426  1.1408
  245MPD1    H3 3722   0.987   3.194  13.204 -0.3454  1.7319  0.0126
  245MPD1     N 3723   1.338   3.408  13.425  0.4268  0.1284 -0.0884
  245MPD1    H5 3724   1.439   3.409  13.430  0.6128 -1.5071 -3.9079
  245MPD1    N1 3725   1.389   3.020  13.135 -0.1289  0.3169  0.7114
  245MPD1    H6 3726   1.365   2.989  13.041  0.4662 -0.2413  0.7491
  245MPD1    H7 3727   1.487   3.045  13.124  0.1605 -0.6080  1.1724
  246MPD1     C 3728   0.868   2.575   9.806  0.2707 -0.6483  0.0934
  246MPD1    C1 3729   0.981   2.648   9.833 -0.4796  0.7314 -0.1720
  246MPD1    C2 3730   1.097   2.623   9.766  0.6920  0.0806 -0.8145
  246MPD1    C3 3731   1.099   2.526   9.666  0.1304 -0.2883  0.3593
  246MPD1    C4 3732   0.980   2.465   9.632 -0.2661 -0.1205 -0.4982
  246MPD1    C5 3733   0.879   2.473   9.712 -0.0940  0.2276 -0.6511
  246MPD1     H 3734   1.191   2.665   9.799 -1.0281  1.1130  2.7884
  246MPD1    H1 3735   0.965   2.388   9.558  2.2059 -0.1011 -0.9936
  246MPD1    H2 3736   0.775   2.588   9.860  0.7073  0.2998  0.6239
  246MPD1    H3 3737   0.791   2.414   9.691  0.6530 -1.0454 -0.2525
  246MPD1     N 3738   1.219   2.514   9.603 -0.3810  0.0256 -0.0850
  246MPD1    H5 3739   1.299   2.570   9.632 -0.9149 -1.1072  3.5713
  246MPD1    N1 3740   0.972   2.764   9.904 -0.1372  0.4432  0.6089
  246MPD1    H6 3741   1.052   2.785   9.964  0.3751  0.4014 -0.0618
  246MPD1    H7 3742   0.891   2.760   9.965 -0.1133 -0.7998  0.5532
  247MPD1     C 3743   4.720   3.025  15.968  0.8703  0.2300 -0.0727
  247MPD1    C1 3744   0.075   3.085  15.867 -0.4383  0.3750  0.1567
  247MPD1    C2 3745   0.192   3.025  15.829 -0.5843 -0.7403  0.5938
  247MPD1    C3 3746   0.239   2.921  15.908 -0.3862  0.3678  0.1450
  247MPD1    C4 3747   0.168   2.870  16.010 -0.5256 -0.3861  0.0902
  247MPD1    C5 3748   0.039   2.912  16.039 -0.3463 -0.5240  0.0881
  247MPD1     H 3749   0.246   3.063  15.744 -0.0306 -0.3470  1.1210
  247MPD1    H1 3750   0.218   2.795  16.069 -1.0891  0.6689  1.9289
  247MPD1    H2 3751   4.621   3.063  15.994  1.5909  1.0939  1.4188
  247MPD1    H3 3752   4.709   2.855  16.113  3.0153 -0.8329  2.2827
  247MPD1     N 3753   0.366   2.859  15.900  0.3488  0.3690  0.2586
  247MPD1    H5 3754   0.391   2.795  15.974 -1.3968 -0.3990  0.1724
  247MPD1    N1 3755   0.029   3.203  15.800  0.0375 -0.8367 -0.2525
  247MPD1    H6 3756   4.700   3.264  15.862  1.1137  1.4205 -1.5552
  247MPD1    H7 3757   0.106   3.250  15.753  0.0714 -0.3416  0.2852
  248MPD1     C 3758   0.814   3.301  17.573  0.3616 -0.1850  0.5591
  248MPD1    C1 3759   0.848   3.415  17.637  0.1009  0.4522 -0.3757
  248MPD1    C2 3760   0.878   3.409   0.078  0.4459  0.0072 -0.2419
  248MPD1    C3 3761   0.897   3.292   0.151  0.0770  0.3667 -0.2307
  248MPD1    C4 3762   0.881   3.175   0.075  0.7388  0.0761 -0.2871
  248MPD1    C5 3763   0.841   3.182  17.640  0.2695 -0.4664 -0.1002
  248MPD1     H 3764   0.890   3.498   0.138 -1.6202  0.6546 -0.7965
  248MPD1    H1 3765   0.900   3.079   0.121  0.1396  0.7674  1.4116
  248MPD1    H2 3766   0.782   3.297  17.470 -1.3250 -2.1534  1.1577
  248MPD1    H3 3767   0.830   3.087  17.589  1.7211 -0.2094 -0.8864
  248MPD1     N 3768   0.927   3.296   0.287  0.3695 -0.4592  0.1462
  248MPD1    H5 3769   0.916   3.384   0.336  0.0962 -1.1271  1.2749
  248MPD1    N1 3770   0.794   3.536  17.596  0.0437 -0.0034  0.2584
  248MPD1    H6 3771   0.812   3.539  17.496 -4.6102  1.6347 -0.5164
  248MPD1    H7 3772   0.837   3.615  17.643  0.7055  0.2548 -0.7969
  249MPD1     C 3773   3.026   0.497  10.460  0.0371  0.0037 -0.1855
  249MPD1    C1 3774   2.941   0.466  10.350  0.1095 -0.4464 -0.0558
  249MPD1    C2 3775   2.936   0.562  10.256  0.2130  0.1483 -0.5392
  249MPD1    C3 3776   2.987   0.685  10.262 -0.6029 -0.6571  0.6755
  249MPD1    C4 3777   3.065   0.721  10.373 -0.2295  0.6587  0.6610
  249MPD1    C5 3778   3.076   0.626  10.472  0.2471 -0.5116 -0.6151
  249MPD1     H 3779   2.888   0.541  10.161  1.6448 -1.0122 -0.9939
  249MPD1    H1 3780   3.124   0.812  10.369  2.3874 -1.0208  0.6463
  249MPD1    H2 3781   3.068   0.423  10.526  0.0236 -0.9129 -1.2096
  249MPD1    H3 3782   3.146   0.648  10.552 -1.1409  1.0646  0.1837
  249MPD1     N 3783   2.954   0.778  10.158  0.1940  0.5845 -0.0849
  249MPD1    H5 3784   2.886   0.747  10.090 -1.1302  0.8352  1.1148
  249MPD1    N1 3785   2.916   0.332  10.322  1.0573  0.4893  0.4658
  249MPD1    H6 3786   2.900   0.278  10.407 -0.6417 -0.7413 -0.6260
  249MPD1    H7 3787   2.833   0.312  10.266  0.9726  1.7650  0.1455
  250MPD2     C 3788   4.213   1.919  13.364 -0.4822 -0.6649  0.7182
  250MPD2    C1 3789   4.210   1.931  13.225 -0.1238  0.6052 -0.0588
  250MPD2    C2 3790   4.163   1.823  13.146  0.2647 -0.5169 -0.0464
  250MPD2    C3 3791   4.117   1.702  13.205 -0.1619  0.1173  0.4804
  250MPD2    C4 3792   4.118   1.703  13.348  0.2592  0.8038  0.0164
  250MPD2    C5 3793   4.171   1.807  13.420  0.5973  0.2417  0.2326
  250MPD2     H 3794   4.164   1.829  13.038  1.1520 -0.2779 -0.0231
  250MPD2    H1 3795   4.078   1.627  13.414  0.8941 -1.0045 -1.6914
  250MPD2    H2 3796   4.249   1.998  13.428 -2.4149  1.6624 -1.0590
  250MPD2    H3 3797   4.172   1.798  13.528  0.5154 -0.8458  0.1398
  250MPD2     N 3798   4.087   1.586  13.129  0.8325  0.0672  0.2479
  250MPD2    H5 3799   4.068   1.503  13.183  0.1048  0.6392  0.8656
  250MPD2    N1 3800   4.248   2.058  13.166 -0.4543 -0.4168  0.4611
  250MPD2    H7 3801   4.258   2.133  13.234 -0.4898  0.7633 -0.8385
  251TMC3    C1 3802   4.249   2.217  12.984 -0.2731  0.5765 -0.1498
  251TMC3    C2 3803   4.195   2.315  13.062 -0.0985  0.1538  0.2056
  251TMC3    C3 3804   4.192   2.448  13.020  0.2477  0.1708  0.4989
  251TMC3    C4 3805   4.290   2.244  12.858  0.1903 -0.0489  0.1189
  251TMC3    C5 3806   4.292   2.377  12.824  0.7664  0.1708 -0.1236
  251TMC3    C6 3807   4.235   2.478  12.895  0.5947 -0.2637 -0.4646
  251TMC3     C 3808   4.261   2.081  13.034 -0.0818  0.5160  0.0400
  251TMC3     O 3809   4.295   1.994  12.953  0.4348 -0.0757 -0.0237
  251TMC3     H 3810   4.137   2.292  13.151 -1.4440  0.1834 -0.6556
  251TMC3    H1 3811   4.341   2.164  12.806  0.5622  0.3977 -0.2033
  251TMC3    H2 3812   4.220   2.572  12.845 -1.2480  0.3879  1.3371
  251TMC3    C7 3813   4.366   2.411  12.707 -0.0591 -0.1989 -0.1732
  251TMC3    C8 3814   4.189   2.549  13.123  0.6910 -0.1976 -0.6248
  251TMC3    O1 3815   4.325   2.342  12.617 -0.3914 -0.5904 -0.2027
  251TMC3    O2 3816   4.139   2.523  13.232  0.2432  0.3285  0.0498
  252TMC3    C1 3817   4.379   3.058   9.545 -0.3987  0.0627  0.1200
  252TMC3    C2 3818   4.469   3.129   9.473  0.3967 -0.2922 -0.0899
  252TMC3    C3 3819   4.440   3.144   9.341  0.3235 -0.1637  0.5555
  252TMC3    C4 3820   4.266   2.997   9.495  0.0544  0.5801  0.2002
  252TMC3    C5 3821   4.242   3.024   9.364 -0.2272  0.0884 -0.2187
  252TMC3    C6 3822   4.323   3.098   9.288 -0.5411 -0.6638 -0.7669
  252TMC3     C 3823   4.407   3.047   9.685  0.1801 -0.2624  0.0033
  252TMC3     O 3824   4.468   3.135   9.743  0.2087  0.0841  0.1041
  252TMC3     H 3825   4.555   3.165   9.528  0.2378  1.1465 -0.7905
  252TMC3    H1 3826   4.187   2.971   9.563  0.8473 -3.7979 -0.5494
  252TMC3    H2 3827   4.293   3.108   9.184 -1.3494  0.2296 -0.4567
  252TMC3    C7 3828   4.112   2.975   9.316  0.4486  0.5362  0.5339
  252TMC3    C8 3829   4.522   3.215   9.244  0.4994 -0.5006 -0.5458
  252TMC3    O1 3830   4.061   3.030   9.221  0.4957  0.2279  0.2462
  252TMC3    O2 3831   4.468   3.270   9.148  0.3995 -0.1314 -0.6502
  253MPD2     C 3832   1.504   1.853  15.751 -0.0033  0.3622 -0.2131
  253MPD2    C1 3833   1.380   1.796  15.740  0.4450 -0.4827 -0.0050
  253MPD2    C2 3834   1.336   1.714  15.845 -0.1376 -0.3901  0.2868
  253MPD2    C3 3835   1.418   1.677  15.950  0.3313  0.4026  0.0096
  253MPD2    C4 3836   1.541   1.737  15.954 -0.4094 -0.6890  0.6167
  253MPD2    C5 3837   1.579   1.828  15.859  0.1665 -0.2770  0.3853
  253MPD2     H 3838   1.235   1.676  15.838  0.2556 -1.7250  1.9093
  253MPD2    H1 3839   1.605   1.705  16.036 -1.3521 -0.0623  1.6042
  253MPD2    H2 3840   1.546   1.922  15.678  1.5246 -1.3944 -0.9766
  253MPD2    H3 3841   1.677   1.873  15.867 -0.3083  0.7599  0.2596
  253MPD2     N 3842   1.394   1.576  16.047 -0.2010  0.2213  0.9388
  253MPD2    H5 3843   1.469   1.546  16.109  1.2102 -1.0396 -1.4036
  253MPD2    N1 3844   1.291   1.822  15.631 -0.1098 -0.1431  0.0605
  253MPD2    H7 3845   1.207   1.765  15.621  1.6820 -2.4160 -2.0239
  254TMC3    C1 3846   1.254   1.414  16.144 -0.0025 -0.2225 -0.1477
  254TMC3    C2 3847   1.144   1.341  16.115  0.3305 -0.3058 -0.0928
  254TMC3    C3 3848   1.092   1.271  16.216 -0.4489  0.0648  0.3567
  254TMC3    C4 3849   1.316   1.405  16.270 -0.1167  0.8619  0.3143
  254TMC3    C5 3850   1.265   1.322  16.369  0.5131  0.0414  1.0750
  254TMC3    C6 3851   1.149   1.250  16.340  0.3114 -1.1335  0.3963
  254TMC3     C 3852   1.265   1.526  16.064 -0.4707 -0.4400 -0.3342
  254TMC3     O 3853   1.165   1.554  16.001  0.1472 -0.0952 -1.0552
  254TMC3     H 3854   1.100   1.348  16.016  0.7227 -1.1150 -0.3278
  254TMC3    H1 3855   1.416   1.447  16.277 -0.5472  1.7559  1.0763
  254TMC3    H2 3856   1.092   1.197  16.415 -1.2888 -0.2980 -0.2137
  254TMC3    C7 3857   1.311   1.331  16.511  0.5372  0.3321  0.7819
  254TMC3    C8 3858   0.944   1.260  16.216 -0.2765  0.0904  0.2260
  254TMC3    O1 3859   1.270   1.240  16.586 -0.0169 -0.0584 -0.0345
  254TMC3    O2 3860   0.893   1.229  16.323  0.6254  0.4927 -0.7226
  255MPD2     C 3861   4.105   4.033  10.395 -0.0933  0.3325 -0.8413
  255MPD2    C1 3862   4.141   4.164  10.419  0.1644  0.4698 -0.5338
  255MPD2    C2 3863   4.273   4.183  10.456  0.1937 -0.5403  0.6898
  255MPD2    C3 3864   4.374   4.088  10.454  0.1382 -0.4353  0.6841
  255MPD2    C4 3865   4.341   3.964  10.411 -0.3297 -0.5303 -0.2227
  255MPD2    C5 3866   4.210   3.936  10.384  0.4558 -0.1659  0.3072
  255MPD2     H 3867   4.304   4.285  10.475  0.8475 -0.8901  1.4983
  255MPD2    H1 3868   4.414   3.884  10.402 -0.3058 -0.5840  0.4455
  255MPD2    H2 3869   3.999   4.017  10.378 -0.0876  0.0011 -0.5688
  255MPD2    H3 3870   4.180   3.838  10.349 -1.3845  0.4500  0.1259
  255MPD2     N 3871   4.504   4.120  10.499  0.2719  0.2168 -0.2525
  255MPD2    H5 3872   4.524   4.215  10.527 -2.7312  0.0102  2.5749
  255MPD2    N1 3873   4.041   4.263  10.423  0.4288  0.9104 -0.1094
  255MPD2    H7 3874   3.949   4.235  10.391 -0.2555  1.2205  1.6458
  256TMC3    C1 3875   3.959   4.476  10.395 -0.6338  0.1720 -0.0713
  256TMC3    C2 3876   4.013   4.561  10.306  0.0664  0.4650  0.5354
  256TMC3    C3 3877   3.954   4.586  10.186 -0.4267  0.3190 -0.0126
  256TMC3    C4 3878   3.842   4.421  10.356 -0.8557 -0.0934 -0.4126
  256TMC3    C5 3879   3.795   4.427  10.230 -0.0849  0.1097 -0.3479
  256TMC3    C6 3880   3.850   4.510  10.136  0.0471 -0.2908  0.4191
  256TMC3     C 3881   4.057   4.392  10.452 -1.2057 -0.6394 -0.2427
  256TMC3     O 3882   4.158   4.455  10.492 -0.2919  0.1601 -0.3799
  256TMC3     H 3883   4.103   4.609  10.342  0.4665  0.1545 -0.0434
  256TMC3    H1 3884   3.797   4.352  10.426 -0.0031  2.0760  2.2757
  256TMC3    H2 3885   3.817   4.522  10.033 -0.0960  0.0938  0.5092
  256TMC3    C7 3886   3.758   4.300  10.193  0.8958  0.3276  1.0798
  256TMC3    C8 3887   4.036   4.663  10.096  0.0491  0.1440  0.2028
  256TMC3    O1 3888   3.831   4.215  10.240  0.2685  0.8714 -0.1962
  256TMC3    O2 3889   4.057   4.641   9.974  0.3785  0.3712  0.4478
  257MPD2     C 3890   3.493   2.137  13.348 -0.2637 -0.3119  0.5771
  257MPD2    C1 3891   3.441   2.022  13.293  0.5703 -0.0603 -0.5648
  257MPD2    C2 3892   3.436   1.916  13.379 -0.0383  0.2061  0.0516
  257MPD2    C3 3893   3.463   1.926  13.514 -0.7805 -0.8330  0.2523
  257MPD2    C4 3894   3.502   2.047  13.568 -0.0834  1.0693  0.5948
  257MPD2    C5 3895   3.519   2.157  13.483 -0.0835 -0.5779  0.2020
  257MPD2     H 3896   3.401   1.821  13.341  0.6641 -0.7709  1.8720
  257MPD2    H1 3897   3.532   2.055  13.672 -2.3095 -1.0800  1.3871
  257MPD2    H2 3898   3.511   2.219  13.280 -0.8408 -0.1032  0.6776
  257MPD2    H3 3899   3.550   2.258  13.505 -1.4394 -0.3775  1.2041
  257MPD2     N 3900   3.461   1.814  13.602  0.7384  0.4641  0.5915
  257MPD2    H5 3901   3.423   1.731  13.557 -0.5857  0.4273  1.7651
  257MPD2    N1 3902   3.433   2.014  13.153 -0.0185  0.3409  0.3344
  257MPD2    H7 3903   3.460   2.091  13.094  1.4653  0.5193  1.2397
  258TMC3    C1 3904   3.460   1.673  13.788  0.7325  0.4777  0.2892
  258TMC3    C2 3905   3.459   1.565  13.706  0.2116 -0.7787 -0.0964
  258TMC3    C3 3906   3.447   1.443  13.767  0.2400  0.0767  0.0732
  258TMC3    C4 3907   3.482   1.663  13.923 -0.4949 -0.7639  0.1467
  258TMC3    C5 3908   3.482   1.536  13.983  0.4459  0.0681  0.0038
  258TMC3    C6 3909   3.444   1.429  13.904 -0.4182 -0.2500 -0.2331
  258TMC3     C 3910   3.478   1.814  13.743 -0.8034  0.5426 -0.1831
  258TMC3     O 3911   3.532   1.895  13.818  0.1667  0.0232  0.0558
  258TMC3     H 3912   3.469   1.555  13.598 -0.4724 -1.3641 -0.1062
  258TMC3    H1 3913   3.495   1.747  13.990 -1.9290 -0.6476  0.2703
  258TMC3    H2 3914   3.440   1.334  13.955  1.7036 -0.9411 -1.3460
  258TMC3    C7 3915   3.478   1.541  14.121 -0.5293  0.4198 -0.0438
  258TMC3    C8 3916   3.389   1.336  13.684  0.0665 -0.1625  0.2191
  258TMC3    O1 3917   3.422   1.633  14.178 -0.0945 -0.3372 -0.1524
  258TMC3    O2 3918   3.415   1.339  13.563 -0.3515  0.5976 -0.4773
  259MPD2     C 3919   2.330   2.108   0.558 -0.4381 -0.7636 -0.1837
  259MPD2    C1 3920   2.459   2.124   0.608 -0.2237 -0.0133 -0.4552
  259MPD2    C2 3921   2.548   2.194   0.526  0.4036  0.8652  0.5947
  259MPD2    C3 3922   2.514   2.260   0.413  0.7043 -0.0372  0.0296
  259MPD2    C4 3923   2.385   2.250   0.360  0.0903  0.0997  0.0724
  259MPD2    C5 3924   2.297   2.167   0.432 -0.3081  1.0186  0.2611
  259MPD2     H 3925   2.654   2.191   0.551  0.2245  0.0892  1.2330
  259MPD2    H1 3926   2.355   2.306   0.273 -1.6278 -1.3582 -0.2837
  259MPD2    H2 3927   2.253   2.054   0.613 -0.0561 -2.1707 -1.0154
  259MPD2    H3 3928   2.193   2.165   0.404  0.1312  0.6130 -1.3233
  259MPD2     N 3929   2.624   2.316   0.341  0.1804  0.4591  0.1740
  259MPD2    H5 3930   2.716   2.301   0.382  0.0946 -1.7056 -0.3887
  259MPD2    N1 3931   2.489   2.063   0.734  0.1167 -0.0379  0.4397
  259MPD2    H7 3932   2.419   2.000   0.771  0.8422 -1.4085 -0.5352
  260TMC3    C1 3933   2.762   2.345   0.140 -0.1737  0.6296  0.4254
  260TMC3    C2 3934   2.762   2.304   0.008 -0.9290 -0.3047  0.0633
  260TMC3    C3 3935   2.879   2.266  17.650  0.7109 -0.6849  0.1895
  260TMC3    C4 3936   2.877   2.356   0.216  0.5006 -0.0184 -0.3635
  260TMC3    C5 3937   2.993   2.310   0.159 -0.5062 -0.2321 -0.1686
  260TMC3    C6 3938   2.993   2.259   0.029  0.5085 -0.5372  0.0825
  260TMC3     C 3939   2.622   2.350   0.209  0.8192 -0.4642  0.3657
  260TMC3     O 3940   2.525   2.383   0.142 -0.2819 -0.0590  0.2361
  260TMC3     H 3941   2.672   2.311  17.645 -1.1114 -0.0185  0.3666
  260TMC3    H1 3942   2.865   2.370   0.322  1.5100  2.0828 -0.5211
  260TMC3    H2 3943   3.090   2.232  17.686  0.9526 -0.9766  1.4467
  260TMC3    C7 3944   3.087   2.252   0.256  0.7173  0.0821  0.5369
  260TMC3    C8 3945   2.865   2.169  17.543 -0.6821 -0.5258 -0.0466
  260TMC3    O1 3946   3.101   2.132   0.241  0.6601 -0.1674  0.4710
  260TMC3    O2 3947   2.758   2.163  17.479  0.2509 -0.8102  0.1612
  261MPD2     C 3948   4.231   1.278  12.440 -0.5820  0.0034 -0.3479
  261MPD2    C1 3949   4.156   1.387  12.464  0.7917  0.9096 -0.3205
  261MPD2    C2 3950   4.152   1.500  12.381  0.3496  0.7020 -0.1412
  261MPD2    C3 3951   4.219   1.490  12.264 -0.5122 -0.2152 -0.2345
  261MPD2    C4 3952   4.293   1.376  12.234  0.0440  0.0217  0.7830
  261MPD2    C5 3953   4.310   1.279  12.330 -0.2837 -0.4235  0.2240
  261MPD2     H 3954   4.094   1.590  12.399  1.0268  0.6152  2.5266
  261MPD2    H1 3955   4.350   1.363  12.142 -1.2064 -0.1511  0.0304
  261MPD2    H2 3956   4.241   1.195  12.508  2.2322 -0.8571 -1.8239
  261MPD2    H3 3957   4.364   1.187  12.312 -0.1882 -0.8252  2.4621
  261MPD2     N 3958   4.212   1.604  12.173  0.4667  0.1363 -0.2322
  261MPD2    H5 3959   4.164   1.686  12.209  1.7879  0.1590  1.4414
  261MPD2    N1 3960   4.076   1.392  12.583  0.0900  0.6256 -0.4603
  261MPD2    H7 3961   4.028   1.479  12.604 -1.3029 -0.4312  0.7161
  262TMC3    C1 3962   4.227   1.711  11.955 -0.4316 -0.6987  0.5840
  262TMC3    C2 3963   4.188   1.832  12.009 -0.2409 -0.1419 -0.8808
  262TMC3    C3 3964   4.198   1.946  11.930 -0.3824 -0.4709  0.9337
  262TMC3    C4 3965   4.277   1.706  11.828 -0.0737  0.3191 -0.8351
  262TMC3    C5 3966   4.294   1.824  11.762  0.8260  0.4566  0.1895
  262TMC3    C6 3967   4.249   1.949  11.807 -0.5181  0.3506  0.1146
  262TMC3     C 3968   4.255   1.600  12.042 -0.2512  0.4733 -0.4975
  262TMC3     O 3969   4.309   1.511  11.979  0.9101 -0.2425  0.3738
  262TMC3     H 3970   4.183   1.841  12.117 -0.6485  0.2524 -0.9351
  262TMC3    H1 3971   4.308   1.615  11.779  2.2499  0.5759  0.1620
  262TMC3    H2 3972   4.273   2.043  11.760 -0.5009 -0.9949 -2.5782
  262TMC3    C7 3973   4.393   1.818  11.653  0.3577  0.2172 -0.3113
  262TMC3    C8 3974   4.132   2.066  11.973  0.3852 -0.4589  0.0023
  262TMC3    O1 3975   4.480   1.738  11.662  0.5467  0.3564  0.0799
  262TMC3    O2 3976   4.155   2.168  11.911  0.1733  0.3213  0.0736
  263MPD2     C 3977   0.188   0.779  11.443  0.1524 -0.5909  0.0662
  263MPD2    C1 3978   0.257   0.891  11.491 -0.5672 -0.5790 -0.2312
  263MPD2    C2 3979   0.294   0.992  11.404  0.1465 -0.3500  0.0105
  263MPD2    C3 3980   0.253   0.976  11.272  1.0056  0.2693 -0.2068
  263MPD2    C4 3981   0.166   0.875  11.228 -0.2308  0.6061  0.1816
  263MPD2    C5 3982   0.153   0.769  11.310 -0.1532 -0.1518  0.3561
  263MPD2     H 3983   0.363   1.069  11.436 -0.9494  0.7857 -0.3784
  263MPD2    H1 3984   0.139   0.865  11.123  1.6586 -1.9006 -0.0642
  263MPD2    H2 3985   0.146   0.697  11.500  2.2906 -1.7061  0.0315
  263MPD2    H3 3986   0.117   0.672  11.277 -0.2908  0.4282 -1.2178
  263MPD2     N 3987   0.297   1.084  11.188  0.3711 -0.2823  0.6798
  263MPD2    H5 3988   0.346   1.159  11.235 -0.0674  0.3013  0.2019
  263MPD2    N1 3989   0.304   0.895  11.625  0.1580 -0.2441  0.6317
  263MPD2    H7 3990   0.304   0.808  11.676 -0.4816 -1.6271 -1.7174
  264TMC3    C1 3991   0.331   1.223  11.006 -0.7360  0.9184  0.2819
  264TMC3    C2 3992   0.341   1.329  11.089  0.6116  0.4890  0.1432
  264TMC3    C3 3993   0.418   1.433  11.046  0.0943  0.0734 -0.1429
  264TMC3    C4 3994   0.392   1.213  10.886 -0.6903 -0.9165 -0.4350
  264TMC3    C5 3995   0.468   1.317  10.845 -0.1157 -0.2724  0.0245
  264TMC3    C6 3996   0.489   1.424  10.927 -0.0917  0.2370 -0.1815
  264TMC3     C 3997   0.260   1.110  11.059  0.0718 -0.0173  0.1427
  264TMC3     O 3998   0.205   1.028  10.982  0.6715 -0.3027 -0.3745
  264TMC3     H 3999   0.288   1.338  11.183 -0.5164  1.2620 -0.5668
  264TMC3    H1 4000   0.387   1.122  10.828  1.4723 -0.9855 -0.4835
  264TMC3    H2 4001   0.558   1.505  10.905  0.0394  0.5826  1.5261
  264TMC3    C7 4002   0.522   1.318  10.714  0.1391  0.5113 -1.2009
  264TMC3    C8 4003   0.448   1.547  11.131  0.2140 -1.3285  0.1526
  264TMC3    O1 4004   0.511   1.210  10.654 -0.6492  0.4714 -0.1399
  264TMC3    O2 4005   0.554   1.600  11.105 -0.0176  0.3772 -0.5322
  265MPD2     C 4006   2.409   1.872  15.759  0.2457 -0.5634 -0.2621
  265MPD2    C1 4007   2.338   1.857  15.646 -0.1172  0.0860 -0.6104
  265MPD2    C2 4008   2.407   1.803  15.541 -0.2554 -0.1152  0.3695
  265MPD2    C3 4009   2.524   1.741  15.555 -0.3713  0.2102  0.2550
  265MPD2    C4 4010   2.600   1.762  15.664  0.0259  0.2259  0.3079
  265MPD2    C5 4011   2.539   1.837  15.767 -0.0594 -0.3927  0.3736
  265MPD2     H 4012   2.368   1.810  15.441 -0.6851 -0.7497  0.4900
  265MPD2    H1 4013   2.701   1.723  15.671 -0.7753 -1.7177  1.0213
  265MPD2    H2 4014   2.379   1.931  15.845  1.1892 -0.0259 -0.2986
  265MPD2    H3 4015   2.585   1.853  15.864  0.3282 -0.5635  0.2185
  265MPD2     N 4016   2.569   1.640  15.467  0.5966  0.6646 -0.8658
  265MPD2    H5 4017   2.643   1.587  15.512  2.1113  1.7813 -2.0281
  265MPD2    N1 4018   2.199   1.888  15.628 -0.6010  0.5233 -0.5905
  265MPD2    H7 4019   2.155   1.871  15.538 -1.5928 -1.5125  0.2765
  266TMC3    C1 4020   1.982   1.968  15.693  0.7317  0.3837 -0.4855
  266TMC3    C2 4021   1.917   2.032  15.792  0.1734  0.3550  0.2184
  266TMC3    C3 4022   1.805   2.107  15.753  0.1025  0.0119 -0.0726
  266TMC3    C4 4023   1.952   1.983  15.561 -0.2621  0.1384  0.0494
  266TMC3    C5 4024   1.835   2.046  15.533 -0.0006  0.6682  0.0231
  266TMC3    C6 4025   1.762   2.108  15.628  0.3622 -0.2040 -0.4085
  266TMC3     C 4026   2.118   1.937  15.729 -0.3471 -0.5187  0.4097
  266TMC3     O 4027   2.148   1.956  15.847 -0.2390 -0.2220  0.1853
  266TMC3     H 4028   1.947   2.039  15.896  1.0515 -0.8453  0.0445
  266TMC3    H1 4029   2.023   1.965  15.482 -2.1710 -2.5018 -1.0737
  266TMC3    H2 4030   1.661   2.143  15.610  0.1376 -0.8579 -0.4170
  266TMC3    C7 4031   1.796   2.072  15.400 -0.0113  0.1537 -0.0986
  266TMC3    C8 4032   1.731   2.166  15.861  0.2528  0.3807 -0.2622
  266TMC3    O1 4033   1.813   1.982  15.321  0.1253 -0.2665  0.0962
  266TMC3    O2 4034   1.608   2.165  15.840 -0.9349  0.1420 -0.7341
  267MPD2     C 4035   0.306   2.196   0.795 -0.4352  0.4543 -0.9904
  267MPD2    C1 4036   0.328   2.294   0.702  0.4297  0.0858 -0.1540
  267MPD2    C2 4037   0.296   2.267   0.567 -0.2582 -0.1540 -0.2309
  267MPD2    C3 4038   0.228   2.153   0.533  1.0626  0.0766  0.1847
  267MPD2    C4 4039   0.206   2.059   0.630 -0.3222  0.3964 -0.9282
  267MPD2    C5 4040   0.255   2.076   0.757  0.3987 -0.3487  0.6382
  267MPD2     H 4041   0.326   2.346   0.499  2.0214 -0.8966 -0.1156
  267MPD2    H1 4042   0.164   1.961   0.609  0.7602 -0.3231  0.2617
  267MPD2    H2 4043   0.341   2.207   0.897  0.1024 -0.7017 -1.0472
  267MPD2    H3 4044   0.240   2.000   0.834 -0.2183 -0.5285  0.3355
  267MPD2     N 4045   0.187   2.111   0.405  0.1337  0.3781 -0.1758
  267MPD2    H5 4046   0.123   2.032   0.396 -0.3015  0.9583 -2.0382
  267MPD2    N1 4047   0.394   2.410   0.751 -0.2624 -0.3955 -0.0178
  267MPD2    H7 4048   0.418   2.405   0.850  1.2772 -1.6741 -0.4754
  268TMC3    C1 4049   0.532   2.600   0.734 -0.3366  0.1411 -0.4049
  268TMC3    C2 4050   0.553   2.724   0.677  0.6365 -0.1768 -0.5204
  268TMC3    C3 4051   0.670   2.793   0.703  0.0111 -0.2819 -0.2330
  268TMC3    C4 4052   0.621   2.558   0.830 -0.7376  0.0596 -0.2344
  268TMC3    C5 4053   0.726   2.638   0.865 -0.0868  0.3398 -0.3304
  268TMC3    C6 4054   0.760   2.750   0.799  0.4119  0.6756  0.4725
  268TMC3     C 4055   0.430   2.516   0.676 -0.0138 -0.2137 -0.6561
  268TMC3     O 4056   0.389   2.559   0.570  0.2672  0.5045 -0.1483
  268TMC3     H 4057   0.470   2.766   0.621  0.6077  0.2357 -0.1639
  268TMC3    H1 4058   0.618   2.454   0.861  3.7910 -0.0336 -0.1674
  268TMC3    H2 4059   0.841   2.816   0.829 -0.8767  2.4119  0.1587
  268TMC3    C7 4060   0.806   2.589   0.979  0.2139  0.5195  0.1238
  268TMC3    C8 4061   0.681   2.932   0.661  0.2274  0.1308  0.0826
  268TMC3    O1 4062   0.776   2.483   1.024 -0.1558 -0.8806  0.2290
  268TMC3    O2 4063   0.721   3.009   0.748 -1.0951 -0.1734 -0.2385
  269MPD2     C 4064   0.447   2.224  15.682  0.0485  0.0138  0.0316
  269MPD2    C1 4065   0.326   2.257  15.736  0.0124  0.4831 -0.3979
  269MPD2    C2 4066   0.288   2.386  15.708 -0.6443 -0.5242  0.2651
  269MPD2    C3 4067   0.353   2.473  15.627  0.4471 -0.1010 -0.1706
  269MPD2    C4 4068   0.479   2.435  15.577 -0.3576 -0.4190 -0.3885
  269MPD2    C5 4069   0.524   2.311  15.610  0.5791 -0.2006  0.5116
  269MPD2     H 4070   0.189   2.424  15.732 -0.4895 -0.0753  0.2021
  269MPD2    H1 4071   0.548   2.501  15.526 -0.3280 -0.5996 -0.5789
  269MPD2    H2 4072   0.485   2.127  15.713  0.4992  0.2784  0.3031
  269MPD2    H3 4073   0.615   2.274  15.564  0.2287  0.4715 -0.7306
  269MPD2     N 4074   0.282   2.590  15.593 -0.1747  0.2841 -0.0119
  269MPD2    H5 4075   0.193   2.601  15.642 -0.8251 -0.3892 -1.0475
  269MPD2    N1 4076   0.246   2.154  15.797  0.7649 -0.1937  0.5899
  269MPD2    H7 4077   0.291   2.067  15.821  0.6907 -0.6338 -0.8504
  270TMC3    C1 4078   0.061   2.059  15.901 -0.1601 -0.1457 -0.0813
  270TMC3    C2 4079   4.652   2.060  15.869  0.4644 -0.0622 -0.3333
  270TMC3    C3 4080   4.580   1.941  15.869 -0.4498  0.0616  0.0093
  270TMC3    C4 4081   0.124   1.945  15.938 -0.8807 -0.2471  0.3703
  270TMC3    C5 4082   0.043   1.835  15.956  0.1996 -0.0347  0.1885
  270TMC3    C6 4083   4.635   1.826  15.921  0.6878  0.0408  0.3377
  270TMC3     C 4084   0.129   2.180  15.856 -0.3476  0.4171 -0.1979
  270TMC3     O 4085   0.056   2.282  15.871  0.3486  0.2863 -0.2075
  270TMC3     H 4086   4.601   2.144  15.824  0.6328 -1.8598 -3.8896
  270TMC3    H1 4087   0.230   1.943  15.958 -0.5518 -1.0166 -1.4361
  270TMC3    H2 4088   4.585   1.731  15.911  0.3382  0.4982 -2.2223
  270TMC3    C7 4089   0.111   1.711  15.987 -0.9915  0.2410  0.4447
  270TMC3    C8 4090   4.448   1.929  15.799  0.4739 -0.0075 -0.5706
  270TMC3    O1 4091   0.232   1.699  15.961  0.0744 -0.4746 -0.3824
  270TMC3    O2 4092   4.381   2.034  15.783  0.5739  0.4629  0.3471
  271MPD2     C 4093   4.109   2.187  14.128  0.1768  0.3637  0.0007
  271MPD2    C1 4094   4.009   2.109  14.178  0.4964  0.3626 -0.6782
  271MPD2    C2 4095   3.882   2.120  14.120 -0.3501  0.0595  0.3947
  271MPD2    C3 4096   3.858   2.208  14.014 -0.0789  0.3882  0.2737
  271MPD2    C4 4097   3.964   2.287  13.971  0.4808 -0.5743 -0.0979
  271MPD2    C5 4098   4.091   2.276  14.025 -0.2350 -0.5236 -0.2874
  271MPD2     H 4099   3.809   2.058  14.171  0.5363 -2.1539 -1.0073
  271MPD2    H1 4100   3.957   2.370  13.901 -1.6233 -0.6477  0.0213
  271MPD2    H2 4101   4.208   2.198  14.170 -0.2341 -0.6456  1.2277
  271MPD2    H3 4102   4.158   2.354  13.992  0.4052 -0.9457  0.0242
  271MPD2     N 4103   3.732   2.232  13.950 -0.1007  0.2627  0.7099
  271MPD2    H5 4104   3.731   2.310  13.886 -1.6419 -0.9025 -0.7148
  271MPD2    N1 4105   4.031   2.006  14.279 -0.7621  0.4894  0.2865
  271MPD2    H7 4106   3.951   1.950  14.306 -0.8398  0.9338  0.9685
  272TMC3    C1 4107   4.156   1.851  14.412 -0.6531  0.1405 -0.3451
  272TMC3    C2 4108   4.268   1.774  14.414 -0.1275  0.0818  0.6194
  272TMC3    C3 4109   4.307   1.717  14.527  0.0139 -0.5316 -0.4984
  272TMC3    C4 4110   4.083   1.878  14.525 -0.7222 -0.2037 -0.7902
  272TMC3    C5 4111   4.131   1.818  14.638  0.0629  1.2296 -0.7709
  272TMC3    C6 4112   4.240   1.734  14.641 -0.3898  0.1117  0.3588
  272TMC3     C 4113   4.155   1.955  14.304 -0.3205 -0.4162 -0.7400
  272TMC3     O 4114   4.257   1.977  14.236  0.1157 -0.4634  0.3019
  272TMC3     H 4115   4.330   1.772  14.325 -1.7886 -0.0510 -0.5373
  272TMC3    H1 4116   3.990   1.934  14.528 -1.0930 -0.9562  1.8000
  272TMC3    H2 4117   4.291   1.701  14.731  0.1873  1.1289  0.4110
  272TMC3    C7 4118   4.083   1.871  14.765  0.0784 -0.5354 -0.6967
  272TMC3    C8 4119   4.442   1.670  14.534 -0.2373 -0.0786  0.4001
  272TMC3    O1 4120   3.975   1.935  14.765 -0.5761 -0.3341  0.1683
  272TMC3    O2 4121   4.515   1.701  14.438 -0.3339  0.3200  0.0628
  273MPD2     C 4122   0.626   0.049  11.818 -0.3045  0.8171  0.1845
  273MPD2    C1 4123   0.714   0.153  11.806  0.1015 -0.0207  0.3815
  273MPD2    C2 4124   0.728   0.213  11.678  0.3147 -0.2026  0.7854
  273MPD2    C3 4125   0.658   0.171  11.569 -0.8794 -0.1142 -0.2387
  273MPD2    C4 4126   0.583   0.061  11.586 -0.3180  0.0417  0.5133
  273MPD2    C5 4127   0.559   0.004  11.709 -0.7010  0.5314  1.3705
  273MPD2     H 4128   0.814   0.278  11.665 -0.2757  0.2232 -0.9860
  273MPD2    H1 4129   0.529   0.023  11.500  1.0595  1.0850 -0.8152
  273MPD2    H2 4130   0.605   4.717  11.909  1.6931  1.3933  0.9982
  273MPD2    H3 4131   0.485   4.648  11.708 -0.0794 -0.0171 -0.2104
  273MPD2     N 4132   0.678   0.215  11.439 -0.6606  0.5876  0.0921
  273MPD2    H5 4133   0.633   0.163  11.365  2.5152 -1.2927 -0.4891
  273MPD2    N1 4134   0.801   0.181  11.914  0.5619 -0.4554  0.2251
  273MPD2    H7 4135   0.804   0.118  11.993 -0.2405 -2.3716 -1.2481
  274TMC3    C1 4136   0.750   0.332  11.255 -0.7170  0.0394 -0.3521
  274TMC3    C2 4137   0.627   0.318  11.189 -0.6870  0.5582 -0.0996
  274TMC3    C3 4138   0.629   0.377  11.065 -0.4128  0.2409 -0.7140
  274TMC3    C4 4139   0.853   0.408  11.213  0.3482 -0.9544 -0.0472
  274TMC3    C5 4140   0.838   0.477  11.094 -0.0423  0.0510 -0.3583
  274TMC3    C6 4141   0.726   0.463  11.021  0.5220 -0.0848 -0.1352
  274TMC3     C 4142   0.748   0.324  11.398  0.2078  0.5335 -0.4787
  274TMC3     O 4143   0.815   0.398  11.466 -0.8460  0.3227  0.6834
  274TMC3     H 4144   0.554   0.243  11.215 -0.1201 -0.1595 -0.5829
  274TMC3    H1 4145   0.944   0.411  11.270  0.4232 -0.7704 -0.1770
  274TMC3    H2 4146   0.708   0.524  10.933 -1.2604 -0.5334 -0.0872
  274TMC3    C7 4147   0.896   0.613  11.098 -0.8818  0.2305  0.0406
  274TMC3    C8 4148   0.532   0.324  10.963  1.0651 -0.2044 -0.3179
  274TMC3    O1 4149   0.909   0.683  11.002 -0.0816 -0.2974  0.3608
  274TMC3    O2 4150   0.442   0.261  11.016 -0.0763  0.1988 -0.2965
  275MPD2     C 4151   0.886   2.840  14.420 -0.9451  0.6933  0.6639
  275MPD2    C1 4152   0.900   2.705  14.392  0.2624  0.5331 -0.7372
  275MPD2    C2 4153   0.817   2.619  14.459 -0.9548 -0.2301 -0.3473
  275MPD2    C3 4154   0.725   2.670  14.554  0.2827 -0.4209  0.2342
  275MPD2    C4 4155   0.719   2.802  14.572  0.2282 -0.0033  0.2876
  275MPD2    C5 4156   0.789   2.889  14.499 -0.5286 -0.0569 -0.3375
  275MPD2     H 4157   0.812   2.512  14.444  0.8841 -0.1888 -1.2713
  275MPD2    H1 4158   0.641   2.844  14.636  0.9785  2.7688 -0.5997
  275MPD2    H2 4159   0.955   2.916  14.386 -0.8247  0.5722  0.6368
  275MPD2    H3 4160   0.762   2.991  14.520  2.1308  0.2816  1.4477
  275MPD2     N 4161   0.634   2.594  14.629  0.0356  0.0966  0.6220
  275MPD2    H5 4162   0.590   2.636  14.710 -0.0002  0.4420  0.4232
  275MPD2    N1 4163   1.020   2.650  14.333  0.0869 -0.1201 -0.4903
  275MPD2    H7 4164   1.026   2.550  14.342  0.4967 -0.1767 -1.4143
  276TMC3    C1 4165   1.245   2.650  14.369 -0.1088 -0.0321 -0.0207
  276TMC3    C2 4166   1.210   2.517  14.402  0.0444 -0.1733  0.1607
  276TMC3    C3 4167   1.222   2.486  14.532  0.1057  0.6384  0.4243
  276TMC3    C4 4168   1.297   2.739  14.460 -0.7648 -0.0819 -0.8982
  276TMC3    C5 4169   1.319   2.704  14.583  0.7679  0.5177 -0.3171
  276TMC3    C6 4170   1.271   2.578  14.622  0.2557  0.9326 -0.0859
  276TMC3     C 4171   1.135   2.724  14.308  0.6839  0.2262  0.1977
  276TMC3     O 4172   1.151   2.847  14.289 -0.1799 -0.4304 -0.1158
  276TMC3     H 4173   1.162   2.448  14.334 -0.2786  1.1503 -0.9702
  276TMC3    H1 4174   1.329   2.836  14.424  0.1052 -0.2506 -0.5673
  276TMC3    H2 4175   1.269   2.555  14.728  0.5928  1.5146  0.0463
  276TMC3    C7 4176   1.379   2.798  14.676  0.0546 -0.3004 -0.6175
  276TMC3    C8 4177   1.113   2.393  14.573  0.1251  0.5836 -1.1019
  276TMC3    O1 4178   1.351   2.789  14.794  0.2972  0.0461  0.5603
  276TMC3    O2 4179   1.023   2.382  14.495 -0.1626  0.4019 -0.4002
  277MPD2     C 4180   2.583   1.560  13.171  0.4811  0.0055  0.1787
  277MPD2    C1 4181   2.450   1.596  13.188  0.1204 -0.6557  0.1655
  277MPD2    C2 4182   2.373   1.510  13.264 -0.0400  0.1765 -0.4900
  277MPD2    C3 4183   2.428   1.398  13.326  0.5635  0.3782  0.0381
  277MPD2    C4 4184   2.553   1.362  13.289 -0.1499 -0.4686 -0.1173
  277MPD2    C5 4185   2.628   1.440  13.212  0.2384  0.5898  0.1319
  277MPD2     H 4186   2.281   1.544  13.311 -0.1097 -0.3874 -0.2138
  277MPD2    H1 4187   2.598   1.274  13.334 -2.3877 -0.6560  1.7233
  277MPD2    H2 4188   2.653   1.626  13.122 -1.0497  0.8838 -0.8275
  277MPD2    H3 4189   2.734   1.421  13.200  0.2689  1.9810 -1.9487
  277MPD2     N 4190   2.356   1.336  13.432  0.5666  0.0305 -0.5330
  277MPD2    H5 4191   2.271   1.373  13.475  1.7413  0.2444  1.5699
  277MPD2    N1 4192   2.400   1.712  13.115 -0.8788 -0.1933  0.5670
  277MPD2    H7 4193   2.460   1.765  13.053 -1.6106 -0.3504 -0.2837
  278TMC3    C1 4194   2.311   1.188  13.606 -0.5554  0.0493  0.4976
  278TMC3    C2 4195   2.256   1.063  13.621  0.0128 -0.5054 -0.0531
  278TMC3    C3 4196   2.169   1.047  13.720  0.4361  0.6415  0.6407
  278TMC3    C4 4197   2.299   1.285  13.700  0.2337 -0.5988 -0.3943
  278TMC3    C5 4198   2.219   1.249  13.813  0.4384 -0.0756  0.5724
  278TMC3    C6 4199   2.149   1.135  13.820  0.9733  0.0241  0.7200
  278TMC3     C 4200   2.380   1.212  13.484  0.2982  0.4840 -0.1473
  278TMC3     O 4201   2.429   1.117  13.427 -0.3317  0.9045  0.2281
  278TMC3     H 4202   2.266   0.984  13.547  0.5779 -0.5797  0.1042
  278TMC3    H1 4203   2.340   1.384  13.684  0.1304 -0.5756 -0.5133
  278TMC3    H2 4204   2.072   1.111  13.892  1.4560 -0.7911  0.9561
  278TMC3    C7 4205   2.220   1.337  13.926 -0.3127 -0.1040  0.1072
  278TMC3    C8 4206   2.100   0.921  13.735 -0.2376  0.3295  0.1127
  278TMC3    O1 4207   2.324   1.391  13.960 -0.3582  0.5878 -0.5667
  278TMC3    O2 4208   2.126   0.865  13.842 -0.0192 -0.5886  0.6458
  279MPD2     C 4209   2.159   1.276   0.961 -0.0441  0.4965 -0.3411
  279MPD2    C1 4210   2.048   1.324   0.894  0.1581  0.9850  0.2251
  279MPD2    C2 4211   2.066   1.388   0.773  0.1863  0.2576 -0.4616
  279MPD2    C3 4212   2.190   1.416   0.721 -0.6910 -0.5280 -0.1472
  279MPD2    C4 4213   2.298   1.366   0.793 -0.2480  0.9718  0.0816
  279MPD2    C5 4214   2.281   1.295   0.905  0.1946 -0.0590  0.0748
  279MPD2     H 4215   1.984   1.424   0.712 -0.3364  1.1214  0.7377
  279MPD2    H1 4216   2.398   1.366   0.750 -0.5581 -0.7414 -0.6502
  279MPD2    H2 4217   2.150   1.226   1.057 -0.9771 -0.2080 -0.8048
  279MPD2    H3 4218   2.366   1.249   0.954 -0.1208 -1.6457 -0.9021
  279MPD2     N 4219   2.208   1.471   0.594 -0.2714 -0.2168  0.7002
  279MPD2    H5 4220   2.306   1.462   0.571 -0.7163  0.4955 -1.4738
  279MPD2    N1 4221   1.916   1.306   0.948  0.6139 -0.6115 -0.1121
  279MPD2    H7 4222   1.902   1.280   1.045 -0.4499 -1.6223 -0.5301
  280TMC3    C1 4223   1.681   1.305   0.944  0.0686  0.2393 -0.6022
  280TMC3    C2 4224   1.578   1.244   0.880  0.3786  0.3273 -0.2178
  280TMC3    C3 4225   1.456   1.293   0.899  0.0156 -0.5910 -0.3759
  280TMC3    C4 4226   1.653   1.414   1.026  0.5071  0.9509  0.1296
  280TMC3    C5 4227   1.527   1.459   1.037 -0.2303  0.7327  0.2045
  280TMC3    C6 4228   1.420   1.396   0.975 -0.9017  0.0248 -0.1352
  280TMC3     C 4229   1.804   1.311   0.871  0.3704  0.0155 -0.3327
  280TMC3     O 4230   1.780   1.314   0.750 -0.5133  0.2524 -0.1993
  280TMC3     H 4231   1.591   1.156   0.819 -0.2859  0.4857 -0.5985
  280TMC3    H1 4232   1.731   1.466   1.080 -0.9324  0.7741  2.3747
  280TMC3    H2 4233   1.318   1.428   0.991 -0.3974  0.5088  2.0472
  280TMC3    C7 4234   1.505   1.561   1.139 -0.0443 -0.1887  0.1812
  280TMC3    C8 4235   1.350   1.216   0.834 -0.1801  0.3456  0.3694
  280TMC3    O1 4236   1.590   1.576   1.225 -0.1333 -0.1825  0.3570
  280TMC3    O2 4237   1.376   1.103   0.798 -0.2590  0.2423 -0.4675
  281TMC3    C1 4238   0.072   2.379  13.507  0.5956 -0.0862 -0.7020
  281TMC3    C2 4239   0.022   2.430  13.384 -0.5338 -0.0493  0.0268
  281TMC3    C3 4240   4.650   2.358  13.318 -0.1864 -0.0077  0.0024
  281TMC3    C4 4241   0.038   2.255  13.553 -0.9584  0.0647 -0.6146
  281TMC3    C5 4242   4.662   2.184  13.483  0.2984  0.1585 -0.0749
  281TMC3    C6 4243   4.598   2.238  13.366  0.1071  0.2218 -0.0742
  281TMC3     C 4244   0.133   2.469  13.610  0.2396  0.4250 -1.0252
  281TMC3     O 4245   0.180   2.413  13.707 -0.3953  0.1711  0.3475
  281TMC3     H 4246   0.065   2.520  13.340  1.0146 -0.4075  0.8132
  281TMC3    H1 4247   0.076   2.224  13.650  0.6637 -0.2721 -1.3657
  281TMC3    H2 4248   4.514   2.187  13.320  0.7711 -0.5660 -0.4175
  281TMC3    C7 4249   4.573   2.093  13.556 -0.0178 -0.5003  0.0332
  281TMC3    C8 4250   4.596   2.391  13.190 -0.1809  0.1200  0.8681
  281TMC3    O1 4251   4.468   2.058  13.501  0.3958 -0.7982  0.5483
  281TMC3    O2 4252   4.536   2.299  13.130 -0.2657  0.4631 -0.5437
  282MPD2     C 4253   2.147   3.286  14.919  0.0961  0.2428 -0.0109
  282MPD2    C1 4254   2.030   3.359  14.925 -0.5632  0.5012  0.6186
  282MPD2    C2 4255   1.968   3.395  14.809 -0.1830  0.1716 -0.4712
  282MPD2    C3 4256   2.015   3.366  14.687  0.0977  0.1623  0.1007
  282MPD2    C4 4257   2.127   3.286  14.683 -0.1077  0.7056 -0.3443
  282MPD2    C5 4258   2.195   3.250  14.794 -0.2207  0.8043  0.8144
  282MPD2     H 4259   1.884   3.463  14.820  0.4657  1.0495 -0.9713
  282MPD2    H1 4260   2.156   3.237  14.591  1.7436  3.3889 -1.1844
  282MPD2    H2 4261   2.197   3.251  15.008 -0.2251  1.5454  0.6782
  282MPD2    H3 4262   2.281   3.185  14.781 -0.3397  0.1382  3.5210
  282MPD2     N 4263   1.935   3.406  14.573  0.1094  0.0287 -0.1540
  282MPD2    H5 4264   1.854   3.462  14.597 -0.6115 -1.2319  0.4150
  282MPD2    N1 4265   1.976   3.395  15.055  0.3203 -0.0278  0.4617
  282MPD2    H7 4266   1.884   3.438  15.050  0.5566  0.2675 -1.4848
  283TMC3    C1 4267   1.932   3.389  15.276 -0.5149 -0.2232  0.3053
  283TMC3    C2 4268   1.964   3.483  15.363 -0.2734  0.4894 -0.4703
  283TMC3    C3 4269   1.891   3.487  15.481  0.0299 -0.2573 -0.1378
  283TMC3    C4 4270   1.849   3.281  15.309 -0.5458 -0.0618 -0.7551
  283TMC3    C5 4271   1.792   3.282  15.439  0.0824 -0.1527  0.3143
  283TMC3    C6 4272   1.812   3.384  15.527  0.7384 -0.6775 -0.1067
  283TMC3     C 4273   2.029   3.358  15.177  0.2658  0.3514  0.2589
  283TMC3     O 4274   2.136   3.309  15.212  0.9896 -0.1191  0.1977
  283TMC3     H 4275   2.057   3.535  15.346  1.2226 -1.6699  1.0234
  283TMC3    H1 4276   1.852   3.193  15.245  0.0311  0.0517 -0.8842
  283TMC3    H2 4277   1.754   3.394  15.618 -0.6225 -1.7259 -0.8525
  283TMC3    C7 4278   1.703   3.175  15.485  0.1836  0.5345 -0.6065
  283TMC3    C8 4279   1.905   3.589  15.581 -0.3867  0.2754 -0.1727
  283TMC3    O1 4280   1.626   3.205  15.577  0.0294 -0.0987  0.6145
  283TMC3    O2 4281   1.892   3.553  15.697  0.6142  0.7184  0.7386
  284MPD2     C 4282   0.079   2.967  11.772 -0.4302  0.0001  0.1788
  284MPD2    C1 4283   0.179   3.031  11.709  0.1632 -0.1973 -0.1547
  284MPD2    C2 4284   0.301   3.045  11.770 -0.4841  0.5198  0.8038
  284MPD2    C3 4285   0.317   2.988  11.897  0.9010 -0.6347  1.2992
  284MPD2    C4 4286   0.214   2.920  11.955  0.4230 -0.3743 -0.1767
  284MPD2    C5 4287   0.095   2.915  11.897 -0.4618 -0.0976  0.1945
  284MPD2     H 4288   0.374   3.103  11.713 -0.1139 -1.2511 -0.5311
  284MPD2    H1 4289   0.220   2.873  12.052  2.2623  0.1129 -0.0396
  284MPD2    H2 4290   4.708   2.958  11.721 -1.2864 -1.7031  2.0969
  284MPD2    H3 4291   0.015   2.852  11.933 -0.5390  0.5061  1.0768
  284MPD2     N 4292   0.450   2.982  11.948  0.0855  0.1187  0.0444
  284MPD2    H5 4293   0.520   3.035  11.896 -1.1868 -0.0127 -1.7794
  284MPD2    N1 4294   0.166   3.061  11.568 -0.4059 -0.1886  0.1352
  284MPD2    H7 4295   0.250   3.102  11.526 -0.2139 -1.5487 -0.7973
  285TMC3    C1 4296   0.100   3.051  11.345  1.3357 -0.7992  0.1197
  285TMC3    C2 4297   0.143   2.956  11.259 -0.4211 -0.3316  0.4804
  285TMC3    C3 4298   0.219   2.993  11.149  0.5309 -0.0452  0.8678
  285TMC3    C4 4299   0.122   3.180  11.321 -0.1113 -0.1234  0.6728
  285TMC3    C5 4300   0.190   3.212  11.203 -0.3619  0.5388  0.1739
  285TMC3    C6 4301   0.244   3.121  11.122 -0.1980  0.1630  0.4548
  285TMC3     C 4302   0.061   3.019  11.486 -0.3757 -0.0038  0.2730
  285TMC3     O 4303   4.706   2.926  11.494  0.3479 -0.1793 -0.1436
  285TMC3     H 4304   0.135   2.854  11.295 -1.6584 -0.0195  1.0667
  285TMC3    H1 4305   0.108   3.253  11.400 -0.6677  0.2551  0.2353
  285TMC3    H2 4306   0.289   3.156  11.030 -0.7051  4.4763  1.8341
  285TMC3    C7 4307   0.252   3.344  11.207 -0.4717 -0.1475 -0.9881
  285TMC3    C8 4308   0.304   2.882  11.107 -0.0249  0.6519  0.2993
  285TMC3    O1 4309   0.373   3.337  11.180  0.0563 -0.6307  0.1620
  285TMC3    O2 4310   0.328   2.800  11.195 -0.8181  0.1935  0.1612
  286MPD2     C 4311   0.603   0.454   1.859 -0.2774 -0.1116 -0.4987
  286MPD2    C1 4312   0.608   0.439   1.722 -0.5493  0.6447  0.0667
  286MPD2    C2 4313   0.731   0.396   1.667  0.2139  0.3192 -0.2592
  286MPD2    C3 4314   0.840   0.364   1.746 -0.5280  0.8662  0.1794
  286MPD2    C4 4315   0.829   0.378   1.880  0.1697 -1.2644 -0.1422
  286MPD2    C5 4316   0.715   0.424   1.938 -0.6177  0.5463 -0.3351
  286MPD2     H 4317   0.737   0.395   1.559 -1.2545 -1.8949 -0.3148
  286MPD2    H1 4318   0.913   0.358   1.944  0.5154 -0.5264 -0.3603
  286MPD2    H2 4319   0.517   0.504   1.900  0.9691  0.7546  1.0750
  286MPD2    H3 4320   0.725   0.449   2.043 -1.5303 -1.6992  0.2980
  286MPD2     N 4321   0.962   0.324   1.691 -0.2786 -0.8759  0.3364
  286MPD2    H5 4322   1.027   0.278   1.754  1.2488  0.6213 -0.1301
  286MPD2    N1 4323   0.503   0.478   1.636  0.2793  0.4113  0.4251
  286MPD2    H7 4324   0.517   0.453   1.539 -3.3102 -1.8833  0.4959
  287TMC3    C1 4325   1.110   0.253   1.524  0.4887  0.7879 -0.1359
  287TMC3    C2 4326   1.107   0.212   1.390 -0.0372 -0.2927 -0.5308
  287TMC3    C3 4327   1.187   0.112   1.357  0.3447 -0.0223  0.6200
  287TMC3    C4 4328   1.184   0.182   1.618  0.2328  0.0664 -0.5332
  287TMC3    C5 4329   1.255   0.073   1.574  0.3098 -0.2368  0.1000
  287TMC3    C6 4330   1.265   0.040   1.443 -0.2356  0.4170 -0.0279
  287TMC3     C 4331   0.998   0.336   1.558  0.1522  0.1788  0.1129
  287TMC3     O 4332   0.941   0.383   1.461  0.1757 -0.3496  0.0732
  287TMC3     H 4333   1.033   0.249   1.321  2.1676 -0.4066 -2.9913
  287TMC3    H1 4334   1.188   0.217   1.720 -1.6527  0.8156 -0.7112
  287TMC3    H2 4335   1.330   4.687   1.404  0.9305  1.1708  0.4085
  287TMC3    C7 4336   1.342   0.007   1.675 -1.0998  0.4449  0.1758
  287TMC3    C8 4337   1.195   0.073   1.216 -0.2230  0.2330 -0.1889
  287TMC3    O1 4338   1.327   0.043   1.791 -0.2967 -0.5105 -0.1648
  287TMC3    O2 4339   1.213   4.677   1.197  0.1543 -0.3514 -0.3915
  288TMC3    C1 4340   2.412   0.972  15.056 -0.0590 -0.7634 -0.5469
  288TMC3    C2 4341   2.375   1.002  15.187 -0.1427 -0.5573  0.4306
  288TMC3    C3 4342   2.354   1.131  15.212  0.1118 -0.3210 -0.8936
  288TMC3    C4 4343   2.456   1.066  14.966  0.3846  0.4765  0.1527
  288TMC3    C5 4344   2.433   1.195  14.995  0.9179 -0.8751 -0.5591
  288TMC3    C6 4345   2.377   1.228  15.115 -0.3649 -0.1318  0.1743
  288TMC3     C 4346   2.436   0.831  15.037 -0.1625  0.3566  0.3526
  288TMC3     O 4347   2.412   0.766  15.137  0.3562  0.3696 -0.3525
  288TMC3     H 4348   2.382   0.932  15.269  2.7656 -0.9696 -0.1858
  288TMC3    H1 4349   2.496   1.028  14.873 -1.2211 -2.1818  0.5699
  288TMC3    H2 4350   2.367   1.333  15.138 -0.6495  0.5345 -2.9357
  288TMC3    C7 4351   2.429   1.296  14.891 -0.4210 -0.2472 -0.5297
  288TMC3    C8 4352   2.283   1.165  15.332  0.5990  0.2239 -0.1962
  288TMC3    O1 4353   2.409   1.411  14.929 -0.2481  0.3224  0.2255
  288TMC3    O2 4354   2.298   1.276  15.377 -0.3503 -0.5107 -0.3345
  289MPD2     C 4355   2.415   0.130  15.675  0.0035  0.4571 -0.7703
  289MPD2    C1 4356   2.445   0.240  15.591  0.3842 -0.1522 -0.5958
  289MPD2    C2 4357   2.364   0.263  15.479  0.2659 -0.0908 -0.3768
  289MPD2    C3 4358   2.253   0.179  15.453  0.2008  0.1258  0.2008
  289MPD2    C4 4359   2.224   0.077  15.538 -0.4686  1.0368  0.6164
  289MPD2    C5 4360   2.299   0.052  15.646  0.4336  0.2456  0.3514
  289MPD2     H 4361   2.378   0.354  15.423  1.9006 -0.6061 -0.8037
  289MPD2    H1 4362   2.134   0.019  15.520  0.6382 -0.5514  0.1736
  289MPD2    H2 4363   2.458   0.117  15.774 -0.5816 -0.4552 -0.6383
  289MPD2    H3 4364   2.261   4.702  15.716 -1.6838  1.8025  0.8829
  289MPD2     N 4365   2.163   0.201  15.349  0.1308  0.4103  0.0412
  289MPD2    H5 4366   2.080   0.143  15.354  1.2451 -1.2466 -0.8085
  289MPD2    N1 4367   2.552   0.328  15.627 -0.3754  0.3100  0.5274
  289MPD2    H7 4368   2.604   0.309  15.712 -0.4482  1.1975  0.7729
  290TMC3    C1 4369   2.058   0.329  15.177 -0.5905  0.5221  0.3101
  290TMC3    C2 4370   2.095   0.417  15.073 -0.3964 -0.2270 -0.2762
  290TMC3    C3 4371   2.023   0.410  14.955 -0.2847 -0.8078 -0.4976
  290TMC3    C4 4372   1.969   0.227  15.149  0.2179 -0.6216  0.0076
  290TMC3    C5 4373   1.906   0.223  15.022  0.7437  0.8837  0.2430
  290TMC3    C6 4374   1.927   0.318  14.932 -0.5518 -0.1843  0.0798
  290TMC3     C 4375   2.178   0.305  15.256 -0.7004 -0.0631 -0.4836
  290TMC3     O 4376   2.278   0.371  15.226 -0.7301 -0.3152  0.4371
  290TMC3     H 4377   2.156   0.503  15.101  0.1036  0.0411 -2.2404
  290TMC3    H1 4378   1.926   0.169  15.230 -1.8087  0.7408 -0.1069
  290TMC3    H2 4379   1.871   0.324  14.839 -0.1341 -2.1198 -0.3121
  290TMC3    C7 4380   1.798   0.125  15.010  0.5187 -0.7609 -0.3413
  290TMC3    C8 4381   2.050   0.507  14.845  0.1144 -0.0401 -0.0013
  290TMC3    O1 4382   1.714   0.116  15.104 -0.1785 -0.1157 -0.1292
  290TMC3    O2 4383   2.009   0.483  14.734  1.1643 -0.0438  0.1234
  291MPD2     C 4384   1.462   0.002   0.554  0.7610  0.2422 -0.1970
  291MPD2    C1 4385   1.579   4.656   0.540  0.4473 -0.2870 -0.5798
  291MPD2    C2 4386   1.699   0.003   0.532 -0.2509  0.0323  0.2650
  291MPD2    C3 4387   1.698   0.142   0.534  0.8351 -0.5594 -0.0913
  291MPD2    C4 4388   1.576   0.207   0.545  0.0057  0.6087 -0.7415
  291MPD2    C5 4389   1.463   0.136   0.569  0.9721 -0.4287  0.3946
  291MPD2     H 4390   1.785   4.661   0.537  0.4573  0.8749 -1.0298
  291MPD2    H1 4391   1.576   0.316   0.551  1.3116  0.5080  1.1762
  291MPD2    H2 4392   1.366   4.677   0.561  1.6342 -1.6752 -1.6895
  291MPD2    H3 4393   1.367   0.182   0.588  1.4195  0.0325  1.5125
  291MPD2     N 4394   1.815   0.222   0.515 -0.1326 -0.6529 -0.8119
  291MPD2    H5 4395   1.807   0.322   0.496 -2.3064 -0.8099 -0.7277
  291MPD2    N1 4396   1.586   4.517   0.548 -0.2681 -0.3269 -0.6810
  291MPD2    H7 4397   1.671   4.471   0.579 -0.0827  0.7944  0.4717
  292TMC3    C1 4398   1.484   4.298   0.547  0.5665  0.0461 -0.4333
  292TMC3    C2 4399   1.538   4.273   0.673 -0.0244  1.0251 -0.2203
  292TMC3    C3 4400   1.550   4.142   0.699  0.5746  0.5558  0.5308
  292TMC3    C4 4401   1.448   4.209   0.451 -0.0083  0.0713  0.0630
  292TMC3    C5 4402   1.471   4.079   0.487 -0.5314 -0.0282 -0.1187
  292TMC3    C6 4403   1.535   4.043   0.607 -0.3426 -0.4297 -0.0853
  292TMC3     C 4404   1.474   4.442   0.517  0.1932  0.4033  0.4588
  292TMC3     O 4405   1.362   4.472   0.469 -0.1784  0.4204  0.1430
  292TMC3     H 4406   1.545   4.356   0.743  0.0513  0.7028  0.1551
  292TMC3    H1 4407   1.385   4.240   0.368  1.0321  2.0354 -0.0131
  292TMC3    H2 4408   1.539   3.938   0.634 -0.5912 -0.4588 -0.1640
  292TMC3    C7 4409   1.441   3.974   0.391 -0.0118  0.3662 -0.1139
  292TMC3    C8 4410   1.579   4.098   0.828  0.4485  0.8148  0.0094
  292TMC3    O1 4411   1.517   3.875   0.414 -0.3440  0.2139  0.4237
  292TMC3    O2 4412   1.546   3.982   0.854  0.1897  0.0011  0.9310
  293MPD2     C 4413   3.776   1.823  12.818 -0.1854  0.3788 -0.5955
  293MPD2    C1 4414   3.709   1.750  12.910 -0.6649  0.5101  0.7235
  293MPD2    C2 4415   3.728   1.777  13.045 -0.3733  0.6187  0.8587
  293MPD2    C3 4416   3.797   1.886  13.086 -0.1365 -0.0967 -0.1265
  293MPD2    C4 4417   3.868   1.963  12.998  0.3327 -0.2070 -0.3744
  293MPD2    C5 4418   3.853   1.932  12.863 -0.6076 -0.0942  0.2214
  293MPD2     H 4419   3.666   1.727  13.118 -0.1402 -0.5724  0.2422
  293MPD2    H1 4420   3.935   2.040  13.033  1.0385 -1.3312  0.7507
  293MPD2    H2 4421   3.752   1.807  12.714 -0.1427 -0.2721 -0.5016
  293MPD2    H3 4422   3.889   2.007  12.793 -0.5220  1.5759  2.0279
  293MPD2     N 4423   3.796   1.905  13.228 -0.5937 -0.3478 -0.2612
  293MPD2    H5 4424   3.766   1.826  13.283  2.9425 -0.4960  1.4861
  293MPD2    N1 4425   3.624   1.645  12.855 -0.6250  0.0185  0.2380
  293MPD2    H7 4426   3.635   1.612  12.759 -0.0202  0.7672  0.0583
  294TMC3    C1 4427   3.433   1.504  12.840 -0.1489 -0.4878 -0.5909
  294TMC3    C2 4428   3.329   1.463  12.925 -0.4648 -0.2025 -0.9669
  294TMC3    C3 4429   3.205   1.492  12.889  0.5003  0.1081  0.3029
  294TMC3    C4 4430   3.406   1.550  12.715 -0.5474  0.3993 -0.3225
  294TMC3    C5 4431   3.271   1.578  12.681  0.2613  0.2439  0.5487
  294TMC3    C6 4432   3.175   1.557  12.772  0.2179 -0.1107 -0.3450
  294TMC3     C 4433   3.517   1.581  12.921  0.3597  0.0974 -0.9205
  294TMC3     O 4434   3.473   1.604  13.030  0.0585  0.5076  0.4933
  294TMC3     H 4435   3.347   1.405  13.015 -0.8949 -0.0427 -0.7786
  294TMC3    H1 4436   3.479   1.565  12.636 -2.6966  3.5715 -1.7199
  294TMC3    H2 4437   3.073   1.589  12.751  1.1024  3.0991  0.3325
  294TMC3    C7 4438   3.209   1.550  12.553 -0.4462 -0.1061  0.2949
  294TMC3    C8 4439   3.103   1.402  12.935  0.4527 -0.2672 -0.3794
  294TMC3    O1 4440   3.097   1.494  12.555  0.0375 -0.0338  0.4372
  294TMC3    O2 4441   3.111   1.358  13.046  0.7409  0.0527 -0.6108
  295MPD2     C 4442   4.356   3.799   0.307 -0.3689  0.1619  0.0743
  295MPD2    C1 4443   4.278   3.893   0.376 -0.8123 -0.1088  0.3081
  295MPD2    C2 4444   4.285   3.906   0.514  0.1247  0.5858 -0.0673
  295MPD2    C3 4445   4.373   3.832   0.584 -0.3969  0.3306 -0.9785
  295MPD2    C4 4446   4.450   3.738   0.517  0.0570 -0.3537 -0.8588
  295MPD2    C5 4447   4.444   3.724   0.376 -0.8583 -0.2731  0.3686
  295MPD2     H 4448   4.213   3.969   0.564  0.6951  1.1279  0.0639
  295MPD2    H1 4449   4.510   3.675   0.582 -0.8235  0.7824  1.0526
  295MPD2    H2 4450   4.362   3.790   0.199 -2.6152 -0.9899  0.0455
  295MPD2    H3 4451   4.515   3.659   0.326  0.6585  1.8458 -0.1922
  295MPD2     N 4452   4.380   3.829   0.724 -1.0457 -0.2584 -0.4250
  295MPD2    H5 4453   4.439   3.753   0.757 -1.1007 -0.3426 -0.5200
  295MPD2    N1 4454   4.195   3.978   0.296 -0.8908  0.1779  0.1885
  295MPD2    H7 4455   4.153   4.059   0.341  0.4755  0.7848  0.3880
  296TMC3    C1 4456   4.335   3.864   0.947  0.1839 -0.3345  0.1254
  296TMC3    C2 4457   4.282   3.941   1.050  0.4173 -0.2262 -0.4998
  296TMC3    C3 4458   4.329   3.930   1.178  0.4696 -0.7352 -0.1595
  296TMC3    C4 4459   4.453   3.795   0.977  0.5393  0.2769 -0.6765
  296TMC3    C5 4460   4.484   3.785   1.117 -0.3645  0.3216  0.3126
  296TMC3    C6 4461   4.427   3.845   1.220  0.1937  0.4863 -0.0034
  296TMC3     C 4462   4.311   3.907   0.811 -0.5066  0.4180  0.1575
  296TMC3     O 4463   4.232   3.997   0.790  0.5300 -0.3842 -0.5340
  296TMC3     H 4464   4.208   4.019   1.036 -1.8119 -2.3604 -0.8077
  296TMC3    H1 4465   4.501   3.740   0.896  0.1339  2.7103 -2.5602
  296TMC3    H2 4466   4.475   3.843   1.318  1.2857 -0.8344 -0.5696
  296TMC3    C7 4467   4.582   3.687   1.158  0.6633 -0.1276 -0.0364
  296TMC3    C8 4468   4.281   4.028   1.277 -0.1791  0.3481  0.9306
  296TMC3    O1 4469   4.671   3.659   1.079 -0.0396  0.3422  0.1310
  296TMC3    O2 4470   4.242   4.131   1.230  0.3884  0.4686 -0.2517
  297MPD2     C 4471   1.286   2.714  16.328 -0.9477  0.0869  0.0712
  297MPD2    C1 4472   1.325   2.592  16.265  0.3593  0.7397 -0.0853
  297MPD2    C2 4473   1.404   2.597  16.148  0.4019 -0.4444 -0.7401
  297MPD2    C3 4474   1.451   2.714  16.091  0.3506 -0.6042  0.0922
  297MPD2    C4 4475   1.410   2.830  16.158 -0.0684  0.2952  0.5580
  297MPD2    C5 4476   1.328   2.831  16.266 -0.0496  0.0692  0.3241
  297MPD2     H 4477   1.436   2.501  16.109 -0.8157 -0.3809 -1.8831
  297MPD2    H1 4478   1.431   2.928  16.117  4.7301 -0.9872 -0.0239
  297MPD2    H2 4479   1.227   2.723  16.419  0.0354 -0.7935  0.7933
  297MPD2    H3 4480   1.297   2.929  16.301 -1.3190 -0.5961  1.0544
  297MPD2     N 4481   1.552   2.720  15.996  0.1253  0.1165  0.0824
  297MPD2    H5 4482   1.583   2.811  15.964 -0.8377  0.0547 -1.0223
  297MPD2    N1 4483   1.279   2.470  16.315 -0.2446 -0.3866 -0.5285
  297MPD2    H7 4484   1.289   2.391  16.253  1.3624 -0.5055 -0.1029
  298TMC3    C1 4485   1.192   2.309  16.474  0.1701  0.1075  0.0290
  298TMC3    C2 4486   1.200   2.207  16.377 -0.3402 -0.1208  0.0618
  298TMC3    C3 4487   1.147   2.083  16.416 -0.2570  0.2281  0.3531
  298TMC3    C4 4488   1.141   2.286  16.597 -0.1139  0.6406  0.9813
  298TMC3    C5 4489   1.099   2.158  16.634 -0.0801  0.6586  0.0208
  298TMC3    C6 4490   1.097   2.059  16.537 -0.4393  0.2894  0.4145
  298TMC3     C 4491   1.228   2.448  16.445  0.2105  0.2040 -0.1287
  298TMC3     O 4492   1.215   2.524  16.538 -0.4764  0.2553  0.6214
  298TMC3     H 4493   1.266   2.205  16.291 -2.2919 -2.6964 -1.3511
  298TMC3    H1 4494   1.112   2.361  16.669  0.8381 -0.2702  2.2994
  298TMC3    H2 4495   1.058   1.961  16.559  0.2491 -0.0701  0.0426
  298TMC3    C7 4496   1.054   2.140  16.767 -0.1968  0.4140 -0.3617
  298TMC3    C8 4497   1.129   1.992  16.307 -0.0826  0.0349 -0.1320
  298TMC3    O1 4498   1.068   2.230  16.848  0.0226 -0.6029 -0.2126
  298TMC3    O2 4499   1.120   1.869  16.330 -0.2372  0.2204 -0.1060
  299MPD2     C 4500   1.716   1.377  10.392  0.6442  0.4752 -0.5479
  299MPD2    C1 4501   1.697   1.485  10.312 -0.2086 -0.2131 -0.3013
  299MPD2    C2 4502   1.573   1.501  10.253 -0.4452 -0.3219  0.1074
  299MPD2    C3 4503   1.463   1.413  10.283  0.1277  0.0784  0.3551
  299MPD2    C4 4504   1.492   1.298  10.351 -0.4753  0.1049  0.1270
  299MPD2    C5 4505   1.614   1.287  10.411  0.1433  0.0912 -0.6783
  299MPD2     H 4506   1.555   1.588  10.191 -0.2011 -0.2148  0.1849
  299MPD2    H1 4507   1.416   1.222  10.365  0.2376 -0.8802 -1.2907
  299MPD2    H2 4508   1.817   1.360  10.428 -0.8767 -2.2000  2.5086
  299MPD2    H3 4509   1.630   1.193  10.463  0.8226  1.1253  0.9775
  299MPD2     N 4510   1.330   1.443  10.244 -0.1270 -0.5893 -0.0121
  299MPD2    H5 4511   1.261   1.369  10.242  0.0043 -0.6995 -0.6484
  299MPD2    N1 4512   1.805   1.576  10.298  0.3323  0.3467 -0.7644
  299MPD2    H7 4513   1.877   1.557  10.367 -1.2834  3.3454  1.7490
  300TMC3    C1 4514   1.142   1.592  10.202 -0.2490  0.4176  0.0277
  300TMC3    C2 4515   1.104   1.701  10.137 -0.0684  0.1082  0.0519
  300TMC3    C3 4516   0.994   1.773  10.172 -0.0140  0.1581 -0.0675
  300TMC3    C4 4517   1.060   1.530  10.291  0.0149  0.3600 -0.1448
  300TMC3    C5 4518   0.944   1.596  10.322  0.8370  0.8720 -0.2389
  300TMC3    C6 4519   0.908   1.718  10.266  0.1069  0.4760  0.2870
  300TMC3     C 4520   1.288   1.573  10.216  0.6071 -0.7098 -0.3629
  300TMC3     O 4521   1.348   1.683  10.210 -0.4125  0.4251  0.5077
  300TMC3     H 4522   1.176   1.744  10.070 -0.8246 -0.0831 -0.8893
  300TMC3    H1 4523   1.092   1.446  10.352  3.9824  1.2990 -0.9359
  300TMC3    H2 4524   0.827   1.779  10.304  0.2929  0.5874  0.5081
  300TMC3    C7 4525   0.888   1.559  10.453  0.6104  0.0135  0.6448
  300TMC3    C8 4526   0.977   1.909  10.128 -0.0443 -0.4088  0.0598
  300TMC3    O1 4527   0.888   1.442  10.483 -0.0296  0.0070  0.4058
  300TMC3    O2 4528   0.861   1.944  10.126  0.4748  0.5147  0.1466
  301MPD2     C 4529   4.665   2.339   1.523 -0.3407  0.3040  0.4015
  301MPD2    C1 4530   4.594   2.318   1.407 -0.3259 -0.3594  0.5599
  301MPD2    C2 4531   4.612   2.189   1.359 -0.5959  0.2218 -0.9538
  301MPD2    C3 4532   4.692   2.091   1.422 -0.4655 -0.2468 -0.9077
  301MPD2    C4 4533   0.030   2.121   1.540  0.4660  0.7556 -0.0113
  301MPD2    C5 4534   0.023   2.255   1.585 -0.6805 -0.1677 -0.1374
  301MPD2     H 4535   4.550   2.162   1.274 -0.2961  1.5026 -1.5915
  301MPD2    H1 4536   0.091   2.047   1.591  0.8100  0.7350 -0.4494
  301MPD2    H2 4537   4.672   2.430   1.582 -1.0493  1.0556 -0.6917
  301MPD2    H3 4538   0.077   2.271   1.678  0.8015 -1.0000 -0.8522
  301MPD2     N 4539   4.694   1.955   1.377 -0.1130 -0.0255  0.1785
  301MPD2    H5 4540   4.724   1.885   1.445  1.1400  0.8360  0.5153
  301MPD2    N1 4541   4.507   2.425   1.359  0.6606 -0.0788 -0.0890
  301MPD2    H7 4542   4.436   2.404   1.290 -0.3093 -0.1347  0.9243
  302TMC3    C1 4543   4.648   1.766   1.223 -0.1985  0.1653 -0.0917
  302TMC3    C2 4544   0.006   1.680   1.292  0.4482 -0.5669  0.2269
  302TMC3    C3 4545   4.712   1.543   1.265 -0.3951 -0.7005 -0.5807
  302TMC3    C4 4546   4.557   1.725   1.128  0.1358 -0.3786  0.3371
  302TMC3    C5 4547   4.538   1.591   1.110 -0.1934 -0.0433  0.2185
  302TMC3    C6 4548   4.608   1.499   1.183  0.0269  0.7621 -0.6622
  302TMC3     C 4549   4.653   1.912   1.252 -1.1998  0.7812 -0.0467
  302TMC3     O 4550   4.611   1.976   1.158  0.7403  0.3501  0.3371
  302TMC3     H 4551   0.088   1.710   1.357  0.3926  0.8971 -0.3721
  302TMC3    H1 4552   4.491   1.791   1.072 -0.0228 -0.4951  0.3873
  302TMC3    H2 4553   4.599   1.395   1.153  0.1565  0.4379  0.4182
  302TMC3    C7 4554   4.444   1.535   1.012 -0.2502 -0.5502 -0.2907
  302TMC3    C8 4555   0.060   1.438   1.339  0.3272 -0.7227  0.4853
  302TMC3    O1 4556   4.475   1.429   0.965 -0.3423 -0.1145 -0.1864
  302TMC3    O2 4557   0.164   1.477   1.382 -0.1776 -0.0167 -0.3228
  303MPD2     C 4558   3.574   1.576  10.553 -0.3697  0.8892 -0.0109
  303MPD2    C1 4559   3.458   1.505  10.569 -0.1831  1.7099 -0.4559
  303MPD2    C2 4560   3.377   1.460  10.460  0.1078 -0.0102  0.3432
  303MPD2    C3 4561   3.429   1.494  10.336 -0.1521 -0.4945 -0.9858
  303MPD2    C4 4562   3.539   1.572  10.323 -0.5081 -0.4810 -0.6585
  303MPD2    C5 4563   3.619   1.608  10.431 -0.0786  0.3131 -0.1173
  303MPD2     H 4564   3.283   1.406  10.463  0.3764 -0.5732 -1.3894
  303MPD2    H1 4565   3.571   1.606  10.225  1.2947 -1.1948 -0.3101
  303MPD2    H2 4566   3.633   1.606  10.639  2.4800  2.3167 -2.4773
  303MPD2    H3 4567   3.705   1.673  10.416 -0.4954  0.8711 -0.1013
  303MPD2     N 4568   3.380   1.427  10.218 -0.1547 -0.3290 -0.4348
  303MPD2    H5 4569   3.429   1.449  10.133 -1.1361 -0.1020 -0.9332
  303MPD2    N1 4570   3.436   1.464  10.700 -0.2047  0.1362 -0.0855
  303MPD2    H7 4571   3.512   1.470  10.767  0.8707 -1.5381 -1.1567
  304TMC3    C1 4572   3.345   1.306  10.864  0.0414 -0.5737  0.1562
  304TMC3    C2 4573   3.233   1.265  10.932  0.3671  0.6784  0.9271
  304TMC3    C3 4574   3.246   1.156  11.010 -0.5146 -0.4772 -0.1271
  304TMC3    C4 4575   3.470   1.253  10.880 -0.1037 -0.4265  0.1556
  304TMC3    C5 4576   3.483   1.148  10.970 -0.5202  0.2907  0.1788
  304TMC3    C6 4577   3.366   1.100  11.037  0.5587 -0.6459  0.3175
  304TMC3     C 4578   3.326   1.385  10.741  0.2224 -0.2407 -0.0724
  304TMC3     O 4579   3.207   1.385  10.696  0.5443 -0.0562  0.3511
  304TMC3     H 4580   3.134   1.293  10.897  1.4085  1.7308 -1.1549
  304TMC3    H1 4581   3.558   1.277  10.823  0.2579 -0.8220  0.5460
  304TMC3    H2 4582   3.378   1.020  11.108 -0.8744 -0.0404  1.2313
  304TMC3    C7 4583   3.557   1.027  10.927  0.3596  0.9039  0.0741
  304TMC3    C8 4584   3.156   1.053  10.973  0.2885  0.4902 -0.6234
  304TMC3    O1 4585   3.498   0.924  10.949 -0.1705 -0.8536  0.4723
  304TMC3    O2 4586   3.040   1.086  10.956 -0.2263  0.6841 -0.1530
  305MPD2     C 4587   2.583   3.990  14.491  0.2018  0.7202 -0.2048
  305MPD2    C1 4588   2.525   3.865  14.464 -0.2098  0.5416  0.8051
  305MPD2    C2 4589   2.484   3.832  14.333  0.5602 -1.6970  0.1504
  305MPD2    C3 4590   2.500   3.923  14.236 -0.4207  0.0860  0.1621
  305MPD2    C4 4591   2.559   4.045  14.264  0.3173 -0.7240  0.8446
  305MPD2    C5 4592   2.593   4.078  14.389 -0.1737 -0.3867 -0.2875
  305MPD2     H 4593   2.430   3.739  14.317 -2.9963  0.1965  1.1767
  305MPD2    H1 4594   2.585   4.121  14.191 -0.5236 -0.2052  1.0879
  305MPD2    H2 4595   2.613   4.022  14.590  2.8003 -0.0718 -0.7417
  305MPD2    H3 4596   2.651   4.167  14.413  3.7247 -3.4124  1.6138
  305MPD2     N 4597   2.478   3.908  14.098  0.8597 -0.1316  0.6061
  305MPD2    H5 4598   2.490   3.995  14.046 -0.7839  0.3778  1.0580
  305MPD2    N1 4599   2.511   3.788  14.577  0.2276  0.0312 -0.0444
  305MPD2    H7 4600   2.553   3.820  14.663  0.8133  1.2585 -0.7888
  306TMC3    C1 4601   2.467   3.620  14.719  0.0934  0.3268  0.1255
  306TMC3    C2 4602   2.561   3.520  14.727 -0.7788  0.1378  0.4928
  306TMC3    C3 4603   2.631   3.502  14.849 -0.3676  0.3572 -0.6009
  306TMC3    C4 4604   2.434   3.701  14.825 -0.4231 -0.1902 -0.0380
  306TMC3    C5 4605   2.506   3.679  14.941  0.7047  0.6196 -0.1587
  306TMC3    C6 4606   2.602   3.588  14.956  0.1732 -0.4975  0.1785
  306TMC3     C 4607   2.448   3.669  14.584  0.2061  0.3748 -0.8943
  306TMC3     O 4608   2.411   3.599  14.490 -0.0774  0.5586  0.1771
  306TMC3     H 4609   2.588   3.466  14.637  2.0085 -1.5540  2.3530
  306TMC3    H1 4610   2.375   3.792  14.816 -0.0882 -0.1709 -1.9151
  306TMC3    H2 4611   2.656   3.576  15.050 -1.7204 -1.0368  1.1938
  306TMC3    C7 4612   2.437   3.716  15.060  0.1173  0.4653  0.6065
  306TMC3    C8 4613   2.748   3.408  14.855  0.6872  0.3277 -0.8382
  306TMC3    O1 4614   2.318   3.739  15.049 -0.4167 -0.2988  0.6798
  306TMC3    O2 4615   2.802   3.378  14.752  0.2008  0.2777 -0.2539
  307MPD2     C 4616   0.376   0.167   0.805  0.3051  0.0054  0.6253
  307MPD2    C1 4617   0.286   0.251   0.753  0.0368  0.1169  0.5006
  307MPD2    C2 4618   0.154   0.240   0.790 -0.0843 -0.3338  0.0520
  307MPD2    C3 4619   0.118   0.133   0.875  0.3282  0.5940  0.5840
  307MPD2    C4 4620   0.211   0.043   0.923 -0.1367  0.3471 -0.5519
  307MPD2    C5 4621   0.343   0.056   0.879 -0.2355 -0.2575  0.1826
  307MPD2     H 4622   0.074   0.301   0.749 -0.2470 -0.3516  0.3441
  307MPD2    H1 4623   0.188   4.683   0.988 -2.3094 -1.6051 -3.8523
  307MPD2    H2 4624   0.482   0.176   0.781 -0.2549  2.3116 -0.9648
  307MPD2    H3 4625   0.426   4.717   0.908 -0.0619  0.3029  0.9094
  307MPD2     N 4626   4.703   0.120   0.902  0.2114  0.1561 -0.0334
  307MPD2    H5 4627   4.649   0.192   0.854  1.3871  2.0022  1.4417
  307MPD2    N1 4628   0.324   0.359   0.676 -0.0664  0.2681  0.0418
  307MPD2    H7 4629   0.247   0.421   0.655 -1.0278 -0.7267  0.6701
  308TMC3    C1 4630   4.314   0.119   0.883  0.1872  0.1078  0.1468
  308TMC3    C2 4631   4.285   0.220   0.973  0.4056 -0.4015  0.6760
  308TMC3    C3 4632   4.371   0.241   1.080 -0.4878 -0.1653  0.2670
  308TMC3    C4 4633   4.420   0.032   0.901 -0.3337 -0.8375 -0.0055
  308TMC3    C5 4634   4.511   0.053   0.997  0.1429 -0.1984  0.4446
  308TMC3    C6 4635   4.477   0.151   1.087  0.2643  0.7764  0.8663
  308TMC3     C 4636   4.229   0.099   0.770 -0.3000 -0.3435 -0.4630
  308TMC3     O 4637   4.251   0.002   0.700 -0.5880 -0.1413  0.3819
  308TMC3     H 4638   4.193   0.277   0.976  0.6763  0.0431  0.4910
  308TMC3    H1 4639   4.438   4.680   0.827  0.1790 -0.8740  0.1557
  308TMC3    H2 4640   4.558   0.181   1.153  0.9268 -0.2690  0.5312
  308TMC3    C7 4641   4.641   0.020   0.970  0.1824 -0.7510  0.3206
  308TMC3    C8 4642   4.382   0.369   1.144  0.2591 -0.1616 -0.0985
  308TMC3    O1 4643   4.684   4.648   1.030  0.3261  0.0087  0.8464
  308TMC3    O2 4644   4.438   0.374   1.253 -0.0442  0.0669  0.0930
  309MPD2     C 4645   4.151   1.566  17.436  0.0911  0.0980  0.1295
  309MPD2    C1 4646   4.070   1.609  17.329 -0.3547  0.4568 -0.4725
  309MPD2    C2 4647   3.937   1.580  17.336  0.0836  0.5466 -0.4075
  309MPD2    C3 4648   3.884   1.504  17.444 -0.3680 -0.1184 -0.1400
  309MPD2    C4 4649   3.963   1.464  17.554 -0.0153 -0.4745 -0.5078
  309MPD2    C5 4650   4.096   1.487  17.533  0.0295  0.2618 -0.9767
  309MPD2     H 4651   3.861   1.605  17.262 -0.0960 -1.1369 -0.7828
  309MPD2    H1 4652   3.923   1.399  17.630  1.8380 -0.7925  0.1895
  309MPD2    H2 4653   4.255   1.595  17.434  0.1112 -0.0100 -0.6747
  309MPD2    H3 4654   4.172   1.456  17.604 -1.6123 -1.3447  0.0799
  309MPD2     N 4655   3.743   1.491  17.462  0.7164  0.0939 -0.3999
  309MPD2    H5 4656   3.709   1.432  17.537  0.2371  0.2925 -0.4618
  309MPD2    N1 4657   4.115   1.681  17.213  0.5051  0.1582  0.5356
  309MPD2    H7 4658   4.057   1.683  17.131 -0.7856 -0.7209  1.4322
  310TMC3    C1 4659   4.275   1.736  17.047 -0.3687 -0.4085 -0.4348
  310TMC3    C2 4660   4.181   1.804  16.973 -0.1597  0.4915  0.2902
  310TMC3    C3 4661   4.213   1.815  16.842 -0.6681 -0.3005  0.3425
  310TMC3    C4 4662   4.400   1.696  16.996 -0.3827  0.3235  0.1327
  310TMC3    C5 4663   4.426   1.729  16.865 -0.2251  0.2294 -0.6015
  310TMC3    C6 4664   4.335   1.782  16.784 -0.0579 -0.9307  0.5319
  310TMC3     C 4665   4.251   1.693  17.184  0.2804 -0.3051  0.9195
  310TMC3     O 4666   4.350   1.661  17.251  0.8625 -0.2956  0.0669
  310TMC3     H 4667   4.083   1.832  17.008 -0.7416 -2.9925  1.4669
  310TMC3    H1 4668   4.467   1.635  17.055  0.5174  0.5847 -0.6190
  310TMC3    H2 4669   4.348   1.797  16.677  1.9745 -1.3436  0.7311
  310TMC3    C7 4670   4.529   1.650  16.798 -0.3977  0.3601  0.2796
  310TMC3    C8 4671   4.126   1.889  16.749 -0.5084  0.9337 -0.4869
  310TMC3    O1 4672   4.582   1.566  16.868  0.0040  0.0960 -0.1238
  310TMC3    O2 4673   4.166   1.928  16.643 -0.4450 -0.5155 -0.1335
  311MPD2     C 4674   1.167   3.320  12.881 -0.6356  0.0189 -0.0682
  311MPD2    C1 4675   1.126   3.416  12.963 -0.3102  0.2738 -0.5565
  311MPD2    C2 4676   0.993   3.443  12.966 -0.1125 -0.0336 -0.1744
  311MPD2    C3 4677   0.904   3.374  12.885  0.2361 -0.3831 -0.6103
  311MPD2    C4 4678   0.947   3.281  12.796 -0.4560  1.3346  0.2983
  311MPD2    C5 4679   1.079   3.243  12.805  0.3663 -0.1853  0.3978
  311MPD2     H 4680   0.935   3.508  13.031  0.1853 -0.1302  0.1810
  311MPD2    H1 4681   0.884   3.223  12.730  0.3499 -0.0888  0.7723
  311MPD2    H2 4682   1.270   3.284  12.881 -0.2888  1.0175 -1.2133
  311MPD2    H3 4683   1.111   3.155  12.751  0.5545  0.0840  0.0663
  311MPD2     N 4684   0.772   3.419  12.892  0.0759  0.3323  0.4490
  311MPD2    H5 4685   0.755   3.505  12.942  0.0397  0.9653 -0.6674
  311MPD2    N1 4686   1.210   3.504  13.033 -0.4235  0.3286  0.0106
  311MPD2    H7 4687   1.169   3.580  13.086 -1.8828  0.0485 -0.7209
  312TMC3    C1 4688   0.542   3.413  12.860 -0.2027 -0.5677  0.1020
  312TMC3    C2 4689   0.445   3.372  12.774 -0.4653 -0.3963 -0.1158
  312TMC3    C3 4690   0.315   3.417  12.796  0.5395  0.1636  0.0933
  312TMC3    C4 4691   0.513   3.488  12.968  0.6755 -0.1685  0.1285
  312TMC3    C5 4692   0.389   3.530  12.988  0.2036 -0.3133  0.3199
  312TMC3    C6 4693   0.291   3.510  12.894  0.7773 -0.5866  0.2721
  312TMC3     C 4694   0.666   3.349  12.848  0.0142 -0.3234 -0.3594
  312TMC3     O 4695   0.660   3.230  12.808  0.1028 -0.0482 -0.0797
  312TMC3     H 4696   0.461   3.306  12.689  2.1699 -0.5675  0.5199
  312TMC3    H1 4697   0.592   3.515  13.038  0.0389  2.7410 -0.2813
  312TMC3    H2 4698   0.193   3.526  12.939  0.0571 -0.0522 -1.4391
  312TMC3    C7 4699   0.350   3.613  13.103  0.4236 -0.4611  0.0657
  312TMC3    C8 4700   0.214   3.400  12.694 -0.4002  0.1927  0.2792
  312TMC3    O1 4701   0.266   3.697  13.091  0.3627 -0.0458 -0.4170
  312TMC3    O2 4702   0.226   3.311  12.611 -0.7793  0.7195 -0.2066
  313MPD2     C 4703   1.355   2.610  10.492  0.6921  0.3046 -0.3787
  313MPD2    C1 4704   1.276   2.662  10.397 -0.0890  0.1904  0.2431
  313MPD2    C2 4705   1.163   2.593  10.357 -0.8307 -0.5550  0.0490
  313MPD2    C3 4706   1.125   2.468  10.409 -0.8491 -0.0537  0.5848
  313MPD2    C4 4707   1.202   2.425  10.516 -0.8899 -0.6767  0.2866
  313MPD2    C5 4708   1.322   2.489  10.553  0.0195  0.1356  1.1111
  313MPD2     H 4709   1.106   2.634  10.274 -1.7277 -0.6542  0.6139
  313MPD2    H1 4710   1.185   2.329  10.562  1.9982 -0.2540  2.2462
  313MPD2    H2 4711   1.447   2.654  10.528 -0.1800  1.7709  0.0553
  313MPD2    H3 4712   1.397   2.446  10.618  0.3449 -1.5387 -0.3551
  313MPD2     N 4713   1.013   2.396  10.363  0.1829 -0.1677 -0.5465
  313MPD2    H5 4714   0.965   2.438  10.285  0.5920 -2.0939 -1.8311
  313MPD2    N1 4715   1.305   2.782  10.330  0.0525 -0.2919 -0.0881
  313MPD2    H7 4716   1.236   2.809  10.260 -2.0467  0.7955  2.3774
  314TMC3    C1 4717   1.390   2.993  10.279  0.2828 -0.1930  0.0084
  314TMC3    C2 4718   1.484   3.093  10.298  0.5767 -0.0178  0.6403
  314TMC3    C3 4719   1.459   3.222  10.284  0.2619  0.6383 -0.8500
  314TMC3    C4 4720   1.267   3.031  10.237 -0.5176 -0.4231  0.3442
  314TMC3    C5 4721   1.239   3.161  10.220  0.7168 -0.0772 -0.1944
  314TMC3    C6 4722   1.339   3.255  10.230 -0.2310 -0.6187  0.8323
  314TMC3     C 4723   1.410   2.865  10.353 -0.2099 -0.1867 -0.4177
  314TMC3     O 4724   1.501   2.854  10.433  0.0854  1.0949  0.1823
  314TMC3     H 4725   1.584   3.058  10.322  2.5405  3.4264 -2.5795
  314TMC3    H1 4726   1.199   2.959  10.193 -1.1838  0.5801 -0.2774
  314TMC3    H2 4727   1.315   3.361  10.225  0.4556 -0.4840  0.3621
  314TMC3    C7 4728   1.107   3.201  10.167 -1.4772  0.1413 -0.6990
  314TMC3    C8 4729   1.521   3.318  10.370 -0.5269  0.6578 -0.1901
  314TMC3    O1 4730   1.089   3.315  10.125 -0.3226 -0.3513  0.4377
  314TMC3    O2 4731   1.458   3.421  10.376 -0.9524 -0.2482  0.0888
  315MPD2     C 4732   0.283   1.736   1.013 -1.0960  1.0931 -0.4477
  315MPD2    C1 4733   0.377   1.711   0.914 -0.2652  0.0972 -0.3081
  315MPD2    C2 4734   0.479   1.801   0.893  0.3613  0.7341 -0.2091
  315MPD2    C3 4735   0.494   1.914   0.974  0.1096 -0.6428  0.0419
  315MPD2    C4 4736   0.399   1.939   1.080 -0.1036  0.5798 -0.6880
  315MPD2    C5 4737   0.298   1.844   1.099 -0.2312  0.2012 -0.4376
  315MPD2     H 4738   0.548   1.784   0.811 -0.5136 -2.1176 -0.3293
  315MPD2    H1 4739   0.403   2.018   1.154  0.6697 -1.0879  1.0414
  315MPD2    H2 4740   0.208   1.661   1.035  0.0173  0.1971  0.2739
  315MPD2    H3 4741   0.225   1.864   1.177  0.3494 -0.2622  0.2196
  315MPD2     N 4742   0.601   2.008   0.941  0.1959  0.3579 -0.3505
  315MPD2    H5 4743   0.670   1.984   0.870  1.5604  1.3507  0.6313
  315MPD2    N1 4744   0.380   1.598   0.832 -0.6041  0.6256  0.9243
  315MPD2    H7 4745   0.461   1.598   0.770  0.6154  1.0630  2.4997
  316TMC3    C1 4746   0.761   2.182   0.975 -0.5674  0.3144  0.2482
  316TMC3    C2 4747   0.849   2.199   1.078  0.0820  0.0687 -0.3106
  316TMC3    C3 4748   0.981   2.190   1.060 -0.1078 -0.2790  0.9676
  316TMC3    C4 4749   0.798   2.149   0.848 -0.2900 -0.6406 -0.3337
  316TMC3    C5 4750   0.934   2.142   0.835 -0.3789 -0.4510  0.2349
  316TMC3    C6 4751   1.022   2.156   0.937  0.1072  0.1399 -0.2493
  316TMC3     C 4752   0.631   2.126   1.017  0.1681 -0.7517 -0.0804
  316TMC3     O 4753   0.584   2.160   1.129 -0.1509  0.1023 -0.0651
  316TMC3     H 4754   0.819   2.217   1.180 -1.4079  1.0699 -0.9203
  316TMC3    H1 4755   0.720   2.125   0.777 -0.5924 -2.2789  0.5576
  316TMC3    H2 4756   1.125   2.126   0.920 -0.0141  0.4997 -1.6368
  316TMC3    C7 4757   0.990   2.112   0.704 -0.0716  0.0493  0.1986
  316TMC3    C8 4758   1.052   2.140   1.175  0.3508 -0.1389 -0.5537
  316TMC3    O1 4759   1.101   2.056   0.712 -0.2367 -0.1088 -0.2276
  316TMC3    O2 4760   1.085   2.217   1.264 -0.0934 -0.4498 -0.3050
  317MPD2     C 4761   1.940   0.464  13.196 -0.3062 -0.3133 -0.2131
  317MPD2    C1 4762   2.025   0.367  13.160  0.0285  0.9597 -0.0401
  317MPD2    C2 4763   2.124   0.331  13.253  0.2344  0.1698  0.6667
  317MPD2    C3 4764   2.148   0.400  13.372 -0.0180 -0.9005  0.5761
  317MPD2    C4 4765   2.051   0.489  13.410 -0.3260 -0.6339 -0.0182
  317MPD2    C5 4766   1.950   0.519  13.319  0.6983 -0.1898  0.3162
  317MPD2     H 4767   2.204   0.265  13.221  0.7934  1.5854 -0.8748
  317MPD2    H1 4768   2.042   0.554  13.496 -1.2815 -1.3037  0.3846
  317MPD2    H2 4769   1.849   0.478  13.138 -1.2025 -2.0596  0.7949
  317MPD2    H3 4770   1.884   0.604  13.334 -1.0009 -1.2481 -1.0405
  317MPD2     N 4771   2.258   0.367  13.451 -0.4204 -0.0473  0.2079
  317MPD2    H5 4772   2.327   0.303  13.414  0.1582  1.8885 -2.0634
  317MPD2    N1 4773   2.032   0.301  13.042  0.4247  0.1422  0.5038
  317MPD2    H7 4774   2.098   0.225  13.031 -0.0943 -0.1927 -0.2908
  318TMC3    C1 4775   2.403   0.335  13.632  0.3048 -0.4961  0.0013
  318TMC3    C2 4776   2.401   0.280  13.758  0.0976 -0.7299  0.0711
  318TMC3    C3 4777   2.499   0.188  13.791 -0.2370 -0.0290 -0.8188
  318TMC3    C4 4778   2.508   0.323  13.540 -0.1455 -0.2027 -0.2629
  318TMC3    C5 4779   2.615   0.246  13.590 -0.2454  0.1703  0.2514
  318TMC3    C6 4780   2.606   0.166  13.702  0.1492 -0.3700 -0.2121
  318TMC3     C 4781   2.290   0.415  13.576  0.3747  0.2983 -0.1710
  318TMC3     O 4782   2.221   0.476  13.659 -0.0215  0.5495 -0.3518
  318TMC3     H 4783   2.307   0.282  13.812  0.3313 -0.6460  0.4690
  318TMC3    H1 4784   2.511   0.396  13.460  1.6318  1.4307  1.2858
  318TMC3    H2 4785   2.667   0.079  13.718  2.5078  1.2551 -0.3735
  318TMC3    C7 4786   2.723   0.234  13.497  1.2638 -0.1913  0.1683
  318TMC3    C8 4787   2.446   0.061  13.848 -0.0086 -0.7304 -0.2302
  318TMC3    O1 4788   2.704   0.254  13.378  0.3815 -0.5439  0.0323
  318TMC3    O2 4789   2.521   4.714  13.912 -0.1836 -0.3315 -0.0066
  319MPD2     C 4790   4.138   1.527  16.639  0.0548  1.0598 -0.1348
  319MPD2    C1 4791   4.041   1.499  16.734 -0.1461 -0.5703 -0.3969
  319MPD2    C2 4792   3.912   1.514  16.701 -0.0504  0.5155  0.4590
  319MPD2    C3 4793   3.876   1.573  16.583  0.5144  0.0215 -0.5853
  319MPD2    C4 4794   3.973   1.593  16.488 -0.8630 -0.2706 -0.5066
  319MPD2    C5 4795   4.100   1.580  16.521  0.3708  0.5629  0.2417
  319MPD2     H 4796   3.839   1.471  16.769 -1.2726  2.4625  0.3988
  319MPD2    H1 4797   3.954   1.644  16.394  0.4025 -0.1602 -0.7083
  319MPD2    H2 4798   4.241   1.532  16.673 -0.3077 -2.0547  1.4559
  319MPD2    H3 4799   4.176   1.615  16.451 -2.0714  1.2069 -2.0946
  319MPD2     N 4800   3.745   1.602  16.539  0.8686 -0.4862 -0.0966
  319MPD2    H5 4801   3.744   1.649  16.449  1.2482  1.0554  0.7036
  319MPD2    N1 4802   4.072   1.437  16.864 -0.0239  0.4911  0.4407
  319MPD2    H7 4803   3.993   1.411  16.921 -0.1390 -0.3081 -0.0776
  320TMC3    C1 4804   3.510   1.569  16.531  0.3662 -0.0189  0.5002
  320TMC3    C2 4805   3.499   1.622  16.401 -0.4757  0.3031  0.0800
  320TMC3    C3 4806   3.375   1.650  16.360 -0.4678  0.1917 -0.4437
  320TMC3    C4 4807   3.393   1.555  16.611  0.0467  0.2089 -0.2901
  320TMC3    C5 4808   3.276   1.602  16.561 -0.0502 -0.1112 -0.1236
  320TMC3    C6 4809   3.258   1.643  16.433  0.5696  0.5211 -0.0910
  320TMC3     C 4810   3.634   1.556  16.607  0.0146  0.3076 -0.5495
  320TMC3     O 4811   3.631   1.512  16.723  0.2625 -0.3568  0.4526
  320TMC3     H 4812   3.586   1.645  16.339  0.1546  0.9412  1.2006
  320TMC3    H1 4813   3.389   1.507  16.707  3.6954  2.0695  0.7924
  320TMC3    H2 4814   3.163   1.684  16.401  0.7963 -0.8462 -2.5034
  320TMC3    C7 4815   3.156   1.587  16.638  0.1596 -0.7275  0.5783
  320TMC3    C8 4816   3.360   1.740  16.245 -0.8876 -0.9968 -0.1863
  320TMC3    O1 4817   3.145   1.479  16.697  0.0557  0.3881 -0.2322
  320TMC3    O2 4818   3.336   1.857  16.274 -0.4749  0.4864 -0.0278
  321TMC3    C1 4819   4.181   1.316  17.026 -0.2281  0.3452 -0.2232
  321TMC3    C2 4820   4.295   1.313  17.097 -0.8756  0.1299 -0.4914
  321TMC3    C3 4821   4.293   1.283  17.229  0.0518  1.5869 -0.0085
  321TMC3    C4 4822   4.060   1.301  17.085  0.2885  0.5585  0.1111
  321TMC3    C5 4823   4.062   1.263  17.216 -0.3943  1.3766 -0.0376
  321TMC3    C6 4824   4.173   1.272  17.295  0.5074  0.6229  0.4234
  321TMC3     C 4825   4.191   1.380  16.895  0.0146 -0.0332  0.2933
  321TMC3     O 4826   4.302   1.375  16.843 -0.2183 -0.6486  0.5981
  321TMC3     H 4827   4.394   1.307  17.053 -0.0286  0.0734  1.4176
  321TMC3    H1 4828   3.967   1.286  17.032  0.6455 -2.2750  0.2787
  321TMC3    H2 4829   4.164   1.259  17.402 -2.6531 -2.7224 -0.2291
  321TMC3    C7 4830   3.979   1.155  17.253 -0.6296  0.6130 -0.0731
  321TMC3    C8 4831   4.394   1.199  17.288 -0.8648 -0.3240  0.3400
  321TMC3    O1 4832   3.870   1.148  17.204 -0.2021  0.2150  0.3382
  321TMC3    O2 4833   4.346   1.131  17.376 -0.2327 -0.4624  0.0861
  322MPD2     C 4834   2.187   2.951  14.012  0.4322 -0.0723  0.4202
  322MPD2    C1 4835   2.267   2.912  14.122 -0.3247  0.3287  0.2023
  322MPD2    C2 4836   2.281   2.776  14.150  0.2936  0.5595 -0.2859
  322MPD2    C3 4837   2.215   2.681  14.071  0.3624 -0.5740  0.0745
  322MPD2    C4 4838   2.140   2.727  13.963  0.3673  0.3551 -0.6479
  322MPD2    C5 4839   2.128   2.859  13.935 -0.0858  0.4489  0.6697
  322MPD2     H 4840   2.335   2.745  14.238  2.0850 -0.3827 -1.7201
  322MPD2    H1 4841   2.094   2.657  13.894 -1.2008  0.7627 -0.0168
  322MPD2    H2 4842   2.161   3.054  13.993  2.6586  0.1590 -1.3235
  322MPD2    H3 4843   2.072   2.891  13.847  0.4351 -2.4897 -0.7260
  322MPD2     N 4844   2.216   2.549  14.112 -0.9423  0.3381  0.5072
  322MPD2    H5 4845   2.266   2.534  14.199 -0.7522 -0.4742  0.2545
  322MPD2    N1 4846   2.310   3.015  14.204  0.2144 -0.0842  0.8122
  322MPD2    H7 4847   2.293   3.113  14.186  0.8867 -0.5832 -2.5282
  323TMC3    C1 4848   2.402   3.123  14.386  0.0086 -0.5639 -0.2479
  323TMC3    C2 4849   2.488   3.191  14.313 -0.0094 -0.3761  0.3326
  323TMC3    C3 4850   2.591   3.256  14.378 -0.2424 -0.3247 -0.5793
  323TMC3    C4 4851   2.414   3.114  14.525 -0.2434 -0.2984 -0.1071
  323TMC3    C5 4852   2.533   3.163  14.581  1.2580  0.0018 -0.6860
  323TMC3    C6 4853   2.622   3.238  14.512 -0.6017 -0.5901  0.7917
  323TMC3     C 4854   2.362   2.998  14.332 -0.0330  0.4136  0.1909
  323TMC3     O 4855   2.396   2.900  14.399  0.5986 -0.0741  0.0337
  323TMC3     H 4856   2.493   3.178  14.205  0.5936  0.4928  0.2591
  323TMC3    H1 4857   2.339   3.056  14.577 -1.2647 -1.7904 -3.2418
  323TMC3    H2 4858   2.701   3.299  14.555  0.3112 -0.3139 -1.2495
  323TMC3    C7 4859   2.592   3.075  14.677 -0.3694 -1.0530 -0.0646
  323TMC3    C8 4860   2.696   3.311  14.297  0.7569  0.0853 -0.9773
  323TMC3    O1 4861   2.521   3.021  14.762 -0.0581 -0.0537 -0.9033
  323TMC3    O2 4862   2.813   3.299  14.337  0.5975  0.5752 -0.1859
  324MPD2     C 4863   3.689   4.450  14.659  0.3410  0.3507  0.0577
  324MPD2    C1 4864   3.730   4.537  14.565  0.2770  0.4375 -0.9767
  324MPD2    C2 4865   3.638   4.592  14.470 -0.4476 -0.2850  0.4306
  324MPD2    C3 4866   3.515   4.534  14.455  0.4391 -0.5177  0.1868
  324MPD2    C4 4867   3.485   4.438  14.546  0.1674 -0.6424 -0.0182
  324MPD2    C5 4868   3.568   4.399  14.644 -0.3112  0.0077 -0.4936
  324MPD2     H 4869   3.695   4.654  14.402  2.1565 -1.6293  1.3633
  324MPD2    H1 4870   3.394   4.379  14.543 -1.9495  2.6639 -0.7567
  324MPD2    H2 4871   3.751   4.407  14.737 -0.3848  0.4808  0.7053
  324MPD2    H3 4872   3.518   4.339  14.720 -3.1808  1.6967 -1.0323
  324MPD2     N 4873   3.426   4.555  14.348 -0.0339  0.1670 -0.4313
  324MPD2    H5 4874   3.342   4.499  14.361  1.3000 -2.1327 -1.6494
  324MPD2    N1 4875   3.864   4.571  14.561 -0.2057  0.7546  0.3857
  324MPD2    H7 4876   3.900   4.656  14.518 -0.5360  1.0194  0.6309
  325TMC3    C1 4877   3.313   4.635  14.170 -0.6155  0.3652 -0.7537
  325TMC3    C2 4878   3.259   4.508  14.173  0.0508  0.3877  0.6535
  325TMC3    C3 4879   3.128   4.499  14.185  0.3550  0.1184  0.4377
  325TMC3    C4 4880   3.233   0.016  14.202 -0.4466 -0.4985  0.2306
  325TMC3    C5 4881   3.100   4.719  14.224  0.0880 -0.0629  0.3068
  325TMC3    C6 4882   3.041   4.598  14.223 -0.2342  0.3311 -0.2081
  325TMC3     C 4883   3.426   4.652  14.249  0.6029  0.2266 -0.1751
  325TMC3     O 4884   3.505   0.018  14.219  0.0605  0.8087 -1.1725
  325TMC3     H 4885   3.324   4.425  14.149  3.1426  3.1629 -0.5827
  325TMC3    H1 4886   3.278   0.115  14.208  0.5994 -0.9527 -0.2104
  325TMC3    H2 4887   2.936   4.582  14.245 -0.1202  1.9387  1.5311
  325TMC3    C7 4888   3.005   0.106  14.257  0.5637  1.3191  0.4093
  325TMC3    C8 4889   3.087   4.361  14.216 -0.0568 -0.1870  0.3443
  325TMC3    O1 4890   2.895   0.091  14.203  0.0461  0.2356  0.1105
  325TMC3    O2 4891   3.125   4.268  14.147  0.0151  0.5384  0.1793
  326MPD2     C 4892   0.071   0.306  11.102  0.6536  0.6671  0.3265
  326MPD2    C1 4893   0.036   0.356  10.972 -0.0344 -0.2865 -0.4004
  326MPD2    C2 4894   0.110   0.464  10.927 -0.0894  0.2406  0.4500
  326MPD2    C3 4895   0.214   0.519  10.994  0.0260  0.3435 -0.1153
  326MPD2    C4 4896   0.234   0.484  11.126  0.3193 -0.2527  0.7076
  326MPD2    C5 4897   0.165   0.382  11.175  0.4032  0.1930 -0.4023
  326MPD2     H 4898   0.095   0.496  10.824  2.6406  0.0485 -0.0123
  326MPD2    H1 4899   0.321   0.524  11.177  0.9222 -1.0011  0.2718
  326MPD2    H2 4900   0.018   0.228  11.156  1.2325  0.3645  0.4488
  326MPD2    H3 4901   0.193   0.352  11.275 -1.6486  0.6356  0.3180
  326MPD2     N 4902   0.297   0.624  10.950  0.3014  0.1683 -0.1906
  326MPD2    H5 4903   0.368   0.658  11.015 -1.6043  0.1804  1.8856
  326MPD2    N1 4904   4.680   0.290  10.876  0.6325  0.2053  0.4302
  326MPD2    H7 4905   4.679   0.334  10.784  0.1397 -1.9527 -0.5828
  327TMC3    C1 4906   4.559   0.133  10.776 -0.4784  1.0259  0.3153
  327TMC3    C2 4907   4.468   0.211  10.714 -0.1876 -0.5713  0.2108
  327TMC3    C3 4908   4.483   0.238  10.582  0.0699 -0.2129  0.1980
  327TMC3    C4 4909   4.661   0.085  10.703 -0.2799  0.1472 -0.5478
  327TMC3    C5 4910   4.676   0.116  10.570 -0.6814 -0.0266  0.6532
  327TMC3    C6 4911   4.585   0.190  10.505 -0.4564 -0.0371  0.6111
  327TMC3     C 4912   4.597   0.189  10.900 -0.3072 -0.1081  0.0346
  327TMC3     O 4913   4.593   0.116  10.994  0.2167 -0.9066 -0.3076
  327TMC3     H 4914   4.403   0.270  10.777 -1.1285 -0.9875 -0.3867
  327TMC3    H1 4915   0.013   0.028  10.756 -0.0306  0.1236 -0.9304
  327TMC3    H2 4916   4.575   0.199  10.397  0.9000 -1.7783  0.3439
  327TMC3    C7 4917   0.086   0.134  10.527 -0.0707  0.2978 -0.1198
  327TMC3    C8 4918   4.390   0.343  10.531 -0.2414 -0.0195  0.4794
  327TMC3    O1 4919   0.092   0.173  10.411  0.7479  0.5911 -0.5357
  327TMC3    O2 4920   4.269   0.328  10.553 -0.0401 -0.5857 -0.7996
  328MPD2     C 4921   2.484   4.566  17.374 -0.0938  0.3367  0.0687
  328MPD2    C1 4922   2.434   4.443  17.416 -0.2258  0.1809  0.2183
  328MPD2    C2 4923   2.314   4.398  17.363 -0.0887  1.0990  0.0195
  328MPD2    C3 4924   2.238   4.482  17.284  0.4412 -0.2810  0.3425
  328MPD2    C4 4925   2.279   4.609  17.266  0.3984 -0.5887 -0.4874
  328MPD2    C5 4926   2.404   4.653  17.305 -0.5913 -0.2776 -0.4876
  328MPD2     H 4927   2.277   4.298  17.382  1.6260  1.1547  3.6684
  328MPD2    H1 4928   2.218   4.661  17.192  0.3081 -0.2632 -0.1847
  328MPD2    H2 4929   2.576   4.609  17.413  0.1314  0.6839 -0.8496
  328MPD2    H3 4930   2.443   0.028  17.288  0.3013 -0.3223  1.3705
  328MPD2     N 4931   2.109   4.452  17.226 -0.2052  0.3354 -0.5603
  328MPD2    H5 4932   2.063   4.528  17.177 -1.5660 -1.3959 -1.9753
  328MPD2    N1 4933   2.508   4.378  17.517  0.1355 -0.5550  0.2258
  328MPD2    H7 4934   2.579   4.430  17.568 -2.1399  0.0606  2.8240
  329TMC3    C1 4935   2.577   4.210  17.659  0.5292 -0.0661  0.2511
  329TMC3    C2 4936   2.609   4.305   0.051  0.3142  0.1675  0.1130
  329TMC3    C3 4937   2.710   4.276   0.138 -0.3556  0.2192  0.1029
  329TMC3    C4 4938   2.657   4.097  17.641 -0.2538  0.8050  0.0207
  329TMC3    C5 4939   2.760   4.076   0.030 -0.4233 -0.3271 -0.3234
  329TMC3    C6 4940   2.786   4.166   0.130  0.0009  0.0999  0.4589
  329TMC3     C 4941   2.497   4.245  17.544 -0.4354 -0.1420 -0.3342
  329TMC3     O 4942   2.442   4.162  17.476  0.3084 -0.8025 -0.0214
  329TMC3     H 4943   2.557   4.400   0.054  0.2391  0.1621 -0.9501
  329TMC3    H1 4944   2.637   4.032  17.557 -1.3479 -1.6234  2.1700
  329TMC3    H2 4945   2.861   4.150   0.206  1.0833 -1.1210 -0.8646
  329TMC3    C7 4946   2.793   3.944   0.065  0.0993 -0.0128  0.5347
  329TMC3    C8 4947   2.749   4.375   0.238 -0.6229  0.0424 -0.1739
  329TMC3    O1 4948   2.884   3.926   0.143  0.0609  0.0104 -0.4525
  329TMC3    O2 4949   2.870   4.373   0.266 -0.1537  0.1066  0.1920
  330TMC3    C1 4950   0.767   3.600  10.032  0.5245 -0.2486  0.1520
  330TMC3    C2 4951   0.659   3.606   9.940 -0.2289 -0.9415  0.6509
  330TMC3    C3 4952   0.554   3.531   9.964  0.0584  0.2366  0.7149
  330TMC3    C4 4953   0.762   3.527  10.146  0.0130 -0.1661  0.5453
  330TMC3    C5 4954   0.641   3.471  10.171 -0.5841 -0.4121  0.2235
  330TMC3    C6 4955   0.536   3.457  10.081 -0.0011  0.2845  0.2535
  330TMC3     C 4956   0.853   3.716  10.046 -0.2087 -0.0268  0.3932
  330TMC3     O 4957   0.900   3.739  10.155 -0.5700 -0.4042  0.1841
  330TMC3     H 4958   0.654   3.682   9.863  1.5528  1.0922  2.5584
  330TMC3    H1 4959   0.851   3.516  10.207 -0.2946 -0.5610  0.9201
  330TMC3    H2 4960   0.448   3.396  10.102 -1.0285  1.7205  0.1120
  330TMC3    C7 4961   0.620   3.381  10.293  0.7499 -0.2636 -1.3239
  330TMC3    C8 4962   0.446   3.541   9.865 -0.3680 -0.8843 -0.6803
  330TMC3    O1 4963   0.514   3.320  10.300  0.5871 -0.3626  0.5728
  330TMC3    O2 4964   0.473   3.566   9.749 -0.6797  0.2114 -0.0451
  331MPD2     C 4965   2.796   3.519  12.496  0.3540  0.7453 -0.2200
  331MPD2    C1 4966   2.924   3.560  12.449 -0.5271 -0.1447  0.3068
  331MPD2    C2 4967   2.992   3.465  12.373 -0.4733  0.0671  0.0971
  331MPD2    C3 4968   2.943   3.335  12.364  0.3130  0.0105  0.1177
  331MPD2    C4 4969   2.817   3.295  12.416 -0.2049 -0.5216  0.5325
  331MPD2    C5 4970   2.741   3.394  12.477  0.7488 -0.5372 -0.1257
  331MPD2     H 4971   3.087   3.488  12.326  0.3268  0.9548  2.1308
  331MPD2    H1 4972   2.785   3.192  12.410 -0.9175 -0.2408 -0.6147
  331MPD2    H2 4973   2.729   3.579  12.556 -1.5174 -1.1854 -0.3888
  331MPD2    H3 4974   2.642   3.370  12.512  1.4182 -3.2510 -0.0840
  331MPD2     N 4975   3.022   3.246  12.290 -0.1388 -0.3006  0.7411
  331MPD2    H5 4976   3.104   3.288  12.248 -0.3455  0.2012  0.8441
  331MPD2    N1 4977   2.971   3.692  12.462  0.5891 -0.2837  0.5193
  331MPD2    H7 4978   2.898   3.757  12.489  2.2301  1.0055  1.8233
  332TMC3    C1 4979   3.114   3.055  12.207  0.2018 -0.8026 -0.3503
  332TMC3    C2 4980   3.156   3.122  12.096 -0.0397 -0.3982 -0.3589
  332TMC3    C3 4981   3.271   3.081  12.031 -0.8916 -0.0207 -0.1791
  332TMC3    C4 4982   3.174   2.947  12.261  0.3358 -0.2597  0.0704
  332TMC3    C5 4983   3.292   2.910  12.200 -0.0563 -0.2734  0.9852
  332TMC3    C6 4984   3.334   2.972  12.078 -0.3658 -0.2302  0.2633
  332TMC3     C 4985   3.010   3.110  12.288 -0.1061 -0.2364 -0.4418
  332TMC3     O 4986   2.949   3.032  12.361  0.1913 -0.0401 -0.0151
  332TMC3     H 4987   3.101   3.207  12.057 -0.0633 -0.2184  0.0681
  332TMC3    H1 4988   3.149   2.905  12.359 -3.8911  0.3476 -0.7189
  332TMC3    H2 4989   3.427   2.941  12.032 -0.2386  0.5962 -0.0370
  332TMC3    C7 4990   3.385   2.826  12.276 -0.6512 -0.0337  0.2858
  332TMC3    C8 4991   3.325   3.157  11.915  0.4326  0.2462  0.5048
  332TMC3    O1 4992   3.328   2.742  12.344  0.4722 -0.0917  0.9463
  332TMC3    O2 4993   3.447   3.139  11.900  0.1983 -0.0371 -0.5919
  333MPD2     C 4994   3.303   3.547  11.044 -0.3597 -0.4128 -0.7135
  333MPD2    C1 4995   3.393   3.448  11.066 -0.2580 -0.0758 -0.3890
  333MPD2    C2 4996   3.356   3.345  11.156 -0.5275 -0.0436  0.2539
  333MPD2    C3 4997   3.240   3.349  11.233 -0.1141 -0.2429 -0.7431
  333MPD2    C4 4998   3.166   3.466  11.225 -0.3548 -0.5131  0.1280
  333MPD2    C5 4999   3.194   3.561  11.131 -0.6279 -0.1154  0.0460
  333MPD2     H 5000   3.428   3.264  11.162 -0.1918  0.1858 -0.5948
  333MPD2    H1 5001   3.080   3.481  11.289  1.1861  1.1447  1.8068
  333MPD2    H2 5002   3.307   3.627  10.970  1.1145  0.2914  0.1400
  333MPD2    H3 5003   3.120   3.637  11.104  0.0590  0.7471  0.5741
  333MPD2     N 5004   3.210   3.239  11.320  0.6880  0.3044 -0.7854
  333MPD2    H5 5005   3.277   3.163  11.312 -0.8421 -1.0141 -0.8966
  333MPD2    N1 5006   3.508   3.450  10.984  0.0801 -0.3819  0.1677
  333MPD2    H7 5007   3.521   3.533  10.927 -0.4375  0.3696  1.1170
  334TMC3    C1 5008   3.723   3.401  10.902 -0.2387 -0.5737  0.1708
  334TMC3    C2 5009   3.832   3.322  10.928  0.7978  1.0144 -0.7792
  334TMC3    C3 5010   3.957   3.385  10.929 -0.2174 -0.0205 -0.1261
  334TMC3    C4 5011   3.733   3.531  10.853  0.6210 -1.1026  0.5130
  334TMC3    C5 5012   3.860   3.584  10.851  0.1114 -0.3934  0.1146
  334TMC3    C6 5013   3.969   3.518  10.895 -0.6466  0.3827 -0.7674
  334TMC3     C 5014   3.600   3.356  10.962  0.2010  0.2008  1.0085
  334TMC3     O 5015   3.598   3.242  11.010  0.1311  0.2151 -0.2182
  334TMC3     H 5016   3.818   3.221  10.966  0.1807  1.7676  0.9694
  334TMC3    H1 5017   3.647   3.594  10.830  1.0056 -0.6749  0.2338
  334TMC3    H2 5018   4.067   3.564  10.885 -1.1333  1.2265 -1.6588
  334TMC3    C7 5019   3.874   3.730  10.850 -0.4803  0.4732 -0.6077
  334TMC3    C8 5020   4.077   3.296  10.927 -0.3204 -0.2161 -0.7227
  334TMC3    O1 5021   3.956   3.773  10.930 -0.3195  0.0355 -0.3856
  334TMC3    O2 5022   4.059   3.177  10.906 -0.4638 -0.7037 -0.8017
  335TMC3    C1 5023   2.986   4.689  17.318 -0.2526 -0.6722 -0.5536
  335TMC3    C2 5024   2.897   4.597  17.350  0.7124 -0.3920 -0.5832
  335TMC3    C3 5025   2.951   4.471  17.363 -0.6122  0.0341  0.1617
  335TMC3    C4 5026   3.123   4.667  17.295 -0.3050  0.0006  0.1189
  335TMC3    C5 5027   3.169   4.540  17.315 -0.1074 -0.3932  0.2839
  335TMC3    C6 5028   3.084   4.436  17.352  0.7141 -0.4942  0.4532
  335TMC3     C 5029   2.931   0.092  17.287 -0.2460  0.3896  0.1100
  335TMC3     O 5030   2.813   0.108  17.304 -0.3804 -0.1642  0.2164
  335TMC3     H 5031   2.793   4.616  17.376  0.6267 -0.4795 -0.8609
  335TMC3    H1 5032   3.200   0.016  17.270  0.9726 -1.1511  0.6735
  335TMC3    H2 5033   3.111   4.332  17.365 -1.2915 -0.7698  2.1962
  335TMC3    C7 5034   3.315   4.515  17.299 -0.2229 -0.1427 -0.1907
  335TMC3    C8 5035   2.854   4.369  17.358  0.3938 -0.4086 -0.7653
  335TMC3    O1 5036   3.382   4.598  17.237  0.6315 -0.1593  0.3187
  335TMC3    O2 5037   2.753   4.396  17.301 -0.3836  0.5407 -0.1238
  336MPD2     C 5038   3.206   3.037  16.607  0.1261 -0.1791  0.3641
  336MPD2    C1 5039   3.160   3.008  16.483  0.6583  0.0628  0.4108
  336MPD2    C2 5040   3.161   2.879  16.425  0.1298  0.6384 -0.1221
  336MPD2    C3 5041   3.221   2.778  16.491  0.7717 -0.5487 -0.1397
  336MPD2    C4 5042   3.260   2.800  16.620 -0.6878  0.2321  0.3446
  336MPD2    C5 5043   3.250   2.923  16.680  0.0034 -0.0176  0.2043
  336MPD2     H 5044   3.124   2.877  16.323 -0.2706 -3.4357  0.1102
  336MPD2    H1 5045   3.317   2.726  16.674 -0.0997 -0.1131 -0.7701
  336MPD2    H2 5046   3.209   3.130  16.663  2.8488  1.2765 -2.2188
  336MPD2    H3 5047   3.293   2.932  16.779 -0.0249  0.6468  0.1602
  336MPD2     N 5048   3.219   2.649  16.433  0.3578  0.2203 -0.4527
  336MPD2    H5 5049   3.216   2.639  16.332  0.4800 -4.1053 -0.0271
  336MPD2    N1 5050   3.081   3.102  16.412 -0.1349  0.9649 -0.6713
  336MPD2    H7 5051   3.024   3.063  16.338 -0.2716  0.3123 -0.2151
  337TMC3    C1 5052   2.961   3.295  16.346 -0.6573 -0.7087  0.2099
  337TMC3    C2 5053   2.877   3.212  16.271  0.4280  0.2289 -0.7608
  337TMC3    C3 5054   2.813   3.273  16.166  0.2382  0.0745 -0.0651
  337TMC3    C4 5055   2.966   3.431  16.322 -0.7362 -0.0333 -0.3023
  337TMC3    C5 5056   2.893   3.481  16.220  0.2059  0.0659 -0.6931
  337TMC3    C6 5057   2.811   3.405  16.142  0.2199  0.8663 -0.0534
  337TMC3     C 5058   3.060   3.239  16.438  0.4449 -0.5960 -0.3886
  337TMC3     O 5059   3.105   3.305  16.531  0.1598  0.3681 -0.2564
  337TMC3     H 5060   2.879   3.104  16.284 -1.1813  0.4460  1.1889
  337TMC3    H1 5061   3.029   3.495  16.383 -1.8592  1.7013 -0.9808
  337TMC3    H2 5062   2.745   3.452  16.071  0.8083  0.8663 -0.5953
  337TMC3    C7 5063   2.907   3.620  16.170  0.2999  0.0888  0.3560
  337TMC3    C8 5064   2.712   3.197  16.102 -0.0481  0.2192 -0.1999
  337TMC3    O1 5065   2.802   3.670  16.127  0.0002  0.0748 -0.1802
  337TMC3    O2 5066   2.657   3.113  16.170  0.1627 -0.1849 -0.2555
  338MPD2     C 5067   3.558   0.894   0.981 -0.3182 -0.1746  0.6940
  338MPD2    C1 5068   3.486   0.912   0.862  0.3591 -0.4993 -0.1799
  338MPD2    C2 5069   3.346   0.915   0.878  0.0517 -0.1818 -0.1142
  338MPD2    C3 5070   3.282   0.917   1.007 -0.7980 -0.4944  0.4276
  338MPD2    C4 5071   3.366   0.899   1.119  0.3571 -0.4022 -0.2720
  338MPD2    C5 5072   3.499   0.898   1.103 -0.5028 -0.5631  0.2989
  338MPD2     H 5073   3.282   0.923   0.791 -2.2005 -1.7834  1.3935
  338MPD2    H1 5074   3.331   0.894   1.222 -0.8784 -0.5031 -0.6886
  338MPD2    H2 5075   3.665   0.883   0.988 -0.3248 -0.0928  0.9431
  338MPD2    H3 5076   3.553   0.884   1.196  0.8534 -2.6960 -0.8009
  338MPD2     N 5077   3.143   0.925   1.021  0.5455  0.0444  0.3094
  338MPD2    H5 5078   3.098   0.922   0.931  3.0836 -1.3066 -0.9349
  338MPD2    N1 5079   3.545   0.906   0.736  0.0264 -0.2003  0.4408
  338MPD2    H7 5080   3.475   0.897   0.663  0.3418  0.5824  0.0384
  339TMC3    C1 5081   2.945   0.972   1.138  0.4286 -0.3092 -0.2878
  339TMC3    C2 5082   2.843   0.892   1.186  0.4422 -0.8521 -0.4398
  339TMC3    C3 5083   2.728   0.892   1.123 -0.5276  0.4153  0.7644
  339TMC3    C4 5084   2.927   1.060   1.034  0.3334  0.0062 -0.1159
  339TMC3    C5 5085   2.805   1.056   0.980 -0.2493 -0.0336  0.3084
  339TMC3    C6 5086   2.699   0.979   1.018 -0.0784 -0.4215 -0.0270
  339TMC3     C 5087   3.079   0.915   1.141  0.0182 -0.0360 -0.7113
  339TMC3     O 5088   3.110   0.849   1.242 -0.0715 -0.6311 -0.0517
  339TMC3     H 5089   2.862   0.819   1.264  2.0058  1.6965  1.5961
  339TMC3    H1 5090   3.011   1.126   1.014 -0.0205  0.5978  0.3195
  339TMC3    H2 5091   2.603   0.979   0.969  0.2203  1.0494 -0.6004
  339TMC3    C7 5092   2.797   1.137   0.855  1.1327 -0.0662 -0.0112
  339TMC3    C8 5093   2.615   0.816   1.173  0.4159 -0.5024 -0.1483
  339TMC3    O1 5094   2.857   1.246   0.838  0.4040  0.4471  0.6971
  339TMC3    O2 5095   2.505   0.830   1.119 -0.2592  0.2764 -0.0374
  340MPD2     C 5096   3.496   3.901  10.011  0.7484 -0.8041  0.3591
  340MPD2    C1 5097   3.607   3.911  10.095 -0.1080  0.0635 -1.3002
  340MPD2    C2 5098   3.650   4.032  10.141  0.6878 -0.5318 -0.1023
  340MPD2    C3 5099   3.592   4.152  10.091 -0.1998 -0.3775  0.0815
  340MPD2    C4 5100   3.481   4.141  10.012  0.3838  0.0616 -0.4828
  340MPD2    C5 5101   3.433   4.015   9.975 -0.0882 -0.7917 -0.1411
  340MPD2     H 5102   3.725   4.041  10.219  2.5989  1.7954 -2.2029
  340MPD2    H1 5103   3.436   4.233   9.975  0.0873  0.1930  0.2076
  340MPD2    H2 5104   3.457   3.808   9.971 -1.5536 -0.0638  0.8957
  340MPD2    H3 5105   3.344   4.019   9.913 -0.0050  1.2692 -0.1391
  340MPD2     N 5106   3.639   4.277  10.128  0.1178 -0.0767  0.2550
  340MPD2    H5 5107   3.587   4.358  10.093 -1.5055 -0.3333  2.0622
  340MPD2    N1 5108   3.674   3.788  10.124  0.1625  0.2336 -0.5861
  340MPD2    H7 5109   3.643   3.703  10.077  2.3157 -0.0630 -1.4721
  341TMC3    C1 5110   3.858   3.654  10.203  0.3707  0.5126  0.0479
  341TMC3    C2 5111   3.780   3.540  10.200  0.3383  0.0898  0.0941
  341TMC3    C3 5112   3.824   3.438  10.120 -0.1462  0.5282 -0.8464
  341TMC3    C4 5113   3.961   3.672  10.113 -0.2043  0.2480  0.1489
  341TMC3    C5 5114   3.987   3.574  10.019 -0.5482  0.4342  0.5076
  341TMC3    C6 5115   3.926   3.457  10.029 -0.0952  0.2715 -0.1002
  341TMC3     C 5116   3.782   3.771  10.210 -0.1621 -0.7807 -0.3144
  341TMC3     O 5117   3.833   3.860  10.277  0.1737 -0.9743  0.1439
  341TMC3     H 5118   3.694   3.534  10.265  0.2706 -1.8031 -0.1687
  341TMC3    H1 5119   4.007   3.769  10.103  1.4490 -0.8350 -2.6377
  341TMC3    H2 5120   3.940   3.370   9.966  0.6747 -1.0948  1.9592
  341TMC3    C7 5121   4.107   3.587   9.939  0.0159  0.7636 -0.2443
  341TMC3    C8 5122   3.709   3.362  10.075  0.4035  0.4325 -0.4612
  341TMC3    O1 5123   4.184   3.682   9.961 -0.7793  0.0825  0.1705
  341TMC3    O2 5124   3.690   3.350   9.953 -0.1350  0.4377 -0.1402
  342MPD2     C 5125   1.328   2.455   0.228  0.1208  0.6241 -0.1276
  342MPD2    C1 5126   1.352   2.529   0.117  0.2095 -0.3488  0.5986
  342MPD2    C2 5127   1.328   2.664   0.129  0.2227 -0.0209  0.5382
  342MPD2    C3 5128   1.273   2.722   0.246  0.1318  0.4761 -0.1831
  342MPD2    C4 5129   1.265   2.645   0.356  0.2353 -0.5402 -0.5513
  342MPD2    C5 5130   1.282   2.512   0.342  0.4076  0.2019 -0.3786
  342MPD2     H 5131   1.344   2.724   0.040 -1.2850  0.0203  0.2973
  342MPD2    H1 5132   1.228   2.681   0.451 -0.8910 -0.1804 -1.1254
  342MPD2    H2 5133   1.336   2.348   0.238  2.7408  0.8094 -0.3867
  342MPD2    H3 5134   1.263   2.447   0.427  0.2706 -0.7845 -1.1615
  342MPD2     N 5135   1.260   2.859   0.258 -0.2370  0.2413 -0.2454
  342MPD2    H5 5136   1.256   2.899   0.352  1.0410 -0.9289  0.3023
  342MPD2    N1 5137   1.386   2.475  17.697 -0.4190 -0.0162 -0.1723
  342MPD2    H7 5138   1.400   2.537  17.619  1.6398  0.3620  0.5148
  343TMC3    C1 5139   1.441   2.321  17.531 -0.3682 -0.2020  0.4778
  343TMC3    C2 5140   1.445   2.420  17.441 -0.0842 -0.2974 -0.2219
  343TMC3    C3 5141   1.480   2.387  17.314 -0.2605  0.1709  0.4305
  343TMC3    C4 5142   1.451   2.192  17.483 -0.0590  0.4828 -0.6208
  343TMC3    C5 5143   1.464   2.165  17.352 -0.5794  0.2468 -0.9776
  343TMC3    C6 5144   1.490   2.262  17.264  0.0919 -0.4146  0.4073
  343TMC3     C 5145   1.398   2.340  17.669  0.5298 -0.6314  0.1181
  343TMC3     O 5146   1.385   2.243   0.043 -0.2248  0.0577  0.1071
  343TMC3     H 5147   1.436   2.526  17.463  2.2964  0.1866 -1.5372
  343TMC3    H1 5148   1.414   2.120  17.556  1.3948  0.0700 -0.2981
  343TMC3    H2 5149   1.520   2.241  17.163  0.3322  1.0090  0.1868
  343TMC3    C7 5150   1.460   2.020  17.324 -0.0862 -0.1513  0.1614
  343TMC3    C8 5151   1.565   2.495  17.256 -0.1300 -0.0974  0.1116
  343TMC3    O1 5152   1.436   1.950  17.420  0.3110  0.0636  0.0699
  343TMC3    O2 5153   1.563   2.608  17.304  0.4828  0.3484 -0.8633
  344MPD2     C 5154   2.118   2.273   9.849 -0.1502 -0.4609 -0.5884
  344MPD2    C1 5155   2.177   2.239   9.968 -0.4235  0.1559  0.4554
  344MPD2    C2 5156   2.285   2.323   9.987 -0.1829  0.1980  0.5029
  344MPD2    C3 5157   2.323   2.419   9.890 -0.4330 -0.4897  0.2311
  344MPD2    C4 5158   2.260   2.437   9.770 -0.4582 -0.1315 -0.9189
  344MPD2    C5 5159   2.155   2.350   9.747  0.1507 -0.6037 -0.0115
  344MPD2     H 5160   2.342   2.317  10.079 -1.1091  2.1008  1.2010
  344MPD2    H1 5161   2.289   2.509   9.694  0.7219  0.0511 -0.2964
  344MPD2    H2 5162   2.025   2.228   9.817 -1.0319  0.6693  0.3813
  344MPD2    H3 5163   2.111   2.363   9.649  2.2350  1.4862 -0.6707
  344MPD2     N 5164   2.426   2.516   9.905  0.2432  0.2819  0.0937
  344MPD2    H5 5165   2.443   2.586   9.833  0.5470  0.7585  0.6251
  344MPD2    N1 5166   2.139   2.146  10.070 -0.2084  0.4710  0.1879
  344MPD2    H7 5167   2.200   2.132  10.151 -1.4224  1.2931  1.2344
  345TMC3    C1 5168   2.607   2.634   9.996 -0.0456 -0.4277  0.2713
  345TMC3    C2 5169   2.726   2.630  10.061 -0.2214  0.0675 -0.6839
  345TMC3    C3 5170   2.819   2.729  10.048  0.0500 -0.4282 -0.0740
  345TMC3    C4 5171   2.573   2.755   9.931 -0.4303  0.1038  1.2321
  345TMC3    C5 5172   2.668   2.857   9.926 -0.1803 -0.2116  0.7687
  345TMC3    C6 5173   2.788   2.844   9.991 -0.5400 -0.0507  0.1284
  345TMC3     C 5174   2.514   2.520  10.009 -0.1129 -0.1188 -0.0374
  345TMC3     O 5175   2.530   2.451  10.108 -0.2663  0.2230 -0.6579
  345TMC3     H 5176   2.751   2.539  10.115  1.6215  1.7933  1.3941
  345TMC3    H1 5177   2.479   2.763   9.877 -0.1558 -2.9939  0.2880
  345TMC3    H2 5178   2.859   2.926   9.992  1.2401 -1.5830 -1.2181
  345TMC3    C7 5179   2.629   2.990   9.878 -0.0588 -0.3129  0.0543
  345TMC3    C8 5180   2.920   2.739  10.152  0.5155 -0.6015  0.3028
  345TMC3    O1 5181   2.697   3.081   9.918 -0.5156 -0.4820  0.1493
  345TMC3    O2 5182   2.978   2.631  10.174 -0.1674 -0.1516 -0.0519
  346MPD2     C 5183   2.218   4.619  14.821 -0.3373 -0.0501 -0.3746
  346MPD2    C1 5184   2.319   4.617  14.730  0.1713  0.5439 -0.5061
  346MPD2    C2 5185   2.440   4.677  14.772  0.5957  0.3540  0.5428
  346MPD2    C3 5186   2.457   4.712  14.907  0.5456  0.5876 -0.2272
  346MPD2    C4 5187   2.352   4.699  14.999 -0.0330  0.0948 -0.4392
  346MPD2    C5 5188   2.228   4.658  14.950  0.4367  0.1583 -0.2957
  346MPD2     H 5189   2.514   4.709  14.700  0.6769 -0.3801  0.3008
  346MPD2    H1 5190   2.352   4.717  15.106  1.6411 -1.6279 -0.1452
  346MPD2    H2 5191   2.122   4.590  14.778 -0.5102  0.0438 -0.0524
  346MPD2    H3 5192   2.140   4.651  15.013  1.6907  5.1405  2.0640
  346MPD2     N 5193   2.589   0.031  14.947  0.4236  0.3064 -1.4815
  346MPD2    H5 5194   2.662   0.035  14.877  1.1298 -0.0465 -0.7759
  346MPD2    N1 5195   2.305   4.577  14.593 -0.7072  0.5234 -0.6831
  346MPD2    H7 5196   2.391   4.586  14.540 -0.6060  2.0203 -0.2515
  347TMC3    C1 5197   2.770   0.078  15.088 -0.4147 -0.1041  0.4165
  347TMC3    C2 5198   2.818   0.161  14.991 -0.0217  0.1626  0.4670
  347TMC3    C3 5199   2.948   0.185  14.987  0.0912  0.6365  0.0697
  347TMC3    C4 5200   2.843   0.008  15.174  0.8853  0.1303 -0.0062
  347TMC3    C5 5201   2.980   0.028  15.154  0.2180 -0.5297 -0.0748
  347TMC3    C6 5202   3.038   0.115  15.064 -0.2270 -0.3528 -0.3615
  347TMC3     C 5203   2.631   0.043  15.081  0.1706 -0.4932  0.1388
  347TMC3     O 5204   2.576   0.013  15.184 -0.0416  0.4020 -0.2618
  347TMC3     H 5205   2.749   0.219  14.930  0.0886 -0.4114 -0.2038
  347TMC3    H1 5206   2.803   4.670  15.253 -1.1237  3.5659  1.6841
  347TMC3    H2 5207   3.143   0.143  15.057 -0.4882  0.7643  0.0297
  347TMC3    C7 5208   3.070   4.663  15.222  0.5847  0.9090 -0.0402
  347TMC3    C8 5209   3.006   0.262  14.882 -0.3131 -0.2228 -0.0985
  347TMC3    O1 5210   3.182   4.710  15.230 -0.0871  0.0751 -0.6082
  347TMC3    O2 5211   3.128   0.242  14.863  0.7170  0.0192 -0.1099
  348MPD2     C 5212   1.261   4.378  12.369  0.8542 -0.4359 -0.1140
  348MPD2    C1 5213   1.193   4.305  12.274  0.1071 -0.3224  0.0282
  348MPD2    C2 5214   1.160   4.355  12.153  0.5022  0.0036 -0.6642
  348MPD2    C3 5215   1.205   4.479  12.118  0.6977  0.4885  0.4167
  348MPD2    C4 5216   1.275   4.559  12.208 -0.1875 -0.4286  0.1239
  348MPD2    C5 5217   1.310   4.502  12.323 -0.0910 -0.8354 -0.9556
  348MPD2     H 5218   1.103   4.297  12.082 -2.4784  1.4083  0.5998
  348MPD2    H1 5219   1.315   4.657  12.185 -2.4296  0.5654  0.5003
  348MPD2    H2 5220   1.302   4.345  12.463 -0.0150 -0.3432  0.3028
  348MPD2    H3 5221   1.362   4.564  12.395 -0.0325  0.2417 -1.9260
  348MPD2     N 5222   1.164   4.530  11.992  0.8052  0.3185 -0.2185
  348MPD2    H5 5223   1.096   4.476  11.939 -0.7401  2.0246  0.0080
  348MPD2    N1 5224   1.177   4.164  12.299  0.3549 -0.4971  0.0085
  348MPD2    H7 5225   1.161   4.101  12.220  2.2404  0.0912 -0.8482
  349TMC3    C1 5226   1.194   3.954  12.397  0.8269  0.4212 -0.0398
  349TMC3    C2 5227   1.272   3.883  12.482  0.3992 -0.1842  0.1213
  349TMC3    C3 5228   1.302   3.751  12.446 -0.9867 -0.5019  0.4011
  349TMC3    C4 5229   1.132   3.899  12.290 -0.0648  0.0805  0.8614
  349TMC3    C5 5230   1.170   3.773  12.252  0.5490 -0.0031 -0.4494
  349TMC3    C6 5231   1.247   3.692  12.337  0.7133  0.0907  0.5657
  349TMC3     C 5232   1.198   4.100  12.416  0.1950  0.0167 -0.5123
  349TMC3     O 5233   1.231   4.146  12.526 -0.4410  0.3936 -0.1722
  349TMC3     H 5234   1.331   3.937  12.555 -0.9086  0.9977  0.2947
  349TMC3    H1 5235   1.064   3.961  12.233 -0.0280  1.1810  1.9983
  349TMC3    H2 5236   1.256   3.588  12.308 -2.0714 -0.4132  1.4875
  349TMC3    C7 5237   1.142   3.742  12.113  0.4618  0.8630  0.1375
  349TMC3    C8 5238   1.397   3.677  12.522 -0.9411 -0.5171 -0.9695
  349TMC3    O1 5239   1.034   3.784  12.076  0.0847  0.7455 -0.2736
  349TMC3    O2 5240   1.427   3.712  12.634 -0.1122  0.5799  0.7774
  350MPD2     C 5241   0.611   1.873   9.613  0.7347  0.0577 -0.7778
  350MPD2    C1 5242   0.552   1.822   9.726  0.1256  0.1504  0.4271
  350MPD2    C2 5243   0.552   1.896   9.844 -0.0466  0.5943  0.4397
  350MPD2    C3 5244   0.614   2.016   9.853  0.4904 -0.2034  0.1049
  350MPD2    C4 5245   0.665   2.074   9.741  0.1542  0.0759 -0.1036
  350MPD2    C5 5246   0.664   2.001   9.620 -0.1111 -0.0504  0.7339
  350MPD2     H 5247   0.510   1.857   9.937 -2.1749  2.9670  0.4676
  350MPD2    H1 5248   0.710   2.172   9.748 -1.5910  0.7735  1.2784
  350MPD2    H2 5249   0.603   1.821   9.518 -2.4345 -0.0328 -0.4639
  350MPD2    H3 5250   0.702   2.038   9.525  3.2297 -1.8850  1.3672
  350MPD2     N 5251   0.623   2.073   9.980 -0.1872  0.6814  0.5451
  350MPD2    H5 5252   0.594   2.013  10.057 -0.0323 -0.2740 -0.1527
  350MPD2    N1 5253   0.499   1.694   9.729  0.4251  0.4529  0.4187
  350MPD2    H7 5254   0.472   1.664   9.823  0.0169  0.6672  0.3687
  351TMC3    C1 5255   0.434   1.486   9.686  0.2168  0.2543  0.2285
  351TMC3    C2 5256   0.457   1.364   9.642  0.1371  0.0252 -0.0023
  351TMC3    C3 5257   0.365   1.265   9.658  0.4964  0.3845 -0.0589
  351TMC3    C4 5258   0.318   1.508   9.763 -0.1034 -0.1807 -0.1333
  351TMC3    C5 5259   0.222   1.401   9.775 -0.7444 -0.3256  0.0037
  351TMC3    C6 5260   0.246   1.274   9.723  1.0409 -0.1707 -0.7520
  351TMC3     C 5261   0.513   1.593   9.637  0.5364 -0.1448 -0.1761
  351TMC3     O 5262   0.546   1.596   9.519  0.1253  0.8470  0.0354
  351TMC3     H 5263   0.537   1.343   9.571  0.0119  0.2370 -0.2072
  351TMC3    H1 5264   0.278   1.605   9.789 -2.5748 -1.2334 -0.0338
  351TMC3    H2 5265   0.193   1.183   9.748  1.8178  0.1174  1.8515
  351TMC3    C7 5266   0.113   1.416   9.863 -1.1960  0.5406 -0.1601
  351TMC3    C8 5267   0.406   1.141   9.603 -0.7022  0.2312  0.1197
  351TMC3    O1 5268   0.112   1.512   9.938  0.1375  0.1747 -0.3181
  351TMC3    O2 5269   0.523   1.116   9.574  0.3379  0.2186  0.0077
  352MPD2     C 5270   4.068   3.253   0.900 -0.2255  0.1942  0.2398
  352MPD2    C1 5271   4.030   3.239   1.036 -0.3624 -0.1272  0.2724
  352MPD2    C2 5272   4.085   3.136   1.114  0.4977  0.0888 -0.0532
  352MPD2    C3 5273   4.185   3.055   1.059 -0.4667 -0.9248 -1.0765
  352MPD2    C4 5274   4.216   3.075   0.925  0.1082  0.6168  1.0112
  352MPD2    C5 5275   4.164   3.169   0.845  0.2401  0.2869 -0.4191
  352MPD2     H 5276   4.054   3.123   1.217  2.5295  1.8508  0.7700
  352MPD2    H1 5277   4.294   3.017   0.877  0.4777  1.1370  0.9756
  352MPD2    H2 5278   4.015   3.325   0.839 -1.0761 -0.8482 -0.2551
  352MPD2    H3 5279   4.192   3.177   0.741 -1.4745  0.1982 -0.8806
  352MPD2     N 5280   4.243   2.948   1.133 -0.3289  0.0668  0.3887
  352MPD2    H5 5281   4.288   2.878   1.075  1.6640  1.6246  0.0148
  352MPD2    N1 5282   3.931   3.328   1.090 -0.0459  0.4758 -0.5254
  352MPD2    H7 5283   3.885   3.392   1.027 -1.2788  1.3088  1.2286
  353TMC3    C1 5284   4.240   2.789   1.311  0.0145 -0.2122 -0.8184
  353TMC3    C2 5285   4.353   2.742   1.359  0.1382  0.2853  0.6979
  353TMC3    C3 5286   4.361   2.604   1.374  0.0784 -0.5367 -0.7631
  353TMC3    C4 5287   4.133   2.710   1.281  0.1632  0.0856 -0.0888
  353TMC3    C5 5288   4.147   2.580   1.308  0.4295  0.0401 -0.0035
  353TMC3    C6 5289   4.270   2.520   1.335  0.6619  0.4252  0.2454
  353TMC3     C 5290   4.224   2.926   1.273  0.1415  0.1064  1.0934
  353TMC3     O 5291   4.193   3.011   1.359  0.7318  0.3864  0.3075
  353TMC3     H 5292   4.427   2.808   1.403  3.6616 -2.2296 -1.5329
  353TMC3    H1 5293   4.048   2.747   1.225 -1.0473 -0.0804  1.6572
  353TMC3    H2 5294   4.262   2.415   1.362 -2.1992  0.4395 -0.5338
  353TMC3    C7 5295   4.053   2.486   1.258  0.1966  0.2849 -0.0934
  353TMC3    C8 5296   4.491   2.550   1.412  0.6448 -0.4485  0.2265
  353TMC3    O1 5297   4.104   2.387   1.201  0.4866 -0.5085  0.3032
  353TMC3    O2 5298   4.563   2.622   1.485 -0.4876  0.3217 -0.1832
  354TMC3    C1 5299   0.155   0.565  13.230 -1.1559  0.0933 -0.4257
  354TMC3    C2 5300   0.189   0.701  13.236  0.2745  0.3063 -0.5117
  354TMC3    C3 5301   0.190   0.771  13.117  0.1339 -0.2027 -0.0340
  354TMC3    C4 5302   0.141   0.499  13.112 -0.0443  0.3826  0.4136
  354TMC3    C5 5303   0.160   0.571  12.998  0.2657 -0.7829  0.4893
  354TMC3    C6 5304   0.171   0.705  12.994 -0.3101  0.0527 -0.1799
  354TMC3     C 5305   0.154   0.496  13.358 -0.3136  1.0799  0.5791
  354TMC3     O 5306   0.099   0.548  13.451 -0.4470 -0.0514 -0.0181
  354TMC3     H 5307   0.212   0.743  13.333  1.3318  0.7190 -0.9407
  354TMC3    H1 5308   0.108   0.396  13.106 -0.4522  0.4975  0.6534
  354TMC3    H2 5309   0.164   0.768  12.906  0.9771 -2.0371 -1.7694
  354TMC3    C7 5310   0.226   0.501  12.890  0.6088 -0.4113  0.0577
  354TMC3    C8 5311   0.241   0.909  13.117 -1.3561  0.2722  0.3142
  354TMC3    O1 5312   0.236   0.378  12.890 -0.3656  0.1155 -0.5005
  354TMC3    O2 5313   0.246   0.941  12.998 -0.0592  0.2795  0.0688
  355MPD2     C 5314   0.619   1.601  12.037  0.5082 -0.0042  0.2352
  355MPD2    C1 5315   0.656   1.553  11.913  0.3890 -0.5001 -0.1282
  355MPD2    C2 5316   0.777   1.592  11.858  0.3622 -0.2174 -0.3621
  355MPD2    C3 5317   0.864   1.679  11.925  0.3910 -0.6403  0.3912
  355MPD2    C4 5318   0.828   1.721  12.056  0.1422 -0.0953 -0.3669
  355MPD2    C5 5319   0.710   1.676  12.103 -0.7190  0.2315  0.1516
  355MPD2     H 5320   0.810   1.536  11.771 -0.6964 -1.8012  0.2785
  355MPD2    H1 5321   0.890   1.787  12.115 -0.3328 -0.0472  0.0789
  355MPD2    H2 5322   0.524   1.577  12.083  0.8701 -0.9813  0.4808
  355MPD2    H3 5323   0.679   1.692  12.206 -0.3791  1.0747  0.1191
  355MPD2     N 5324   0.991   1.725  11.882  0.1176  0.1585 -0.6169
  355MPD2    H5 5325   1.044   1.778  11.950 -0.4299 -2.8855  2.1808
  355MPD2    N1 5326   0.563   1.471  11.844  0.0297  0.4441  0.0305
  355MPD2    H7 5327   0.513   1.410  11.908 -1.1131  0.4519 -0.8426
  356TMC3    C1 5328   1.165   1.770  11.726 -0.2232  0.0668 -0.0991
  356TMC3    C2 5329   1.198   1.763  11.591  0.8030 -0.6939 -0.1658
  356TMC3    C3 5330   1.286   1.851  11.542 -0.0276  0.0755  0.3040
  356TMC3    C4 5331   1.206   1.872  11.807 -0.1440 -0.0190  0.5929
  356TMC3    C5 5332   1.287   1.969  11.745 -0.0377 -0.4885  0.5901
  356TMC3    C6 5333   1.327   1.957  11.613 -0.2628 -0.0510 -0.4876
  356TMC3     C 5334   1.052   1.687  11.763 -0.5056 -0.4675 -0.0715
  356TMC3     O 5335   1.012   1.609  11.679 -0.0204  0.0952 -0.2497
  356TMC3     H 5336   1.160   1.687  11.524  0.8899  1.1612 -2.3335
  356TMC3    H1 5337   1.195   1.875  11.914 -0.9093  1.0140  0.4877
  356TMC3    H2 5338   1.391   2.031  11.568  0.2158 -0.2411 -0.1177
  356TMC3    C7 5339   1.337   2.077  11.830  0.5248 -0.4502 -0.4092
  356TMC3    C8 5340   1.328   1.834  11.404 -0.0418  0.0507  0.1045
  356TMC3    O1 5341   1.301   2.069  11.948 -0.4649 -0.1424  0.0434
  356TMC3    O2 5342   1.285   1.733  11.343  0.0797  0.3952 -0.1340
  357MPD2     C 5343   0.249   0.377   1.093  1.1036 -0.3084 -0.1984
  357MPD2    C1 5344   0.294   0.289   1.192  0.3005 -0.1987 -0.0302
  357MPD2    C2 5345   0.200   0.245   1.284  0.1405  0.0962 -0.5832
  357MPD2    C3 5346   0.066   0.284   1.278 -0.1206  0.9333  0.2347
  357MPD2    C4 5347   0.027   0.369   1.175 -0.3504  0.5551 -0.1673
  357MPD2    C5 5348   0.117   0.423   1.087  0.4666 -0.2929  0.4650
  357MPD2     H 5349   0.232   0.163   1.347 -0.1230 -0.4691 -1.1832
  357MPD2    H1 5350   4.652   0.414   1.173 -0.0377  1.2915  1.2804
  357MPD2    H2 5351   0.313   0.422   1.018  0.6743  2.4486  1.1055
  357MPD2    H3 5352   0.091   0.505   1.021  0.0362 -1.2434 -0.5511
  357MPD2     N 5353   4.689   0.228   1.365 -0.5129 -0.5931  0.1734
  357MPD2    H5 5354   4.592   0.240   1.337 -0.6527  1.1012  1.4007
  357MPD2    N1 5355   0.431   0.265   1.193 -0.2895  0.5023  0.5634
  357MPD2    H7 5356   0.485   0.309   1.119 -1.3250  0.4032 -0.2425
  358TMC3    C1 5357   0.637   0.175   1.252  0.7044  0.2224  0.0988
  358TMC3    C2 5358   0.680   0.183   1.119 -0.7861  0.0285  0.0156
  358TMC3    C3 5359   0.777   0.108   1.075 -0.5075 -0.0991  0.2772
  358TMC3    C4 5360   0.701   0.096   1.337 -0.9137 -1.0542  0.6945
  358TMC3    C5 5361   0.800   0.019   1.292  0.0865  0.2457  0.4407
  358TMC3    C6 5362   0.848   0.027   1.162  0.4862  0.0744 -0.1782
  358TMC3     C 5363   0.502   0.199   1.290 -0.8942 -0.2279  0.2720
  358TMC3     O 5364   0.456   0.136   1.390 -0.0690 -0.0787  0.0543
  358TMC3     H 5365   0.612   0.230   1.049 -3.1993  1.8147  3.5270
  358TMC3    H1 5366   0.664   0.094   1.439 -1.8780 -0.3475  0.3515
  358TMC3    H2 5367   0.918   4.675   1.129  0.5438  1.0298 -2.2681
  358TMC3    C7 5368   0.874   4.661   1.391 -0.6541 -0.2407  0.4982
  358TMC3    C8 5369   0.752   0.065   0.945 -0.0515 -0.0958 -0.9179
  358TMC3    O1 5370   0.868   4.697   1.507  0.1316 -0.3622  0.2345
  358TMC3    O2 5371   0.739   0.159   0.865 -0.0019  0.3559 -0.2326
  359MPD2     C 5372   1.106   4.676  12.519  1.0767  0.5705  0.9359
  359MPD2    C1 5373   1.007   4.680  12.426 -0.7559 -1.0036 -0.0573
  359MPD2    C2 5374   0.890   4.619  12.446 -0.2058  0.3451 -0.1324
  359MPD2    C3 5375   0.863   4.537  12.557 -0.1054 -0.5819 -0.5814
  359MPD2    C4 5376   0.965   4.540  12.656  0.9042 -0.0567  0.3513
  359MPD2    C5 5377   1.076   4.611  12.633 -0.4570 -0.3201  0.1213
  359MPD2     H 5378   0.810   4.630  12.373  0.5512 -2.8614 -1.4400
  359MPD2    H1 5379   0.964   4.486  12.750 -0.9475  1.2850  1.0959
  359MPD2    H2 5380   1.206   4.714  12.502  0.4008  1.7184 -0.4422
  359MPD2    H3 5381   1.154   4.598  12.706 -0.8967 -2.4396  0.2186
  359MPD2     N 5382   0.734   4.470  12.583 -0.2753 -0.4609 -0.0041
  359MPD2    H5 5383   0.733   4.422  12.672 -1.4535 -2.3947 -1.0713
  359MPD2    N1 5384   1.022   0.034  12.312 -0.7954 -0.1514  0.3005
  359MPD2    H7 5385   0.951   0.031  12.239 -1.0293  0.3456  0.5078
  360TMC3    C1 5386   1.115   0.196  12.160  0.4118 -0.0419 -0.0246
  360TMC3    C2 5387   1.210   0.286  12.136  0.1869 -0.0244 -0.0052
  360TMC3    C3 5388   1.174   0.401  12.073  0.4991  0.2110 -0.5547
  360TMC3    C4 5389   0.988   0.208  12.106 -0.4806  0.2038  0.0939
  360TMC3    C5 5390   0.966   0.315  12.023 -0.4073  0.4120  1.0217
  360TMC3    C6 5391   1.057   0.412  12.007 -0.5114  0.3727  0.3054
  360TMC3     C 5392   1.128   0.122  12.279 -0.5882  0.6138  0.4676
  360TMC3     O 5393   1.223   0.152  12.349 -0.3989  0.1977  0.9425
  360TMC3     H 5394   1.302   0.287  12.194 -0.3531 -1.2038  0.8831
  360TMC3    H1 5395   0.902   0.147  12.136 -1.0356  1.2678  0.6697
  360TMC3    H2 5396   1.054   0.488  11.930 -0.2819 -1.3779 -1.4200
  360TMC3    C7 5397   0.863   0.302  11.922 -0.5004 -0.3768 -0.2873
  360TMC3    C8 5398   1.257   0.509  12.039 -0.4452 -0.4073  0.2996
  360TMC3    O1 5399   0.841   0.405  11.861  0.0413  0.1652  0.0190
  360TMC3    O2 5400   1.203   0.619  12.031  0.5563  0.2956  0.5141
  361MPD2     C 5401   2.915   3.254  16.863  0.5480  0.0230  0.0002
  361MPD2    C1 5402   2.809   3.193  16.930 -0.2441 -0.1429  0.2826
  361MPD2    C2 5403   2.828   3.074  16.998 -0.5843 -0.3384  0.3501
  361MPD2    C3 5404   2.958   3.013  16.995  0.7717  0.0713 -0.1149
  361MPD2    C4 5405   3.050   3.066  16.910  0.0316  0.0610  0.1680
  361MPD2    C5 5406   3.028   3.184  16.841 -0.1262  0.7179 -0.2580
  361MPD2     H 5407   2.746   3.027  17.050 -1.7024  1.5592  0.2610
  361MPD2    H1 5408   3.146   3.017  16.917  0.6417  1.2957  0.4423
  361MPD2    H2 5409   2.894   3.345  16.809  0.0133 -0.0324  0.1178
  361MPD2    H3 5410   3.102   3.233  16.779  1.1457  0.5465  1.1259
  361MPD2     N 5411   2.996   2.910  17.077 -0.0225  0.2102  0.0510
  361MPD2    H5 5412   3.096   2.892  17.076  0.3518  2.2530  0.8637
  361MPD2    N1 5413   2.688   3.252  16.943  0.2790  0.1963  0.2412
  361MPD2    H7 5414   2.638   3.220  17.025 -2.0353  0.1212 -1.2085
  362TMC3    C1 5415   2.512   3.408  16.898  0.3047 -0.1355  0.1136
  362TMC3    C2 5416   2.494   3.436  17.034 -0.3912  0.2676 -0.3574
  362TMC3    C3 5417   2.385   3.519  17.054 -0.0638 -0.5473  0.8740
  362TMC3    C4 5418   2.437   3.462  16.796 -0.6425 -0.2546  0.1790
  362TMC3    C5 5419   2.319   3.529  16.833  0.1576 -0.3036 -0.0286
  362TMC3    C6 5420   2.301   3.569  16.961 -0.0665  0.1572  0.2124
  362TMC3     C 5421   2.637   3.341  16.850 -0.0387 -0.0399 -0.4492
  362TMC3     O 5422   2.675   3.358  16.737 -0.3628 -0.3753  0.0910
  362TMC3     H 5423   2.542   3.386  17.117  2.1793  2.0413 -0.7599
  362TMC3    H1 5424   2.437   3.421  16.696 -0.4050 -0.1750  0.1464
  362TMC3    H2 5425   2.242   3.657  16.983  0.9206  0.8302  0.1857
  362TMC3    C7 5426   2.284   3.628  16.734 -0.1831  0.7639  0.3565
  362TMC3    C8 5427   2.364   3.544  17.195  0.5171  0.2369 -0.6076
  362TMC3    O1 5428   2.176   3.683  16.754 -0.1479  0.4534  0.4344
  362TMC3    O2 5429   2.452   3.519  17.277  0.0821 -0.4607  0.0498
  363TMC3    C1 5430   0.632   0.934   9.107  0.0663  0.0760  0.1340
  363TMC3    C2 5431   0.759   0.927   9.158  0.0594 -0.1315  0.4788
  363TMC3    C3 5432   0.819   1.036   9.211 -0.4329 -0.2101  0.4930
  363TMC3    C4 5433   0.552   1.040   9.130 -0.2158 -1.6337  0.2594
  363TMC3    C5 5434   0.610   1.133   9.201 -0.1868 -0.0612  0.6592
  363TMC3    C6 5435   0.741   1.146   9.237 -0.5275 -0.1080 -0.6526
  363TMC3     C 5436   0.581   0.810   9.058 -0.5200 -0.5292  0.1546
  363TMC3     O 5437   0.665   0.720   9.064 -0.7301 -0.3402  0.8248
  363TMC3     H 5438   0.829   0.854   9.121 -1.2274 -0.4307 -1.4190
  363TMC3    H1 5439   0.452   1.059   9.091  0.8415 -0.1916 -1.7340
  363TMC3    H2 5440   0.772   1.234   9.293 -1.6342  0.3205 -0.7098
  363TMC3    C7 5441   0.529   1.238   9.271  0.7889  0.1859  0.3802
  363TMC3    C8 5442   0.942   1.026   9.294 -0.1943 -0.2593  0.0397
  363TMC3    O1 5443   0.583   1.338   9.321 -0.6921 -0.1100 -0.1085
  363TMC3    O2 5444   0.965   1.133   9.346 -0.6746  0.1750 -0.3068
  364MPD2     C 5445   4.326   0.837  10.378  0.0414 -0.1794  0.1650
  364MPD2    C1 5446   4.460   0.802  10.369 -0.7052 -0.3296  0.0323
  364MPD2    C2 5447   4.493   0.667  10.395  0.0415  0.4874 -0.1459
  364MPD2    C3 5448   4.401   0.572  10.443  0.7153 -0.3093 -0.9366
  364MPD2    C4 5449   4.269   0.610  10.446  0.2849  0.2000  0.4865
  364MPD2    C5 5450   4.237   0.740  10.409 -0.3480 -0.8367 -0.8061
  364MPD2     H 5451   4.597   0.637  10.390  0.9927  3.7287 -0.1191
  364MPD2    H1 5452   4.195   0.535  10.469  0.5134  0.0717  0.7973
  364MPD2    H2 5453   4.291   0.932  10.339 -1.3409  0.6511  3.3678
  364MPD2    H3 5454   4.132   0.769  10.400 -0.6937 -2.3436 -1.5700
  364MPD2     N 5455   4.459   0.448  10.483 -0.2353  0.4998  0.4206
  364MPD2    H5 5456   4.559   0.438  10.468 -0.7577 -2.6735 -0.8205
  364MPD2    N1 5457   4.556   0.907  10.340  0.0938 -0.6805 -0.0709
  364MPD2    H7 5458   4.540   1.008  10.341 -1.6310 -0.9315 -1.7760
  365TMC3    C1 5459   0.024   1.006  10.282  0.5949 -0.3056  0.8593
  365TMC3    C2 5460   0.118   0.986  10.182  0.5237 -0.1912 -0.1776
  365TMC3    C3 5461   0.198   1.094  10.148 -0.2471 -0.2674  0.8573
  365TMC3    C4 5462   0.023   1.124  10.358 -0.6411 -0.7249  0.6628
  365TMC3    C5 5463   0.118   1.223  10.327 -0.3621 -0.4375 -0.3012
  365TMC3    C6 5464   0.212   1.205  10.221 -0.5294 -0.0775 -0.0345
  365TMC3     C 5465   4.687   0.885  10.324  0.1331  0.4896 -0.2072
  365TMC3     O 5466   0.037   0.786  10.326  0.2109  0.1058  0.0040
  365TMC3     H 5467   0.142   0.887  10.148 -1.6168  0.4338 -3.5245
  365TMC3    H1 5468   4.694   1.128  10.453  0.0816 -0.4971  1.0525
  365TMC3    H2 5469   0.275   1.285  10.185  0.6892 -0.2912  1.6207
  365TMC3    C7 5470   0.147   1.327  10.420  0.5571  0.3126 -0.7497
  365TMC3    C8 5471   0.303   1.076  10.055  0.2025 -0.1160 -0.2775
  365TMC3    O1 5472   0.248   1.395  10.410 -0.3951  0.8493 -0.0913
  365TMC3    O2 5473   0.417   1.117  10.081 -0.2450 -0.6009  0.3056
  366MPD2     C 5474   3.241   1.702  15.405  0.0889 -1.0558  0.9779
  366MPD2    C1 5475   3.319   1.808  15.455  0.7047 -0.4772  0.6661
  366MPD2    C2 5476   3.453   1.801  15.452  0.0656  0.1039 -0.5781
  366MPD2    C3 5477   3.511   1.695  15.389  1.2114  0.3195  0.3114
  366MPD2    C4 5478   3.433   1.586  15.349  0.5073  0.2526 -0.0280
  366MPD2    C5 5479   3.299   1.583  15.357  0.1898 -0.0890  0.2996
  366MPD2     H 5480   3.514   1.873  15.506  1.0884  0.2038 -1.8709
  366MPD2    H1 5481   3.477   1.499  15.301  1.2432  0.3104  0.5365
  366MPD2    H2 5482   3.135   1.715  15.388  0.1370 -0.9152  0.7928
  366MPD2    H3 5483   3.245   1.509  15.298 -0.2727 -0.1226  0.7661
  366MPD2     N 5484   3.648   1.672  15.378  0.5662  0.2356 -0.4253
  366MPD2    H5 5485   3.679   1.576  15.371  4.3510  1.5012 -1.3896
  366MPD2    N1 5486   3.270   1.936  15.500 -0.7909  0.0138  0.7099
  366MPD2    H7 5487   3.340   1.998  15.540 -0.3568 -1.3048  1.9886
  367TMC3    C1 5488   3.119   2.119  15.537  0.1240 -0.1039  0.6319
  367TMC3    C2 5489   3.202   2.174  15.633 -0.1920  0.6264  0.5742
  367TMC3    C3 5490   3.175   2.302  15.679  0.1816  0.3634  0.5835
  367TMC3    C4 5491   3.023   2.181  15.470 -0.0071 -0.0694  0.6685
  367TMC3    C5 5492   2.993   2.307  15.516 -0.2739  0.0993  0.2338
  367TMC3    C6 5493   3.071   2.367  15.611 -0.6324  0.4922  0.6044
  367TMC3     C 5494   3.141   1.982  15.485  0.5277  0.2957 -0.2669
  367TMC3     O 5495   3.053   1.922  15.422 -0.0363  0.4920 -0.2792
  367TMC3     H 5496   3.288   2.123  15.676 -0.2041 -0.4238 -0.6571
  367TMC3    H1 5497   2.967   2.148  15.384 -0.0796 -0.8662  1.0242
  367TMC3    H2 5498   3.038   2.462  15.650 -0.2257  0.3484  1.3222
  367TMC3    C7 5499   2.898   2.392  15.458 -0.6315 -1.0985 -0.5144
  367TMC3    C8 5500   3.246   2.361  15.799 -0.2128 -0.1310 -0.1252
  367TMC3    O1 5501   2.926   2.512  15.459  0.4934 -0.1280  0.1834
  367TMC3    O2 5502   3.313   2.284  15.873 -0.3724 -0.1432 -0.5125
  368MPD2     C 5503   4.311   3.675  13.841  0.2640  0.2809 -0.2523
  368MPD2    C1 5504   4.257   3.718  13.717 -0.1953  0.1247  0.2459
  368MPD2    C2 5505   4.315   3.828  13.653  0.3558  0.2277 -0.4205
  368MPD2    C3 5506   4.401   3.913  13.721  0.2186 -0.5169 -0.0698
  368MPD2    C4 5507   4.444   3.876  13.844  0.1860  0.1228  0.0827
  368MPD2    C5 5508   4.404   3.756  13.898  0.5649  0.2512  0.3823
  368MPD2     H 5509   4.279   3.840  13.551  0.8791  2.2601 -0.3634
  368MPD2    H1 5510   4.513   3.937  13.902  0.0111  2.1631 -1.8749
  368MPD2    H2 5511   4.274   3.588  13.893 -1.5486  0.5618 -1.0693
  368MPD2    H3 5512   4.450   3.722  13.990 -1.5752 -1.0186  1.0034
  368MPD2     N 5513   4.462   4.025  13.660 -0.6064  0.0077  0.0781
  368MPD2    H5 5514   4.549   4.057  13.700 -1.0239 -0.3586  1.2749
  368MPD2    N1 5515   4.159   3.633  13.667 -0.0020  0.1333 -0.3671
  368MPD2    H7 5516   4.115   3.573  13.736 -0.5232  0.0799 -0.7467
  369TMC3    C1 5517   4.028   3.532  13.489 -0.2637  0.3318  0.3733
  369TMC3    C2 5518   4.025   3.535  13.357 -0.4587 -0.2222  0.5667
  369TMC3    C3 5519   3.906   3.560  13.286  0.1748 -0.8675 -0.4388
  369TMC3    C4 5520   3.912   3.532  13.561  0.4418  0.0489  0.1567
  369TMC3    C5 5521   3.792   3.558  13.497  0.0170 -0.4306  0.7234
  369TMC3    C6 5522   3.793   3.567  13.361 -0.2722  0.1220 -0.3037
  369TMC3     C 5523   4.154   3.593  13.534 -0.7881 -0.9948  0.6618
  369TMC3     O 5524   4.232   3.627  13.446 -0.0818 -0.4101  0.0320
  369TMC3     H 5525   4.119   3.512  13.308 -0.3670 -0.4632  0.8583
  369TMC3    H1 5526   3.909   3.516  13.668  0.5902  1.0218  0.3004
  369TMC3    H2 5527   3.704   3.619  13.325  0.2927  1.7224  0.5878
  369TMC3    C7 5528   3.669   3.554  13.576 -0.2639  0.0622 -0.4932
  369TMC3    C8 5529   3.916   3.675  13.196  0.3958  0.2609 -0.2471
  369TMC3    O1 5530   3.683   3.556  13.698 -0.1223 -0.7246  0.1496
  369TMC3    O2 5531   3.818   3.732  13.147  0.1336  0.4350  0.4080
  370TMC3    C1 5532   3.269   4.380  16.491 -0.5292  0.7816 -0.7773
  370TMC3    C2 5533   3.217   4.280  16.565  0.2576  0.5171 -0.9919
  370TMC3    C3 5534   3.240   4.147  16.522  0.7347 -0.3885 -0.4827
  370TMC3    C4 5535   3.332   4.366  16.369 -0.7811 -0.8647 -0.0743
  370TMC3    C5 5536   3.353   4.237  16.328  0.6074 -0.0556  1.1358
  370TMC3    C6 5537   3.319   4.126  16.408  0.1678 -0.0874  0.1032
  370TMC3     C 5538   3.214   4.511  16.522 -0.1036 -0.0696 -0.6677
  370TMC3     O 5539   3.100   4.514  16.567 -0.3846 -0.8912  0.1380
  370TMC3     H 5540   3.184   4.306  16.664 -2.0090 -0.3753 -1.5155
  370TMC3    H1 5541   3.382   4.444  16.312  1.8657 -2.4233  0.1007
  370TMC3    H2 5542   3.342   4.025  16.375  1.5258  0.2103  0.1136
  370TMC3    C7 5543   3.420   4.219  16.202 -1.1399 -0.2572 -0.0363
  370TMC3    C8 5544   3.202   4.037  16.604  0.0387 -0.0009  0.3057
  370TMC3    O1 5545   3.401   4.299  16.110 -0.4883  0.1668 -0.1741
  370TMC3    O2 5546   3.246   3.932  16.566 -0.0692  0.1098  0.1126
  371TMC3    C1 5547   0.239   2.804  15.500 -1.1421  0.8444 -0.0426
  371TMC3    C2 5548   0.118   2.784  15.561 -0.3947 -0.3174  0.1057
  371TMC3    C3 5549   0.032   2.890  15.557  0.5664 -0.5652 -0.1786
  371TMC3    C4 5550   0.273   2.920  15.432 -0.6798  0.4339 -0.6392
  371TMC3    C5 5551   0.184   3.023  15.433 -0.1795 -0.0451 -0.0000
  371TMC3    C6 5552   0.063   3.005  15.498  0.2104  0.5266  0.2182
  371TMC3     C 5553   0.336   2.694  15.514  0.2908  0.9719 -0.5533
  371TMC3     O 5554   0.453   2.706  15.479  0.1386  0.2798  0.0337
  371TMC3     H 5555   0.086   2.693  15.611 -0.7238 -0.4791 -0.3981
  371TMC3    H1 5556   0.369   2.933  15.384  0.1701 -0.7593  0.7385
  371TMC3    H2 5557   4.704   3.075  15.494 -0.0688  0.1307 -0.9420
  371TMC3    C7 5558   0.205   3.147  15.353  0.9900 -0.5435  0.3844
  371TMC3    C8 5559   4.618   2.863  15.593  0.1390  0.2451  0.2037
  371TMC3    O1 5560   0.119   3.229  15.360  0.1901  0.1719  0.3492
  371TMC3    O2 5561   4.564   2.756  15.563 -0.0642 -0.3215 -0.7640
  372MPD2     C 5562   3.586   4.176  13.636 -0.3783  0.1009  0.4132
  372MPD2    C1 5563   3.720   4.149  13.658  0.1480 -0.1886  0.8628
  372MPD2    C2 5564   3.765   4.048  13.739  0.5774 -0.1767  0.5907
  372MPD2    C3 5565   3.668   3.965  13.794 -0.7816  0.0438  0.2494
  372MPD2    C4 5566   3.534   3.996  13.783  0.0675  0.0019 -0.1341
  372MPD2    C5 5567   3.493   4.095  13.698 -0.0065 -0.3993  0.4191
  372MPD2     H 5568   3.869   4.033  13.764  0.8456  0.3625 -0.2198
  372MPD2    H1 5569   3.458   3.937  13.833 -0.6925  1.4740  0.4370
  372MPD2    H2 5570   3.549   4.262  13.582 -0.2955 -0.4788 -0.5566
  372MPD2    H3 5571   3.391   4.126  13.682  0.2813 -1.0497 -2.8113
  372MPD2     N 5572   3.711   3.856  13.872  0.4848 -0.3177 -0.8203
  372MPD2    H5 5573   3.810   3.841  13.884  0.5136 -1.8684 -2.9218
  372MPD2    N1 5574   3.822   4.220  13.589  0.1874  0.2569  0.5914
  372MPD2    H7 5575   3.916   4.188  13.610 -0.6021 -1.4225  1.5481
  373TMC3    C1 5576   3.699   3.673  14.035 -0.2836 -0.0465 -0.1603
  373TMC3    C2 5577   3.661   3.668  14.167 -0.3775  0.5446 -0.2842
  373TMC3    C3 5578   3.742   3.595  14.249 -0.5173 -0.3213 -0.2500
  373TMC3    C4 5579   3.806   3.604  13.985  0.2206  0.1237  0.1450
  373TMC3    C5 5580   3.865   3.514  14.064  0.0425  0.9521 -0.0225
  373TMC3    C6 5581   3.833   3.511  14.198  1.0400  0.0272  0.6646
  373TMC3     C 5582   3.631   3.770  13.947  0.1140 -0.5535  0.0110
  373TMC3     O 5583   3.509   3.766  13.957 -0.5387  0.2180 -0.0234
  373TMC3     H 5584   3.587   3.736  14.209 -0.2206 -0.5127  1.7051
  373TMC3    H1 5585   3.842   3.619  13.884 -3.3536  2.4206 -0.8225
  373TMC3    H2 5586   3.889   3.462  14.276  0.2595 -1.2186  0.4375
  373TMC3    C7 5587   3.989   3.463  14.020  0.1545  0.5294  0.3322
  373TMC3    C8 5588   3.792   3.671  14.352 -0.2707  0.8127  0.8954
  373TMC3    O1 5589   4.010   3.466  13.897 -0.0857 -0.7026 -0.4656
  373TMC3    O2 5590   3.912   3.691  14.338 -0.3417  0.2795 -0.1495
  374TMC3    C1 5591   4.628   3.476  10.460 -0.3115  0.0276  0.6194
  374TMC3    C2 5592   0.002   3.561  10.403 -0.4577 -0.1339 -0.4458
  374TMC3    C3 5593   0.122   3.509  10.375 -0.4090 -0.0701  0.3512
  374TMC3    C4 5594   4.668   3.355  10.511  0.1073  0.2028  0.8466
  374TMC3    C5 5595   0.062   3.304  10.472  0.1405 -0.8302  0.4625
  374TMC3    C6 5596   0.156   3.381  10.404  0.4909 -0.0252  0.1423
  374TMC3     C 5597   4.491   3.519  10.445  0.3247  0.5992 -0.0608
  374TMC3     O 5598   4.477   3.641  10.440 -0.8983  0.1052 -0.0177
  374TMC3     H 5599   4.705   3.661  10.364 -0.1251 -0.2533 -0.9366
  374TMC3    H1 5600   4.602   3.295  10.573 -0.5682 -0.8549 -0.8781
  374TMC3    H2 5601   0.249   3.335  10.373 -0.8084 -0.6086 -2.8391
  374TMC3    C7 5602   0.111   3.174  10.498  0.4845  0.1551 -0.0871
  374TMC3    C8 5603   0.206   3.593  10.290 -0.2975 -0.7325  0.4651
  374TMC3    O1 5604   0.233   3.151  10.507  0.3858  0.1470  0.2165
  374TMC3    O2 5605   0.260   3.541  10.191  0.1638 -0.1019  0.5695
  375MPD2     C 5606   4.690   4.353  17.201 -0.6787  0.9645  0.5704
  375MPD2    C1 5607   4.634   4.428  17.105 -0.3351  0.2752 -0.0733
  375MPD2    C2 5608   4.697   4.435  16.980 -0.1565  0.3020  1.0067
  375MPD2    C3 5609   0.083   4.355  16.951  0.5154 -0.2388  0.4861
  375MPD2    C4 5610   0.140   4.289  17.051 -0.2741  0.5089 -0.3881
  375MPD2    C5 5611   0.085   4.292  17.177 -0.4545 -0.1920 -0.2580
  375MPD2     H 5612   4.649   4.488  16.898 -1.2877 -0.5148  1.1457
  375MPD2    H1 5613   0.234   4.238  17.030 -0.6084 -0.6276  0.9066
  375MPD2    H2 5614   4.645   4.334  17.298  1.4827  3.4041  2.0623
  375MPD2    H3 5615   0.125   4.226  17.254 -1.9842 -0.6809  0.1130
  375MPD2     N 5616   0.135   4.327  16.822 -0.2680  0.4227  0.2710
  375MPD2    H5 5617   0.223   4.276  16.821 -0.4279  0.1692 -0.4639
  375MPD2    N1 5618   4.504   4.480  17.122 -0.0941  0.7967 -0.0373
  375MPD2    H7 5619   4.469   4.529  17.040 -1.4889  3.0615  1.8990
  376TMC3    C1 5620   0.155   4.309  16.585 -0.0514 -0.7781 -0.2602
  376TMC3    C2 5621   0.253   4.209  16.604 -0.0858  0.6233  0.4340
  376TMC3    C3 5622   0.295   4.147  16.491 -0.1399 -0.4861  0.2389
  376TMC3    C4 5623   0.108   4.347  16.459  0.1518  1.0783 -0.6199
  376TMC3    C5 5624   0.146   4.275  16.353 -0.3344 -0.2278  0.0743
  376TMC3    C6 5625   0.247   4.186  16.369 -0.0471 -0.0382  1.0282
  376TMC3     C 5626   0.078   4.358  16.703 -0.2774 -0.1077 -0.6237
  376TMC3     O 5627   4.694   4.410  16.682  0.1281 -0.1941  0.5436
  376TMC3     H 5628   0.291   4.188  16.703  0.5512  0.9048  0.2497
  376TMC3    H1 5629   0.047   4.436  16.454  0.1466  1.1626  0.9132
  376TMC3    H2 5630   0.288   4.132  16.285 -2.8245  0.2865 -0.5308
  376TMC3    C7 5631   0.155   4.348  16.229  0.2368 -0.6604 -0.8076
  376TMC3    C8 5632   0.434   4.135  16.477  0.1943 -0.0520  0.0654
  376TMC3    O1 5633   0.068   4.436  16.209  0.3385  0.3856 -0.2983
  376TMC3    O2 5634   0.482   4.181  16.376  0.1559 -0.3779  0.4313
  377MPD2     C 5635   2.655   4.596  12.247  0.5652 -0.5682  0.5081
  377MPD2    C1 5636   2.720   4.506  12.330  0.7110  0.1710 -0.8532
  377MPD2    C2 5637   2.638   4.436  12.416 -0.2042  0.1905  0.1836
  377MPD2    C3 5638   2.499   4.459  12.418  0.4971  0.2147  0.8566
  377MPD2    C4 5639   2.443   4.539  12.326  0.1097 -0.3782  0.3960
  377MPD2    C5 5640   2.519   4.609  12.240 -0.4209 -0.5400 -0.4909
  377MPD2     H 5641   2.682   4.361  12.481  0.6710 -0.3146 -0.9842
  377MPD2    H1 5642   2.336   4.553  12.331  0.5901  3.5666 -0.1024
  377MPD2    H2 5643   2.716   4.653  12.178 -0.6055 -0.5128 -0.4913
  377MPD2    H3 5644   2.475   4.667  12.159  1.1187  0.1147 -0.8452
  377MPD2     N 5645   2.407   4.405  12.515 -0.3945 -0.1091 -0.4079
  377MPD2    H5 5646   2.318   4.454  12.511 -0.9359 -1.0792 -0.3380
  377MPD2    N1 5647   2.856   4.477  12.319 -0.0605 -0.3359  0.5445
  377MPD2    H7 5648   2.904   4.534  12.249 -0.0270 -2.1118 -0.8685
  378TMC3    C1 5649   3.233   4.426  12.208 -1.2936  0.4068  0.0132
  378TMC3    C2 5650   3.099   4.430  12.239  0.1030 -0.4458 -0.1593
  378TMC3    C3 5651   3.067   4.396  12.367  0.2989 -0.6607  0.0066
  378TMC3    C4 5652   3.334   4.394  12.296  0.0149  0.1552  0.2755
  378TMC3    C5 5653   3.296   4.369  12.426  0.1169 -0.0181 -0.2233
  378TMC3    C6 5654   3.164   4.365  12.456 -0.4620 -0.4868  0.6084
  378TMC3     C 5655   3.268   4.449  12.066  0.5225  0.8474  0.5007
  378TMC3     O 5656   3.187   4.514  11.998  0.4693 -0.1646  0.5674
  378TMC3     H 5657   3.036   4.455  12.155 -0.5610  0.8320  0.7166
  378TMC3    H1 5658   3.438   4.412  12.273 -0.2617 -1.8558 -2.5680
  378TMC3    H2 5659   3.131   4.341  12.556 -2.3164 -0.5685 -0.0241
  378TMC3    C7 5660   3.392   4.315  12.523 -0.3676  0.0227 -0.4654
  378TMC3    C8 5661   2.933   4.406  12.404 -0.2466  0.3973 -0.0789
  378TMC3    O1 5662   3.353   4.313  12.637 -0.8074 -0.2852 -0.9001
  378TMC3    O2 5663   2.910   4.346  12.512  0.0188 -0.0354  0.2549
  379MPD2     C 5664   3.672   2.069  16.584 -0.8504 -0.2145 -0.3572
  379MPD2    C1 5665   3.803   2.106  16.555  1.1648  0.6745 -0.5206
  379MPD2    C2 5666   3.907   2.049  16.622  0.8684  0.2364  0.2636
  379MPD2    C3 5667   3.886   1.947  16.716  1.0330 -0.6645 -0.2609
  379MPD2    C4 5668   3.757   1.901  16.736  0.3723  0.4352 -0.2033
  379MPD2    C5 5669   3.649   1.968  16.676 -0.3991  0.4201 -0.3265
  379MPD2     H 5670   4.009   2.079  16.604 -0.1515  3.0380 -0.7852
  379MPD2    H1 5671   3.745   1.824  16.812  1.4529 -0.9032 -1.3861
  379MPD2    H2 5672   3.581   2.106  16.539 -0.3270 -0.4752 -1.6526
  379MPD2    H3 5673   3.549   1.938  16.707  0.0059 -1.2646 -0.6779
  379MPD2     N 5674   3.995   1.886  16.788 -0.0101 -0.1922 -0.1712
  379MPD2    H5 5675   3.976   1.816  16.859  0.1288 -0.0159  0.0409
  379MPD2    N1 5676   3.825   2.215  16.462  0.0164  0.4621  0.0851
  379MPD2    H7 5677   3.741   2.267  16.436 -0.1734  1.4185  2.5821
  380TMC3    C1 5678   3.927   2.356  16.302  0.8752 -0.1465 -0.5707
  380TMC3    C2 5679   3.993   2.336  16.182 -0.1960  0.1846  0.3238
  380TMC3    C3 5680   3.951   2.414  16.072  0.4145 -0.2185 -0.5023
  380TMC3    C4 5681   3.827   2.441  16.327 -0.2419  0.0646 -0.3042
  380TMC3    C5 5682   3.787   2.512  16.214 -0.3497 -0.2475 -0.2997
  380TMC3    C6 5683   3.844   2.504  16.092  0.2765  0.2446 -0.3752
  380TMC3     C 5684   3.940   2.245  16.395  0.2248  0.2424 -0.1250
  380TMC3     O 5685   4.037   2.166  16.393  0.3240  0.0581  0.0361
  380TMC3     H 5686   4.061   2.254  16.166  2.7013  3.0408 -1.8525
  380TMC3    H1 5687   3.777   2.446  16.423  1.5944  1.9409  0.5510
  380TMC3    H2 5688   3.821   2.584  16.023 -0.6923  0.0040 -0.3288
  380TMC3    C7 5689   3.664   2.597  16.217  0.3469  0.4661 -0.5894
  380TMC3    C8 5690   4.023   2.438  15.943  0.1990 -0.0204 -0.3553
  380TMC3    O1 5691   3.619   2.639  16.322 -0.3342  0.2048  0.2163
  380TMC3    O2 5692   3.957   2.487  15.854 -0.6578  0.5529  0.0435
  381TMC3    C1 5693   3.376   3.433  16.331 -0.1616 -0.0951 -0.1994
  381TMC3    C2 5694   3.361   3.565  16.356 -0.9892 -0.0425  0.1754
  381TMC3    C3 5695   3.408   3.615  16.478 -0.4582  0.7468  0.2536
  381TMC3    C4 5696   3.441   3.345  16.407 -0.0352  0.1589 -0.5287
  381TMC3    C5 5697   3.474   3.393  16.528  0.0582  0.6222 -0.1432
  381TMC3    C6 5698   3.454   3.524  16.569 -0.3041  0.3346 -0.0773
  381TMC3     C 5699   3.300   3.385  16.216  0.4397  0.7218 -0.1084
  381TMC3     O 5700   3.218   3.461  16.169 -0.2278 -0.4529 -0.2788
  381TMC3     H 5701   3.323   3.636  16.283  0.5387 -0.8380 -1.3920
  381TMC3    H1 5702   3.439   3.238  16.392  0.0295  0.4245 -2.3809
  381TMC3    H2 5703   3.513   3.562  16.652 -0.2842 -1.0649  0.5434
  381TMC3    C7 5704   3.502   3.297  16.629  0.6256  0.2393 -0.6540
  381TMC3    C8 5705   3.485   3.741  16.464  0.2162  0.8512  0.8441
  381TMC3    O1 5706   3.529   3.183  16.600 -0.0771 -0.4888 -0.1127
  381TMC3    O2 5707   3.505   3.780  16.350  0.2957  0.2373  0.5988
  382MPD2     C 5708   2.611   0.873  17.453  0.1783 -0.6063 -0.1010
  382MPD2    C1 5709   2.509   0.847  17.545  0.5436 -0.1507  0.1643
  382MPD2    C2 5710   2.476   0.719  17.584  0.0877 -0.8061  0.0559
  382MPD2    C3 5711   2.535   0.613  17.517 -0.1838  0.2618 -0.2523
  382MPD2    C4 5712   2.626   0.633  17.420  0.0860  0.2205  0.5353
  382MPD2    C5 5713   2.664   0.763  17.389  0.0657 -0.2810  0.1438
  382MPD2     H 5714   2.424   0.707  17.678 -1.3888  1.6192 -0.4473
  382MPD2    H1 5715   2.674   0.550  17.369 -0.2429 -0.1521  0.8267
  382MPD2    H2 5716   2.636   0.965  17.402  0.7200 -1.7309 -1.8483
  382MPD2    H3 5717   2.739   0.775  17.312 -1.3526 -1.9301 -1.4882
  382MPD2     N 5718   2.504   0.483  17.570  0.8550  0.6850 -0.2970
  382MPD2    H5 5719   2.529   0.406  17.508  1.9227  0.0878  0.8818
  382MPD2    N1 5720   2.452   0.954  17.625 -0.0112  0.6087 -0.0034
  382MPD2    H7 5721   2.410   0.936   0.018 -2.9497  0.4245 -1.4039
  383TMC3    C1 5722   2.409   0.301  17.686  0.4169 -0.3657 -0.2717
  383TMC3    C2 5723   2.287   0.250  17.677 -0.0122 -0.3579 -0.1965
  383TMC3    C3 5724   2.284   0.113  17.667 -0.1097 -0.0552  0.3047
  383TMC3    C4 5725   2.523   0.236  17.687 -0.4217 -0.0335  0.6321
  383TMC3    C5 5726   2.518   0.100  17.661 -0.2799  0.1562  0.0459
  383TMC3    C6 5727   2.397   0.037  17.658  0.4732 -0.0794 -0.3277
  383TMC3     C 5728   2.418   0.445  17.669  0.3797 -0.3208  0.2144
  383TMC3     O 5729   2.345   0.505   0.047 -0.1695 -0.0366 -0.0477
  383TMC3     H 5730   2.199   0.314  17.681 -0.5223 -1.1184  0.7237
  383TMC3    H1 5731   2.605   0.300   0.018 -1.4177  1.0481  1.0539
  383TMC3    H2 5732   2.396   4.653  17.647  1.0218 -0.1169  0.0001
  383TMC3    C7 5733   2.634   0.015  17.658  0.3082  0.0778  0.7265
  383TMC3    C8 5734   2.149   0.061  17.639 -0.3264 -0.0956 -0.1691
  383TMC3    O1 5735   2.618   4.616  17.678 -0.0605 -0.0891  0.0044
  383TMC3    O2 5736   2.055   0.136  17.622  0.1553  0.1774 -0.4465
  384MPD2     C 5737   4.542   2.051  11.954  0.2038 -0.1142  0.8452
  384MPD2    C1 5738   4.591   2.004  12.076  0.4490 -0.2663  0.2053
  384MPD2    C2 5739   4.682   1.907  12.083  0.2856  0.8513 -0.2834
  384MPD2    C3 5740   0.002   1.852  11.966  0.5729  0.2798 -0.5783
  384MPD2    C4 5741   4.690   1.900  11.841  0.3732 -0.3088 -0.2503
  384MPD2    C5 5742   4.597   2.003  11.837  0.3406  0.2530 -0.0790
  384MPD2     H 5743   4.724   1.874  12.177 -2.0801 -1.8280 -0.1472
  384MPD2    H1 5744   0.019   1.887  11.747 -1.0821 -1.0232 -0.9742
  384MPD2    H2 5745   4.468   2.130  11.951  0.2300 -0.0944  0.7341
  384MPD2    H3 5746   4.568   2.047  11.742 -0.4101  1.2941  0.6250
  384MPD2     N 5747   0.100   1.750  11.976 -0.2249  0.2380 -0.1878
  384MPD2    H5 5748   0.132   1.721  12.068  0.7433  2.3233  0.1155
  384MPD2    N1 5749   4.546   2.049  12.198 -0.6332 -0.4016  0.0985
  384MPD2    H7 5750   4.587   2.013  12.284  1.0399 -2.5402 -1.6261
  385TMC3    C1 5751   0.234   1.568  11.933  0.1279 -0.0403  0.3907
  385TMC3    C2 5752   0.199   1.446  11.882 -0.5781 -0.2416 -0.0681
  385TMC3    C3 5753   0.175   1.342  11.965 -0.8245 -0.0857 -0.3260
  385TMC3    C4 5754   0.255   1.581  12.067 -0.6464  0.0232  0.2362
  385TMC3    C5 5755   0.221   1.473  12.146 -0.4483 -0.0813  0.2601
  385TMC3    C6 5756   0.184   1.355  12.096  0.2696 -0.1230  0.5771
  385TMC3     C 5757   0.151   1.673  11.879 -0.0748  0.1200 -0.1350
  385TMC3     O 5758   0.121   1.658  11.764  0.1081 -0.3141  0.2712
  385TMC3     H 5759   0.201   1.427  11.776  1.7350  0.4461 -0.1586
  385TMC3    H1 5760   0.275   1.679  12.109 -0.5095 -0.0720  0.3966
  385TMC3    H2 5761   0.147   1.277  12.161  1.1126 -0.0799  1.1094
  385TMC3    C7 5762   0.133   1.525  12.255  0.3902  0.4130  0.0305
  385TMC3    C8 5763   0.127   1.221  11.910 -0.1382  0.4289 -0.3065
  385TMC3    O1 5764   0.134   1.649  12.263 -0.0104 -0.1266  0.2809
  385TMC3    O2 5765   0.156   1.116  11.965  0.0917  0.0917  0.0327
  386TMC3    C1 5766   4.628   4.283  12.124 -0.1790 -0.4288 -0.1933
  386TMC3    C2 5767   4.613   4.226  11.998 -0.0692  0.3992  0.4779
  386TMC3    C3 5768   4.485   4.213  11.968 -0.6017  0.8636  0.0106
  386TMC3    C4 5769   4.525   4.311  12.212  0.6426 -0.5257 -0.4112
  386TMC3    C5 5770   4.403   4.290  12.167  0.0080 -0.3167 -0.2548
  386TMC3    C6 5771   4.382   4.244  12.048 -0.7875 -0.4717  0.0115
  386TMC3     C 5772   0.034   4.279  12.183  0.3910 -0.8711  0.3305
  386TMC3     O 5773   0.076   4.368  12.257 -0.5321 -0.7452  0.2768
  386TMC3     H 5774   4.694   4.216  11.926 -0.4709  0.7741 -0.0225
  386TMC3    H1 5775   4.552   4.324  12.316 -1.9142  1.4287  0.0263
  386TMC3    H2 5776   4.281   4.219  12.017 -0.0690 -1.4374 -1.5468
  386TMC3    C7 5777   4.294   4.317  12.251 -0.2829  0.0011  0.2159
  386TMC3    C8 5778   4.440   4.206  11.829 -0.3313 -0.0042  0.7571
  386TMC3    O1 5779   4.307   4.294  12.369 -0.0876  0.7659 -0.0599
  386TMC3    O2 5780   4.344   4.277  11.801  0.1816 -0.0648  0.4683
  387MPD2     C 5781   2.281   4.536   9.616  0.2007 -0.8592 -0.4787
  387MPD2    C1 5782   2.322   4.486   9.738 -0.4227 -0.4093 -0.6401
  387MPD2    C2 5783   2.355   4.351   9.751  0.3493 -0.1269 -0.0432
  387MPD2    C3 5784   2.359   4.274   9.636 -0.2874 -0.6384  0.4542
  387MPD2    C4 5785   2.310   4.325   9.517 -0.4449  0.6370 -0.0352
  387MPD2    C5 5786   2.288   4.458   9.501 -0.4226 -0.2619 -0.6194
  387MPD2     H 5787   2.381   4.312   9.849  2.0056  2.2362  0.4710
  387MPD2    H1 5788   2.309   4.271   9.423 -0.5203 -0.3337  0.5227
  387MPD2    H2 5789   2.260   4.641   9.598  2.8033 -0.2408  0.1273
  387MPD2    H3 5790   2.262   4.487   9.399  0.1964 -2.4468 -1.3854
  387MPD2     N 5791   2.397   4.134   9.645 -0.2810  0.1267  0.3244
  387MPD2    H5 5792   2.426   4.097   9.735 -0.8173  0.2721  0.5604
  387MPD2    N1 5793   2.336   4.569   9.854  0.2264  0.1099 -0.3245
  387MPD2    H7 5794   2.350   4.516   9.939  0.7888 -0.4623 -0.7719
  388TMC3    C1 5795   2.442   0.002   9.981  0.0575 -0.0501 -0.4806
  388TMC3    C2 5796   2.429   0.122  10.046  0.4915  0.2510 -0.3291
  388TMC3    C3 5797   2.502   0.142  10.163  0.4359  0.3367  0.2973
  388TMC3    C4 5798   2.517   4.619  10.031  0.5228 -0.4586  0.4120
  388TMC3    C5 5799   2.590   4.647  10.144  0.0342 -0.0393  0.4910
  388TMC3    C6 5800   2.590   0.048  10.209  0.3809  0.2092 -0.6276
  388TMC3     C 5801   2.357   4.701   9.863  0.0316 -0.2235 -0.0745
  388TMC3     O 5802   2.320   0.071   9.791 -0.4986 -0.4338 -0.0624
  388TMC3     H 5803   2.367   0.200  10.003 -1.4844 -1.2373 -0.1931
  388TMC3    H1 5804   2.518   4.524   9.978  2.0606 -1.1303  1.6296
  388TMC3    H2 5805   2.645   0.047  10.303  0.4624 -2.2730 -0.6933
  388TMC3    C7 5806   2.681   4.544  10.195 -0.7321  0.3233  0.0298
  388TMC3    C8 5807   2.544   0.282  10.196  0.0328  1.0124 -0.2063
  388TMC3    O1 5808   2.718   4.550  10.311 -0.6013 -0.0038  0.1575
  388TMC3    O2 5809   2.661   0.296  10.231  0.5061  0.0495 -0.2900
  389MPD2     C 5810   1.859   2.698  10.758  0.3779  0.1570 -0.2171
  389MPD2    C1 5811   1.763   2.618  10.701 -0.0650  0.0606 -0.0624
  389MPD2    C2 5812   1.683   2.543  10.786 -0.2609 -0.6740  0.5729
  389MPD2    C3 5813   1.709   2.544  10.921 -0.5205 -0.0023 -0.4774
  389MPD2    C4 5814   1.815   2.612  10.975  0.1721 -0.2183 -0.3449
  389MPD2    C5 5815   1.881   2.700  10.893 -0.0460  0.0344  0.1264
  389MPD2     H 5816   1.602   2.484  10.744 -0.8223  1.3496 -1.1930
  389MPD2    H1 5817   1.838   2.628  11.080  1.2777 -1.0272 -0.4653
  389MPD2    H2 5818   1.915   2.761  10.691  0.7673 -2.3317 -2.2024
  389MPD2    H3 5819   1.959   2.770  10.923  0.9477 -0.2490 -1.7826
  389MPD2     N 5820   1.627   2.484  11.020 -0.7358 -0.9046  0.7860
  389MPD2    H5 5821   1.637   2.510  11.118 -3.6752 -1.7881  1.3370
  389MPD2    N1 5822   1.741   2.627  10.560 -0.1588  0.1514 -0.4639
  389MPD2    H7 5823   1.775   2.711  10.513  1.3946  1.2119  2.5519
  390TMC3    C1 5824   1.417   2.415  11.097 -0.4830  0.0829 -0.7758
  390TMC3    C2 5825   1.344   2.304  11.131 -0.2979  0.1761 -0.3058
  390TMC3    C3 5826   1.243   2.328  11.219 -0.0465  0.2458  0.0511
  390TMC3    C4 5827   1.394   2.541  11.137 -0.6168 -0.3857  0.4081
  390TMC3    C5 5828   1.291   2.556  11.223 -0.0095 -0.2945  0.3045
  390TMC3    C6 5829   1.209   2.454  11.261 -0.2485 -0.1780 -0.1843
  390TMC3     C 5830   1.523   2.397  11.001 -0.6192 -0.3718  0.6247
  390TMC3     O 5831   1.504   2.337  10.897  0.5180  0.5614 -0.2621
  390TMC3     H 5832   1.374   2.207  11.092 -1.8732  0.5657 -2.5190
  390TMC3    H1 5833   1.452   2.628  11.110  2.8461 -2.6822  0.5109
  390TMC3    H2 5834   1.118   2.481  11.313  0.1313 -0.5315  0.6745
  390TMC3    C7 5835   1.258   2.692  11.255 -0.1344  0.4410  0.6037
  390TMC3    C8 5836   1.193   2.218  11.290 -0.0192  0.1538  0.3498
  390TMC3    O1 5837   1.283   2.775  11.170 -0.2491 -0.3633 -0.1742
  390TMC3    O2 5838   1.168   2.114  11.229 -0.1796  0.7495 -0.5316
  391MPD2     C 5839   0.720   4.242  11.609  0.4690 -0.6631 -0.2873
  391MPD2    C1 5840   0.776   4.344  11.536  0.5453  0.3919 -0.5469
  391MPD2    C2 5841   0.769   4.337  11.401 -0.4531  0.3462  0.3318
  391MPD2    C3 5842   0.697   4.237  11.335 -0.3213 -0.6399 -0.7860
  391MPD2    C4 5843   0.639   4.135  11.403  0.2682 -0.0131  1.2209
  391MPD2    C5 5844   0.653   4.138  11.542 -0.5171 -0.5661 -0.0088
  391MPD2     H 5845   0.816   4.409  11.335  0.9938 -1.5283 -0.6942
  391MPD2    H1 5846   0.603   4.041  11.364 -0.9387  0.5527  0.9445
  391MPD2    H2 5847   0.730   4.237  11.717 -2.6376  1.8259  0.0944
  391MPD2    H3 5848   0.603   4.058  11.596 -1.3560  0.2343  0.3995
  391MPD2     N 5849   0.683   4.243  11.194 -0.9648 -0.1152  0.0771
  391MPD2    H5 5850   0.735   4.320  11.153  0.1749 -0.9240 -0.0015
  391MPD2    N1 5851   0.866   4.434  11.602  0.1523  1.0880 -0.6338
  391MPD2    H7 5852   0.880   4.425  11.702 -1.9419 -1.0786 -0.5434
  392TMC3    C1 5853   0.667   4.159  10.974 -0.4804  0.8595  0.3860
  392TMC3    C2 5854   0.627   4.062  10.890  0.0027 -0.3318 -0.8167
  392TMC3    C3 5855   0.671   4.060  10.760 -1.2344 -0.3121 -0.4469
  392TMC3    C4 5856   0.760   4.255  10.927  1.0560 -0.1799 -0.1240
  392TMC3    C5 5857   0.795   4.253  10.795 -0.0985  0.6630 -0.3668
  392TMC3    C6 5858   0.747   4.160  10.709 -0.1555  0.1082  0.6190
  392TMC3     C 5859   0.630   4.145  11.111 -0.9134 -0.4549  0.0627
  392TMC3     O 5860   0.559   4.054  11.140 -0.5121  0.0282 -0.1214
  392TMC3     H 5861   0.558   3.984  10.920 -0.0978  0.1917  0.2919
  392TMC3    H1 5862   0.809   4.328  10.991 -0.9915  1.0788 -0.0155
  392TMC3    H2 5863   0.773   4.167  10.604  1.3121 -0.7132  0.9266
  392TMC3    C7 5864   0.898   4.357  10.755  0.2565  0.0499 -0.3269
  392TMC3    C8 5865   0.579   3.997  10.668 -0.0164  0.2081  0.3601
  392TMC3    O1 5866   0.922   4.441  10.840 -0.0041  0.6301 -0.0626
  392TMC3    O2 5867   0.472   3.961  10.717 -0.5417  0.1848 -0.4429
  393TMC3    C1 5868   4.515   1.752  10.634 -0.4125  0.1549 -0.4037
  393TMC3    C2 5869   4.410   1.729  10.717 -0.4852  0.3795  0.3501
  393TMC3    C3 5870   4.435   1.746  10.850 -0.1416  0.0500 -0.3663
  393TMC3    C4 5871   4.639   1.778  10.675  0.2401  0.2794  0.2008
  393TMC3    C5 5872   4.646   1.824  10.805 -0.0872 -0.2009  0.0913
  393TMC3    C6 5873   4.545   1.808  10.899  0.0650  0.1011 -0.7628
  393TMC3     C 5874   4.494   1.725  10.493  0.8065 -0.0702  0.3832
  393TMC3     O 5875   4.597   1.680  10.442  0.5253 -0.3045  0.0112
  393TMC3     H 5876   4.323   1.682  10.672 -0.2131  1.3280 -1.1966
  393TMC3    H1 5877   0.002   1.762  10.613  0.7674  0.4371  0.9022
  393TMC3    H2 5878   4.558   1.832  11.004 -1.6951 -1.2009 -0.2382
  393TMC3    C7 5879   0.059   1.866  10.848  0.1866  0.2297  0.5902
  393TMC3    C8 5880   4.325   1.711  10.945 -0.4170 -0.9563  0.0507
  393TMC3    O1 5881   0.065   1.861  10.969 -0.1291  0.6492 -0.1196
  393TMC3    O2 5882   4.219   1.676  10.897  0.0760  0.3764  0.0392
  394TMC3    C1 5883   1.673   2.558  10.339  0.6071  0.8960  0.2018
  394TMC3    C2 5884   1.581   2.483  10.277  0.3651 -0.5201 -0.2126
  394TMC3    C3 5885   1.541   2.541  10.157  0.1873 -0.2436  0.2484
  394TMC3    C4 5886   1.747   2.663  10.286  0.3845 -0.6921  0.6562
  394TMC3    C5 5887   1.717   2.699  10.159  0.4048  0.4181 -0.6301
  394TMC3    C6 5888   1.606   2.650  10.099 -0.2268 -0.1289  0.7721
  394TMC3     C 5889   1.680   2.529  10.483  0.1649  0.1796 -0.2925
  394TMC3     O 5890   1.628   2.426  10.521  0.0540 -0.3647 -0.3617
  394TMC3     H 5891   1.525   2.405  10.328  0.9194  0.1913  1.5135
  394TMC3    H1 5892   1.833   2.704  10.338  0.8030 -0.0306 -0.5473
  394TMC3    H2 5893   1.569   2.672   9.999  0.3852  0.4371  0.6724
  394TMC3    C7 5894   1.800   2.802  10.097 -0.5235 -0.9222 -0.3690
  394TMC3    C8 5895   1.417   2.496  10.096  0.3700 -0.4888  0.2475
  394TMC3    O1 5896   1.862   2.879  10.167  0.2896  0.3071  0.0317
  394TMC3    O2 5897   1.366   2.578  10.016  0.2274 -0.1803  0.2111
  395TMC3    C1 5898   1.027   0.269  14.656  0.3235  0.1213 -0.2579
  395TMC3    C2 5899   0.912   0.232  14.721  0.9121  0.7195 -0.1528
  395TMC3    C3 5900   0.887   0.284  14.844  0.4636  0.1809 -0.2080
  395TMC3    C4 5901   1.118   0.350  14.719  0.3456  0.6015  0.0876
  395TMC3    C5 5902   1.097   0.394  14.849 -0.7429 -0.1360  0.0286
  395TMC3    C6 5903   0.981   0.358  14.910 -0.3907  0.2020  0.5496
  395TMC3     C 5904   1.107   0.156  14.610 -0.1743  0.7063  0.7182
  395TMC3     O 5905   1.226   0.164  14.612  0.3471 -0.4880  0.9148
  395TMC3     H 5906   0.823   0.189  14.676  2.1469 -3.4663  1.4227
  395TMC3    H1 5907   1.207   0.382  14.666  0.6886  3.4854  2.4106
  395TMC3    H2 5908   0.966   0.372  15.017 -1.1585  0.8942  0.3521
  395TMC3    C7 5909   1.208   0.426  14.932  0.6754 -0.1923  0.8308
  395TMC3    C8 5910   0.772   0.245  14.921 -0.4193  0.0597  0.7396
  395TMC3    O1 5911   1.194   0.392  15.047  0.5074 -0.0465 -0.1314
  395TMC3    O2 5912   0.740   0.317  15.019 -0.4950 -0.1722 -0.6166
  396MPD2     C 5913   1.380   0.359  17.558 -0.3702  0.2879 -0.5898
  396MPD2    C1 5914   1.293   0.433  17.486  0.8220 -0.0120 -0.0413
  396MPD2    C2 5915   1.333   0.557  17.430 -0.3503  0.0388 -0.5092
  396MPD2    C3 5916   1.459   0.610  17.444  0.2661 -0.2303 -0.4229
  396MPD2    C4 5917   1.544   0.530  17.521  0.5028  0.4722  0.0488
  396MPD2    C5 5918   1.501   0.412  17.576  0.6906 -0.0134 -0.2890
  396MPD2     H 5919   1.260   0.610  17.370 -0.2515  1.8112  0.9455
  396MPD2    H1 5920   1.649   0.553  17.532  0.3406  0.3468  1.8953
  396MPD2    H2 5921   1.357   0.265  17.608 -0.3921  0.9285  0.5799
  396MPD2    H3 5922   1.570   0.358  17.640  1.3273  2.0235  0.7228
  396MPD2     N 5923   1.514   0.723  17.381 -0.2568  0.0046  0.5927
  396MPD2    H5 5924   1.612   0.735  17.405 -0.0072 -0.0737 -0.3783
  396MPD2    N1 5925   1.175   0.372  17.461  0.5363  0.3609  0.2498
  396MPD2    H7 5926   1.166   0.279  17.499 -2.1256  0.9153  0.9464
  397TMC3    C1 5927   0.968   0.327  17.354 -0.6282  0.1921 -0.2433
  397TMC3    C2 5928   0.893   0.349  17.239 -0.4119 -0.1254  0.3964
  397TMC3    C3 5929   0.892   0.239  17.157  0.5629 -0.6105 -0.4654
  397TMC3    C4 5930   0.995   0.199  17.402  0.3588  0.1930 -0.2504
  397TMC3    C5 5931   0.955   0.092  17.325 -0.4857  0.0999  0.6800
  397TMC3    C6 5932   0.905   0.113  17.199 -0.7616  0.7549 -0.2977
  397TMC3     C 5933   1.069   0.423  17.388 -0.1390  0.7324  1.0221
  397TMC3     O 5934   1.072   0.528  17.322  0.0323 -0.0366  0.3746
  397TMC3     H 5935   0.903   0.446  17.193 -1.2971 -0.2617 -0.0794
  397TMC3    H1 5936   1.033   0.177  17.501 -2.7677  0.8702  1.0991
  397TMC3    H2 5937   0.888   0.027  17.136 -1.5938  1.4351 -0.9920
  397TMC3    C7 5938   0.958   4.680  17.367 -0.3543 -0.0884  0.1714
  397TMC3    C8 5939   0.858   0.251  17.013 -0.5210  0.1411  0.3079
  397TMC3    O1 5940   0.987   4.601  17.277  0.8413 -0.6351 -0.2472
  397TMC3    O2 5941   0.847   0.365  16.966  0.1859  0.0127 -1.0166
  398MPD2     C 5942   4.098   0.594   0.095 -0.1478 -0.4836  0.6007
  398MPD2    C1 5943   4.136   0.558   0.222  0.2881 -0.3151 -0.2936
  398MPD2    C2 5944   4.134   0.650   0.324 -0.3665  0.3347  1.0151
  398MPD2    C3 5945   4.088   0.782   0.301  0.1131 -0.2267 -0.4059
  398MPD2    C4 5946   4.038   0.806   0.174  0.2015 -0.0425 -0.8575
  398MPD2    C5 5947   4.048   0.715   0.075  0.1839 -0.1588 -0.6629
  398MPD2     H 5948   4.163   0.610   0.420  1.6999 -3.0830 -1.0576
  398MPD2    H1 5949   3.999   0.902   0.145  1.6922  0.7887 -0.1205
  398MPD2    H2 5950   4.095   0.531   0.007 -0.2156  1.0472 -0.4767
  398MPD2    H3 5951   4.012   0.744  17.674 -0.9199 -0.6981 -0.4184
  398MPD2     N 5952   4.073   0.869   0.414  0.1114  0.2589 -0.0325
  398MPD2    H5 5953   4.118   0.858   0.504 -1.3461 -0.1798  0.6520
  398MPD2    N1 5954   4.177   0.424   0.252  0.5484  0.5503  0.3183
  398MPD2    H7 5955   4.218   0.413   0.344 -0.7329  2.1932  1.0905
  399TMC3    C1 5956   4.190   0.189   0.233  0.4133 -0.4765  0.6791
  399TMC3    C2 5957   4.300   0.192   0.314 -0.0392 -0.4003  0.2871
  399TMC3    C3 5958   4.323   0.077   0.381  0.2863  0.8708 -0.3578
  399TMC3    C4 5959   4.115   0.078   0.199  0.2013  0.3276  0.0742
  399TMC3    C5 5960   4.150   4.688   0.260 -0.3451 -0.1691  1.1605
  399TMC3    C6 5961   4.252   4.685   0.358  0.8231  0.3716 -0.0759
  399TMC3     C 5962   4.145   0.316   0.167 -0.6137  0.3986 -0.1599
  399TMC3     O 5963   4.086   0.302   0.060 -0.0754 -1.0858 -0.8286
  399TMC3     H 5964   4.365   0.279   0.317  0.8548 -1.0440 -0.6480
  399TMC3    H1 5965   4.019   0.084   0.149 -1.1537 -1.1863  2.5201
  399TMC3    H2 5966   4.273   4.585   0.395 -1.3548  0.3127  1.0230
  399TMC3    C7 5967   4.050   4.586   0.281 -0.5512  0.4436 -0.1847
  399TMC3    C8 5968   4.456   0.071   0.432  0.2985 -0.9515 -0.4927
  399TMC3    O1 5969   4.054   4.528   0.387  0.1547  0.6887  0.1557
  399TMC3    O2 5970   4.524   0.174   0.429  0.0704  0.1629 -0.1567
  400TMC3    C1 5971   1.911   4.329  17.186 -0.3444  0.0824  0.6090
  400TMC3    C2 5972   1.859   4.209  17.149 -0.1187 -0.0527  0.0685
  400TMC3    C3 5973   1.724   4.198  17.122 -0.8076 -0.1081  0.2920
  400TMC3    C4 5974   1.830   4.440  17.201  0.4253 -0.1797  0.1178
  400TMC3    C5 5975   1.701   4.426  17.162  0.2333  0.3094  0.3276
  400TMC3    C6 5976   1.640   4.309  17.133 -0.1846  0.1374 -0.6361
  400TMC3     C 5977   2.045   4.327  17.242 -0.4185  0.5642  0.0686
  400TMC3     O 5978   2.096   4.217  17.263  0.4015 -0.1160  0.0136
  400TMC3     H 5979   1.927   4.127  17.126 -0.2181  0.2945 -1.4220
  400TMC3    H1 5980   1.867   4.534  17.242 -1.4573 -0.0911  1.5611
  400TMC3    H2 5981   1.535   4.311  17.108 -0.5645  0.9117  1.0445
  400TMC3    C7 5982   1.636   4.546  17.095  0.0059  0.3541  0.1083
  400TMC3    C8 5983   1.690   4.105  17.015  0.6583  0.2433  0.0415
  400TMC3    O1 5984   1.525   4.531  17.048  0.2611 -0.0906  0.0533
  400TMC3    O2 5985   1.776   4.025  16.972  0.2649 -0.0784 -0.3649
  401MPD2     C 5986   1.476   3.090   1.559  0.4737  0.1621  0.3656
  401MPD2    C1 5987   1.514   3.074   1.424 -0.8610  0.6375  0.0602
  401MPD2    C2 5988   1.492   2.951   1.366  0.4229 -0.3797 -0.2997
  401MPD2    C3 5989   1.448   2.838   1.439 -0.1027  0.2057  0.0007
  401MPD2    C4 5990   1.420   2.851   1.576  0.1430  0.6084  0.5464
  401MPD2    C5 5991   1.417   2.979   1.627  0.2914  0.1373  0.1847
  401MPD2     H 5992   1.504   2.945   1.258  0.6818  0.7473 -0.3285
  401MPD2    H1 5993   1.382   2.776   1.645 -0.1532  2.4123  2.3635
  401MPD2    H2 5994   1.473   3.187   1.607  2.4876  0.5944 -0.3759
  401MPD2    H3 5995   1.372   2.998   1.724 -1.1939  1.0910 -0.7070
  401MPD2     N 5996   1.423   2.715   1.368 -0.3137 -0.9867  0.1055
  401MPD2    H5 5997   1.427   2.708   1.267 -2.2848 -1.9226  0.0903
  401MPD2    N1 5998   1.570   3.181   1.351 -0.3909 -0.3939  0.0240
  401MPD2    H7 5999   1.628   3.153   1.272 -0.1616  1.7104 -0.5718
  402TMC3    C1 6000   1.418   2.479   1.350  0.0479 -0.7802 -0.1312
  402TMC3    C2 6001   1.458   2.359   1.397  0.1567  0.4997 -0.3044
  402TMC3    C3 6002   1.477   2.260   1.309  0.5036  0.5375  0.0164
  402TMC3    C4 6003   1.376   2.498   1.224 -0.0280 -0.2677  0.2580
  402TMC3    C5 6004   1.391   2.395   1.136  0.0538 -0.0931 -0.8401
  402TMC3    C6 6005   1.436   2.273   1.178  0.0906  0.2427  0.7146
  402TMC3     C 6006   1.438   2.600   1.428  0.7424 -0.0312 -0.2395
  402TMC3     O 6007   1.493   2.586   1.540 -0.1526  0.2169  0.0813
  402TMC3     H 6008   1.501   2.364   1.496  0.2959 -1.5464 -0.2768
  402TMC3    H1 6009   1.325   2.588   1.189 -0.4183 -0.8293 -0.6239
  402TMC3    H2 6010   1.438   2.186   1.114 -1.0855  0.3603  0.5201
  402TMC3    C7 6011   1.317   2.392   1.008  0.6488 -0.3764  0.4284
  402TMC3    C8 6012   1.533   2.137   1.344  0.0290 -0.0483  0.6661
  402TMC3    O1 6013   1.326   2.291   0.938 -0.0165  0.0323  0.4973
  402TMC3    O2 6014   1.548   2.062   1.247  0.1826 -0.4636 -0.1564
  403MPD2     C 6015   4.332   2.451  13.533 -0.0959 -0.5490 -0.1362
  403MPD2    C1 6016   4.275   2.355  13.620 -0.6646 -0.2179  0.2664
  403MPD2    C2 6017   4.354   2.314  13.726  0.8348 -0.1388  0.1522
  403MPD2    C3 6018   4.466   2.387  13.761 -0.1172  0.0739 -0.0197
  403MPD2    C4 6019   4.505   2.490  13.678 -0.2039 -0.6216 -0.3662
  403MPD2    C5 6020   4.445   2.515  13.560 -0.2831 -0.5841  0.2034
  403MPD2     H 6021   4.318   2.240  13.796 -2.3290 -0.4963 -1.8404
  403MPD2    H1 6022   4.596   2.545  13.702 -2.0668  1.7270  1.3914
  403MPD2    H2 6023   4.270   2.487  13.452  1.2548 -0.9239 -1.3422
  403MPD2    H3 6024   4.483   2.593  13.495 -0.0460 -1.0713 -0.2429
  403MPD2     N 6025   4.535   2.352  13.881 -0.6318 -0.4407  0.3220
  403MPD2    H5 6026   4.497   2.273  13.933 -2.4662 -1.0811 -2.0152
  403MPD2    N1 6027   4.148   2.300  13.602 -0.5358 -0.5732 -0.7124
  403MPD2    H7 6028   4.088   2.342  13.532  0.8214  0.4963 -1.2165
  404TMC3    C1 6029   3.963   2.140  13.609  0.8854 -0.9790 -0.5496
  404TMC3    C2 6030   3.914   2.042  13.691  0.1213 -0.3208  0.0640
  404TMC3    C3 6031   3.837   1.939  13.650  0.9284  0.0500  0.0436
  404TMC3    C4 6032   3.944   2.126  13.476 -0.1539  0.1615 -0.6236
  404TMC3    C5 6033   3.870   2.023  13.426 -0.5517 -0.4874  0.3638
  404TMC3    C6 6034   3.818   1.925  13.514  0.2380  0.2510 -0.7664
  404TMC3     C 6035   4.099   2.179  13.655  0.0416  0.3161 -1.1496
  404TMC3     O 6036   4.152   2.096  13.723 -0.3041 -0.1665  0.2092
  404TMC3     H 6037   3.938   2.034  13.796  0.6673  1.2473  0.0612
  404TMC3    H1 6038   3.994   2.195  13.409  0.9102 -0.3367 -0.3459
  404TMC3    H2 6039   3.759   1.839  13.487  0.3054  0.5036 -1.7048
  404TMC3    C7 6040   3.854   2.019  13.285  0.0227  0.0763 -0.2919
  404TMC3    C8 6041   3.872   1.829  13.723  0.3805 -0.3354 -0.2319
  404TMC3    O1 6042   3.892   2.123  13.233  0.0239  0.7692  0.4589
  404TMC3    O2 6043   3.958   1.752  13.680  0.5255  0.0812 -0.3548
  405MPD2     C 6044   4.606   2.837  15.195  0.0744 -0.4133 -0.4609
  405MPD2    C1 6045   4.558   2.751  15.098  0.4068 -0.1102 -0.1489
  405MPD2    C2 6046   4.504   2.813  14.989 -0.0805 -0.2626 -0.5541
  405MPD2    C3 6047   4.502   2.947  14.981  0.2567 -0.1756  0.0916
  405MPD2    C4 6048   4.548   3.033  15.077  1.1048 -0.0386  0.7345
  405MPD2    C5 6049   4.602   2.973  15.189  0.2027 -0.0934  0.0712
  405MPD2     H 6050   4.459   2.759  14.906  0.2407 -1.5576  0.1131
  405MPD2    H1 6051   4.556   3.141  15.073  0.4816 -0.0135  0.1074
  405MPD2    H2 6052   4.647   2.798  15.287 -1.0593  1.3179  0.7870
  405MPD2    H3 6053   4.648   3.039  15.261 -0.8183  0.3046  0.3685
  405MPD2     N 6054   4.458   2.988  14.855 -0.0240 -0.5147 -0.0155
  405MPD2    H5 6055   4.422   2.917  14.793  1.6268  0.0183 -1.5788
  405MPD2    N1 6056   4.569   2.607  15.116  0.2668 -0.2126 -0.4243
  405MPD2    H7 6057   4.579   2.567  15.209  0.0280 -0.9884 -0.7345
  406TMC3    C1 6058   4.189   3.208  14.554  0.4908 -0.0380 -0.2978
  406TMC3    C2 6059   4.208   3.113  14.461 -0.3908  0.3482  0.2890
  406TMC3    C3 6060   4.308   3.013  14.480  0.3055 -0.0683  0.3020
  406TMC3    C4 6061   4.270   3.218  14.664 -0.4902  0.2676  0.4199
  406TMC3    C5 6062   4.370   3.123  14.682  0.2122  0.4933 -0.4229
  406TMC3    C6 6063   4.395   3.030  14.587  0.4443  0.4153  0.1312
  406TMC3     C 6064   4.073   3.281  14.556  0.3549  0.3295  0.1830
  406TMC3     O 6065   4.082   3.392  14.514 -0.6158  0.2910 -0.1925
  406TMC3     H 6066   4.132   3.103  14.385 -0.1234  1.0618 -0.0630
  406TMC3    H1 6067   4.239   3.289  14.740  2.5891  1.3240  0.6830
  406TMC3    H2 6068   4.476   2.961  14.608 -0.6273 -0.5164  1.2062
  406TMC3    C7 6069   4.422   3.116  14.814 -0.3954  0.1153  0.0131
  406TMC3    C8 6070   4.289   2.882  14.423 -0.6967 -0.1561 -0.5237
  406TMC3    O1 6071   4.425   3.221  14.877  0.4117 -0.0190  0.2633
  406TMC3    O2 6072   4.227   2.876  14.313  0.4484  0.3883 -0.4964
  407MPD2     C 6073   2.014   3.950   9.303  1.1459  0.0788 -0.1727
  407MPD2    C1 6074   2.059   3.877   9.415 -0.6966 -0.6811 -0.2582
  407MPD2    C2 6075   2.077   3.945   9.534  0.4155  0.3570  0.5615
  407MPD2    C3 6076   2.033   4.070   9.549  0.1292  0.2768  0.5987
  407MPD2    C4 6077   1.974   4.136   9.446 -0.5427 -0.0805 -0.5042
  407MPD2    C5 6078   1.969   4.082   9.323  0.4390 -0.9120 -0.3954
  407MPD2     H 6079   2.141   3.908   9.614 -1.3969 -3.1592  0.3525
  407MPD2    H1 6080   1.945   4.241   9.446 -1.4714 -0.3456 -1.2956
  407MPD2    H2 6081   2.023   3.913   9.202  1.9541  0.3435 -0.2006
  407MPD2    H3 6082   1.926   4.135   9.239 -1.1522  1.3775  1.8663
  407MPD2     N 6083   2.028   4.132   9.673  0.0042 -0.2462 -0.0177
  407MPD2    H5 6084   1.969   4.214   9.673 -0.0626 -0.2947  1.0238
  407MPD2    N1 6085   2.081   3.737   9.410 -0.1686 -0.3579  0.0681
  407MPD2    H7 6086   2.148   3.695   9.473 -1.6235 -2.0048  0.5290
  408TMC3    C1 6087   2.031   3.512   9.344 -0.7125 -0.5385  0.9004
  408TMC3    C2 6088   2.161   3.467   9.331 -0.2285 -0.1139  0.4354
  408TMC3    C3 6089   2.181   3.327   9.315  0.4235 -0.1507  0.4557
  408TMC3    C4 6090   1.923   3.434   9.340 -1.1591 -0.0643  0.3012
  408TMC3    C5 6091   1.948   3.294   9.322  0.0145 -0.0034  0.1479
  408TMC3    C6 6092   2.074   3.245   9.312  0.7405  0.3147 -0.3680
  408TMC3     C 6093   1.998   3.653   9.329  0.4218 -0.1996  0.1104
  408TMC3     O 6094   1.905   3.682   9.253 -0.5761  0.2881  0.2437
  408TMC3     H 6095   2.242   3.536   9.309 -0.8264  0.9217  1.4370
  408TMC3    H1 6096   1.828   3.480   9.367 -1.0097  0.3948  0.0440
  408TMC3    H2 6097   2.091   3.138   9.314 -0.9294  0.1052  1.9712
  408TMC3    C7 6098   1.835   3.199   9.309 -0.5005  0.5140  0.1838
  408TMC3    C8 6099   2.312   3.277   9.280  0.1656 -0.4956  0.6391
  408TMC3    O1 6100   1.855   3.088   9.263  0.2639 -1.2718 -0.0729
  408TMC3    O2 6101   2.304   3.173   9.212 -0.8740 -0.0334 -0.0914
  409MPD2     C 6102   1.202   3.986  17.111  0.0408 -0.2544  0.5421
  409MPD2    C1 6103   1.288   4.019  17.214  0.0355  0.1654 -0.5213
  409MPD2    C2 6104   1.300   4.145  17.259 -0.1828  0.1459  0.0189
  409MPD2    C3 6105   1.228   4.256  17.202 -0.2049  0.2435 -0.0877
  409MPD2    C4 6106   1.150   4.219  17.097  0.2816  0.3377 -0.6060
  409MPD2    C5 6107   1.134   4.087  17.054  0.5555 -0.0539  0.2929
  409MPD2     H 6108   1.358   4.162  17.349 -2.1959  3.3760  0.6785
  409MPD2    H1 6109   1.095   4.297  17.047  0.9926  1.3799  0.2413
  409MPD2    H2 6110   1.176   3.886  17.078  1.0713 -0.6344  0.8775
  409MPD2    H3 6111   1.073   4.057  16.969 -0.0379  1.2481  0.2436
  409MPD2     N 6112   1.234   4.390  17.242  0.3581  0.4982 -0.1164
  409MPD2    H5 6113   1.161   4.456  17.217  1.7786  2.0974 -0.0355
  409MPD2    N1 6114   1.355   3.922  17.290 -0.9882  0.5579  0.0042
  409MPD2    H7 6115   1.422   3.951  17.360 -1.5624  1.4968  0.1513
  410TMC3    C1 6116   1.326   4.575  17.354 -0.3384 -0.4891  1.1866
  410TMC3    C2 6117   1.416   4.614  17.446 -0.0847  0.4836  0.0352
  410TMC3    C3 6118   1.493   0.001  17.424  0.5075 -0.2225 -0.6324
  410TMC3    C4 6119   1.291   4.662  17.252 -0.8548 -0.4058 -0.1286
  410TMC3    C5 6120   1.347   0.063  17.251  0.2754  0.0670  0.6110
  410TMC3    C6 6121   1.457   0.098  17.334 -0.7280 -0.1254  0.5700
  410TMC3     C 6122   1.334   4.434  17.326  0.0250 -0.0188 -0.2169
  410TMC3     O 6123   1.429   4.374  17.368  0.2326 -0.3257 -0.1138
  410TMC3     H 6124   1.428   4.557  17.538  4.3366 -0.1582 -0.9151
  410TMC3    H1 6125   1.216   4.639  17.178 -0.5476 -0.5030 -0.4124
  410TMC3    H2 6126   1.500   0.197  17.334 -0.6100 -0.1761 -0.5037
  410TMC3    C7 6127   1.289   0.162  17.163 -0.1147  0.4997  0.0900
  410TMC3    C8 6128   1.633   4.706  17.470 -0.0449  0.2161  0.7529
  410TMC3    O1 6129   1.213   0.114  17.084 -0.2496 -0.5341  0.1687
  410TMC3    O2 6130   1.696   0.085  17.492  0.3762 -0.3775 -0.3704
  411MPD2     C 6131   1.679   1.046  14.987 -0.2963  0.7690 -0.3026
  411MPD2    C1 6132   1.692   1.156  14.908  0.6452  0.0841 -0.0590
  411MPD2    C2 6133   1.742   1.147  14.776 -0.4246 -0.2110  0.1023
  411MPD2    C3 6134   1.771   1.026  14.724  0.1495  0.4822  0.2001
  411MPD2    C4 6135   1.767   0.911  14.806 -0.5426 -0.5081  0.5410
  411MPD2    C5 6136   1.726   0.929  14.936  0.0448  0.0686  0.1989
  411MPD2     H 6137   1.758   1.238  14.720  0.9955 -1.3867 -1.4018
  411MPD2    H1 6138   1.797   0.814  14.769  2.8229  0.3208  1.0592
  411MPD2    H2 6139   1.654   1.061  15.091  0.3263  0.1780 -0.0663
  411MPD2    H3 6140   1.729   0.842  15.001  2.9649 -0.0493 -0.0813
  411MPD2     N 6141   1.810   0.999  14.594  0.0297 -0.0871 -0.1058
  411MPD2    H5 6142   1.831   0.902  14.575 -0.3474 -0.1533 -0.1862
  411MPD2    N1 6143   1.666   1.282  14.965 -0.1129  0.1651  0.0511
  411MPD2    H7 6144   1.641   1.284  15.063  2.8395  0.0847  0.8048
  412TMC3    C1 6145   1.848   1.038  14.358  0.5273 -0.2220  0.2615
  412TMC3    C2 6146   1.924   0.926  14.353  0.0927  0.0065  0.6390
  412TMC3    C3 6147   1.945   0.885  14.220  0.1069  0.5953 -0.2948
  412TMC3    C4 6148   1.796   1.106  14.255  0.0780  0.3173  0.1537
  412TMC3    C5 6149   1.819   1.056  14.135 -0.4587 -0.4423 -0.3587
  412TMC3    C6 6150   1.894   0.947  14.113  0.4705  0.1759  0.1254
  412TMC3     C 6151   1.798   1.085  14.486 -0.1219 -0.4393  0.4473
  412TMC3     O 6152   1.768   1.202  14.499  0.4906  0.8478 -0.3964
  412TMC3     H 6153   1.930   0.868  14.444 -2.3485 -1.1149  0.0918
  412TMC3    H1 6154   1.736   1.195  14.267  0.3443  0.2640  1.8884
  412TMC3    H2 6155   1.918   0.920  14.011 -0.3194  1.2898 -0.3550
  412TMC3    C7 6156   1.701   1.043  14.052  0.0215 -0.0466 -0.1687
  412TMC3    C8 6157   1.927   0.743  14.213 -0.0011  0.2949 -0.0973
  412TMC3    O1 6158   1.703   0.934  13.996 -1.0163  0.0240  0.1227
  412TMC3    O2 6159   1.970   0.677  14.308  0.4020  0.3734  0.1023
  413MPD2     C 6160   3.398   4.264  15.589 -0.4696 -0.7304 -0.0881
  413MPD2    C1 6161   3.298   4.175  15.569 -0.0925 -0.0944 -0.5003
  413MPD2    C2 6162   3.318   4.051  15.505  0.1239  0.4869  0.4579
  413MPD2    C3 6163   3.444   4.020  15.459 -0.0014  0.4365  0.0178
  413MPD2    C4 6164   3.543   4.110  15.486  0.7604  0.0765 -0.1166
  413MPD2    C5 6165   3.520   4.226  15.548 -0.0854 -0.8049  0.0066
  413MPD2     H 6166   3.227   3.993  15.497  0.7811 -0.4006 -0.7109
  413MPD2    H1 6167   3.645   4.097  15.451  1.3605  1.4271  1.1417
  413MPD2    H2 6168   3.393   4.348  15.657  1.0516 -0.6913 -0.0173
  413MPD2    H3 6169   3.611   4.282  15.566  0.0648 -0.2263 -2.4555
  413MPD2     N 6170   3.453   3.895  15.390 -0.1044 -0.3737  1.0421
  413MPD2    H5 6171   3.370   3.842  15.366 -1.5028  1.1985  2.3915
  413MPD2    N1 6172   3.170   4.197  15.608 -0.1901 -0.2631  0.4367
  413MPD2    H7 6173   3.102   4.125  15.589  0.5391 -0.0985 -2.8586
  414TMC3    C1 6174   3.553   3.710  15.292  0.2067 -0.0064 -0.6108
  414TMC3    C2 6175   3.635   3.614  15.331 -0.2212  0.3676  0.6889
  414TMC3    C3 6176   3.628   3.488  15.282  1.0000 -0.3951 -0.2425
  414TMC3    C4 6177   3.482   3.689  15.175  0.2664  0.5083  0.2860
  414TMC3    C5 6178   3.499   3.570  15.110 -0.2074 -0.2528 -0.0288
  414TMC3    C6 6179   3.558   3.464  15.173 -0.9468 -0.0211 -0.2153
  414TMC3     C 6180   3.577   3.841  15.354  0.0674  0.0179  0.2862
  414TMC3     O 6181   3.683   3.895  15.352 -1.4616 -0.7823  0.0224
  414TMC3     H 6182   3.711   3.640  15.404  0.6001 -0.6000  0.1857
  414TMC3    H1 6183   3.435   3.772  15.125 -1.0522 -0.1059  0.5175
  414TMC3    H2 6184   3.558   3.370  15.118  2.4078 -0.0162 -0.2035
  414TMC3    C7 6185   3.582   3.607  14.993 -0.5278 -0.2137  0.2044
  414TMC3    C8 6186   3.744   3.398  15.294  1.1781 -0.2298 -0.6261
  414TMC3    O1 6187   3.552   3.713  14.943  0.1541 -0.1597 -0.3454
  414TMC3    O2 6188   3.756   3.313  15.205 -0.0417 -0.1421  0.1650
  415TMC3    C1 6189   3.276   1.286  10.074 -0.4429 -0.3756 -0.6868
  415TMC3    C2 6190   3.274   1.370   9.966  0.1175  0.3054 -0.3438
  415TMC3    C3 6191   3.269   1.322   9.835  0.0992  0.2278 -0.4166
  415TMC3    C4 6192   3.275   1.153  10.057  0.6321  0.9227  0.1359
  415TMC3    C5 6193   3.262   1.107   9.931 -0.4894  0.3077  0.5139
  415TMC3    C6 6194   3.248   1.179   9.822  0.5945 -0.5818  0.7263
  415TMC3     C 6195   3.280   1.335  10.211  0.9645 -0.1046  0.1651
  415TMC3     O 6196   3.221   1.270  10.292  0.0951  0.2256 -0.6786
  415TMC3     H 6197   3.286   1.477   9.981 -0.1470  0.5125 -1.6054
  415TMC3    H1 6198   3.268   1.091  10.145  0.9772 -0.6185 -0.9363
  415TMC3    H2 6199   3.248   1.135   9.723  0.3943  1.0027  0.0189
  415TMC3    C7 6200   3.248   0.962   9.908  0.4764  0.4778 -0.9592
  415TMC3    C8 6201   3.256   1.404   9.720 -1.0157  0.1090 -0.2722
  415TMC3    O1 6202   3.221   0.931   9.791  1.1191 -0.0417  0.9206
  415TMC3    O2 6203   3.176   1.376   9.633  0.1014 -0.4379  0.1170
  416MPD2     C 6204   0.948   1.015  11.418 -1.2079  0.0359  0.4018
  416MPD2    C1 6205   0.885   0.913  11.485  0.3527 -0.3623  0.5561
  416MPD2    C2 6206   0.877   0.792  11.412  0.4749  0.1007 -0.0010
  416MPD2    C3 6207   0.910   0.777  11.280  0.9279  0.6853  0.5461
  416MPD2    C4 6208   0.953   0.890  11.210 -0.0740  0.1775  0.3769
  416MPD2    C5 6209   0.983   0.996  11.286  0.0949  0.5421 -0.5163
  416MPD2     H 6210   0.852   0.696  11.454 -0.8441  0.0608 -0.8796
  416MPD2    H1 6211   0.991   0.886  11.109  1.4474 -2.0116  1.0321
  416MPD2    H2 6212   0.980   1.102  11.474 -1.2756  0.7519 -0.6962
  416MPD2    H3 6213   1.027   1.085  11.242  0.3203 -0.1976 -1.7836
  416MPD2     N 6214   0.887   0.652  11.230  0.6551  0.0357  0.7479
  416MPD2    H5 6215   0.868   0.582  11.301 -0.5880  0.3724  0.7624
  416MPD2    N1 6216   0.846   0.933  11.621 -0.4046  0.2474 -0.2887
  416MPD2    H7 6217   0.861   1.023  11.666 -1.5018 -0.5904  1.7288
  417TMC3    C1 6218   0.687   0.879  11.782  0.0946 -0.1983 -0.8125
  417TMC3    C2 6219   0.731   0.991  11.848 -0.4004 -0.6104  0.2523
  417TMC3    C3 6220   0.631   1.078  11.893 -0.1038 -0.5547 -0.1066
  417TMC3    C4 6221   0.553   0.865  11.752 -0.6793 -0.5703  0.0656
  417TMC3    C5 6222   0.463   0.962  11.784  0.5769  0.1090  0.2486
  417TMC3    C6 6223   0.500   1.065  11.867  0.0217 -0.5091  0.3563
  417TMC3     C 6224   0.770   0.829  11.682 -0.0645 -0.0533 -0.2605
  417TMC3     O 6225   0.737   0.724  11.627  0.1071  0.1447 -0.1235
  417TMC3     H 6226   0.839   0.999  11.861 -0.5626  0.5661  0.8879
  417TMC3    H1 6227   0.520   0.785  11.687  1.6225 -0.1257 -1.6428
  417TMC3    H2 6228   0.433   1.147  11.890  0.9419  0.4828 -0.5291
  417TMC3    C7 6229   0.366   1.005  11.688 -0.0125 -0.3869 -0.4240
  417TMC3    C8 6230   0.649   1.171  11.996 -0.6018 -0.9798 -0.1950
  417TMC3    O1 6231   0.385   1.122  11.649 -0.2247  0.6422 -0.3889
  417TMC3    O2 6232   0.551   1.203  12.060  0.4376  0.2570  0.2510
  418TMC3    C1 6233   4.282   1.166   0.548  0.2407 -0.5946 -0.2433
  418TMC3    C2 6234   4.160   1.178   0.487  0.1626 -0.8256 -0.1819
  418TMC3    C3 6235   4.065   1.083   0.523 -0.5256 -0.2343  0.5400
  418TMC3    C4 6236   4.307   1.076   0.651  0.1804  0.1813 -0.7924
  418TMC3    C5 6237   4.203   0.999   0.692 -0.5750  0.6540  0.7212
  418TMC3    C6 6238   4.088   0.993   0.625  0.2201  0.2731  0.1118
  418TMC3     C 6239   4.395   1.205   0.473  0.3379 -0.1475  0.4322
  418TMC3     O 6240   4.382   1.308   0.401 -0.3395 -0.2448  0.3395
  418TMC3     H 6241   4.148   1.240   0.400  0.9740  1.2332  1.1597
  418TMC3    H1 6242   4.392   1.073   0.718 -0.6392 -1.7892  0.1388
  418TMC3    H2 6243   4.007   0.939   0.670  0.0245  1.6770  1.4279
  418TMC3    C7 6244   4.225   0.888   0.779  0.6018 -0.2610 -0.1362
  418TMC3    C8 6245   4.032   1.005   0.403 -0.3798  0.4940  0.4405
  418TMC3    O1 6246   4.165   0.784   0.753  0.0057 -0.3017  0.5976
  418TMC3    O2 6247   4.012   1.075   0.305  0.0978  0.0367  0.5170
  419MPD2     C 6248   2.615   0.358  12.538 -0.0741 -0.4594  0.3522
  419MPD2    C1 6249   2.573   0.492  12.557  0.0600  0.2802  0.2896
  419MPD2    C2 6250   2.512   0.524  12.672  0.2596 -0.2529  0.1144
  419MPD2    C3 6251   2.495   0.436  12.774 -0.6307  0.1643  0.5816
  419MPD2    C4 6252   2.534   0.304  12.752  0.6690 -0.4171 -0.3706
  419MPD2    C5 6253   2.596   0.264  12.639 -0.4143 -1.0079 -0.0441
  419MPD2     H 6254   2.487   0.627  12.694 -0.3545 -0.5110  0.6338
  419MPD2    H1 6255   2.510   0.227  12.824 -5.2841 -0.4891 -2.4056
  419MPD2    H2 6256   2.657   0.324  12.444 -1.0440 -0.4880 -0.0675
  419MPD2    H3 6257   2.624   0.161  12.619 -1.3197 -1.4803  1.1280
  419MPD2     N 6258   2.450   0.486  12.899  0.0359  0.0927  0.0194
  419MPD2    H5 6259   2.407   0.579  12.899  1.5827  0.8215 -4.1068
  419MPD2    N1 6260   2.615   0.604  12.481  0.5240  0.6019  0.9959
  419MPD2    H7 6261   2.610   0.698  12.518 -0.7109  1.1182 -0.4566
  420TMC3    C1 6262   2.413   0.490  13.129 -0.5002  0.1060 -0.4887
  420TMC3    C2 6263   2.308   0.573  13.106 -0.0913 -0.2272  0.0305
  420TMC3    C3 6264   2.291   0.680  13.189  0.4771  0.1206 -0.6975
  420TMC3    C4 6265   2.507   0.509  13.232 -0.3243  0.3807  0.6437
  420TMC3    C5 6266   2.488   0.624  13.307  0.0812  0.1095 -0.0346
  420TMC3    C6 6267   2.379   0.700  13.298 -0.3971 -0.5867  0.3543
  420TMC3     C 6268   2.449   0.409  13.012 -0.8598 -0.4247  0.3054
  420TMC3     O 6269   2.507   0.303  13.034 -0.0394  0.1259 -0.2163
  420TMC3     H 6270   2.250   0.556  13.016 -2.3302 -0.2817  1.4677
  420TMC3    H1 6271   2.589   0.439  13.242  0.8814  1.6580 -0.3524
  420TMC3    H2 6272   2.373   0.792  13.355 -0.1402  0.3182 -1.0720
  420TMC3    C7 6273   2.563   0.640  13.427 -0.4664  0.2402 -0.2827
  420TMC3    C8 6274   2.211   0.791  13.143  0.4010 -0.1370 -0.2760
  420TMC3    O1 6275   2.505   0.670  13.528  0.1600  0.2961  0.4664
  420TMC3    O2 6276   2.241   0.903  13.188  0.1212  0.7744  0.2392
  421TMC3    C1 6277   4.667   2.379  14.068 -0.2094  0.1589 -0.4874
  421TMC3    C2 6278   4.686   2.461  14.180  0.3242 -0.0644 -0.5872
  421TMC3    C3 6279   4.719   2.393  14.296 -0.2821 -0.3439 -0.0220
  421TMC3    C4 6280   4.700   2.244  14.074 -0.1576 -0.5649  0.5638
  421TMC3    C5 6281   0.001   2.180  14.191  0.2411 -0.3084  0.4129
  421TMC3    C6 6282   0.006   2.256  14.306 -0.1686 -0.7377  0.3382
  421TMC3     C 6283   4.613   2.438  13.949  0.2662 -0.1102  0.3456
  421TMC3     O 6284   4.635   2.558  13.927 -0.3740  0.1432 -0.2320
  421TMC3     H 6285   4.658   2.565  14.171  1.9785  0.5062  0.8871
  421TMC3    H1 6286   0.008   2.197  13.982  0.3657 -0.1232  0.5273
  421TMC3    H2 6287   0.050   2.212  14.395  1.0628 -1.8114 -0.7982
  421TMC3    C7 6288   0.093   2.064  14.189 -0.4971  0.0589 -0.2784
  421TMC3    C8 6289   0.006   2.469  14.417  0.2014  0.8465  0.4058
  421TMC3    O1 6290   0.181   2.072  14.105 -0.8501 -0.2816 -0.6215
  421TMC3    O2 6291   0.060   2.408  14.503  0.4022  0.4843 -0.1401
  422TMC3    C1 6292   1.596   3.752  13.016 -0.5144 -0.4991 -0.4346
  422TMC3    C2 6293   1.583   3.809  13.136 -0.3704 -0.2386  0.1528
  422TMC3    C3 6294   1.475   3.780  13.213 -0.2628 -0.1685  1.0862
  422TMC3    C4 6295   1.507   3.662  12.966  0.5898 -0.0551 -0.7726
  422TMC3    C5 6296   1.416   3.617  13.060  0.1259 -0.1036  0.4997
  422TMC3    C6 6297   1.392   3.678  13.179  0.5163  0.3289 -0.4679
  422TMC3     C 6298   1.715   3.784  12.946  0.3377 -0.0782  0.2421
  422TMC3     O 6299   1.819   3.789  13.010  0.2294 -1.0084  0.7706
  422TMC3     H 6300   1.653   3.890  13.154 -2.3684  1.5926 -0.3231
  422TMC3    H1 6301   1.526   3.614  12.870 -0.6020  0.9783 -1.5260
  422TMC3    H2 6302   1.327   3.626  13.248  0.8499  0.3373 -0.1444
  422TMC3    C7 6303   1.340   3.503  13.015 -0.4229  0.1392 -0.4612
  422TMC3    C8 6304   1.444   3.873  13.324  0.1588  0.9487 -0.3424
  422TMC3    O1 6305   1.409   3.443  12.937 -0.1310 -0.5026 -0.1780
  422TMC3    O2 6306   1.519   3.972  13.328 -0.0516 -0.1098 -0.3210
  423MPD2     C 6307   3.601   3.881   0.866  0.3463 -0.3430 -0.6605
  423MPD2    C1 6308   3.597   3.747   0.870  0.5022 -0.0152 -0.9726
  423MPD2    C2 6309   3.572   3.679   0.759  0.2961  0.3393  0.1151
  423MPD2    C3 6310   3.550   3.738   0.635 -0.2041  0.5797  0.2630
  423MPD2    C4 6311   3.561   3.876   0.628 -0.0940 -0.2601  0.8682
  423MPD2    C5 6312   3.578   3.942   0.747 -0.2870  0.4488  0.2020
  423MPD2     H 6313   3.557   3.572   0.770  1.1201  0.2486  0.3985
  423MPD2    H1 6314   3.536   3.935   0.540  1.5761 -1.0393 -0.1209
  423MPD2    H2 6315   3.628   3.943   0.950 -0.8382  0.6402 -1.0128
  423MPD2    H3 6316   3.574   4.050   0.739 -0.6641  0.6236  2.6530
  423MPD2     N 6317   3.509   3.675   0.513 -0.5485 -0.0302  0.3807
  423MPD2    H5 6318   3.519   3.731   0.428  1.3071 -1.0975 -0.1050
  423MPD2    N1 6319   3.636   3.679   0.985  0.1524  0.1514  0.1295
  423MPD2    H7 6320   3.653   3.579   0.979  0.7374  0.2130  0.7215
  424TMC3    C1 6321   3.689   3.640   1.204 -0.4854  0.2492 -0.2975
  424TMC3    C2 6322   3.782   3.548   1.162 -0.5212 -0.1696  0.1281
  424TMC3    C3 6323   3.800   3.444   1.250 -0.7541  0.3754 -0.4184
  424TMC3    C4 6324   3.625   3.643   1.323 -0.2744 -0.5715 -0.0873
  424TMC3    C5 6325   3.641   3.532   1.405  0.1132 -0.5495  0.4876
  424TMC3    C6 6326   3.731   3.435   1.368 -0.3337 -0.0302  0.2635
  424TMC3     C 6327   3.637   3.730   1.110 -0.4176 -0.5544  0.3433
  424TMC3     O 6328   3.567   3.819   1.149 -0.6226 -0.1004  0.4589
  424TMC3     H 6329   3.830   3.560   1.065  0.1977 -0.8139  0.4018
  424TMC3    H1 6330   3.542   3.709   1.345  0.7017  0.3299  0.9301
  424TMC3    H2 6331   3.751   3.347   1.428 -1.2965 -0.0275  0.5942
  424TMC3    C7 6332   3.543   3.496   1.506  0.3240  0.3429  0.0040
  424TMC3    C8 6333   3.886   3.333   1.217  0.5148  0.3026 -0.4362
  424TMC3    O1 6334   3.441   3.564   1.508  0.3032  0.0928  0.1831
  424TMC3    O2 6335   3.915   3.261   1.311  0.1657  0.1444 -0.1321
  425MPD2     C 6336   2.129   3.224   0.167 -0.4039 -0.3640 -0.0195
  425MPD2    C1 6337   2.056   3.258   0.059 -1.1838 -0.0608 -0.7875
  425MPD2    C2 6338   1.918   3.279   0.068  0.7218  0.6108 -0.4930
  425MPD2    C3 6339   1.861   3.236   0.180 -0.0300  0.2870 -0.4404
  425MPD2    C4 6340   1.937   3.189   0.291  0.8432  0.8294  0.8133
  425MPD2    C5 6341   2.069   3.189   0.284  0.7361  0.1401  0.1223
  425MPD2     H 6342   1.853   3.329  17.696 -0.8625  1.9046  1.9000
  425MPD2    H1 6343   1.885   3.162   0.382 -1.8775 -0.5359 -1.1577
  425MPD2    H2 6344   2.233   3.195   0.153 -0.2867  1.1015 -2.2679
  425MPD2    H3 6345   2.130   3.151   0.365 -0.5137 -1.8730  0.1269
  425MPD2     N 6346   1.720   3.254   0.193  0.1844  0.7017 -0.3197
  425MPD2    H5 6347   1.679   3.289   0.107 -1.1576 -3.3306 -1.3021
  425MPD2    N1 6348   2.126   3.272  17.632 -0.0795 -0.0990 -0.0304
  425MPD2    H7 6349   2.227   3.279  17.644 -0.0925  0.3149 -0.1570
  426TMC3    C1 6350   2.158   3.266  17.402  0.2619  0.3005  0.6977
  426TMC3    C2 6351   2.101   3.260  17.277 -0.3248  0.5939  0.5090
  426TMC3    C3 6352   2.175   3.227  17.167 -0.2154 -0.4542 -0.3122
  426TMC3    C4 6353   2.289   3.239  17.416  0.2343  0.5586  0.1251
  426TMC3    C5 6354   2.363   3.209  17.307 -0.9557 -0.9502 -0.1397
  426TMC3    C6 6355   2.314   3.206  17.182  0.6346  0.4249 -0.3276
  426TMC3     C 6356   2.064   3.283  17.510 -0.6901  0.4848 -0.2691
  426TMC3     O 6357   1.943   3.279  17.488 -0.5085  0.1961  0.0922
  426TMC3     H 6358   1.996   3.277  17.256 -0.5827 -0.0133  1.3133
  426TMC3    H1 6359   2.330   3.250  17.516 -1.9929 -3.6954  1.4880
  426TMC3    H2 6360   2.368   3.176  17.093  2.0713 -1.8044  1.2988
  426TMC3    C7 6361   2.505   3.174  17.314  0.1495  0.3555  0.0238
  426TMC3    C8 6362   2.118   3.183  17.047 -0.9686  0.2585 -0.2352
  426TMC3    O1 6363   2.566   3.167  17.207 -0.1631 -0.1043  0.2677
  426TMC3    O2 6364   2.201   3.165  16.961  0.7188  0.8860  0.7456
  427MPD2     C 6365   0.695   0.896  14.907 -0.4482 -0.5481 -0.5580
  427MPD2    C1 6366   0.655   0.871  15.037 -0.0584  0.3603 -0.3722
  427MPD2    C2 6367   0.536   0.917  15.076  0.4329 -0.3577  0.7998
  427MPD2    C3 6368   0.450   0.972  14.983  0.1342 -0.6635  0.3068
  427MPD2    C4 6369   0.487   0.997  14.853 -0.5022 -0.3332  0.1478
  427MPD2    C5 6370   0.611   0.959  14.810 -0.1995  0.4959  0.3723
  427MPD2     H 6371   0.500   0.885  15.173  1.0791  1.2442  1.5699
  427MPD2    H1 6372   0.417   1.041  14.783  0.7968 -0.2662 -1.1051
  427MPD2    H2 6373   0.800   0.885  14.885 -0.2047  0.4445  0.0943
  427MPD2    H3 6374   0.648   0.964  14.708  0.9748  1.6249  0.8569
  427MPD2     N 6375   0.318   1.008  15.012 -0.0008 -0.1832 -0.1958
  427MPD2    H5 6376   0.267   1.041  14.931  1.9300  0.9713 -0.9669
  427MPD2    N1 6377   0.732   0.790  15.128 -0.2617 -0.3927 -0.6406
  427MPD2    H7 6378   0.695   0.780  15.222 -0.4621 -2.9170 -1.0105
  428TMC3    C1 6379   0.897   0.659  15.207  0.3529  0.1746  0.0998
  428TMC3    C2 6380   0.827   0.545  15.232  0.2085 -0.9690  0.3753
  428TMC3    C3 6381   0.905   0.448  15.286 -0.4381 -0.4918 -0.2852
  428TMC3    C4 6382   1.024   0.686  15.230 -0.7245 -0.0193  0.2912
  428TMC3    C5 6383   1.088   0.582  15.294 -0.5849  0.5728  0.2731
  428TMC3    C6 6384   1.032   0.464  15.332 -0.5047  0.1535 -0.4864
  428TMC3     C 6385   0.848   0.729  15.092  1.1334  0.0455 -0.7506
  428TMC3     O 6386   0.926   0.730  14.992  0.1135 -0.7249  0.1939
  428TMC3     H 6387   0.729   0.524  15.189  0.1245 -1.3669  0.7581
  428TMC3    H1 6388   1.070   0.780  15.201 -0.8604  0.3245  1.1968
  428TMC3    H2 6389   1.093   0.378  15.359 -1.7015  0.5430  3.4568
  428TMC3    C7 6390   1.223   0.604  15.353  0.5784 -0.2590  0.2835
  428TMC3    C8 6391   0.856   0.312  15.288  0.6053  0.3970  0.4312
  428TMC3    O1 6392   1.239   0.543  15.460  0.0796 -0.0022  0.2040
  428TMC3    O2 6393   0.948   0.232  15.267  0.0772 -0.4307 -0.0932
  429MPD2     C 6394   1.778   0.474   0.140  0.1652 -0.4068 -0.2486
  429MPD2    C1 6395   1.862   0.387   0.084 -0.2547  0.4510  0.3219
  429MPD2    C2 6396   1.927   0.432  17.669 -0.5110  0.3934  0.1291
  429MPD2    C3 6397   1.915   0.555  17.614  0.1799  0.1135  0.1604
  429MPD2    C4 6398   1.824   0.642  17.674  0.3547 -0.3854 -0.2106
  429MPD2    C5 6399   1.751   0.603   0.087 -0.7089 -0.8395 -0.8874
  429MPD2     H 6400   1.994   0.365  17.616 -1.1281  0.7268 -1.0911
  429MPD2    H1 6401   1.825   0.745  17.639 -0.2136 -0.9530 -1.8640
  429MPD2    H2 6402   1.711   0.449   0.222  0.5802 -0.3476  0.1073
  429MPD2    H3 6403   1.673   0.665   0.129  1.1590 -0.0130  1.3820
  429MPD2     N 6404   1.978   0.577  17.488 -0.1132  0.0873 -0.1896
  429MPD2    H5 6405   2.047   0.507  17.463  1.1916  0.9880  0.9142
  429MPD2    N1 6406   1.870   0.249   0.114  0.2673  0.0511  0.0126
  429MPD2    H7 6407   1.945   0.195   0.071 -0.0879  0.9032 -1.6882
  430TMC3    C1 6408   1.998   0.656  17.281 -0.3323  0.3513 -0.7869
  430TMC3    C2 6409   2.136   0.658  17.283  0.2104  0.3094  0.1273
  430TMC3    C3 6410   2.207   0.590  17.188  0.3049  0.0193 -0.8342
  430TMC3    C4 6411   1.932   0.592  17.181 -0.2161 -0.5211  0.4889
  430TMC3    C5 6412   2.008   0.511  17.101  0.5309  0.2472 -0.8403
  430TMC3    C6 6413   2.147   0.507  17.100  0.4440  0.2833 -0.2007
  430TMC3     C 6414   1.925   0.665  17.401 -0.4032 -0.1562  0.4060
  430TMC3     O 6415   1.814   0.722  17.398  0.3931 -0.3951  0.0938
  430TMC3     H 6416   2.185   0.716  17.359  1.3187  1.0531 -1.1608
  430TMC3    H1 6417   1.824   0.590  17.173 -0.1405  1.5848 -1.0664
  430TMC3    H2 6418   2.197   0.444  17.028  1.3557 -0.5747  1.1782
  430TMC3    C7 6419   1.949   0.396  17.047  0.9069 -0.2302  0.3250
  430TMC3    C8 6420   2.348   0.610  17.162  0.4805  0.4034 -1.3045
  430TMC3    O1 6421   2.021   0.298  17.047  0.3600 -0.5546 -0.2140
  430TMC3    O2 6422   2.418   0.512  17.170 -0.1058 -0.4171  0.2599
  431MPD2     C 6423   2.868   1.217  12.947  0.0019  0.6529 -0.5576
  431MPD2    C1 6424   2.926   1.261  12.833 -0.6623 -1.0876  0.2779
  431MPD2    C2 6425   2.897   1.206  12.709 -0.1055  0.4041  0.4675
  431MPD2    C3 6426   2.825   1.086  12.703 -0.0661  0.0361 -0.9037
  431MPD2    C4 6427   2.758   1.045  12.824  0.0773 -0.3339 -0.1305
  431MPD2    C5 6428   2.779   1.110  12.944 -0.4203  0.1317 -0.3000
  431MPD2     H 6429   2.949   1.246  12.623  0.4966  1.5514  1.3773
  431MPD2    H1 6430   2.696   0.957  12.827 -0.3398 -0.1291 -2.8478
  431MPD2    H2 6431   2.879   1.272  13.040  1.6372 -0.1245 -0.2992
  431MPD2    H3 6432   2.726   1.065  13.028  1.0464 -0.0467  0.5276
  431MPD2     N 6433   2.805   1.010  12.584 -0.1328 -0.6346 -0.6598
  431MPD2    H5 6434   2.746   0.927  12.586 -1.6528  0.4315 -0.9344
  431MPD2    N1 6435   3.025   1.362  12.830 -0.4615  0.5083 -0.3192
  431MPD2    H7 6436   3.057   1.394  12.739  2.2146 -0.6460  0.2164
  432TMC3    C1 6437   2.793   0.950  12.368  1.0443 -0.1948  0.3407
  432TMC3    C2 6438   2.802   0.977  12.233  0.3439  0.0263 -0.3957
  432TMC3    C3 6439   2.766   0.888  12.142  0.0262  0.1404  0.2348
  432TMC3    C4 6440   2.764   0.824  12.407 -0.2852  0.1583 -0.3190
  432TMC3    C5 6441   2.719   0.738  12.314 -0.3357  0.3804  0.0639
  432TMC3    C6 6442   2.725   0.763  12.176 -0.6598 -0.3581 -0.4150
  432TMC3     C 6443   2.858   1.039  12.459  0.2962  0.3282  0.6061
  432TMC3     O 6444   2.928   1.136  12.424  0.0694 -0.4057  0.0252
  432TMC3     H 6445   2.822   1.081  12.209 -1.2929  0.4077 -0.1229
  432TMC3    H1 6446   2.771   0.787  12.509 -0.8934 -0.1265 -0.3853
  432TMC3    H2 6447   2.668   0.696  12.113 -2.2551  1.0239 -0.4428
  432TMC3    C7 6448   2.669   0.602  12.355  0.0872 -0.7432  0.5946
  432TMC3    C8 6449   2.851   0.886  12.022 -0.6093  0.0898 -0.4410
  432TMC3    O1 6450   2.678   0.514  12.274 -0.0000 -0.1276  0.1792
  432TMC3    O2 6451   2.847   0.784  11.954 -0.1066  0.4820 -0.3304
  433MPD2     C 6452   1.875   0.214  10.776 -0.5558  0.3440  0.0181
  433MPD2    C1 6453   1.818   0.121  10.856  0.4083  0.2819  0.5525
  433MPD2    C2 6454   1.819   0.139  10.996 -0.0882  0.0053 -0.0072
  433MPD2    C3 6455   1.872   0.257  11.055 -0.4176  0.0504  0.3851
  433MPD2    C4 6456   1.920   0.355  10.970  0.0277 -0.1009  0.3295
  433MPD2    C5 6457   1.923   0.335  10.831  0.1739 -0.0518 -0.9221
  433MPD2     H 6458   1.772   0.071  11.066 -0.1951  1.0121  0.9122
  433MPD2    H1 6459   1.953   0.454  11.002 -3.0764  1.8674 -2.6246
  433MPD2    H2 6460   1.889   0.201  10.669  1.4995  0.8063  0.2361
  433MPD2    H3 6461   1.971   0.417  10.778 -1.4942  0.9258 -0.9327
  433MPD2     N 6462   1.884   0.261  11.192 -0.1173  0.4323  0.2059
  433MPD2    H5 6463   1.853   0.177  11.240  0.5639 -0.6999 -1.3604
  433MPD2    N1 6464   1.756   0.012  10.787  0.0066  0.1387 -0.4415
  433MPD2    H7 6465   1.776   0.005  10.688 -0.0249  0.5444 -0.4781
  434TMC3    C1 6466   1.654   4.523  10.765  0.0939 -0.7697  0.6031
  434TMC3    C2 6467   1.653   4.402  10.827 -1.0294 -0.1029  1.1122
  434TMC3    C3 6468   1.686   4.293  10.766 -0.0952  0.2500 -0.0404
  434TMC3    C4 6469   1.692   4.535  10.638 -0.0206 -0.2838  0.5623
  434TMC3    C5 6470   1.711   4.420  10.575 -0.5871 -0.5270 -0.6760
  434TMC3    C6 6471   1.719   4.296  10.633  0.6442 -0.4986 -0.3348
  434TMC3     C 6472   1.679   4.644  10.850 -0.7811  0.2278 -0.5316
  434TMC3     O 6473   1.634   4.647  10.962 -0.4632  0.2804  0.7519
  434TMC3     H 6474   1.611   4.398  10.927 -1.4013 -2.7489  0.8435
  434TMC3    H1 6475   1.688   4.624  10.576  1.1405 -0.4609  0.2168
  434TMC3    H2 6476   1.774   4.219  10.581  0.2281 -0.5377 -0.7201
  434TMC3    C7 6477   1.706   4.428  10.428  0.1381 -0.5822  0.0108
  434TMC3    C8 6478   1.760   4.199  10.854  0.2886  0.2895  0.5866
  434TMC3    O1 6479   1.746   4.526  10.367 -0.1031 -0.3628 -0.0467
  434TMC3    O2 6480   1.791   4.235  10.966 -0.3163 -0.1320 -0.6978
  435MPD2     C 6481   3.657   4.564  15.732  0.1451 -0.1336 -0.0225
  435MPD2    C1 6482   3.595   4.497  15.841 -0.1608 -0.0570  0.3751
  435MPD2    C2 6483   3.677   4.417  15.921  0.2452  0.1008 -0.4596
  435MPD2    C3 6484   3.807   4.381  15.886 -0.2114 -0.0067 -0.7849
  435MPD2    C4 6485   3.857   4.444  15.770  0.2486 -0.3385  0.0939
  435MPD2    C5 6486   3.787   4.537  15.704  0.9722 -0.2268  0.2828
  435MPD2     H 6487   3.633   4.376  16.011 -1.4415  1.7512 -0.5302
  435MPD2    H1 6488   3.960   4.430  15.740  0.5469  1.3178  0.3448
  435MPD2    H2 6489   3.609   4.638  15.669  0.6336  0.2845  0.0950
  435MPD2    H3 6490   3.834   4.584  15.618  1.0026  0.9171  0.9197
  435MPD2     N 6491   3.874   4.283  15.962  0.4331  0.3442  0.2557
  435MPD2    H5 6492   3.817   4.242  16.035  0.0795 -0.7259 -0.6335
  435MPD2    N1 6493   3.461   4.504  15.884  0.3060 -0.3343 -0.0452
  435MPD2    H7 6494   3.427   4.436  15.952 -1.8942  0.9671  0.1813
  436TMC3    C1 6495   3.094   4.512  16.064 -0.0737  0.4686 -0.6589
  436TMC3    C2 6496   3.208   4.497  15.987 -0.3285  0.3642 -0.9660
  436TMC3    C3 6497   3.251   4.609  15.932 -0.4025  0.2826 -1.2952
  436TMC3    C4 6498   3.025   4.620  16.086  0.3465 -0.1766  0.1492
  436TMC3    C5 6499   3.074   0.010  16.023  0.6666  0.6667  0.1814
  436TMC3    C6 6500   3.185   0.006  15.946  0.7621 -0.5044 -0.2605
  436TMC3     C 6501   3.034   4.389  16.113  0.4687  0.1052  1.0227
  436TMC3     O 6502   3.063   4.285  16.055  0.1662 -0.9564  0.3183
  436TMC3     H 6503   3.244   4.400  15.957 -0.0749 -0.3079  1.5056
  436TMC3    H1 6504   2.924   4.628  16.124 -0.6374  0.4373 -2.5890
  436TMC3    H2 6505   3.219   0.102  15.910  1.7715 -0.9294 -0.4214
  436TMC3    C7 6506   3.024   0.143  16.046  0.0311  0.8181 -0.4314
  436TMC3    C8 6507   3.379   4.613  15.864 -0.3047  0.8320  0.1679
  436TMC3    O1 6508   3.051   0.229  15.967  0.2011 -0.1095  0.1617
  436TMC3    O2 6509   3.404   4.720  15.807 -0.6032 -0.0118 -0.0235
  437TMC3    C1 6510   2.275   1.891  12.549  0.2528 -0.7073 -0.3946
  437TMC3    C2 6511   2.175   1.973  12.506 -0.1818 -0.0894  0.0004
  437TMC3    C3 6512   2.202   2.055  12.397 -0.2686 -0.2919  0.4572
  437TMC3    C4 6513   2.398   1.886  12.495  0.5918  0.0744 -0.6599
  437TMC3    C5 6514   2.420   1.968  12.384  0.0586  0.0553 -0.0836
  437TMC3    C6 6515   2.327   2.065  12.339  1.3936  0.6066  0.5594
  437TMC3     C 6516   2.236   1.789  12.645 -0.2696  0.4423 -0.7185
  437TMC3     O 6517   2.118   1.769  12.634  0.4365  0.0807  0.2253
  437TMC3     H 6518   2.081   1.987  12.559  0.7206 -0.2283  1.6578
  437TMC3    H1 6519   2.453   1.793  12.487  2.7159  1.0080  2.9934
  437TMC3    H2 6520   2.350   2.138  12.263  0.1545  0.5492  0.1237
  437TMC3    C7 6521   2.548   1.969  12.326  0.3139  0.4927 -0.4602
  437TMC3    C8 6522   2.116   2.172  12.383  0.4115  0.0099 -0.1224
  437TMC3    O1 6523   2.559   2.023  12.218  0.1520  0.1956  0.1412
  437TMC3    O2 6524   1.998   2.153  12.420 -0.0654  0.6355 -0.7392
  438MPD2     C 6525   0.031   2.089  16.564  0.4969  0.0777 -0.3839
  438MPD2    C1 6526   0.075   2.012  16.673  0.8041  0.2550  0.0300
  438MPD2    C2 6527   0.007   2.004  16.796 -0.1281 -0.3743  0.0748
  438MPD2    C3 6528   4.622   2.091  16.819 -0.1089  0.2493 -0.3785
  438MPD2    C4 6529   4.581   2.172  16.713 -0.3124 -0.4264 -0.4160
  438MPD2    C5 6530   4.650   2.172  16.593 -0.2954  0.3295  0.1891
  438MPD2     H 6531   0.053   1.944  16.874 -1.2577 -0.4794  0.6709
  438MPD2    H1 6532   4.497   2.239  16.723  0.4249  0.0942  2.3611
  438MPD2    H2 6533   0.077   2.084  16.466 -1.9864  0.4365 -1.5543
  438MPD2    H3 6534   4.620   2.243  16.517  2.1208 -0.1823 -1.2482
  438MPD2     N 6535   4.543   2.096  16.940  0.3722  0.3997 -0.0537
  438MPD2    H5 6536   4.477   2.174  16.938  0.9148  0.8495 -0.5051
  438MPD2    N1 6537   0.180   1.925  16.668 -0.0096  0.5821  0.6896
  438MPD2    H7 6538   0.194   1.870  16.752  1.2066  0.6686  0.5522
  439TMC3    C1 6539   0.351   1.780  16.603 -0.0251  0.1332  0.3850
  439TMC3    C2 6540   0.400   1.702  16.497 -0.4886 -0.3792 -0.0521
  439TMC3    C3 6541   0.449   1.574  16.530 -0.8048  0.7678  0.4457
  439TMC3    C4 6542   0.341   1.728  16.737 -0.5071  0.1628  0.0813
  439TMC3    C5 6543   0.377   1.597  16.761  0.2429 -0.4888  0.3613
  439TMC3    C6 6544   0.434   1.523  16.656  0.5553  0.0584  0.0774
  439TMC3     C 6545   0.270   1.897  16.567  0.1285 -0.7531  0.0645
  439TMC3     O 6546   0.270   1.934  16.450  0.2603 -0.0267 -0.1667
  439TMC3     H 6547   0.414   1.749  16.400  1.2562 -1.9400 -0.5534
  439TMC3    H1 6548   0.321   1.796  16.818  0.4228 -0.7878  1.0977
  439TMC3    H2 6549   0.472   1.422  16.669  0.9492  0.3324  1.0028
  439TMC3    C7 6550   0.415   1.554  16.895 -0.2444  0.1930  0.3072
  439TMC3    C8 6551   0.543   1.506  16.434 -0.6533 -0.4827  0.4310
  439TMC3    O1 6552   0.528   1.495  16.900 -0.5286 -0.6865 -0.9589
  439TMC3    O2 6553   0.622   1.424  16.479  0.0559  0.2232  0.0095
  440MPD2     C 6554   3.505   2.786  15.135 -0.3977 -0.5094  0.2045
  440MPD2    C1 6555   3.580   2.872  15.206 -0.3323  0.7329 -0.2440
  440MPD2    C2 6556   3.715   2.873  15.191 -0.4149  0.6837 -0.8260
  440MPD2    C3 6557   3.772   2.768  15.122  0.0640 -0.2085  0.4728
  440MPD2    C4 6558   3.691   2.673  15.062 -0.4172  0.1577 -0.0231
  440MPD2    C5 6559   3.555   2.683  15.068 -0.8122 -0.3202  0.1053
  440MPD2     H 6560   3.770   2.951  15.241  0.7330 -0.8259  0.2620
  440MPD2    H1 6561   3.736   2.591  15.008 -0.5039  0.0379  0.0869
  440MPD2    H2 6562   3.397   2.785  15.128 -0.4771 -0.1177  1.3185
  440MPD2    H3 6563   3.495   2.604  15.025  0.9197 -1.5381 -0.1012
  440MPD2     N 6564   3.913   2.755  15.104 -0.3418  0.1185  0.7423
  440MPD2    H5 6565   3.948   2.668  15.066 -0.1030  0.1233  0.9522
  440MPD2    N1 6566   3.513   2.972  15.272  0.0295 -0.5236  0.3214
  440MPD2    H7 6567   3.412   2.971  15.266 -0.0671 -3.5428  2.1867
  441TMC3    C1 6568   4.139   2.793  15.154 -0.4929  0.7284  0.5009
  441TMC3    C2 6569   4.231   2.898  15.167 -0.1005  0.2134 -0.2418
  441TMC3    C3 6570   4.303   2.895  15.281  0.3203 -0.0539 -0.8373
  441TMC3    C4 6571   4.144   2.682  15.224  0.1039  0.5194  0.1009
  441TMC3    C5 6572   4.226   2.678  15.328 -0.6503  1.0512 -0.2506
  441TMC3    C6 6573   4.307   2.786  15.360  0.4931 -0.1697 -0.0093
  441TMC3     C 6574   4.001   2.844  15.150 -0.2404  0.4286  0.2558
  441TMC3     O 6575   3.982   2.960  15.177  0.4563 -0.2669 -0.0415
  441TMC3     H 6576   4.235   2.989  15.108 -0.8950  0.2422 -0.2546
  441TMC3    H1 6577   4.083   2.597  15.194 -1.1853  1.6434 -0.4333
  441TMC3    H2 6578   4.334   2.800  15.464 -1.9535  2.5203  0.2550
  441TMC3    C7 6579   4.190   2.603  15.447  0.4873 -0.0410 -0.2174
  441TMC3    C8 6580   4.296   3.021  15.349 -0.0659 -0.0278 -0.6880
  441TMC3    O1 6581   4.074   2.567  15.474  0.2518  0.6371 -0.4526
  441TMC3    O2 6582   4.382   3.044  15.431  0.5412  0.4701 -0.2474
  442MPD2     C 6583   2.050   3.212  16.302  0.3389  0.5705 -0.5191
  442MPD2    C1 6584   1.916   3.204  16.274 -0.1037  0.1107 -0.3310
  442MPD2    C2 6585   1.876   3.128  16.160 -0.0891  0.5722 -0.4939
  442MPD2    C3 6586   1.976   3.064  16.078 -0.2039 -0.1887  0.2663
  442MPD2    C4 6587   2.107   3.077  16.105  0.5387 -0.3456 -0.1446
  442MPD2    C5 6588   2.142   3.149  16.220 -0.1939  0.1470 -0.3985
  442MPD2     H 6589   1.769   3.116  16.147  0.0462  0.0405 -1.0849
  442MPD2    H1 6590   2.189   3.042  16.044  1.9695  0.4094  1.3071
  442MPD2    H2 6591   2.093   3.277  16.378  0.1815  1.3884 -1.1219
  442MPD2    H3 6592   2.245   3.161  16.252 -1.0300 -0.4410  2.5740
  442MPD2     N 6593   1.930   2.974  15.974 -0.1170 -0.0960 -0.8028
  442MPD2    H5 6594   1.830   2.973  15.956 -0.4290  1.3426  0.8070
  442MPD2    N1 6595   1.816   3.261  16.356  0.3405  0.2751 -0.0397
  442MPD2    H7 6596   1.720   3.233  16.337 -0.1088  0.4727  1.8864
  443TMC3    C1 6597   1.685   3.365  16.515 -0.4178 -0.3159  0.9091
  443TMC3    C2 6598   1.589   3.399  16.433 -0.5093 -0.4780 -0.0889
  443TMC3    C3 6599   1.456   3.398  16.476 -0.0639  0.0996  0.0521
  443TMC3    C4 6600   1.653   3.335  16.645  0.1067 -0.2256  0.6871
  443TMC3    C5 6601   1.524   3.328  16.684 -0.2366 -0.0724  1.2032
  443TMC3    C6 6602   1.419   3.356  16.598  0.2193 -0.4091  0.1447
  443TMC3     C 6603   1.818   3.331  16.478 -0.4815 -0.1570 -0.2157
  443TMC3     O 6604   1.910   3.330  16.560 -0.2821  0.2467  0.7193
  443TMC3     H 6605   1.618   3.422  16.332  0.5731  0.3171  0.4087
  443TMC3    H1 6606   1.734   3.293  16.703  2.4425  1.1807 -1.5390
  443TMC3    H2 6607   1.313   3.361  16.623 -0.1398 -0.2134 -1.4089
  443TMC3    C7 6608   1.492   3.303  16.824  0.4144  0.2822  0.3907
  443TMC3    C8 6609   1.350   3.407  16.377  0.5279  0.1849 -0.3553
  443TMC3    O1 6610   1.583   3.318  16.905  0.1608  0.8357 -0.3130
  443TMC3    O2 6611   1.240   3.364  16.409  0.4795 -0.6108  0.1056
  444MPD2     C 6612   1.776   2.660  17.114 -0.7022  0.6790 -0.7022
  444MPD2    C1 6613   1.748   2.529  17.083 -0.1879  0.3396  0.3590
  444MPD2    C2 6614   1.820   2.471  16.978  0.2921 -0.4124  0.2288
  444MPD2    C3 6615   1.919   2.539  16.911 -0.0992 -0.1872  0.5635
  444MPD2    C4 6616   1.932   2.676  16.937 -0.2092 -0.5761  0.2055
  444MPD2    C5 6617   1.866   2.732  17.033  0.2279  0.2512  1.2552
  444MPD2     H 6618   1.789   2.373  16.944  0.7317  0.0706 -1.5836
  444MPD2    H1 6619   1.998   2.738  16.877 -0.8860 -0.0812 -0.0226
  444MPD2    H2 6620   1.728   2.713  17.195  1.6273 -0.9616  1.7461
  444MPD2    H3 6621   1.887   2.838  17.045  0.0199  0.3117  1.0763
  444MPD2     N 6622   1.975   2.473  16.802  0.2328  0.8364  0.5512
  444MPD2    H5 6623   1.960   2.374  16.786 -0.3311  0.8804  0.8120
  444MPD2    N1 6624   1.653   2.446  17.155  0.0090 -0.4012  0.2642
  444MPD2    H7 6625   1.663   2.347  17.133 -1.0920 -0.3979 -0.2405
  445TMC3    C1 6626   2.096   2.464  16.589  0.1803 -0.9744 -0.2464
  445TMC3    C2 6627   1.998   2.375  16.538 -0.4826 -0.3277 -0.3218
  445TMC3    C3 6628   2.026   2.300  16.429  0.1905  0.3321  0.2318
  445TMC3    C4 6629   2.221   2.474  16.529 -0.3760 -0.1643  0.3683
  445TMC3    C5 6630   2.241   2.408  16.408  0.1316  0.8076  0.8162
  445TMC3    C6 6631   2.147   2.318  16.364  0.1116 -0.0061 -0.5175
  445TMC3     C 6632   2.070   2.531  16.718 -0.0159  0.1118 -0.2512
  445TMC3     O 6633   2.142   2.630  16.744  0.1621  0.0927  0.2094
  445TMC3     H 6634   1.907   2.362  16.596 -1.1286 -0.5362 -1.3984
  445TMC3    H1 6635   2.287   2.551  16.568  1.4037 -0.3414 -2.3094
  445TMC3    H2 6636   2.178   2.254  16.283 -1.5814  0.8462 -1.8319
  445TMC3    C7 6637   2.380   2.382  16.384  0.4007  0.9118  0.1619
  445TMC3    C8 6638   1.947   2.186  16.393 -0.4328  0.1993 -0.4979
  445TMC3    O1 6639   2.457   2.396  16.475  0.5306 -1.0444 -0.0714
  445TMC3    O2 6640   1.856   2.158  16.469 -0.2378 -0.3422  0.1913
  446MPD2     C 6641   1.790   3.921  11.399 -0.0452 -0.6391  0.0315
  446MPD2    C1 6642   1.716   3.963  11.290 -0.7717 -0.0399 -0.4889
  446MPD2    C2 6643   1.751   4.089  11.236  0.5595 -0.7813 -0.0194
  446MPD2    C3 6644   1.838   4.175  11.296 -0.2362  0.1167  0.1822
  446MPD2    C4 6645   1.886   4.146  11.421  0.2521 -0.4482 -0.2943
  446MPD2    C5 6646   1.870   4.016  11.462 -0.0848 -0.1197  0.0802
  446MPD2     H 6647   1.703   4.115  11.142  1.3451 -0.1199 -0.2264
  446MPD2    H1 6648   1.932   4.220  11.486  1.1186 -1.2069 -0.0290
  446MPD2    H2 6649   1.778   3.823  11.443  1.8781 -0.1936  1.5779
  446MPD2    H3 6650   1.911   4.000  11.561 -0.5071 -1.2976  0.0734
  446MPD2     N 6651   1.877   4.295  11.226 -0.2304  0.1692 -0.0165
  446MPD2    H5 6652   1.843   4.299  11.130 -2.3025 -2.3768  0.6081
  446MPD2    N1 6653   1.629   3.882  11.218  0.2453 -0.2988 -0.3351
  446MPD2    H7 6654   1.589   3.929  11.138 -0.9453  0.0131  0.4425
  447TMC3    C1 6655   1.982   4.496  11.174 -0.2519 -0.4290  0.6564
  447TMC3    C2 6656   1.949   4.497  11.040 -1.0749  0.4934  0.1882
  447TMC3    C3 6657   2.029   4.562  10.946 -0.4027 -0.3037 -1.4231
  447TMC3    C4 6658   2.101   4.558  11.215 -0.8033 -0.6439  0.6588
  447TMC3    C5 6659   2.181   4.622  11.126 -0.2660  0.0321  0.4419
  447TMC3    C6 6660   2.140   4.637  10.995 -0.2295  0.2901  0.4581
  447TMC3     C 6661   1.926   4.409  11.275 -0.0312 -0.9194 -0.1083
  447TMC3     O 6662   1.945   4.441  11.390 -0.7546 -0.0442  0.3021
  447TMC3     H 6663   1.862   4.441  11.005 -0.5184  0.3116 -0.9024
  447TMC3    H1 6664   2.132   4.535  11.316 -1.1343  1.3155  1.2021
  447TMC3    H2 6665   2.209   4.658  10.914 -0.4997  0.0634  0.1687
  447TMC3    C7 6666   2.325   4.590  11.130  0.5394  0.0499 -0.0545
  447TMC3    C8 6667   2.050   4.506  10.816  0.3926 -0.2503 -0.4418
  447TMC3    O1 6668   2.384   4.598  11.023  0.1193 -0.1525  0.3447
  447TMC3    O2 6669   2.057   4.580  10.726 -0.2894  0.3787  0.0907
  448TMC3    C1 6670   0.328   3.329  17.452 -0.4281  0.0394  0.3773
  448TMC3    C2 6671   0.364   3.207  17.397  0.3103 -0.8067  0.2421
  448TMC3    C3 6672   0.452   3.129  17.465 -0.1952 -0.6162 -0.1905
  448TMC3    C4 6673   0.376   3.375  17.569 -0.9846  0.8361 -0.4450
  448TMC3    C5 6674   0.459   3.293  17.637  0.5273 -0.5903 -0.0990
  448TMC3    C6 6675   0.496   3.171  17.588  0.0668 -0.3636  0.1242
  448TMC3     C 6676   0.255   3.415  17.361 -0.0156 -0.2113 -0.3695
  448TMC3     O 6677   0.210   3.353  17.266 -0.0023  0.3256 -0.0381
  448TMC3     H 6678   0.313   3.166  17.311 -0.3904 -0.1613  0.3530
  448TMC3    H1 6679   0.353   3.473  17.609  0.5678  0.0931  2.2722
  448TMC3    H2 6680   0.551   3.099  17.647  0.5902 -0.1772 -0.1382
  448TMC3    C7 6681   0.481   3.327   0.075  0.0463 -0.0111 -0.4461
  448TMC3    C8 6682   0.467   2.986  17.436  0.1608  0.4815  0.2924
  448TMC3    O1 6683   0.456   3.438   0.113 -0.6379  0.5961  0.4797
  448TMC3    O2 6684   0.511   2.916  17.529  0.0153 -0.1622  0.1194
  449MPD2     C 6685   1.782   2.511  13.640  1.3433  0.0243 -0.3676
  449MPD2    C1 6686   1.655   2.452  13.639  0.5024 -0.4481  0.5245
  449MPD2    C2 6687   1.632   2.365  13.742  0.8364  0.0052  0.5141
  449MPD2    C3 6688   1.717   2.345  13.850  0.4967 -0.3591  1.0621
  449MPD2    C4 6689   1.832   2.414  13.860  0.8393 -0.0417  0.1186
  449MPD2    C5 6690   1.867   2.490  13.747  1.1819 -0.1933 -0.2338
  449MPD2     H 6691   1.533   2.321  13.748  1.2218 -1.1731 -1.5647
  449MPD2    H1 6692   1.900   2.396  13.943  0.0497 -1.1209  0.5141
  449MPD2    H2 6693   1.815   2.579  13.562  1.4897 -0.6353 -0.8809
  449MPD2    H3 6694   1.959   2.546  13.753  1.6253 -1.0755  1.2149
  449MPD2     N 6695   1.680   2.249  13.943 -0.1933 -0.2571 -0.4344
  449MPD2    H5 6696   1.592   2.204  13.917  0.2076 -0.7102 -1.0193
  449MPD2    N1 6697   1.549   2.476  13.546 -0.5882  0.1133  0.2788
  449MPD2    H7 6698   1.458   2.439  13.569 -0.2735  0.1967  1.6688
  450TMC3    C1 6699   1.441   2.545  13.346 -0.6463  0.6612 -0.5871
  450TMC3    C2 6700   1.456   2.453  13.251 -0.4265  0.7721  1.0992
  450TMC3    C3 6701   1.343   2.368  13.236 -0.4137 -0.2445  0.3856
  450TMC3    C4 6702   1.337   2.547  13.428  0.4719 -0.2421  0.1415
  450TMC3    C5 6703   1.230   2.457  13.417 -0.2572 -0.0508 -0.0018
  450TMC3    C6 6704   1.229   2.375  13.305 -0.6760  0.8764  0.4826
  450TMC3     C 6705   1.564   2.555  13.425  0.3453 -0.6110  0.2796
  450TMC3     O 6706   1.667   2.593  13.371 -0.1768  0.0830 -0.0364
  450TMC3     H 6707   1.555   2.439  13.208 -0.5488  1.1037  0.7072
  450TMC3    H1 6708   1.335   2.613  13.513 -0.1333  2.4955 -1.9911
  450TMC3    H2 6709   1.166   2.287  13.298  0.7878 -0.2936  1.8252
  450TMC3    C7 6710   1.217   2.396  13.546  0.3495  0.5020 -0.0180
  450TMC3    C8 6711   1.342   2.277  13.123 -0.1725 -0.4732  0.0820
  450TMC3    O1 6712   1.294   2.435  13.636 -0.3264 -0.0452 -0.4871
  450TMC3    O2 6713   1.237   2.246  13.075  0.1760  0.6155  0.1025
  451MPD2     C 6714   3.426   4.625   1.817  0.5432 -0.3815 -0.2925
  451MPD2    C1 6715   3.375   4.529   1.731  0.0893 -0.6728  0.2167
  451MPD2    C2 6716   3.450   4.408   1.711  0.3317  0.5032 -0.0286
  451MPD2    C3 6717   3.572   4.389   1.778 -0.6841  0.2756 -0.0163
  451MPD2    C4 6718   3.613   4.483   1.868 -0.3709  0.4260  0.2454
  451MPD2    C5 6719   3.544   4.599   1.887 -0.2246  0.4210 -0.4908
  451MPD2     H 6720   3.405   4.339   1.641 -0.8483 -0.7484  1.9705
  451MPD2    H1 6721   3.703   4.463   1.926 -0.1657 -3.0028 -1.2712
  451MPD2    H2 6722   3.379   4.720   1.835 -0.6092 -1.1668  0.8101
  451MPD2    H3 6723   3.573   4.665   1.969 -1.1700 -0.5115  0.5944
  451MPD2     N 6724   3.660   4.279   1.754 -0.6521 -0.0902 -0.2405
  451MPD2    H5 6725   3.742   4.280   1.814 -0.8966 -2.1416  0.1208
  451MPD2    N1 6726   3.247   4.543   1.673 -0.1389 -0.3015 -0.0448
  451MPD2    H7 6727   3.209   4.459   1.629 -1.4772  0.5566 -0.5111
  452TMC3    C1 6728   3.741   4.075   1.659  0.1040 -0.4315 -0.1087
  452TMC3    C2 6729   3.839   4.065   1.758 -0.7314  0.2943  0.0438
  452TMC3    C3 6730   3.933   3.972   1.735  0.2382  0.4219  0.5988
  452TMC3    C4 6731   3.752   4.004   1.543 -0.4064  0.4979 -0.2424
  452TMC3    C5 6732   3.855   3.915   1.523  0.1809  0.0377  0.5454
  452TMC3    C6 6733   3.943   3.893   1.628  0.0772  0.0309 -0.4308
  452TMC3     C 6734   3.630   4.177   1.672  0.1311 -0.3046 -0.2652
  452TMC3     O 6735   3.537   4.161   1.593  0.2469 -0.4870  0.4055
  452TMC3     H 6736   3.815   4.098   1.859  0.4047  0.5211  0.2399
  452TMC3    H1 6737   3.675   3.996   1.467 -2.1000 -0.7907  1.6384
  452TMC3    H2 6738   4.031   3.831   1.610  2.1538  2.6769  0.5416
  452TMC3    C7 6739   3.891   3.887   1.391 -0.0477 -0.6840 -0.3050
  452TMC3    C8 6740   4.018   3.924   1.844  0.5737  0.4796 -0.4714
  452TMC3    O1 6741   3.851   3.962   1.306  0.1124 -0.1256 -0.2368
  452TMC3    O2 6742   4.056   3.807   1.842 -0.5740  0.9604  0.5230
  453TMC3    C1 6743   3.855   2.870  11.924 -0.0274  0.2747  0.8347
  453TMC3    C2 6744   3.845   2.754  11.995 -0.1654  0.2375 -0.1638
  453TMC3    C3 6745   3.727   2.685  11.986  0.7585 -0.1790 -0.3813
  453TMC3    C4 6746   3.749   2.919  11.855  0.5001  0.2068  0.3694
  453TMC3    C5 6747   3.631   2.848  11.856 -0.2355 -0.1030 -0.3359
  453TMC3    C6 6748   3.622   2.724  11.914  0.2261 -0.3200 -0.5754
  453TMC3     C 6749   3.975   2.952  11.942 -0.0654 -0.1253  0.8464
  453TMC3     O 6750   3.969   3.071  11.901  0.3094  0.1010  0.8711
  453TMC3     H 6751   3.921   2.723  12.067 -0.6108  1.7244  0.9365
  453TMC3    H1 6752   3.765   3.010  11.798  1.4310 -0.2840 -0.1470
  453TMC3    H2 6753   3.528   2.669  11.915  0.0337  0.0297  0.7576
  453TMC3    C7 6754   3.543   2.862  11.737  0.1137 -0.2022  0.3009
  453TMC3    C8 6755   3.708   2.564  12.058  0.1702 -0.3843  0.0319
  453TMC3    O1 6756   3.463   2.774  11.714  0.0877 -0.5820 -0.0700
  453TMC3    O2 6757   3.589   2.535  12.073  0.0289 -0.0226 -0.6152
  454MPD2     C 6758   2.865   2.607  16.296 -0.1921  0.0302  0.5620
  454MPD2    C1 6759   2.781   2.597  16.191 -0.4514 -0.1810  0.2646
  454MPD2    C2 6760   2.661   2.659  16.207 -0.3606 -0.5367 -0.1675
  454MPD2    C3 6761   2.619   2.712  16.330  0.1348  0.5850 -0.3606
  454MPD2    C4 6762   2.703   2.718  16.440 -0.2334  0.4142  0.3941
  454MPD2    C5 6763   2.832   2.666  16.417 -0.5271 -0.3954  0.7027
  454MPD2     H 6764   2.592   2.647  16.124 -1.1885  0.3261  0.3960
  454MPD2    H1 6765   2.702   2.774  16.533 -3.5334  0.6775  0.1771
  454MPD2    H2 6766   2.968   2.572  16.285  0.1409  0.7186  1.5200
  454MPD2    H3 6767   2.902   2.685  16.498 -1.2728  1.0078  1.0242
  454MPD2     N 6768   2.496   2.782  16.348  0.4410  0.5064  0.5300
  454MPD2    H5 6769   2.471   2.812  16.441 -4.7201 -1.1994 -0.2985
  454MPD2    N1 6770   2.800   2.526  16.074 -0.4553 -0.4730 -0.1410
  454MPD2    H7 6771   2.732   2.531  15.998  1.3010 -1.3125 -1.7809
  455TMC3    C1 6772   2.270   2.833  16.300 -0.4750  0.5528 -0.6560
  455TMC3    C2 6773   2.248   2.864  16.431  0.2876 -0.2227 -0.2689
  455TMC3    C3 6774   2.116   2.858  16.468 -0.3938 -0.6229  0.1043
  455TMC3    C4 6775   2.175   2.770  16.223  0.3789  0.1299  0.3078
  455TMC3    C5 6776   2.047   2.752  16.266 -0.0210  0.3868 -0.1480
  455TMC3    C6 6777   2.007   2.800  16.395 -0.4937 -0.7039 -0.1651
  455TMC3     C 6778   2.402   2.807  16.253 -0.1314 -0.7946 -0.1053
  455TMC3     O 6779   2.413   2.801  16.133  0.3591  0.0421  0.3243
  455TMC3     H 6780   2.323   2.904  16.498  0.9072 -0.0691 -1.0562
  455TMC3    H1 6781   2.206   2.746  16.122 -3.4325  3.1565 -1.5891
  455TMC3    H2 6782   1.901   2.810  16.413 -0.4487 -3.5656  1.6988
  455TMC3    C7 6783   1.999   2.629  16.222  0.3966  0.2517  0.1161
  455TMC3    C8 6784   2.076   2.926  16.589  0.3015  0.3529 -0.3253
  455TMC3    O1 6785   2.080   2.563  16.163  0.5419  0.3147 -0.2799
  455TMC3    O2 6786   2.168   2.978  16.647  0.1133 -0.2263  0.0448
  456MPD2     C 6787   0.996   1.822  16.932 -0.5336 -0.1824 -0.2798
  456MPD2    C1 6788   0.989   1.955  16.911  0.6534 -0.2457 -0.2147
  456MPD2    C2 6789   0.915   2.032  17.002  0.0095  0.4120  0.0462
  456MPD2    C3 6790   0.874   1.981  17.125  0.1654 -0.1345  0.5769
  456MPD2    C4 6791   0.887   1.846  17.147  0.1728  0.3618 -0.1215
  456MPD2    C5 6792   0.945   1.771  17.049  0.4510 -0.1212  0.1961
  456MPD2     H 6793   0.908   2.140  16.994 -1.3973  0.2488 -0.8784
  456MPD2    H1 6794   0.870   1.793  17.240  1.3273 -0.3099 -0.2930
  456MPD2    H2 6795   1.040   1.755  16.859 -1.8800  0.9290 -2.1129
  456MPD2    H3 6796   0.960   1.664  17.063 -1.4204 -0.4729 -0.5156
  456MPD2     N 6797   0.828   2.070  17.222  0.6808  0.3857  0.0383
  456MPD2    H5 6798   0.828   2.170  17.205 -0.8218  0.2821 -0.5230
  456MPD2    N1 6799   1.040   2.008  16.795 -0.3941  0.2760  0.2524
  456MPD2    H7 6800   1.076   1.941  16.727  0.8096  0.7213  0.4511
  457TMC3    C1 6801   0.733   2.140  17.441  0.4046 -0.1917  1.2384
  457TMC3    C2 6802   0.654   2.241  17.390 -0.1466  0.0047 -0.0333
  457TMC3    C3 6803   0.606   2.337  17.482 -0.1458 -0.7544  0.5714
  457TMC3    C4 6804   0.756   2.131  17.577  0.0485  0.3659 -0.6790
  457TMC3    C5 6805   0.707   2.226  17.660 -0.3227  0.8608  0.4921
  457TMC3    C6 6806   0.634   2.333  17.611 -0.7582 -0.0857 -0.1127
  457TMC3     C 6807   0.794   2.033  17.358 -0.3334 -0.1268 -0.3819
  457TMC3     O 6808   0.799   1.927  17.414 -0.4839  0.1327 -0.6260
  457TMC3     H 6809   0.647   2.255  17.283 -1.7103 -1.3649 -0.1010
  457TMC3    H1 6810   0.808   2.045  17.617 -1.1340  0.9285  2.0597
  457TMC3    H2 6811   0.581   2.396  17.682  1.3855  0.2508  1.1824
  457TMC3    C7 6812   0.740   2.219   0.101  0.3132 -0.0098  0.4845
  457TMC3    C8 6813   0.576   2.478  17.450 -0.8014  0.4617  0.2830
  457TMC3    O1 6814   0.654   2.248   0.183  0.0553 -0.2417 -0.4720
  457TMC3    O2 6815   0.562   2.556  17.544 -0.1152 -0.1419  0.4836
  458MPD2     C 6816   3.055   1.899  12.312 -0.3649  0.2066 -0.1618
  458MPD2    C1 6817   3.017   1.916  12.446  0.1722 -0.7026 -0.3022
  458MPD2    C2 6818   2.878   1.905  12.474 -0.3872  0.0095  0.2353
  458MPD2    C3 6819   2.788   1.913  12.368  0.2171 -0.1201 -0.0950
  458MPD2    C4 6820   2.832   1.901  12.242  0.9514 -0.9351  0.1170
  458MPD2    C5 6821   2.964   1.893  12.211  0.4710  0.0880 -0.1484
  458MPD2     H 6822   2.840   1.916  12.575 -2.0446 -1.6600 -0.1941
  458MPD2    H1 6823   2.765   1.909  12.157  1.5646 -0.7899 -0.3543
  458MPD2    H2 6824   3.161   1.909  12.293  0.1490 -1.7731  1.7693
  458MPD2    H3 6825   2.989   1.896  12.105 -1.2442 -1.1344 -0.5930
  458MPD2     N 6826   2.648   1.921  12.404  0.4485 -0.4362  0.1164
  458MPD2    H5 6827   2.630   1.892  12.500  0.3185 -0.5119  0.0688
  458MPD2    N1 6828   3.114   1.928  12.547  0.7352 -0.1997  0.7880
  458MPD2    H7 6829   3.209   1.950  12.519  1.2517 -0.5133  2.3062
  459TMC3    C1 6830   3.219   1.960  12.753  0.8847  0.2643  0.3636
  459TMC3    C2 6831   3.320   2.027  12.680 -0.0461 -0.4683  0.0970
  459TMC3    C3 6832   3.441   2.044  12.747 -0.8774  0.5456  0.0039
  459TMC3    C4 6833   3.238   1.918  12.882 -0.8443  0.6123 -0.4691
  459TMC3    C5 6834   3.360   1.942  12.939 -0.4884  1.0330 -0.3406
  459TMC3    C6 6835   3.468   2.001  12.877 -0.2606 -0.6659 -0.4247
  459TMC3     C 6836   3.093   1.930  12.683  0.5844 -0.2511 -0.4955
  459TMC3     O 6837   3.003   1.886  12.755 -0.0263 -0.0248 -0.1101
  459TMC3     H 6838   3.324   2.043  12.573 -1.0187 -0.7203  0.0180
  459TMC3    H1 6839   3.160   1.856  12.926 -0.6909  2.3504  2.2688
  459TMC3    H2 6840   3.565   2.023  12.919  0.1115 -1.6286 -0.7807
  459TMC3    C7 6841   3.356   1.917  13.078 -0.3557 -0.3688  0.5177
  459TMC3    C8 6842   3.559   2.095  12.674  0.2282 -0.0618  0.2126
  459TMC3    O1 6843   3.273   1.839  13.121  0.2532  0.8928 -0.4792
  459TMC3    O2 6844   3.583   2.052  12.562 -0.4271  0.3282 -0.4661
  460MPD2     C 6845   2.132   4.165  10.746  0.0291  0.6714 -0.4039
  460MPD2    C1 6846   2.090   4.288  10.711 -0.2796 -0.4733  0.7736
  460MPD2    C2 6847   2.051   4.322  10.579  0.5061  1.1563  0.0573
  460MPD2    C3 6848   2.063   4.220  10.487 -0.0182 -1.0007 -0.5136
  460MPD2    C4 6849   2.122   4.100  10.518 -0.3333 -0.2798 -0.4038
  460MPD2    C5 6850   2.155   4.066  10.653  0.1596  0.3357  0.2503
  460MPD2     H 6851   2.000   4.416  10.562 -0.8932  0.2480 -0.8006
  460MPD2    H1 6852   2.140   4.021  10.446  0.7320 -0.8879  0.5233
  460MPD2    H2 6853   2.155   4.135  10.848  0.0903  1.0281 -0.3131
  460MPD2    H3 6854   2.211   3.977  10.680 -0.8147 -0.8984 -1.7817
  460MPD2     N 6855   2.035   4.250  10.351 -0.7406  0.2173 -0.1567
  460MPD2    H5 6856   2.012   4.347  10.333  0.2562  0.0356 -2.3954
  460MPD2    N1 6857   2.079   4.371  10.824 -0.6030  0.5694 -0.0842
  460MPD2    H7 6858   2.093   4.334  10.917 -1.2011  0.3747 -0.0678
  461TMC3    C1 6859   1.990   4.208  10.122  0.0288  0.1105 -0.3827
  461TMC3    C2 6860   2.036   4.130  10.022 -0.5052 -0.4225  0.3701
  461TMC3    C3 6861   2.060   4.182   9.899 -0.0260 -0.8297 -0.6687
  461TMC3    C4 6862   1.963   4.346  10.101 -0.0887  0.7010  0.1228
  461TMC3    C5 6863   1.995   4.395   9.978  0.2205  0.2215  0.4880
  461TMC3    C6 6864   2.030   4.316   9.871 -0.2121 -0.2292 -0.2262
  461TMC3     C 6865   2.010   4.153  10.257 -0.5133 -0.1317 -0.3088
  461TMC3     O 6866   2.003   4.029  10.267  0.0447 -0.0876 -0.0284
  461TMC3     H 6867   2.040   4.023  10.043  0.7020 -0.2632  0.9960
  461TMC3    H1 6868   1.920   4.408  10.179 -0.3259 -1.2165  1.5040
  461TMC3    H2 6869   2.053   4.367   9.779 -0.6975  2.7711  1.3215
  461TMC3    C7 6870   1.946   4.531   9.939  0.2058 -0.7071  0.1806
  461TMC3    C8 6871   2.083   4.092   9.792 -0.1482 -0.3029 -0.4022
  461TMC3    O1 6872   1.936   4.554   9.820 -0.0934  0.1176 -0.4012
  461TMC3    O2 6873   2.165   4.005   9.824 -0.6333  0.4288  0.3506
  462TMC3    C1 6874   2.101   0.467   0.354 -0.9177  0.1688 -0.0282
  462TMC3    C2 6875   2.230   0.432   0.338  0.0704  0.3363 -0.6950
  462TMC3    C3 6876   2.268   0.319   0.407  0.0511 -0.1614 -0.2892
  462TMC3    C4 6877   2.000   0.400   0.422  0.5131  0.1057  0.2635
  462TMC3    C5 6878   2.042   0.278   0.473  0.6541 -0.0422  0.2228
  462TMC3    C6 6879   2.176   0.239   0.467 -0.3011 -0.1574 -0.6969
  462TMC3     C 6880   2.061   0.602   0.317  0.8460 -0.2993  0.3180
  462TMC3     O 6881   1.994   0.663   0.397 -0.2446 -0.3836  0.6324
  462TMC3     H 6882   2.303   0.487   0.279 -1.3678  0.4943 -2.3325
  462TMC3    H1 6883   1.901   0.444   0.423 -0.5761 -2.3768 -0.1671
  462TMC3    H2 6884   2.207   0.159   0.534  0.2273  1.3324  0.8367
  462TMC3    C7 6885   1.945   0.181   0.521 -0.4423 -0.4659  0.0844
  462TMC3    C8 6886   2.393   0.274   0.383 -0.8071  0.1953  0.1469
  462TMC3    O1 6887   1.990   0.073   0.548 -0.4889 -1.0679  0.0881
  462TMC3    O2 6888   2.478   0.350   0.340  0.1967  0.3548  0.1755
  463MPD2     C 6889   4.150   2.282   1.588  0.1347 -0.2567  0.4301
  463MPD2    C1 6890   4.055   2.374   1.598 -0.0248  0.1670 -0.4022
  463MPD2    C2 6891   4.078   2.502   1.648 -1.1092  0.3743 -0.2105
  463MPD2    C3 6892   4.210   2.533   1.672 -0.1760 -0.1336  0.2166
  463MPD2    C4 6893   4.308   2.436   1.668 -0.0742  0.4442 -0.0348
  463MPD2    C5 6894   4.275   2.312   1.636  0.1267 -0.3094  0.0106
  463MPD2     H 6895   3.994   2.569   1.663  0.4154  2.4537 -1.0737
  463MPD2    H1 6896   4.413   2.448   1.690 -0.3824  1.0108  1.0821
  463MPD2    H2 6897   4.127   2.178   1.567 -0.8058 -0.1379  0.8798
  463MPD2    H3 6898   4.354   2.237   1.639 -1.1236 -1.6764 -1.3733
  463MPD2     N 6899   4.258   2.660   1.711  0.1555  0.2041  0.3719
  463MPD2    H5 6900   4.358   2.676   1.704  0.5898 -2.4077  0.5346
  463MPD2    N1 6901   3.918   2.347   1.564 -0.2174 -0.0579  0.2166
  463MPD2    H7 6902   3.851   2.422   1.574  0.0720  0.0891  1.0121
  464TMC3    C1 6903   3.729   2.227   1.502 -0.3311  0.3598 -0.3672
  464TMC3    C2 6904   3.656   2.322   1.570 -0.0569  0.1333 -0.0761
  464TMC3    C3 6905   3.522   2.295   1.584 -0.6663  0.0216 -0.3241
  464TMC3    C4 6906   3.676   2.110   1.448  0.1350  0.2180  0.3373
  464TMC3    C5 6907   3.541   2.087   1.467 -0.4265 -0.0871  0.1379
  464TMC3    C6 6908   3.469   2.177   1.536 -0.9319  0.5820  0.9303
  464TMC3     C 6909   3.871   2.233   1.506 -0.5290  0.0207 -0.2798
  464TMC3     O 6910   3.928   2.132   1.475 -0.2995  0.1698  0.0786
  464TMC3     H 6911   3.705   2.412   1.607  2.8082 -2.0981  1.6428
  464TMC3    H1 6912   3.738   2.048   1.385 -0.8788 -0.6596  0.2030
  464TMC3    H2 6913   3.370   2.145   1.566 -1.3266 -0.3875 -1.4322
  464TMC3    C7 6914   3.490   1.951   1.449  0.1714  0.6258 -0.7356
  464TMC3    C8 6915   3.443   2.386   1.663  0.3398 -0.6799  0.0433
  464TMC3    O1 6916   3.567   1.856   1.421 -0.1303 -0.2043  0.1044
  464TMC3    O2 6917   3.478   2.504   1.662 -0.1772  0.0559  0.3363
  465MPD2     C 6918   0.271   2.858  16.375 -0.0721  0.3609 -0.2325
  465MPD2    C1 6919   0.200   2.749  16.417 -0.6989 -0.5021 -1.2689
  465MPD2    C2 6920   0.064   2.763  16.428 -0.5694  0.5970  0.0045
  465MPD2    C3 6921   4.721   2.869  16.394 -0.3867 -0.2139  0.1977
  465MPD2    C4 6922   0.064   2.984  16.363 -0.3012 -0.7078 -0.1812
  465MPD2    C5 6923   0.199   2.976  16.355  0.0208  0.1722 -0.5747
  465MPD2     H 6924   0.009   2.681  16.470 -0.9842  0.8667 -0.0117
  465MPD2    H1 6925   0.012   3.078  16.350  0.9869  0.3374  2.2433
  465MPD2    H2 6926   0.379   2.864  16.365  0.0954  0.0084  1.3447
  465MPD2    H3 6927   0.250   3.064  16.318  1.2285 -0.5060 -0.5413
  465MPD2     N 6928   4.581   2.873  16.408 -1.2261  0.1924  0.0202
  465MPD2    H5 6929   4.547   2.793  16.461  1.3549 -2.6951 -2.7184
  465MPD2    N1 6930   0.259   2.625  16.457 -0.1585 -0.7081 -0.7876
  465MPD2    H7 6931   0.203   2.564  16.516  1.2553 -1.8577 -0.6162
  466TMC3    C1 6932   4.179   2.828  16.518  0.9254  0.0075  0.6979
  466TMC3    C2 6933   4.085   2.923  16.480 -0.7431  0.4154  0.2340
  466TMC3    C3 6934   4.124   3.010  16.377  0.3626  0.5328  0.1025
  466TMC3    C4 6935   4.312   2.840  16.485 -0.8147 -0.0804 -0.9331
  466TMC3    C5 6936   4.356   2.928  16.387  0.0150  0.0384 -0.3590
  466TMC3    C6 6937   4.256   3.001  16.326 -0.4814  0.3838  0.5915
  466TMC3     C 6938   4.123   2.719  16.600 -0.9078  0.3903 -0.1135
  466TMC3     O 6939   4.026   2.741  16.673  0.1073  0.2552 -0.1312
  466TMC3     H 6940   3.985   2.927  16.519 -0.5230  0.6385  0.7690
  466TMC3    H1 6941   4.380   2.786  16.550 -1.1762  2.7189  1.8001
  466TMC3    H2 6942   4.280   3.060  16.238 -1.3100  2.1210  1.5195
  466TMC3    C7 6943   4.494   2.969  16.367  0.0080 -0.3096 -0.0440
  466TMC3    C8 6944   4.048   3.122  16.351  0.4441  0.2039 -0.3365
  466TMC3    O1 6945   4.514   3.068  16.300 -0.4287  0.1800  0.6923
  466TMC3    O2 6946   4.085   3.190  16.257  0.0597  0.1745 -0.1873
  467TMC3    C1 6947   0.398   1.566  14.183 -0.2650  0.2683  0.9973
  467TMC3    C2 6948   0.321   1.669  14.140  0.5303 -0.1252 -0.2348
  467TMC3    C3 6949   0.189   1.647  14.129  0.0351 -0.4207 -0.1732
  467TMC3    C4 6950   0.354   1.435  14.188  0.7898  0.0356  0.1800
  467TMC3    C5 6951   0.214   1.423  14.162 -0.7785  0.4117  0.0525
  467TMC3    C6 6952   0.133   1.525  14.140  0.2338 -0.2806  0.4181
  467TMC3     C 6953   0.540   1.590  14.199  0.2937  0.0694  0.6403
  467TMC3     O 6954   0.603   1.494  14.240  0.0205 -0.6583  0.4012
  467TMC3     H 6955   0.351   1.773  14.136  0.4217 -0.2113 -3.2066
  467TMC3    H1 6956   0.425   1.362  14.225 -0.5348 -0.9101  0.8609
  467TMC3    H2 6957   0.036   1.505  14.095  0.1629  0.6305  0.1821
  467TMC3    C7 6958   0.157   1.295  14.194  0.2643 -0.0128  0.0572
  467TMC3    C8 6959   0.117   1.733  14.032  0.7578 -0.1959 -0.4656
  467TMC3    O1 6960   0.233   1.203  14.179 -0.5895  0.4043  0.2471
  467TMC3    O2 6961   0.193   1.780  13.946  0.3693  0.0922 -0.1191
  468MPD2     C 6962   3.800   4.210  10.683  0.5228 -0.6800  0.6616
  468MPD2    C1 6963   3.866   4.162  10.795 -0.4547  0.7333 -0.6545
  468MPD2    C2 6964   3.873   4.025  10.812 -0.1825 -0.2049  0.1611
  468MPD2    C3 6965   3.802   3.934  10.728  0.2381 -0.8262 -0.8147
  468MPD2    C4 6966   3.757   3.987  10.608  0.0389 -0.3295  0.1647
  468MPD2    C5 6967   3.760   4.121  10.591  0.7169 -0.2627  0.1132
  468MPD2     H 6968   3.926   3.988  10.899  2.8106  3.3872 -0.1631
  468MPD2    H1 6969   3.703   3.932  10.532  2.7905  0.5506 -2.4389
  468MPD2    H2 6970   3.793   4.314  10.651 -0.1326 -0.4268  1.6286
  468MPD2    H3 6971   3.711   4.160  10.502  1.6827  1.3065  0.2656
  468MPD2     N 6972   3.803   3.795  10.752 -0.4585  0.1778  0.0423
  468MPD2    H5 6973   3.741   3.740  10.695 -1.8205  1.0912  0.6378
  468MPD2    N1 6974   3.939   4.238  10.890 -0.1239  0.1829  0.3920
  468MPD2    H7 6975   4.003   4.191  10.953 -0.3005 -1.8299 -0.9543
  469TMC3    C1 6976   3.986   4.422  11.019 -0.1537  0.0616  0.2610
  469TMC3    C2 6977   4.106   4.357  11.052  0.8437 -1.0026 -0.3253
  469TMC3    C3 6978   4.164   4.400  11.167 -0.5841  0.2724  0.0765
  469TMC3    C4 6979   3.934   4.519  11.095 -0.3996  0.2829 -0.1959
  469TMC3    C5 6980   4.001   4.564  11.209 -0.0297 -0.1069  0.2930
  469TMC3    C6 6981   4.115   4.499  11.247 -0.5443 -0.3434  0.0798
  469TMC3     C 6982   3.907   4.372  10.909  0.0798 -0.4813 -0.5005
  469TMC3     O 6983   3.817   4.441  10.859 -0.6207 -0.3906 -0.1167
  469TMC3     H 6984   4.151   4.277  10.994 -2.4324 -0.3668 -3.6764
  469TMC3    H1 6985   3.842   4.566  11.064 -1.2751 -1.8932 -0.8841
  469TMC3    H2 6986   4.172   4.527  11.335  0.4536 -0.8362 -0.4032
  469TMC3    C7 6987   3.946   4.669  11.287 -0.0070  0.0348 -0.7568
  469TMC3    C8 6988   4.282   4.327  11.201 -0.8089 -0.2294 -0.0380
  469TMC3    O1 6989   3.853   0.014  11.245 -0.0971  0.7239  0.0765
  469TMC3    O2 6990   4.331   4.259  11.115  0.7339 -0.1430 -0.1637
  470TMC3    C1 6991   1.297   4.340   0.997 -0.6078  0.4673 -0.1202
  470TMC3    C2 6992   1.368   4.451   1.017 -0.1661 -0.1679 -0.0420
  470TMC3    C3 6993   1.469   4.446   1.104 -0.1053 -0.7299  0.2559
  470TMC3    C4 6994   1.321   4.227   1.073 -0.2870  0.2355 -0.1406
  470TMC3    C5 6995   1.421   4.225   1.167 -0.2678  0.0183  0.8558
  470TMC3    C6 6996   1.499   4.338   1.191  0.0799 -0.2550 -0.4568
  470TMC3     C 6997   1.229   4.323   0.862  0.6200 -0.2006 -0.5054
  470TMC3     O 6998   1.234   4.421   0.789 -0.1588  0.2268  0.6452
  470TMC3     H 6999   1.357   4.539   0.954 -0.4406  1.1305  1.8032
  470TMC3    H1 7000   1.272   4.131   1.062 -0.2906  0.3531 -1.1801
  470TMC3    H2 7001   1.580   4.337   1.262  1.2013  0.1849 -1.7302
  470TMC3    C7 7002   1.419   4.119   1.264 -0.0326 -0.7083 -0.1199
  470TMC3    C8 7003   1.545   4.563   1.146  0.6050  0.1376 -0.2171
  470TMC3    O1 7004   1.397   4.004   1.231  0.0407  0.4847  0.7212
  470TMC3    O2 7005   1.635   4.538   1.221 -0.0607 -0.2709  0.0527
  471MPD2     C 7006   2.172   1.088  17.074  0.7884 -0.1021  0.1152
  471MPD2    C1 7007   2.132   0.964  17.022 -0.7384  0.0775 -0.5203
  471MPD2    C2 7008   2.214   0.851  17.052 -0.0692 -0.7711  0.4560
  471MPD2    C3 7009   2.323   0.856  17.137  0.9861 -0.5099 -0.5530
  471MPD2    C4 7010   2.354   0.974  17.197  0.5620 -0.5003  0.1426
  471MPD2    C5 7011   2.278   1.088  17.161 -0.2176 -0.2610 -0.0428
  471MPD2     H 7012   2.191   0.753  17.012 -1.3498 -0.6657  0.9137
  471MPD2    H1 7013   2.430   0.988  17.272 -2.3047 -1.0825  3.1472
  471MPD2    H2 7014   2.116   1.176  17.046  1.7154  0.7288  0.8792
  471MPD2    H3 7015   2.296   1.185  17.207  0.0840 -0.3681  0.0658
  471MPD2     N 7016   2.394   0.737  17.180  0.4655  0.1017 -0.0214
  471MPD2    H5 7017   2.483   0.750  17.226 -0.2482 -1.3755  1.7719
  471MPD2    N1 7018   2.016   0.940  16.942  0.5758  0.7019  0.0806
  471MPD2    H7 7019   2.010   0.846  16.904  0.3882  0.7913 -0.1091
  472TMC3    C1 7020   1.819   0.978  16.843 -0.1066 -0.6246 -0.6733
  472TMC3    C2 7021   1.759   1.039  16.741  0.0258 -0.0583  0.2324
  472TMC3    C3 7022   1.649   0.981  16.693 -0.6014  0.2393 -0.1859
  472TMC3    C4 7023   1.773   0.869  16.914  0.0919  0.6125 -0.3744
  472TMC3    C5 7024   1.655   0.816  16.869  0.4865  0.5719 -0.3153
  472TMC3    C6 7025   1.596   0.870  16.756  0.7047 -0.4729 -0.9771
  472TMC3     C 7026   1.924   1.038  16.915 -0.5507 -0.0041 -0.2085
  472TMC3     O 7027   1.914   1.150  16.966  0.0090 -0.1884 -0.2015
  472TMC3     H 7028   1.809   1.120  16.689  0.9227  0.5121  2.0100
  472TMC3    H1 7029   1.818   0.840  17.008  2.4772  1.3449 -1.2933
  472TMC3    H2 7030   1.518   0.810  16.709  0.2795 -1.2006  0.6711
  472TMC3    C7 7031   1.588   0.719  16.954  0.5405  0.3766  0.1995
  472TMC3    C8 7032   1.603   1.030  16.561 -0.0978 -0.1209 -0.2248
  472TMC3    O1 7033   1.660   0.659  17.033 -0.0416  0.1709 -0.1616
  472TMC3    O2 7034   1.689   1.077  16.486  0.3558  0.8612  0.3287
  473MPD2     C 7035   1.923   3.529  13.936 -0.1704  0.8629  0.4545
  473MPD2    C1 7036   1.835   3.638  13.946  0.3858 -0.4137  0.1483
  473MPD2    C2 7037   1.862   3.743  14.029  0.2040  0.0150 -0.3675
  473MPD2    C3 7038   1.968   3.736  14.115 -0.0198  0.1897  0.9792
  473MPD2    C4 7039   2.061   3.632  14.100 -0.5180  0.4562  0.0532
  473MPD2    C5 7040   2.040   3.530  14.008  0.2959  0.0625 -0.2897
  473MPD2     H 7041   1.795   3.828  14.020  1.0149  0.6067 -0.7364
  473MPD2    H1 7042   2.148   3.626  14.165  0.2025  0.6227 -0.9106
  473MPD2    H2 7043   1.913   3.443  13.871 -0.4536  0.9702  0.3545
  473MPD2    H3 7044   2.109   3.447  13.996  0.5549  0.1046  0.8771
  473MPD2     N 7045   1.991   3.830  14.216 -0.1827 -0.0799  0.0875
  473MPD2    H5 7046   2.074   3.822  14.274 -0.4342  1.9750  0.7338
  473MPD2    N1 7047   1.720   3.651  13.861 -0.7049  0.1647 -0.4312
  473MPD2    H7 7048   1.677   3.742  13.852 -1.3741 -0.0555  0.5987
  474TMC3    C1 7049   1.927   3.997  14.371  0.6903 -0.3617  0.5065
  474TMC3    C2 7050   1.832   4.084  14.427  0.5988  0.2675 -0.2047
  474TMC3    C3 7051   1.860   4.188  14.519 -0.2887 -0.6101  0.8421
  474TMC3    C4 7052   2.059   4.025  14.417  0.2005 -0.1860  0.1262
  474TMC3    C5 7053   2.082   4.109  14.516 -0.2476  0.4136  0.7550
  474TMC3    C6 7054   1.990   4.194  14.570  0.0770 -0.3211  0.1764
  474TMC3     C 7055   1.893   3.925  14.258  0.1405  0.3603 -0.7861
  474TMC3     O 7056   1.787   3.947  14.203  0.4604  0.0742  0.5408
  474TMC3     H 7057   1.728   4.062  14.407  0.9679  1.2500 -3.3725
  474TMC3    H1 7058   2.142   3.978  14.364 -0.1530 -0.4786 -0.1761
  474TMC3    H2 7059   2.020   4.266  14.645 -0.5594  1.3343 -1.1620
  474TMC3    C7 7060   2.222   4.151  14.543  0.3065  0.0853  1.7454
  474TMC3    C8 7061   1.761   4.280  14.563 -0.6377 -0.3622  0.2146
  474TMC3    O1 7062   2.301   4.137  14.449 -0.3503 -0.1092 -0.7216
  474TMC3    O2 7063   1.647   4.259  14.524  0.0516 -0.3222 -0.3093
  475MPD2     C 7064   0.503   2.109  10.819  0.1429  0.2186 -0.1217
  475MPD2    C1 7065   0.465   2.071  10.694  0.6553  0.4956  0.3670
  475MPD2    C2 7066   0.347   2.002  10.680  0.2018 -0.2440  0.3249
  475MPD2    C3 7067   0.267   1.976  10.787 -0.5624 -0.6168 -0.2394
  475MPD2    C4 7068   0.312   2.008  10.916 -0.5499  0.8105  0.1689
  475MPD2    C5 7069   0.427   2.076  10.926  0.3049  0.5020  0.2188
  475MPD2     H 7070   0.305   1.989  10.581 -0.5572 -1.4798  0.8075
  475MPD2    H1 7071   0.246   1.992  11.000 -0.4977  0.5769  0.1658
  475MPD2    H2 7072   0.588   2.172  10.840 -0.8401  1.6542 -0.4252
  475MPD2    H3 7073   0.456   2.101  11.028 -1.6384  1.6401  0.4824
  475MPD2     N 7074   0.143   1.923  10.751 -0.7171  0.0668  0.1518
  475MPD2    H5 7075   0.120   1.923  10.652  2.4773 -2.0513 -0.6030
  475MPD2    N1 7076   0.555   2.104  10.586  0.3989  0.2921 -0.0335
  475MPD2    H7 7077   0.635   2.160  10.613 -1.2127  2.5985 -0.0456
  476TMC3    C1 7078   0.633   2.112  10.364  0.3922 -0.0950  0.5182
  476TMC3    C2 7079   0.605   2.130  10.233  0.0169  0.2045 -0.0496
  476TMC3    C3 7080   0.689   2.209  10.160  0.6949  0.1494  0.5560
  476TMC3    C4 7081   0.746   2.166  10.418  1.0367 -0.0031  0.2035
  476TMC3    C5 7082   0.832   2.243  10.342 -0.4796  0.7656  0.5146
  476TMC3    C6 7083   0.803   2.274  10.209  0.6279  0.3617 -0.3668
  476TMC3     C 7084   0.525   2.077  10.454 -0.6717  0.1777 -0.8561
  476TMC3     O 7085   0.435   2.011  10.411 -0.0482  0.3116  0.0773
  476TMC3     H 7086   0.511   2.094  10.194 -0.2399 -2.2317  2.8145
  476TMC3    H1 7087   0.781   2.127  10.513 -3.1886  0.0014  1.7448
  476TMC3    H2 7088   0.874   2.317  10.140  2.4155  0.8741  1.7863
  476TMC3    C7 7089   0.966   2.271  10.405  0.3456  1.2764  0.3183
  476TMC3    C8 7090   0.667   2.200  10.017  0.4672  1.0733  0.5426
  476TMC3    O1 7091   0.989   2.211  10.509  0.1087 -0.4433 -0.2248
  476TMC3    O2 7092   0.702   2.291   9.939 -0.1608 -0.3024  0.2304
  477MPD2     C 7093   2.733   3.907  11.807 -0.4814  0.2348 -0.7921
  477MPD2    C1 7094   2.638   3.819  11.763 -0.0023  0.3170  0.0447
  477MPD2    C2 7095   2.592   3.720  11.853  0.6489 -0.8480  0.7187
  477MPD2    C3 7096   2.625   3.727  11.986  0.0462 -0.0173  0.5610
  477MPD2    C4 7097   2.710   3.824  12.032  0.0048  0.4216 -0.1322
  477MPD2    C5 7098   2.765   3.914  11.943  0.3205  0.0446 -0.6229
  477MPD2     H 7099   2.517   3.646  11.825 -0.5338  0.4004  0.5755
  477MPD2    H1 7100   2.742   3.814  12.135  0.2637  0.2877 -0.2273
  477MPD2    H2 7101   2.774   3.989  11.750 -0.1498  0.2284 -0.5660
  477MPD2    H3 7102   2.831   3.994  11.975  1.0390 -0.7199 -0.2002
  477MPD2     N 7103   2.573   3.623  12.077  0.4281  0.2088 -0.7406
  477MPD2    H5 7104   2.520   3.547  12.036 -2.3074  1.6172  0.2107
  477MPD2    N1 7105   2.569   3.847  11.644 -0.0846  0.0816  0.0117
  477MPD2    H7 7106   2.598   3.931  11.596  0.6683 -1.4061 -2.1932
  478TMC3    C1 7107   2.365   3.874  11.524 -0.7729 -0.7561 -0.4923
  478TMC3    C2 7108   2.373   4.008  11.522  0.3289  1.1706 -0.4468
  478TMC3    C3 7109   2.297   4.084  11.434 -0.2531 -0.0080 -0.4047
  478TMC3    C4 7110   2.283   3.813  11.430  0.2130 -0.2407 -0.5580
  478TMC3    C5 7111   2.204   3.891  11.348  0.8996  0.0791  0.6666
  478TMC3    C6 7112   2.215   4.028  11.344  0.7272 -0.4238  0.0614
  478TMC3     C 7113   2.452   3.792  11.598 -0.5399  0.3325 -0.0840
  478TMC3     O 7114   2.424   3.676  11.620  0.4010  0.0609 -0.4937
  478TMC3     H 7115   2.439   4.063  11.589  1.4070  0.4359 -0.9079
  478TMC3    H1 7116   2.277   3.705  11.443  0.1322 -0.3650 -1.5955
  478TMC3    H2 7117   2.151   4.096  11.289 -1.6194 -1.9956  0.8221
  478TMC3    C7 7118   2.137   3.819  11.238  0.2936  0.2206  0.5927
  478TMC3    C8 7119   2.285   4.228  11.460 -0.0805  0.4907 -0.8962
  478TMC3    O1 7120   2.133   3.695  11.238 -0.3059  0.3019  0.0273
  478TMC3    O2 7121   2.230   4.293  11.375 -0.1291  0.1007  0.4836
  479MPD2     C 7122   1.477   0.852  15.269  0.3934 -0.1446 -0.0536
  479MPD2    C1 7123   1.389   0.785  15.347  0.1124  0.0800  0.5319
  479MPD2    C2 7124   1.408   0.782  15.484  0.0759 -0.3146  0.4790
  479MPD2    C3 7125   1.503   0.858  15.544  0.7921  0.0223  0.7746
  479MPD2    C4 7126   1.597   0.913  15.462  0.4672 -0.2088 -0.0306
  479MPD2    C5 7127   1.589   0.911  15.323 -0.5451 -0.2161 -0.1146
  479MPD2     H 7128   1.361   0.713  15.553 -1.3738 -0.5676 -0.7632
  479MPD2    H1 7129   1.673   0.980  15.499 -1.0355  2.9887 -2.7597
  479MPD2    H2 7130   1.468   0.852  15.161 -0.8663  1.2139  0.0584
  479MPD2    H3 7131   1.659   0.959  15.256  0.9724  0.3408  1.8768
  479MPD2     N 7132   1.513   0.890  15.684 -0.1280 -0.0321 -0.4597
  479MPD2    H5 7133   1.595   0.947  15.703 -0.9699  1.1377 -0.3078
  479MPD2    N1 7134   1.285   0.714  15.289  0.3696  0.0795 -0.0556
  479MPD2    H7 7135   1.276   0.717  15.188 -3.6714 -1.2713  0.2784
  480TMC3    C1 7136   1.092   0.708  15.803 -0.2780 -0.6601 -0.1127
  480TMC3    C2 7137   1.015   0.762  15.702  0.2440  1.1741 -0.0897
  480TMC3    C3 7138   1.083   0.864  15.636  0.2316  0.3924 -0.2017
  480TMC3    C4 7139   1.222   0.751  15.831 -0.8673  0.3007 -0.1044
  480TMC3    C5 7140   1.284   0.835  15.750 -0.0700 -0.4254 -0.1056
  480TMC3    C6 7141   1.217   0.904  15.656 -0.4329  0.1977 -0.1567
  480TMC3     C 7142   1.046   0.592  15.882 -0.3412 -0.4147 -0.6901
  480TMC3     O 7143   1.132   0.535  15.950 -0.1954 -0.0966 -0.1457
  480TMC3     H 7144   0.913   0.729  15.685  1.3022 -3.5039  2.5368
  480TMC3    H1 7145   1.278   0.703  15.910 -2.1428 -0.6766  0.2074
  480TMC3    H2 7146   1.279   0.976  15.604 -1.2011  0.4800 -0.6705
  480TMC3    C7 7147   1.421   0.859  15.782  0.4395  0.0684  0.4746
  480TMC3    C8 7148   1.018   0.910  15.518  0.2589 -0.3308  0.3133
  480TMC3    O1 7149   1.441   0.881  15.899 -0.3725 -0.4722  0.1397
  480TMC3    O2 7150   0.917   0.849  15.480  0.3151 -0.2767  0.5064
  481MPD2     C 7151   3.215   0.653  14.481  0.9351  0.3776 -0.3120
  481MPD2    C1 7152   3.095   0.668  14.543 -0.7232 -0.3073  0.3652
  481MPD2    C2 7153   3.083   0.650  14.676  0.5123 -0.6981 -0.3124
  481MPD2    C3 7154   3.196   0.626  14.752 -0.3860 -0.4001  0.7951
  481MPD2    C4 7155   3.323   0.630  14.688 -0.1820 -0.3219  0.0488
  481MPD2    C5 7156   3.331   0.644  14.556  0.5850  0.7785  0.3800
  481MPD2     H 7157   2.982   0.636  14.714  1.5690 -1.8674  2.0638
  481MPD2    H1 7158   3.416   0.623  14.744  0.4939  2.9342 -0.6917
  481MPD2    H2 7159   3.222   0.671  14.374 -1.9295 -0.8862 -0.7036
  481MPD2    H3 7160   3.426   0.649  14.504 -0.7828  0.7481 -2.1772
  481MPD2     N 7161   3.197   0.587  14.890 -0.0849 -0.1981 -0.1189
  481MPD2    H5 7162   3.288   0.560  14.926  1.4297  2.7781 -1.7131
  481MPD2    N1 7163   2.993   0.681  14.450  0.1293 -0.2720 -0.3504
  481MPD2    H7 7164   3.012   0.678  14.350  0.6846  1.4996 -0.2890
  482TMC3    C1 7165   2.779   0.694  14.347 -0.5959  0.1959  0.4708
  482TMC3    C2 7166   2.647   0.654  14.346 -0.2039 -0.3903  0.9594
  482TMC3    C3 7167   2.580   0.642  14.227  0.4812 -0.0843 -1.0273
  482TMC3    C4 7168   2.848   0.729  14.236 -0.0119 -0.1372  0.5336
  482TMC3    C5 7169   2.779   0.708  14.116 -0.3250  0.1820  0.3338
  482TMC3    C6 7170   2.649   0.662  14.109  0.6616  0.9308  0.5004
  482TMC3     C 7171   2.856   0.699  14.473 -0.1658 -0.7128  0.5817
  482TMC3     O 7172   2.792   0.726  14.575  0.3098  0.1130  0.0549
  482TMC3     H 7173   2.587   0.645  14.435 -0.5840 -1.0594  0.6395
  482TMC3    H1 7174   2.947   0.774  14.227 -0.6509  1.7463  2.9994
  482TMC3    H2 7175   2.584   0.654  14.022  1.8318 -1.6256 -0.1290
  482TMC3    C7 7176   2.871   0.677  14.008  0.3026 -0.5697 -0.2280
  482TMC3    C8 7177   2.484   0.533  14.228 -0.3827 -0.0012 -1.1136
  482TMC3    O1 7178   2.972   0.617  14.042  0.1531  0.4807 -0.1079
  482TMC3    O2 7179   2.470   0.470  14.332  0.1323  0.5174  0.2460
  483TMC3    C1 7180   1.658   3.403   1.320 -0.8329  0.2635 -0.6178
  483TMC3    C2 7181   1.629   3.538   1.310  1.0778  0.2462 -0.5451
  483TMC3    C3 7182   1.729   3.630   1.302  0.1475  0.6604 -0.3111
  483TMC3    C4 7183   1.790   3.363   1.318  0.6445 -0.1164  0.2224
  483TMC3    C5 7184   1.890   3.458   1.305 -0.2848  0.1248 -0.1627
  483TMC3    C6 7185   1.863   3.597   1.289  0.2978 -0.2107 -0.2470
  483TMC3     C 7186   1.568   3.313   1.399  0.1829  0.3470 -0.1834
  483TMC3     O 7187   1.488   3.365   1.477 -0.0677  0.1449 -0.1258
  483TMC3     H 7188   1.526   3.563   1.334  1.6566  0.2754  1.9531
  483TMC3    H1 7189   1.812   3.260   1.342  0.3648 -0.3602 -0.5526
  483TMC3    H2 7190   1.945   3.667   1.300 -0.2513  0.6793 -1.6877
  483TMC3    C7 7191   2.021   3.411   1.295 -0.0679  0.3821 -0.2103
  483TMC3    C8 7192   1.684   3.755   1.241  1.4714  0.1618 -0.3465
  483TMC3    O1 7193   2.046   3.315   1.367  0.4337  0.2534  0.2578
  483TMC3    O2 7194   1.575   3.765   1.182 -0.5137  0.1798  0.7176
  484MPD2     C 7195   3.772   2.386  12.738  0.4318 -0.2399 -0.6366
  484MPD2    C1 7196   3.741   2.258  12.692  0.2822  0.0303  0.3760
  484MPD2    C2 7197   3.831   2.192  12.606  0.4087  0.4036 -0.4649
  484MPD2    C3 7198   3.961   2.246  12.585  0.0360  0.3425  0.0798
  484MPD2    C4 7199   3.988   2.370  12.633 -0.3292  0.2930  0.1084
  484MPD2    C5 7200   3.894   2.438  12.708  0.0216 -0.2217  0.5485
  484MPD2     H 7201   3.804   2.094  12.569 -1.9133 -0.5034  3.6329
  484MPD2    H1 7202   4.086   2.416  12.637 -1.2707  2.3028 -0.0601
  484MPD2    H2 7203   3.703   2.447  12.795 -1.2623 -0.7627 -2.1383
  484MPD2    H3 7204   3.917   2.538  12.742 -1.6237  0.6665 -0.9989
  484MPD2     N 7205   4.060   2.186  12.497 -0.0994  0.5337 -0.3130
  484MPD2    H5 7206   4.136   2.251  12.476  0.2011  0.3344  0.1589
  484MPD2    N1 7207   3.623   2.200  12.739 -0.5966 -0.5543  0.3658
  484MPD2    H7 7208   3.584   2.237  12.825 -0.1319  0.7194  0.0302
  485TMC3    C1 7209   4.211   2.032  12.422  0.0172  0.1588  0.0661
  485TMC3    C2 7210   4.277   1.920  12.464 -0.7223 -0.2452 -0.0096
  485TMC3    C3 7211   4.414   1.940  12.477  1.2551  0.1585 -0.2304
  485TMC3    C4 7212   4.269   2.138  12.358  0.0513 -0.4599  0.3000
  485TMC3    C5 7213   4.404   2.140  12.354  0.5307 -0.0859  0.1176
  485TMC3    C6 7214   4.479   2.049  12.422 -0.4186  0.3273 -0.6748
  485TMC3     C 7215   4.081   2.052  12.474 -0.6214 -0.5189 -0.3131
  485TMC3     O 7216   4.016   1.952  12.504 -0.5824 -0.0338 -0.4460
  485TMC3     H 7217   4.220   1.835  12.501 -0.8247 -0.6625 -1.1367
  485TMC3    H1 7218   4.217   2.213  12.299 -0.7227 -2.3310 -1.4005
  485TMC3    H2 7219   4.580   2.068  12.459 -0.7751 -0.3148  0.6557
  485TMC3    C7 7220   4.448   2.143  12.217  0.3352  0.2620 -0.2967
  485TMC3    C8 7221   4.494   1.825  12.458  0.3599  0.4017  0.2021
  485TMC3    O1 7222   4.383   2.210  12.138 -0.3129 -0.3519  0.1520
  485TMC3    O2 7223   4.601   1.843  12.398 -0.4278  0.1837  0.0455
  486MPD2     C 7224   0.967   1.432  13.089  0.4085 -0.0456 -0.8965
  486MPD2    C1 7225   0.972   1.412  12.955  0.3910  0.3833  0.3870
  486MPD2    C2 7226   1.011   1.521  12.868  0.2750 -0.2162  0.2580
  486MPD2    C3 7227   1.022   1.648  12.921 -0.4658  0.3358 -0.5457
  486MPD2    C4 7228   1.013   1.663  13.058  0.0323  0.2456 -0.4623
  486MPD2    C5 7229   0.994   1.558  13.139  0.2897  0.3098 -0.3276
  486MPD2     H 7230   1.012   1.509  12.760  1.1224 -0.5629  0.3100
  486MPD2    H1 7231   1.033   1.757  13.107  1.4183  0.5335 -1.5547
  486MPD2    H2 7232   0.951   1.351  13.160 -0.2981  0.2939 -0.6621
  486MPD2    H3 7233   0.979   1.589  13.242  1.5174 -0.8602  0.1960
  486MPD2     N 7234   1.031   1.756  12.827 -0.8988  0.1362 -0.3198
  486MPD2    H5 7235   1.046   1.735  12.729 -2.0075 -0.1045 -0.4449
  486MPD2    N1 7236   0.957   1.278  12.899  0.4141 -0.1615 -0.0659
  486MPD2    H7 7237   0.942   1.205  12.968 -0.1757 -0.3168 -0.3567
  487TMC3    C1 7238   0.948   1.087  12.758 -0.6164  0.7445 -0.2352
  487TMC3    C2 7239   0.869   1.026  12.669  0.3891  0.1603 -0.0189
  487TMC3    C3 7240   0.870   0.893  12.672 -0.3004  0.4667 -0.1425
  487TMC3    C4 7241   1.032   1.026  12.845  0.1895 -1.0445 -0.2433
  487TMC3    C5 7242   1.023   0.887  12.848  0.8237  0.1026 -0.7519
  487TMC3    C6 7243   0.949   0.817  12.753 -0.8702 -0.5439  0.3520
  487TMC3     C 7244   0.950   1.239  12.764 -0.1003 -0.6356 -0.4269
  487TMC3     O 7245   0.957   1.299  12.658  0.6008  0.6628  0.3250
  487TMC3     H 7246   0.795   1.095  12.630 -0.3290  0.7545  2.3989
  487TMC3    H1 7247   1.100   1.074  12.914 -2.2234  1.4450  0.3602
  487TMC3    H2 7248   0.914   0.717  12.776 -0.0080 -1.3503 -1.9153
  487TMC3    C7 7249   1.068   0.821  12.969  0.7894 -0.3893 -1.1350
  487TMC3    C8 7250   0.739   0.840  12.660  0.0037 -0.1917  0.0183
  487TMC3    O1 7251   1.092   0.891  13.067  0.7806 -0.0549 -0.0803
  487TMC3    O2 7252   0.656   0.924  12.680 -0.2194  0.3045  0.0120
  488MPD2     C 7253   0.912   2.425  16.219  0.5377  0.5605 -0.1309
  488MPD2    C1 7254   0.920   2.558  16.257  0.1560  0.3665 -0.3357
  488MPD2    C2 7255   0.898   2.601  16.386  0.1832 -0.3748 -0.2375
  488MPD2    C3 7256   0.869   2.503  16.477 -0.2489  0.9563  0.0544
  488MPD2    C4 7257   0.846   2.368  16.433  0.7204  0.0940  0.5604
  488MPD2    C5 7258   0.864   2.328  16.306 -0.2509 -0.1306 -0.5231
  488MPD2     H 7259   0.894   2.705  16.416 -0.1566 -0.3384 -0.4063
  488MPD2    H1 7260   0.820   2.289  16.503 -2.3629 -0.8259 -1.6003
  488MPD2    H2 7261   0.934   2.398  16.117  2.4536  1.1169  0.1306
  488MPD2    H3 7262   0.850   2.228  16.267  0.3580  1.3456 -4.4772
  488MPD2     N 7263   0.847   2.552  16.609 -0.4304  0.1127 -0.2949
  488MPD2    H5 7264   0.844   2.653  16.619 -2.4094 -0.1746  2.1784
  488MPD2    N1 7265   0.970   2.666  16.176 -0.0317  0.0885  0.2231
  488MPD2    H7 7266   0.974   2.757  16.221 -1.2097  1.1434 -1.8007
  489TMC3    C1 7267   0.832   2.568  16.834 -0.4388 -1.1294 -0.5400
  489TMC3    C2 7268   0.894   2.684  16.824 -0.5024 -0.4177 -0.6481
  489TMC3    C3 7269   0.938   2.743  16.936 -0.3388 -0.1033  0.1739
  489TMC3    C4 7270   0.803   2.513  16.956  0.3370  0.4147 -0.0525
  489TMC3    C5 7271   0.855   2.562  17.073 -0.4133 -0.3446 -0.0401
  489TMC3    C6 7272   0.914   2.687  17.062  0.3132 -0.1922 -0.6587
  489TMC3     C 7273   0.820   2.482  16.724  0.3740  0.6524  0.7152
  489TMC3     O 7274   0.808   2.357  16.733  0.2592 -0.2769 -0.4421
  489TMC3     H 7275   0.926   2.725  16.728 -0.5262 -0.0055 -0.4818
  489TMC3    H1 7276   0.761   2.414  16.965  3.6830 -0.9486  0.9165
  489TMC3    H2 7277   0.946   2.746  17.147  0.0211 -1.1481  0.1271
  489TMC3    C7 7278   0.866   2.487  17.193 -0.4173 -0.6970  0.3410
  489TMC3    C8 7279   1.027   2.855  16.920  0.2078 -0.0136  0.0484
  489TMC3    O1 7280   0.840   2.369  17.187  0.4010  0.6664  0.3556
  489TMC3    O2 7281   1.029   2.911  16.812  0.0858  0.2983  0.1162
  490MPD2     C 7282   2.680   1.896   0.332  0.2005 -0.2927  0.1102
  490MPD2    C1 7283   2.627   1.794   0.410 -0.3319 -0.6250  0.3289
  490MPD2    C2 7284   2.683   1.766   0.536 -0.2981 -0.2520  0.3991
  490MPD2    C3 7285   2.799   1.830   0.571  0.4221  0.0690 -0.3547
  490MPD2    C4 7286   2.853   1.926   0.490 -0.3640  0.2984 -0.0284
  490MPD2    C5 7287   2.788   1.966   0.371 -0.1976  0.7559 -0.1303
  490MPD2     H 7288   2.643   1.685   0.596 -0.1663 -1.5242 -1.2311
  490MPD2    H1 7289   2.944   1.973   0.525  1.3574 -1.7332 -1.7569
  490MPD2    H2 7290   2.627   1.928   0.243 -1.2362 -1.6451  0.4643
  490MPD2    H3 7291   2.829   2.042   0.305 -2.3075  1.6826 -0.3774
  490MPD2     N 7292   2.874   1.809   0.693  0.0130  0.4029  0.0302
  490MPD2    H5 7293   2.947   1.878   0.709  1.2593 -1.1286  0.9858
  490MPD2    N1 7294   2.516   1.714   0.374  0.3698  0.9249 -0.1746
  490MPD2    H7 7295   2.490   1.642   0.440 -2.3755 -0.7702 -3.1068
  491TMC3    C1 7296   2.337   1.640   0.262  0.4236  0.6719 -0.0805
  491TMC3    C2 7297   2.282   1.618   0.387  0.5457 -0.3529 -0.5583
  491TMC3    C3 7298   2.168   1.535   0.378  0.5990  0.4338 -0.7094
  491TMC3    C4 7299   2.295   1.593   0.141  0.1617  0.4071 -0.0856
  491TMC3    C5 7300   2.189   1.500   0.149  0.6382  0.4031 -0.4185
  491TMC3    C6 7301   2.132   1.467   0.267  0.2983 -0.4610 -0.2349
  491TMC3     C 7302   2.443   1.731   0.262  0.3604 -0.2362  0.2391
  491TMC3     O 7303   2.437   1.817   0.173  0.2593 -0.0780 -0.0128
  491TMC3     H 7304   2.312   1.669   0.478  1.6588 -0.2248 -0.9997
  491TMC3    H1 7305   2.337   1.631   0.048 -0.5532 -2.4771 -1.5959
  491TMC3    H2 7306   2.065   1.383   0.282 -0.9013  0.1624 -2.1841
  491TMC3    C7 7307   2.136   1.431   0.033 -0.3641  0.1438  0.7715
  491TMC3    C8 7308   2.115   1.482   0.495 -0.5126  0.4266  0.0086
  491TMC3    O1 7309   2.055   1.340   0.065 -0.0061  0.0481  0.3729
  491TMC3    O2 7310   1.998   1.447   0.491 -0.0162 -0.5787  0.2917
  492MPD2     C 7311   2.313   2.144  10.693  0.4268  0.0644  0.5736
  492MPD2    C1 7312   2.205   2.064  10.686 -0.1604 -1.0546 -0.3122
  492MPD2    C2 7313   2.168   1.992  10.799 -0.3585  0.1782  0.6105
  492MPD2    C3 7314   2.217   2.023  10.923  0.4198  0.1194 -0.0048
  492MPD2    C4 7315   2.317   2.117  10.933  0.1437 -0.0957 -0.0929
  492MPD2    C5 7316   2.368   2.175  10.818  0.2058  0.4660  0.5816
  492MPD2     H 7317   2.096   1.913  10.789 -0.6475  0.3596  1.2664
  492MPD2    H1 7318   2.357   2.149  11.029  0.3670 -0.1257 -0.1746
  492MPD2    H2 7319   2.356   2.190  10.605  1.8607  0.6338  1.5870
  492MPD2    H3 7320   2.444   2.252  10.823  1.4060 -0.5871 -1.1542
  492MPD2     N 7321   2.169   1.971  11.046  0.2010  0.0879 -0.0700
  492MPD2    H5 7322   2.220   2.005  11.127 -3.1124 -0.9751  2.4709
  492MPD2    N1 7323   2.169   2.033  10.552  0.4658 -0.2517  0.4993
  492MPD2    H7 7324   2.234   2.070  10.483 -1.0718  2.6034  0.5854
  493TMC3    C1 7325   2.044   1.923  10.383  0.2279 -0.3368  0.4628
  493TMC3    C2 7326   2.078   2.006  10.279  0.0821  0.1532 -0.2819
  493TMC3    C3 7327   2.024   1.972  10.154  1.2453 -0.5013 -0.8702
  493TMC3    C4 7328   1.967   1.804  10.358  0.2189 -0.6229 -0.6262
  493TMC3    C5 7329   1.918   1.776  10.230  0.4146 -0.2896 -0.4446
  493TMC3    C6 7330   1.952   1.858  10.128 -0.0116 -0.2939 -0.1654
  493TMC3     C 7331   2.054   1.961  10.524  0.3544 -0.5624  0.5179
  493TMC3     O 7332   1.967   1.918  10.597  0.3299 -0.3412 -0.4559
  493TMC3     H 7333   2.138   2.093  10.301  1.2414 -0.1230 -2.3219
  493TMC3    H1 7334   1.941   1.748  10.447 -2.3436 -1.1285 -1.6994
  493TMC3    H2 7335   1.898   1.859  10.033  0.6444 -0.3840 -0.5353
  493TMC3    C7 7336   1.815   1.675  10.206  0.5523  0.4898 -0.3742
  493TMC3    C8 7337   2.032   2.067  10.053 -0.0301 -0.2230  0.5932
  493TMC3    O1 7338   1.762   1.684  10.097  0.0750  0.6634 -0.1555
  493TMC3    O2 7339   1.951   2.067   9.963  0.2480  0.5474  0.3559
  494TMC3    C1 7340   3.228   3.074   0.856  0.0793 -0.2215  0.1637
  494TMC3    C2 7341   3.306   2.958   0.845 -0.7738 -0.1867  0.5799
  494TMC3    C3 7342   3.330   2.916   0.714  0.1597 -0.1820 -0.2467
  494TMC3    C4 7343   3.169   3.140   0.754  0.2898 -0.1928 -0.1848
  494TMC3    C5 7344   3.201   3.098   0.630 -0.3653  0.3194  0.5914
  494TMC3    C6 7345   3.285   2.992   0.608 -0.4480 -0.0275  0.2505
  494TMC3     C 7346   3.207   3.119   0.988  0.6356 -0.4660 -0.3593
  494TMC3     O 7347   3.223   3.037   1.080 -0.1533 -0.3174  0.3457
  494TMC3     H 7348   3.347   2.909   0.932  1.5406 -0.3002 -0.5791
  494TMC3    H1 7349   3.098   3.220   0.774  0.3635 -0.4647  1.1835
  494TMC3    H2 7350   3.322   2.972   0.507 -0.5674  1.2402 -0.0410
  494TMC3    C7 7351   3.179   3.180   0.514  0.1656 -0.9001 -0.3735
  494TMC3    C8 7352   3.388   2.787   0.696  0.4567 -0.4424 -0.2586
  494TMC3    O1 7353   3.186   3.128   0.399  0.1171  0.0406  0.8646
  494TMC3    O2 7354   3.435   2.721   0.789 -0.5076  0.3942  0.2416
  495TMC3    C1 7355   1.562   1.487  14.959  0.6858 -0.6271  0.7438
  495TMC3    C2 7356   1.500   1.571  14.866  0.1365 -0.5197 -0.1947
  495TMC3    C3 7357   1.362   1.586  14.866  0.2809 -0.5080  0.5805
  495TMC3    C4 7358   1.487   1.437  15.061  0.2088  0.8630  0.2874
  495TMC3    C5 7359   1.349   1.445  15.061  0.0333 -0.4787  0.8026
  495TMC3    C6 7360   1.293   1.516  14.963 -0.2441  0.3569  0.3014
  495TMC3     C 7361   1.655   1.399  14.897  0.0677  0.1994  0.0343
  495TMC3     O 7362   1.663   1.432  14.779  0.1816 -0.6860  0.6578
  495TMC3     H 7363   1.567   1.628  14.802  1.0893 -0.9754  0.3830
  495TMC3    H1 7364   1.530   1.380  15.143  1.4282  1.9993  0.4407
  495TMC3    H2 7365   1.185   1.531  14.963 -0.3577 -0.4942 -0.0766
  495TMC3    C7 7366   1.280   1.347  15.134 -0.1093  0.0158  0.8532
  495TMC3    C8 7367   1.301   1.551  14.738 -0.3163 -0.6244 -0.0814
  495TMC3    O1 7368   1.348   1.271  15.205  0.6322  0.0426  0.2579
  495TMC3    O2 7369   1.179   1.540  14.739  0.0038  0.6682  0.5166
  496MPD2     C 7370   3.117   1.218  15.449 -0.1404  0.0750 -0.7079
  496MPD2    C1 7371   3.164   1.158  15.566  0.3244 -0.7513  0.0436
  496MPD2    C2 7372   3.124   1.208  15.691  0.1934 -0.0955  0.1571
  496MPD2    C3 7373   3.031   1.312  15.696 -0.9124 -0.6689 -0.0955
  496MPD2    C4 7374   2.987   1.375  15.569 -0.4565  0.4406  0.3119
  496MPD2    C5 7375   3.035   1.327  15.452  0.1841 -0.9777 -0.1902
  496MPD2     H 7376   3.156   1.167  15.786 -0.3085 -0.2610  0.2605
  496MPD2    H1 7377   2.916   1.455  15.556 -0.6831  0.1166 -0.4794
  496MPD2    H2 7378   3.151   1.183  15.352  0.0782  0.9431 -0.9481
  496MPD2    H3 7379   3.012   1.364  15.353  0.0255 -2.2803 -0.6336
  496MPD2     N 7380   3.010   1.377  15.821 -0.0393  0.4612 -0.8321
  496MPD2    H5 7381   3.052   1.342  15.907  3.5010  4.6579 -0.8358
  496MPD2    N1 7382   3.267   1.064  15.547  0.1069  0.8312  0.0478
  496MPD2    H7 7383   3.309   1.034  15.459  0.1975 -1.2345  0.8164
  497TMC3    C1 7384   2.912   1.521  15.974 -0.5559 -0.5565  0.0035
  497TMC3    C2 7385   2.798   1.593  16.001  0.6894 -0.2856 -0.2498
  497TMC3    C3 7386   2.767   1.622  16.132  0.0064 -0.0915  0.2526
  497TMC3    C4 7387   2.996   1.474  16.081 -0.6169  0.5023  0.0076
  497TMC3    C5 7388   2.954   1.496  16.211  0.3552  0.5827 -0.1815
  497TMC3    C6 7389   2.837   1.565  16.240 -0.0182  0.0680 -0.8509
  497TMC3     C 7390   2.918   1.477  15.833 -0.4594  0.2097 -0.1500
  497TMC3     O 7391   2.849   1.535  15.747 -0.4028 -0.2208 -0.5732
  497TMC3     H 7392   2.724   1.621  15.927  2.0678  1.3146 -1.0143
  497TMC3    H1 7393   3.092   1.428  16.060 -0.3401  1.1874 -0.2143
  497TMC3    H2 7394   2.818   1.592  16.344  1.8441 -1.8110 -0.0211
  497TMC3    C7 7395   2.979   1.398  16.309  0.3039 -0.5730 -0.1702
  497TMC3    C8 7396   2.640   1.682  16.162 -0.6622  0.2895 -0.4264
  497TMC3    O1 7397   2.891   1.371  16.388 -0.4641  0.2933  0.0202
  497TMC3    O2 7398   2.551   1.677  16.077  0.1153 -0.4291 -0.4851
  498MPD2     C 7399   3.305   1.867   9.515  0.5452  0.0992 -0.0106
  498MPD2    C1 7400   3.411   1.844   9.600  0.0777  0.0815  0.2755
  498MPD2    C2 7401   3.412   1.727   9.672 -0.1316  0.5563  0.3031
  498MPD2    C3 7402   3.323   1.626   9.646  0.3006 -0.1212 -0.3793
  498MPD2    C4 7403   3.216   1.644   9.564 -0.6279 -0.4500 -0.7321
  498MPD2    C5 7404   3.208   1.766   9.494 -0.5031 -0.1609 -0.1815
  498MPD2     H 7405   3.502   1.713   9.730 -0.0933  3.0702  0.8302
  498MPD2    H1 7406   3.133   1.576   9.553 -0.5188 -0.4050 -1.8357
  498MPD2    H2 7407   3.293   1.958   9.457  2.0662 -0.2785 -0.9068
  498MPD2    H3 7408   3.128   1.780   9.423 -0.2271 -1.7329 -0.7987
  498MPD2     N 7409   3.336   1.514   9.731 -0.1330 -0.7659 -0.1306
  498MPD2    H5 7410   3.403   1.520   9.807  0.3361  0.9687 -0.6685
  498MPD2    N1 7411   3.519   1.925   9.614 -0.4424 -0.2587  0.4141
  498MPD2    H7 7412   3.592   1.904   9.681 -0.3608  0.6772  0.6115
  499TMC3    C1 7413   3.686   2.081   9.554 -0.4955  0.0266 -0.3638
  499TMC3    C2 7414   3.771   1.986   9.596 -0.0154 -0.2759  0.1619
  499TMC3    C3 7415   3.890   2.038   9.627 -0.0379  0.7203 -0.5084
  499TMC3    C4 7416   3.713   2.210   9.529  0.3418  0.2650 -0.1067
  499TMC3    C5 7417   3.834   2.259   9.573 -0.0118  0.3876 -0.5757
  499TMC3    C6 7418   3.921   2.171   9.616  0.2657 -0.3084 -0.0839
  499TMC3     C 7419   3.548   2.039   9.542 -0.1707  0.2046 -0.9489
  499TMC3     O 7420   3.479   2.102   9.460 -0.0483  0.8731 -0.0233
  499TMC3     H 7421   3.747   1.881   9.600 -0.5089 -0.2885 -2.9013
  499TMC3    H1 7422   3.630   2.278   9.512  0.9593  1.0652  0.0781
  499TMC3    H2 7423   4.022   2.203   9.638  1.0210 -2.4765 -0.3255
  499TMC3    C7 7424   3.891   2.385   9.537 -0.0961  0.4293  0.2083
  499TMC3    C8 7425   4.005   1.951   9.659 -0.4362 -0.2570 -0.3776
  499TMC3    O1 7426   3.998   2.415   9.589 -0.1993  0.3732 -0.6497
  499TMC3    O2 7427   4.121   1.998   9.659  0.2895 -0.2495 -0.2028
  500MPD2     C 7428   1.369   3.598   9.441 -0.1479 -0.3021  0.6402
  500MPD2    C1 7429   1.307   3.637   9.561 -0.7215  0.5539 -0.4109
  500MPD2    C2 7430   1.170   3.657   9.559  0.4214 -0.1394  0.3697
  500MPD2    C3 7431   1.093   3.629   9.446 -0.6568 -1.0564  0.4023
  500MPD2    C4 7432   1.156   3.605   9.330 -0.0853  0.3652 -0.5154
  500MPD2    C5 7433   1.289   3.589   9.328 -0.4366  0.0720 -0.1327
  500MPD2     H 7434   1.118   3.668   9.654  0.5339  3.0016  0.0581
  500MPD2    H1 7435   1.107   3.615   9.233 -3.0437 -4.5146  0.4985
  500MPD2    H2 7436   1.476   3.582   9.442 -0.0432  0.2430 -1.1098
  500MPD2    H3 7437   1.329   3.583   9.228  0.6293 -0.6957  0.3367
  500MPD2     N 7438   0.956   3.599   9.451 -0.2811 -0.1182  0.2038
  500MPD2    H5 7439   0.923   3.540   9.375  1.5598 -0.5737 -0.2315
  500MPD2    N1 7440   1.376   3.653   9.681  0.1960  0.2114  0.0682
  500MPD2    H7 7441   1.330   3.706   9.755  0.7693  0.4553  0.2509
  501TMC3    C1 7442   1.552   3.619   9.850 -0.0289 -0.0306  0.0262
  501TMC3    C2 7443   1.519   3.732   9.914  0.1209 -0.3407  0.3550
  501TMC3    C3 7444   1.543   3.740  10.045  0.4789  0.1525 -0.3437
  501TMC3    C4 7445   1.621   3.523   9.912  0.3453 -0.7651 -1.1057
  501TMC3    C5 7446   1.650   3.529  10.047  0.3406 -0.2820  0.3684
  501TMC3    C6 7447   1.611   3.641  10.116  0.6019 -0.2804  0.4386
  501TMC3     C 7448   1.506   3.604   9.712  0.3631  0.6741  0.1211
  501TMC3     O 7449   1.580   3.534   9.643  0.2142 -0.4821  0.4378
  501TMC3     H 7450   1.484   3.811   9.849 -0.4140 -0.0891  0.9495
  501TMC3    H1 7451   1.650   3.434   9.857 -0.2553 -1.0596 -0.9393
  501TMC3    H2 7452   1.639   3.657  10.219  0.3201  1.6203  0.2178
  501TMC3    C7 7453   1.767   3.456  10.088 -0.8562  0.9807 -0.2073
  501TMC3    C8 7454   1.546   3.868  10.121  0.8790 -0.1090 -0.5032
  501TMC3    O1 7455   1.800   3.358  10.025 -0.5961 -0.0033 -0.2220
  501TMC3    O2 7456   1.586   3.857  10.235 -0.4312 -0.2931  0.4830
  502TMC3    C1 7457   1.185   1.937  15.456  0.1745 -0.0368  0.8718
  502TMC3    C2 7458   1.187   2.021  15.348 -0.0682  0.0854  0.3582
  502TMC3    C3 7459   1.066   2.056  15.298 -0.4025  0.0349  0.4541
  502TMC3    C4 7460   1.067   1.887  15.511 -0.5436  0.4428 -0.2417
  502TMC3    C5 7461   0.953   1.919  15.449 -0.1340  0.3244  0.3115
  502TMC3    C6 7462   0.951   1.995  15.334  0.3114 -0.4845  0.5174
  502TMC3     C 7463   1.300   1.926  15.539  0.5193 -0.0516 -0.4281
  502TMC3     O 7464   1.362   2.029  15.530 -0.7407  0.0983  0.3760
  502TMC3     H 7465   1.279   2.041  15.295 -1.1116  0.6786 -1.2086
  502TMC3    H1 7466   1.055   1.826  15.600 -1.8242 -1.0621 -1.4581
  502TMC3    H2 7467   0.855   2.037  15.304  0.6780 -0.4216 -0.5658
  502TMC3    C7 7468   0.835   1.841  15.499 -0.0962 -0.3825  0.1074
  502TMC3    C8 7469   1.078   2.122  15.169 -0.1137 -0.5723  0.0422
  502TMC3    O1 7470   0.855   1.724  15.536 -0.5277  0.4241  0.2541
  502TMC3    O2 7471   1.188   2.178  15.154 -0.5271 -0.6098  0.3688
  503MPD2     C 7472   3.008   2.087  17.054 -0.2985 -0.8126  0.0252
  503MPD2    C1 7473   3.067   2.122  17.166 -0.0292 -0.2230  0.1923
  503MPD2    C2 7474   3.140   2.021  17.229 -0.8254  0.2316 -0.2912
  503MPD2    C3 7475   3.137   1.883  17.186 -0.0068  0.3612  0.4038
  503MPD2    C4 7476   3.075   1.856  17.063 -0.0548 -0.8753 -0.5408
  503MPD2    C5 7477   3.016   1.959  16.995 -0.1755 -0.1009  0.1457
  503MPD2     H 7478   3.201   2.054  17.312 -0.1787  4.0690 -2.2947
  503MPD2    H1 7479   3.074   1.756  17.023  0.4694 -1.7798  1.7185
  503MPD2    H2 7480   2.947   2.161  17.003 -1.3691 -1.0170  1.0021
  503MPD2    H3 7481   2.956   1.941  16.906  1.2022 -2.3771 -0.3284
  503MPD2     N 7482   3.228   1.785  17.245 -0.1667 -0.3545 -0.3114
  503MPD2    H5 7483   3.278   1.810  17.329 -0.0831  1.8063 -1.0045
  503MPD2    N1 7484   3.075   2.263  17.214 -0.1597  0.2479  0.1512
  503MPD2    H7 7485   3.129   2.269  17.300 -0.5072  0.6796  0.3398
  504TMC3    C1 7486   3.311   1.565  17.298  0.2336  0.0298 -0.2716
  504TMC3    C2 7487   3.278   1.431  17.299 -0.9525 -0.4126 -0.2924
  504TMC3    C3 7488   3.364   1.342  17.362 -0.1226 -0.6211 -0.9791
  504TMC3    C4 7489   3.417   1.612  17.363 -0.2781  0.0394 -0.5115
  504TMC3    C5 7490   3.506   1.520  17.419 -0.2536  0.2400  0.2147
  504TMC3    C6 7491   3.484   1.388  17.422  0.1550 -1.0978  0.3623
  504TMC3     C 7492   3.222   1.647  17.215  0.0777 -0.8153  0.6542
  504TMC3     O 7493   3.161   1.588  17.127  0.3577  0.2459 -0.1497
  504TMC3     H 7494   3.191   1.391  17.248 -2.3527  2.3764 -0.0386
  504TMC3    H1 7495   3.448   1.714  17.342  2.7475 -0.8876 -0.4770
  504TMC3    H2 7496   3.564   1.327  17.462  3.0955  2.5351 -0.0066
  504TMC3    C7 7497   3.644   1.553  17.385  0.3545  0.5044 -0.3124
  504TMC3    C8 7498   3.290   1.238  17.427  0.4405 -0.0293  0.4321
  504TMC3    O1 7499   3.651   1.637  17.296  0.3606  0.0805  0.1834
  504TMC3    O2 7500   3.172   1.228  17.402  0.6760  0.9490  0.2015
  505MPD2     C 7501   3.042   0.568  10.867  0.1394 -0.3866 -0.4692
  505MPD2    C1 7502   3.176   0.589  10.838  0.3526  0.4318 -0.5915
  505MPD2    C2 7503   3.231   0.710  10.868 -0.2363  0.3871 -0.8225
  505MPD2    C3 7504   3.154   0.809  10.927  0.0184 -0.0206  0.2977
  505MPD2    C4 7505   3.024   0.785  10.970  0.0691 -0.1523 -0.7888
  505MPD2    C5 7506   2.970   0.664  10.935 -0.3245 -0.5342 -0.5930
  505MPD2     H 7507   3.334   0.733  10.841 -0.1627 -0.0649 -0.9288
  505MPD2    H1 7508   2.958   0.857  11.017  1.2223 -0.1670  0.8638
  505MPD2    H2 7509   2.999   0.469  10.855  0.8937 -0.6939 -0.6692
  505MPD2    H3 7510   2.865   0.654  10.961 -0.4485  0.7280 -0.6288
  505MPD2     N 7511   3.213   0.928  10.962  0.1752 -0.1886  0.3092
  505MPD2    H5 7512   3.314   0.922  10.972 -0.0757 -1.8259  1.8621
  505MPD2    N1 7513   3.252   0.485  10.778 -0.4897  0.5602  0.5014
  505MPD2    H7 7514   3.205   0.401  10.746 -3.0782  2.3855 -0.4603
  506TMC3    C1 7515   3.444   0.389  10.680 -1.0448 -0.5005 -0.3745
  506TMC3    C2 7516   3.377   0.361  10.563 -0.1547 -0.5479 -0.1869
  506TMC3    C3 7517   3.453   0.354  10.450 -0.2954  0.1610 -0.2371
  506TMC3    C4 7518   3.583   0.386  10.692  0.0447  0.4089 -0.2980
  506TMC3    C5 7519   3.652   0.383  10.575 -0.8327  0.0434 -0.4736
  506TMC3    C6 7520   3.590   0.362  10.452  0.5195 -0.8436 -0.0876
  506TMC3     C 7521   3.390   0.493  10.763  0.3438 -0.1019 -0.2835
  506TMC3     O 7522   3.477   0.570  10.802  0.0595 -0.2174  0.0518
  506TMC3     H 7523   3.270   0.379  10.555 -0.1959  0.5441  2.6033
  506TMC3    H1 7524   3.628   0.397  10.790 -1.5111  1.8973  0.2491
  506TMC3    H2 7525   3.641   0.393  10.361  2.1684  0.4647  1.2690
  506TMC3    C7 7526   3.735   0.500  10.567 -0.4136  0.1431 -0.4952
  506TMC3    C8 7527   3.391   0.380  10.323 -0.2038  0.4295 -0.1831
  506TMC3    O1 7528   3.815   0.511  10.475  0.4476  0.5805 -0.1102
  506TMC3    O2 7529   3.408   0.285  10.246  0.7045 -0.4305  0.2276
  507TMC3    C1 7530   4.309   2.300  15.085  0.0692  0.4414  0.0678
  507TMC3    C2 7531   4.306   2.226  14.969 -0.5582 -0.1168 -0.6485
  507TMC3    C3 7532   4.416   2.233  14.886 -0.0416 -0.2182  0.0489
  507TMC3    C4 7533   4.418   2.377  15.119  0.3223 -0.0839  1.2522
  507TMC3    C5 7534   4.520   2.386  15.034  0.7559  0.0473  0.0819
  507TMC3    C6 7535   4.525   2.312  14.919  0.0927 -0.5989  0.1821
  507TMC3     C 7536   4.188   2.329  15.148  0.3038 -0.9076 -0.1095
  507TMC3     O 7537   4.207   2.351  15.266 -0.2870 -0.8561  0.3914
  507TMC3     H 7538   4.224   2.163  14.937  1.1100 -1.5855 -2.0753
  507TMC3    H1 7539   4.415   2.442  15.206 -0.0493  1.9079 -0.2353
  507TMC3    H2 7540   4.615   2.301  14.861 -0.5691  1.1585 -1.2044
  507TMC3    C7 7541   4.561   2.521  15.004  0.6119 -0.2257 -0.2302
  507TMC3    C8 7542   4.384   2.242  14.742 -0.1984 -0.0835 -0.2741
  507TMC3    O1 7543   4.552   2.541  14.883  0.6749 -0.1425  0.4174
  507TMC3    O2 7544   4.290   2.176  14.705 -0.0897  0.7715 -0.8782
  508MPD2     C 7545   0.424   4.357  15.995 -1.3747 -0.6949  0.0346
  508MPD2    C1 7546   0.309   4.401  16.047 -0.3972  0.4780  0.7391
  508MPD2    C2 7547   0.226   4.490  15.981 -0.4363  0.1567  0.1996
  508MPD2    C3 7548   0.262   4.545  15.859  0.4580  0.2960 -1.1563
  508MPD2    C4 7549   0.388   4.509  15.810 -0.5408 -0.7209  0.5194
  508MPD2    C5 7550   0.471   4.418  15.882  0.2620 -0.2689 -0.1558
  508MPD2     H 7551   0.132   4.516  16.029 -1.2109 -3.0089  0.3931
  508MPD2    H1 7552   0.429   4.549  15.718 -0.5358  0.2483  0.9401
  508MPD2    H2 7553   0.481   4.273  16.034 -1.1734  0.0315  1.3117
  508MPD2    H3 7554   0.560   4.376  15.836 -0.4874 -1.1238 -0.8327
  508MPD2     N 7555   0.184   4.634  15.786  0.0696  0.4648  0.1870
  508MPD2    H5 7556   0.212   4.643  15.689  1.1482 -1.4195  0.3429
  508MPD2    N1 7557   0.272   4.330  16.163  0.5535 -0.5047  0.1516
  508MPD2    H7 7558   0.339   4.274  16.214  0.4695  0.5803  1.4420
  509TMC3    C1 7559   4.658   0.297  15.707 -0.1379 -1.3492  0.1394
  509TMC3    C2 7560   4.676   0.283  15.574 -1.0176 -0.2039  0.4407
  509TMC3    C3 7561   0.019   0.174  15.525  0.3711  0.4441 -0.5928
  509TMC3    C4 7562   4.695   0.200  15.789 -0.2428  0.4116 -0.0600
  509TMC3    C5 7563   0.036   0.089  15.738  1.0537 -0.0559 -0.3759
  509TMC3    C6 7564   0.054   0.067  15.603  0.4946 -0.2820 -0.1425
  509TMC3     C 7565   4.636   0.433  15.768  0.2291  0.1984 -0.0417
  509TMC3     O 7566   4.666   0.452  15.886  0.0044 -0.2839  0.8003
  509TMC3     H 7567   4.659   0.366  15.506 -1.1313  1.4654  2.4780
  509TMC3    H1 7568   4.699   0.218  15.896  0.4422 -1.1088  0.1648
  509TMC3    H2 7569   0.104   4.707  15.558  0.0830 -0.3642 -0.4493
  509TMC3    C7 7570   0.094   4.716  15.836 -0.1696 -0.4677 -0.7788
  509TMC3    C8 7571   0.124   0.214  15.436  0.4487  0.2668  0.0204
  509TMC3    O1 7572   0.064   0.010  15.952  0.2303  0.7906 -0.5336
  509TMC3    O2 7573   0.158   0.131  15.353 -0.1605  0.0613  0.1461
  510MPD2     C 7574   2.789   1.640  14.701 -0.6342  0.2405 -0.3786
  510MPD2    C1 7575   2.864   1.571  14.792  0.1931 -0.5953 -0.1910
  510MPD2    C2 7576   3.002   1.582  14.785 -0.1531 -0.2749  0.0725
  510MPD2    C3 7577   3.064   1.644  14.674  0.1822  0.6727 -0.7530
  510MPD2    C4 7578   2.984   1.707  14.580 -0.1367 -0.1656 -0.1968
  510MPD2    C5 7579   2.849   1.697  14.595  0.5415  0.1854  1.5752
  510MPD2     H 7580   3.070   1.537  14.857 -0.0324 -0.4063 -0.1236
  510MPD2    H1 7581   3.028   1.753  14.491  0.0033  0.4916  0.2111
  510MPD2    H2 7582   2.683   1.617  14.696 -0.6257 -0.0890  0.8454
  510MPD2    H3 7583   2.790   1.732  14.511  0.3659 -1.5093  0.9807
  510MPD2     N 7584   3.202   1.657  14.678 -0.5262  0.3313 -0.5293
  510MPD2    H5 7585   3.250   1.625  14.761  0.3766 -0.8020 -1.4697
  510MPD2    N1 7586   2.799   1.517  14.908  0.0867  0.0577 -0.1890
  510MPD2    H7 7587   2.702   1.540  14.925  0.3534  1.1237 -0.0911
  511TMC3    C1 7588   2.755   1.428  15.116 -0.7241  1.0012  0.2937
  511TMC3    C2 7589   2.660   1.521  15.157 -0.1698 -0.1472 -0.0529
  511TMC3    C3 7590   2.597   1.502  15.284  0.5161  0.1084  1.1877
  511TMC3    C4 7591   2.774   1.312  15.184 -0.1658 -0.3547  0.3668
  511TMC3    C5 7592   2.699   1.289  15.300  0.3208 -0.4135 -0.5241
  511TMC3    C6 7593   2.622   1.388  15.355  0.1318  0.1888 -0.0396
  511TMC3     C 7594   2.854   1.448  15.012  0.3899 -0.2652  0.3067
  511TMC3     O 7595   2.967   1.408  15.028 -0.1059  0.5846  0.5500
  511TMC3     H 7596   2.635   1.610  15.101 -2.7089  0.3567  1.8404
  511TMC3    H1 7597   2.852   1.243  15.157 -1.1467 -1.0326 -0.7630
  511TMC3    H2 7598   2.547   1.368  15.430  0.0244 -1.0309 -0.4675
  511TMC3    C7 7599   2.677   1.149  15.341  0.7729  0.0974 -0.2786
  511TMC3    C8 7600   2.524   1.614  15.341 -0.6210 -0.1099  0.1620
  511TMC3    O1 7601   2.711   1.070  15.256 -0.3581 -0.5133 -0.5271
  511TMC3    O2 7602   2.454   1.684  15.268 -0.1914 -0.0225  0.0246
  512TMC3    C1 7603   1.454   0.754  13.001 -0.1578 -0.2904  0.3367
  512TMC3    C2 7604   1.506   0.805  13.119 -0.0193  0.4472  1.2150
  512TMC3    C3 7605   1.563   0.714  13.205  0.3920 -0.3165  0.4946
  512TMC3    C4 7606   1.460   0.621  12.967  0.6136  0.1309 -0.6071
  512TMC3    C5 7607   1.514   0.537  13.062  1.2873 -0.3724  0.4067
  512TMC3    C6 7608   1.566   0.580  13.182  0.0706  0.4644  0.2714
  512TMC3     C 7609   1.412   0.850  12.899  0.2387  0.4245 -0.5191
  512TMC3     O 7610   1.396   0.811  12.786  0.3608 -0.3468 -0.1521
  512TMC3     H 7611   1.493   0.909  13.145  1.6153  1.2182 -1.0049
  512TMC3    H1 7612   1.416   0.593  12.872  0.7661 -2.3804  0.0720
  512TMC3    H2 7613   1.638   0.515  13.229  0.7768  1.6856  0.8669
  512TMC3    C7 7614   1.529   0.394  13.022  0.5024 -0.1169  0.1622
  512TMC3    C8 7615   1.647   0.768  13.305 -0.1223 -0.5157 -0.0277
  512TMC3    O1 7616   1.511   0.360  12.909 -0.3493  0.1191  0.3359
  512TMC3    O2 7617   1.683   0.884  13.297  0.2143 -0.1050  0.2939
  513MPD2     C 7618   3.494   0.924  13.612  0.6944  0.2288 -0.3786
  513MPD2    C1 7619   3.588   0.981  13.529  0.3346 -0.3493 -0.3827
  513MPD2    C2 7620   3.651   1.095  13.578  0.0988  0.3194  0.0199
  513MPD2    C3 7621   3.637   1.138  13.708 -0.5027 -0.0658 -0.0051
  513MPD2    C4 7622   3.547   1.076  13.796 -0.4981 -0.2654  0.3489
  513MPD2    C5 7623   3.484   0.964  13.748 -0.7773  0.3232  0.4088
  513MPD2     H 7624   3.719   1.147  13.511 -1.0321  0.5093 -0.9836
  513MPD2    H1 7625   3.531   1.099  13.900  0.5047  2.1406 -0.0224
  513MPD2    H2 7626   3.438   0.841  13.572  0.1105  0.3337  0.2207
  513MPD2    H3 7627   3.416   0.918  13.819  1.2528  0.6599  2.5717
  513MPD2     N 7628   3.720   1.247  13.749 -0.3281 -0.0548  0.0568
  513MPD2    H5 7629   3.783   1.281  13.678 -1.5046 -1.7594 -1.8392
  513MPD2    N1 7630   3.626   0.923  13.405 -0.8167 -0.3676 -0.3614
  513MPD2    H7 7631   3.698   0.973  13.352 -0.4365 -0.4701  0.0612
  514TMC3    C1 7632   3.626   0.795  13.214 -0.1030 -0.4116  0.3624
  514TMC3    C2 7633   3.548   0.828  13.110 -0.1521 -0.3105 -0.5354
  514TMC3    C3 7634   3.601   0.908  13.013 -0.2238  0.0229  0.1014
  514TMC3    C4 7635   3.756   0.826  13.214 -0.8093 -0.0346  0.0805
  514TMC3    C5 7636   3.810   0.905  13.112  0.5207  1.2023 -0.5531
  514TMC3    C6 7637   3.732   0.951  13.013  0.3717  0.6255 -0.1247
  514TMC3     C 7638   3.561   0.827  13.338 -0.0007 -0.0507 -0.5185
  514TMC3     O 7639   3.442   0.786  13.350 -0.1789  0.1234 -0.1756
  514TMC3     H 7640   3.442   0.805  13.111 -0.1864 -0.1163  2.2712
  514TMC3    H1 7641   3.822   0.802  13.297 -0.0633  2.0483  0.0923
  514TMC3    H2 7642   3.773   1.019  12.940 -0.4946  2.0703  0.7123
  514TMC3    C7 7643   3.891   1.003  13.170  0.4125 -1.0153  0.8240
  514TMC3    C8 7644   3.506   0.964  12.912  0.2335 -0.7660 -0.2982
  514TMC3    O1 7645   3.843   1.115  13.154  0.1066  0.0920 -0.0992
  514TMC3    O2 7646   3.386   0.953  12.939  0.4101 -0.0127  0.0253
  515MPD2     C 7647   2.156   2.495  15.280  0.9913 -0.0790 -0.4995
  515MPD2    C1 7648   2.153   2.536  15.146 -0.3164 -0.5786  0.2424
  515MPD2    C2 7649   2.191   2.668  15.116 -0.2620 -0.3009  0.0004
  515MPD2    C3 7650   2.247   2.754  15.209  0.3202  0.1773  0.0502
  515MPD2    C4 7651   2.252   2.714  15.340  0.3569 -0.2955 -0.6681
  515MPD2    C5 7652   2.218   2.582  15.372  0.2569 -0.2109 -0.8845
  515MPD2     H 7653   2.176   2.705  15.016 -1.2165 -1.0721 -0.1487
  515MPD2    H1 7654   2.295   2.778  15.415  1.5957 -1.4421 -0.3969
  515MPD2    H2 7655   2.111   2.403  15.315  1.2758 -0.2868 -0.6784
  515MPD2    H3 7656   2.245   2.554  15.473  1.2936  1.8956 -0.5789
  515MPD2     N 7657   2.312   2.876  15.188 -0.1589  0.1224  0.0618
  515MPD2    H5 7658   2.344   2.918  15.275 -0.7483 -0.0082  0.3424
  515MPD2    N1 7659   2.109   2.456  15.042 -0.5412 -0.0783 -0.0847
  515MPD2    H7 7660   2.093   2.496  14.951  1.1593  2.7728  0.8621
  516TMC3    C1 7661   2.053   2.247  14.926  0.0209 -0.3211  0.3662
  516TMC3    C2 7662   2.045   2.310  14.805 -0.7283 -0.3031 -0.3256
  516TMC3    C3 7663   1.997   2.237  14.698 -1.1520 -0.1946  0.2128
  516TMC3    C4 7664   2.013   2.120  14.944 -0.6835 -0.0374 -0.0508
  516TMC3    C5 7665   1.951   2.051  14.842  0.1056 -0.1813  0.8694
  516TMC3    C6 7666   1.940   2.114  14.722  0.2702 -0.1790 -0.7853
  516TMC3     C 7667   2.102   2.316  15.046  0.1639 -0.6867 -0.4305
  516TMC3     O 7668   2.130   2.239  15.139 -0.3639 -0.3676 -0.0429
  516TMC3     H 7669   2.074   2.414  14.791  0.5560 -0.0508  4.3286
  516TMC3    H1 7670   2.014   2.083  15.046  2.6818 -1.4154 -0.5991
  516TMC3    H2 7671   1.905   2.063  14.633 -1.0465 -1.1700  0.2932
  516TMC3    C7 7672   1.875   1.939  14.896  0.0786  0.5960 -0.0739
  516TMC3    C8 7673   1.959   2.308  14.576  0.0563  0.3991  0.0775
  516TMC3    O1 7674   1.920   1.894  15.000 -0.5255 -0.9245 -0.1110
  516TMC3    O2 7675   1.864   2.265  14.514  0.2538  0.1135  0.3907
  517MPD2     C 7676   1.154   3.685   0.069  0.2191  0.7950 -0.1999
  517MPD2    C1 7677   1.264   3.652   0.144  0.2166 -0.6150 -0.2581
  517MPD2    C2 7678   1.326   3.752   0.225  0.0933  0.2660 -0.9997
  517MPD2    C3 7679   1.271   3.882   0.236 -0.5425  0.1638 -0.3631
  517MPD2    C4 7680   1.164   3.910   0.150 -0.8036  0.0286 -0.5903
  517MPD2    C5 7681   1.118   3.815   0.068  0.1613  0.5367 -0.0564
  517MPD2     H 7682   1.415   3.727   0.283 -0.9137  0.4587  0.6385
  517MPD2    H1 7683   1.129   4.013   0.144  0.0119  0.2996 -0.6328
  517MPD2    H2 7684   1.106   3.608   0.010 -1.2566  1.3163  0.3340
  517MPD2    H3 7685   1.047   3.843  17.688 -0.8996 -2.2114 -0.0829
  517MPD2     N 7686   1.331   3.989   0.315  0.2936 -0.8988 -0.2918
  517MPD2    H5 7687   1.279   4.074   0.333 -0.2081 -1.4600  0.9412
  517MPD2    N1 7688   1.309   3.518   0.152 -0.1785  0.0857  0.6396
  517MPD2    H7 7689   1.370   3.499   0.231 -0.2178  3.3771  1.4454
  518TMC3    C1 7690   1.337   3.287   0.110 -0.4990 -1.0813  0.2670
  518TMC3    C2 7691   1.259   3.175   0.105  0.1242 -0.3310 -0.6636
  518TMC3    C3 7692   1.308   3.067   0.174  0.0743  0.0065  0.4220
  518TMC3    C4 7693   1.465   3.297   0.163  0.1996  0.6207  0.3569
  518TMC3    C5 7694   1.506   3.189   0.232 -0.6052  0.0584 -0.4889
  518TMC3    C6 7695   1.435   3.069   0.237 -0.4378 -0.1624  0.1279
  518TMC3     C 7696   1.278   3.413   0.068 -0.0967 -0.2880  0.4556
  518TMC3     O 7697   1.220   3.415  17.658 -0.3374 -0.1583 -0.1125
  518TMC3     H 7698   1.167   3.178   0.049 -0.5086  1.7479  0.4816
  518TMC3    H1 7699   1.514   3.393   0.162  0.0969  0.6927  3.7012
  518TMC3    H2 7700   1.480   2.977   0.273  0.6657  0.8262  1.2842
  518TMC3    C7 7701   1.643   3.188   0.280 -0.3608  0.6204 -0.3298
  518TMC3    C8 7702   1.254   2.936   0.147  0.1917 -1.0879  0.7256
  518TMC3    O1 7703   1.667   3.123   0.379 -0.4077 -0.1033  0.1221
  518TMC3    O2 7704   1.217   2.917   0.031 -0.9720 -0.7140  0.2278
  519MPD2     C 7705   3.319   2.976  14.251 -0.0082 -0.2927 -0.4338
  519MPD2    C1 7706   3.259   2.958  14.128  0.5362 -0.2155 -1.0241
  519MPD2    C2 7707   3.303   2.850  14.048 -0.2258 -0.4832 -0.3315
  519MPD2    C3 7708   3.392   2.755  14.091 -0.4589 -0.1873  0.3736
  519MPD2    C4 7709   3.455   2.784  14.214  0.2250  0.7769 -0.4736
  519MPD2    C5 7710   3.415   2.887  14.290 -0.4599 -0.6868 -0.0839
  519MPD2     H 7711   3.264   2.832  13.948  0.5676 -0.5036 -0.6407
  519MPD2    H1 7712   3.517   2.709  14.261 -0.3525 -0.1673 -1.2213
  519MPD2    H2 7713   3.291   3.055  14.319 -1.0174  1.5628 -2.9958
  519MPD2    H3 7714   3.452   2.897  14.391  1.4987  0.7170 -0.9588
  519MPD2     N 7715   3.411   2.620  14.041 -0.0358 -0.2584  0.5887
  519MPD2    H5 7716   3.486   2.564  14.080  1.5761  1.3955 -0.1642
  519MPD2    N1 7717   3.146   3.037  14.096  0.2365  0.0280  0.3336
  519MPD2    H7 7718   3.116   3.095  14.174 -1.7358 -0.3629 -0.1282
  520TMC3    C1 7719   3.363   2.426  13.910 -0.1176 -0.3327  0.4430
  520TMC3    C2 7720   3.255   2.345  13.896 -0.6261 -0.7271  0.1611
  520TMC3    C3 7721   3.272   2.214  13.908 -0.2688  0.4587  0.2573
  520TMC3    C4 7722   3.482   2.371  13.936  0.1955 -0.7148 -0.3032
  520TMC3    C5 7723   3.496   2.232  13.936  0.7481  0.1476 -0.5117
  520TMC3    C6 7724   3.386   2.151  13.935  0.0671 -0.4153  1.1473
  520TMC3     C 7725   3.333   2.564  13.944  0.4765 -0.1135 -0.9157
  520TMC3     O 7726   3.234   2.614  13.893  0.0446  0.2329 -0.3872
  520TMC3     H 7727   3.165   2.402  13.872 -0.3115 -0.0701  0.5435
  520TMC3    H1 7728   3.575   2.427  13.943 -0.0054 -0.8390  3.5929
  520TMC3    H2 7729   3.392   2.043  13.944  0.4728 -0.6912 -2.2335
  520TMC3    C7 7730   3.616   2.168  13.989  0.2871 -0.0148 -0.2282
  520TMC3    C8 7731   3.168   2.118  13.875  0.9084 -0.0270  0.1806
  520TMC3    O1 7732   3.606   2.072  14.060 -0.4065 -0.5427  0.1486
  520TMC3    O2 7733   3.208   2.003  13.845  0.4501  0.3407  0.3013
  521MPD2     C 7734   3.507   4.231  17.443 -0.2813 -0.2694 -0.2443
  521MPD2    C1 7735   3.485   4.349  17.377 -0.2458 -0.1839  0.5295
  521MPD2    C2 7736   3.599   4.420  17.343 -0.1822 -0.0680  0.0687
  521MPD2    C3 7737   3.727   4.366  17.350 -0.2363  0.3293  0.9227
  521MPD2    C4 7738   3.745   4.246  17.415 -0.3938  0.3814  0.1262
  521MPD2    C5 7739   3.630   4.181  17.458  0.5148 -0.5962  0.1281
  521MPD2     H 7740   3.600   4.513  17.288  1.0597  0.8684  1.6416
  521MPD2    H1 7741   3.843   4.206  17.441 -0.2420  0.8502  0.2584
  521MPD2    H2 7742   3.424   4.171  17.480  0.3178  0.5215  2.3529
  521MPD2    H3 7743   3.640   4.091  17.516 -2.1021 -0.0914  1.3681
  521MPD2     N 7744   3.832   4.448  17.296 -0.3560  0.1743 -0.3518
  521MPD2    H5 7745   3.806   4.538  17.258  2.8590  2.5346  3.0315
  521MPD2    N1 7746   3.349   4.396  17.357 -0.2154 -0.0497  0.5148
  521MPD2    H7 7747   3.278   4.335  17.396 -0.3621 -0.6338 -0.6601
  522TMC3    C1 7748   4.057   4.496  17.229 -0.2497 -0.4418  0.5604
  522TMC3    C2 7749   4.182   4.462  17.262 -0.3625  0.2945  0.6352
  522TMC3    C3 7750   4.288   4.522  17.208  0.1969  1.0199  1.2223
  522TMC3    C4 7751   4.029   4.587  17.135 -0.1006 -0.5217 -0.1648
  522TMC3    C5 7752   4.142   4.653  17.091  0.6846 -0.3452 -0.2607
  522TMC3    C6 7753   4.271   4.622  17.124  0.4144 -0.1455 -0.2744
  522TMC3     C 7754   3.957   4.398  17.271  0.1160  0.1017 -0.0252
  522TMC3     O 7755   4.000   4.281  17.272 -0.9067 -0.2917  0.6556
  522TMC3     H 7756   4.195   4.377  17.328  1.0137  0.1563  0.1896
  522TMC3    H1 7757   3.926   4.618  17.120  0.1340  0.4903  0.3310
  522TMC3    H2 7758   4.354   4.681  17.085 -0.5440  2.2762  1.3620
  522TMC3    C7 7759   4.122   0.038  16.995 -0.4525 -0.0087 -0.0945
  522TMC3    C8 7760   4.419   4.468  17.235 -0.2240 -0.8278 -0.1764
  522TMC3    O1 7761   4.211   0.061  16.923 -0.6197  0.0095  0.2760
  522TMC3    O2 7762   4.429   4.412  17.342  0.8351  0.1128 -0.0563
  523MPD2     C 7763   1.821   0.080  10.166 -0.5185 -0.4458  0.1195
  523MPD2    C1 7764   1.834   4.724  10.051  0.5768  0.3142  0.0717
  523MPD2    C2 7765   1.766   0.037   9.935  0.1071  0.5514 -0.7572
  523MPD2    C3 7766   1.685   0.151   9.938 -0.2453 -0.1504  0.0212
  523MPD2    C4 7767   1.687   0.239  10.045  0.9819  0.5261  0.3954
  523MPD2    C5 7768   1.747   0.197  10.165 -0.1009  0.7947 -0.3987
  523MPD2     H 7769   1.767   4.696   9.849  0.3209  0.7887 -0.9335
  523MPD2    H1 7770   1.633   0.332  10.041  2.6325  1.3064 -4.0159
  523MPD2    H2 7771   1.868   0.061  10.261 -0.4811 -0.9789 -0.0068
  523MPD2    H3 7772   1.744   0.263  10.251 -2.1576  2.2947 -1.6081
  523MPD2     N 7773   1.604   0.193   9.830 -0.1955 -0.4236 -0.5964
  523MPD2    H5 7774   1.560   0.285   9.836  0.7184 -0.0102 -0.2427
  523MPD2    N1 7775   1.914   4.605  10.053  0.3343 -0.4275 -0.4808
  523MPD2    H7 7776   1.955   4.568  10.138 -1.0647  0.4507  0.5572
  524TMC3    C1 7777   1.504   0.180   9.610  0.2752 -0.0540 -0.7876
  524TMC3    C2 7778   1.501   0.112   9.494 -0.3443  0.3922 -0.0439
  524TMC3    C3 7779   1.458   0.186   9.384 -0.3947 -0.1883  0.1426
  524TMC3    C4 7780   1.460   0.311   9.621  1.2877 -0.3425 -0.4446
  524TMC3    C5 7781   1.408   0.377   9.508 -0.1000 -0.6059 -0.1856
  524TMC3    C6 7782   1.415   0.315   9.390  0.8128 -0.1519 -0.0129
  524TMC3     C 7783   1.599   0.128   9.711  0.7694  0.2978  0.0988
  524TMC3     O 7784   1.624   0.011   9.694 -0.2718 -0.0460 -0.4222
  524TMC3     H 7785   1.553   0.019   9.475  1.6380  1.4285  0.2153
  524TMC3    H1 7786   1.458   0.357   9.719 -1.7971  0.2808 -0.7974
  524TMC3    H2 7787   1.378   0.363   9.301  1.9320  0.9825  0.1387
  524TMC3    C7 7788   1.403   0.518   9.530  1.1192 -0.5681 -0.1685
  524TMC3    C8 7789   1.419   0.113   9.261 -0.0743 -0.4529 -0.3173
  524TMC3    O1 7790   1.466   0.566   9.628  0.2519  0.3400  0.1853
  524TMC3    O2 7791   1.416   0.182   9.159 -0.8279 -0.0684 -0.4780
  525MPD2     C 7792   4.623   1.966  14.726 -0.5451 -0.1176  0.1407
  525MPD2    C1 7793   4.722   1.896  14.795  0.1698  0.9056  0.1674
  525MPD2    C2 7794   0.121   1.950  14.803 -0.6113  0.3422  0.1761
  525MPD2    C3 7795   0.156   2.065  14.739 -0.0632 -0.0308  0.2265
  525MPD2    C4 7796   0.060   2.120  14.658 -0.5420  0.7578  0.1828
  525MPD2    C5 7797   4.656   2.075  14.651  0.2790  0.1588 -1.1395
  525MPD2     H 7798   0.186   1.896  14.872 -0.0966  0.5762 -0.1267
  525MPD2    H1 7799   0.087   2.213  14.609 -1.4711  1.0660  0.2528
  525MPD2    H2 7800   4.519   1.938  14.725 -0.8040  0.8885 -0.8984
  525MPD2    H3 7801   4.578   2.126  14.594  0.7507  0.5052 -1.4740
  525MPD2     N 7802   0.280   2.132  14.754  0.2610  0.2056  0.5238
  525MPD2    H5 7803   0.293   2.216  14.699 -0.1611  0.0833  0.2376
  525MPD2    N1 7804   4.693   1.776  14.860  0.5429 -0.3707 -0.4333
  525MPD2    H7 7805   0.052   1.725  14.889  1.6671  1.7385  0.0298
  526TMC3    C1 7806   4.573   1.607  14.980 -0.0913 -0.3249 -0.5512
  526TMC3    C2 7807   4.487   1.598  15.083  0.1528  0.4431 -0.0867
  526TMC3    C3 7808   4.512   1.499  15.178 -0.6754  0.3837  0.2665
  526TMC3    C4 7809   4.691   1.531  14.979  0.8340 -0.0708  0.0247
  526TMC3    C5 7810   4.706   1.424  15.067 -0.4583 -0.2259  0.3918
  526TMC3    C6 7811   4.619   1.414  15.174  0.3005  0.1814 -0.5972
  526TMC3     C 7812   4.569   1.722  14.892 -0.1724  0.4082  0.1693
  526TMC3     O 7813   4.460   1.773  14.882  0.4010 -0.2147  0.4078
  526TMC3     H 7814   4.408   1.670  15.100 -1.4983 -0.9788 -1.7326
  526TMC3    H1 7815   0.028   1.544  14.890 -1.1349 -1.2204 -1.5236
  526TMC3    H2 7816   4.633   1.345  15.257  1.6697 -0.3325 -1.2504
  526TMC3    C7 7817   0.118   1.366  15.085 -0.3983 -0.2837 -0.1042
  526TMC3    C8 7818   4.462   1.526  15.309  1.0739  0.2904 -0.7233
  526TMC3    O1 7819   0.152   1.321  15.193 -0.0867 -0.0154 -0.1328
  526TMC3    O2 7820   4.536   1.487  15.400  0.2396 -0.4164  0.5291
  527MPD2     C 7821   3.370   3.178   1.851 -0.0181 -0.3432  0.5927
  527MPD2    C1 7822   3.503   3.147   1.823  0.0349  0.2240  0.9515
  527MPD2    C2 7823   3.573   3.231   1.746  0.6747  0.2965  0.1077
  527MPD2    C3 7824   3.516   3.343   1.687 -0.2398  0.7353  0.2769
  527MPD2    C4 7825   3.390   3.376   1.712 -0.5083 -0.0575  0.3305
  527MPD2    C5 7826   3.314   3.286   1.795 -0.5497  0.0677  0.2196
  527MPD2     H 7827   3.679   3.222   1.727  0.3174  0.3705 -1.9432
  527MPD2    H1 7828   3.336   3.456   1.664 -0.2120  0.5355  0.9879
  527MPD2    H2 7829   3.301   3.119   1.911 -1.2438  0.5874  0.1173
  527MPD2    H3 7830   3.212   3.314   1.817 -0.1440  1.1994  0.7250
  527MPD2     N 7831   3.598   3.409   1.595  0.0520 -0.2883  0.8077
  527MPD2    H5 7832   3.697   3.384   1.590  0.0031 -0.7421  2.1363
  527MPD2    N1 7833   3.561   3.027   1.872  0.3646 -0.0709 -0.3892
  527MPD2    H7 7834   3.657   2.999   1.850  0.8179  0.5752  0.7850
  528TMC3    C1 7835   3.586   2.821   1.974  0.0580 -0.2100  0.0322
  528TMC3    C2 7836   3.692   2.874   2.042 -0.1682  0.3801  0.2550
  528TMC3    C3 7837   3.793   2.784   2.073 -0.3563 -0.0773 -0.3353
  528TMC3    C4 7838   3.571   2.689   1.936  0.1589 -0.6104 -0.1318
  528TMC3    C5 7839   3.675   2.607   1.980  0.0931  0.0619  0.5057
  528TMC3    C6 7840   3.786   2.652   2.045  0.4214  0.2933 -0.1895
  528TMC3     C 7841   3.491   2.917   1.925 -0.9037  1.3101  0.8258
  528TMC3     O 7842   3.370   2.901   1.928 -0.2232 -0.3733 -0.5481
  528TMC3     H 7843   3.714   2.980   2.047  0.3788  0.2436  0.6811
  528TMC3    H1 7844   3.499   2.647   1.867 -1.7448  1.0170  0.8686
  528TMC3    H2 7845   3.862   2.588   2.090  0.3359 -1.3648 -2.3577
  528TMC3    C7 7846   3.659   2.460   1.962  0.5239 -0.4275 -0.3288
  528TMC3    C8 7847   3.915   2.852   2.133  0.3476 -0.2207  0.0540
  528TMC3    O1 7848   3.542   2.419   1.960 -0.3797  0.2621 -0.1564
  528TMC3    O2 7849   3.893   2.964   2.179 -0.1103 -0.0118 -0.4615
  529MPD2     C 7850   1.082   2.682   1.398 -0.1441 -0.1727  0.3749
  529MPD2    C1 7851   1.027   2.565   1.354  0.2242 -0.3263 -0.0878
  529MPD2    C2 7852   0.971   2.561   1.228 -1.1392 -0.2775  0.0841
  529MPD2    C3 7853   0.954   2.679   1.151 -0.4132 -0.4478  0.2177
  529MPD2    C4 7854   1.015   2.800   1.192 -0.8503  0.0355  0.9112
  529MPD2    C5 7855   1.083   2.793   1.312 -0.3128  0.4015  0.2574
  529MPD2     H 7856   0.931   2.471   1.184  1.4210 -1.0686 -0.6331
  529MPD2    H1 7857   1.021   2.886   1.126 -1.2123 -0.5909  0.0612
  529MPD2    H2 7858   1.138   2.690   1.491  0.0439 -1.9320  0.3998
  529MPD2    H3 7859   1.139   2.884   1.335  0.6588  0.4661 -2.3624
  529MPD2     N 7860   0.890   2.683   1.024 -0.2661  0.6122  0.2272
  529MPD2    H5 7861   0.893   2.772   0.976 -1.5575  0.1077 -0.7857
  529MPD2    N1 7862   1.032   2.445   1.423 -0.0823 -0.4380  0.1373
  529MPD2    H7 7863   1.015   2.364   1.364  0.4477  0.2215 -0.9375
  530TMC3    C1 7864   1.069   2.290   1.592 -0.5101 -0.4492  0.4724
  530TMC3    C2 7865   1.169   2.236   1.672 -0.2597 -0.1516 -0.2690
  530TMC3    C3 7866   1.169   2.104   1.707 -0.0126  0.6977 -0.2966
  530TMC3    C4 7867   0.981   2.205   1.536 -0.2742  0.2907  0.2312
  530TMC3    C5 7868   0.995   2.069   1.549  0.1770 -0.0570 -0.1154
  530TMC3    C6 7869   1.092   2.017   1.631  0.8893 -0.2111 -0.0448
  530TMC3     C 7870   1.070   2.428   1.556  0.3608 -0.9173  0.3669
  530TMC3     O 7871   1.131   2.502   1.628  0.2628 -0.1600  0.5523
  530TMC3     H 7872   1.250   2.304   1.693  0.3809 -0.2665 -2.3138
  530TMC3    H1 7873   0.883   2.236   1.502 -0.5990  1.3126  2.1410
  530TMC3    H2 7874   1.110   1.911   1.640  1.4828  0.0480  1.8692
  530TMC3    C7 7875   0.910   1.991   1.458 -0.3833 -0.2862  0.4373
  530TMC3    C8 7876   1.293   2.059   1.775 -0.7387 -0.0638  0.3294
  530TMC3    O1 7877   0.840   2.051   1.381  0.2894 -0.5544  0.4718
  530TMC3    O2 7878   1.363   2.146   1.826  0.1781 -0.3189  0.1645
  531MPD2     C 7879   4.283   1.179  13.470  0.3319  0.3775 -0.3500
  531MPD2    C1 7880   4.155   1.221  13.464  0.1377  0.1980  0.4571
  531MPD2    C2 7881   4.062   1.157  13.373 -0.1722  0.3173  0.7966
  531MPD2    C3 7882   4.094   1.042  13.300 -0.1103 -0.0820  0.5155
  531MPD2    C4 7883   4.229   1.000  13.316 -0.3899  0.3050  0.3346
  531MPD2    C5 7884   4.316   1.070  13.398 -0.2040 -0.7159 -0.2462
  531MPD2     H 7885   3.959   1.188  13.368 -0.0129  0.7416  0.2002
  531MPD2    H1 7886   4.267   0.914  13.262 -2.4459  0.8157 -1.9346
  531MPD2    H2 7887   4.358   1.219  13.537  1.8593 -0.9487 -1.3000
  531MPD2    H3 7888   4.417   1.032  13.408  0.1431  0.1830 -0.3165
  531MPD2     N 7889   4.010   0.959  13.225  0.3413  0.0051 -0.2160
  531MPD2    H5 7890   4.036   0.864  13.202 -0.1552 -0.5313  1.4054
  531MPD2    N1 7891   4.126   1.336  13.537  0.0733  0.4684  0.6740
  531MPD2    H7 7892   4.207   1.384  13.576 -1.0574  2.3896  0.6752
  532TMC3    C1 7893   3.995   1.446  13.702  0.1000 -0.1103 -0.5801
  532TMC3    C2 7894   3.869   1.435  13.753  0.3448 -0.3746 -0.2592
  532TMC3    C3 7895   3.850   1.393  13.880 -0.8169  0.0232  0.1339
  532TMC3    C4 7896   4.111   1.427  13.780 -0.3130  0.6601  0.1804
  532TMC3    C5 7897   4.084   1.381  13.907  0.2002  0.2180  0.2395
  532TMC3    C6 7898   3.955   1.356  13.958 -0.2305  0.4692  0.1136
  532TMC3     C 7899   3.996   1.375  13.572 -0.2449 -0.2883  0.3927
  532TMC3     O 7900   3.883   1.335  13.548  0.2861  0.0476 -0.1690
  532TMC3     H 7901   3.780   1.473  13.704 -0.8160 -1.5334  0.9391
  532TMC3    H1 7902   4.214   1.452  13.759 -0.4567 -0.0847 -1.4455
  532TMC3    H2 7903   3.946   1.291  14.044  0.3193  2.3506  1.5894
  532TMC3    C7 7904   4.187   1.297  13.963  0.3031 -0.0298 -0.3140
  532TMC3    C8 7905   3.743   1.290  13.875  0.3026  0.2739 -0.1692
  532TMC3    O1 7906   4.213   1.300  14.083  0.3037 -0.4354  0.3239
  532TMC3    O2 7907   3.693   1.259  13.983  0.4089  0.0494  0.1178
  533TMC3    C1 7908   0.490   2.192  14.830  0.1140  0.6402  0.7760
  533TMC3    C2 7909   0.513   2.266  14.719  0.4862 -0.2439  0.0738
  533TMC3    C3 7910   0.577   2.384  14.731 -0.4072 -0.6478 -1.0436
  533TMC3    C4 7911   0.526   2.239  14.959 -0.1236 -0.1830 -0.0932
  533TMC3    C5 7912   0.599   2.355  14.963  0.6641 -0.4072  0.2265
  533TMC3    C6 7913   0.604   2.440  14.853  0.4437  0.2651 -0.2339
  533TMC3     C 7914   0.387   2.089  14.833  0.3703 -0.4790 -0.0798
  533TMC3     O 7915   0.382   2.009  14.927 -0.3412  0.3481  0.3185
  533TMC3     H 7916   0.473   2.234  14.624 -0.1967 -1.6514  0.8193
  533TMC3    H1 7917   0.475   2.190  15.042  0.2689  0.5839  0.6042
  533TMC3    H2 7918   0.644   2.539  14.871  2.0741 -0.6363  1.1041
  533TMC3    C7 7919   0.575   2.416  15.095  0.2819  0.0885 -0.1831
  533TMC3    C8 7920   0.633   2.459  14.618 -0.7795  0.6296 -0.3247
  533TMC3    O1 7921   0.578   2.338  15.188  0.0160  0.3041  0.0501
  533TMC3    O2 7922   0.639   2.394  14.516 -0.4709 -0.4933 -0.3062
  534MPD2     C 7923   3.321   1.722   1.392 -0.0264  0.3134 -0.7364
  534MPD2    C1 7924   3.281   1.855   1.368  0.0060  0.2248  0.1089
  534MPD2    C2 7925   3.163   1.877   1.305  0.1648  0.5977  0.1556
  534MPD2    C3 7926   3.082   1.770   1.261  0.1387  0.1849  0.1825
  534MPD2    C4 7927   3.122   1.643   1.286  0.3188 -0.1758  0.5274
  534MPD2    C5 7928   3.236   1.629   1.356 -0.6961  0.7650  0.6610
  534MPD2     H 7929   3.122   1.976   1.285 -1.7941  0.1889  2.1240
  534MPD2    H1 7930   3.065   1.554   1.264 -1.1881  1.0424 -0.4862
  534MPD2    H2 7931   3.411   1.690   1.443 -0.8028 -0.9612 -0.1615
  534MPD2    H3 7932   3.268   1.526   1.366 -0.4347  0.7997  0.1728
  534MPD2     N 7933   2.963   1.788   1.190 -0.1217  0.0181 -0.0807
  534MPD2    H5 7934   2.907   1.705   1.177  0.2636  0.1920 -2.9420
  534MPD2    N1 7935   3.362   1.965   1.406  0.1123 -0.0362 -0.9095
  534MPD2    H7 7936   3.331   2.059   1.383 -1.2627 -0.0529  0.8828
  535TMC3    C1 7937   2.791   1.890   1.059  0.0171  0.0589  0.0456
  535TMC3    C2 7938   2.707   1.784   1.090  0.9427 -0.1225 -0.6846
  535TMC3    C3 7939   2.601   1.768   1.003 -0.2471  0.2594  0.2427
  535TMC3    C4 7940   2.746   1.989   0.979  0.9076  0.0047  0.3824
  535TMC3    C5 7941   2.630   1.978   0.908  0.4232  0.0487  0.2024
  535TMC3    C6 7942   2.556   1.858   0.909  0.6256  1.0786 -0.4501
  535TMC3     C 7943   2.918   1.906   1.129 -0.4706  0.1667  0.2707
  535TMC3     O 7944   2.967   2.017   1.128  0.2235 -0.9273  0.1215
  535TMC3     H 7945   2.736   1.708   1.161 -1.4294 -1.9473 -1.6799
  535TMC3    H1 7946   2.801   2.082   0.970 -0.3818  0.6666 -0.6675
  535TMC3    H2 7947   2.470   1.830   0.849  2.2022 -0.3297 -2.0710
  535TMC3    C7 7948   2.614   2.067   0.791  0.9965 -0.8371 -0.6463
  535TMC3    C8 7949   2.508   1.660   1.027  0.6715  0.5923  0.0235
  535TMC3    O1 7950   2.716   2.126   0.762 -0.6006  0.1546  0.0320
  535TMC3    O2 7951   2.387   1.684   1.004  0.2370 -0.3005  0.1240
  536MPD2     C 7952   1.636   1.500  16.867 -0.5823 -0.2750 -0.1823
  536MPD2    C1 7953   1.555   1.385  16.869  0.0956 -0.4462 -0.5287
  536MPD2    C2 7954   1.481   1.360  16.757 -0.2700 -0.2790 -0.0870
  536MPD2    C3 7955   1.477   1.452  16.649 -0.2841 -0.0296 -0.3196
  536MPD2    C4 7956   1.552   1.570  16.654  0.2396 -0.4295  0.0255
  536MPD2    C5 7957   1.626   1.596  16.766  0.0214 -0.8921 -0.3308
  536MPD2     H 7958   1.423   1.268  16.752 -1.1563  0.1998  1.0979
  536MPD2    H1 7959   1.558   1.635  16.567 -1.3906 -1.2710 -0.7204
  536MPD2    H2 7960   1.703   1.535  16.945  0.6994  0.1412 -1.4470
  536MPD2    H3 7961   1.694   1.679  16.773  0.3576 -1.4331  2.6932
  536MPD2     N 7962   1.397   1.433  16.529 -0.5475  0.1767  0.5645
  536MPD2    H5 7963   1.394   1.514  16.468 -0.4215  0.1860  0.5705
  536MPD2    N1 7964   1.559   1.303  16.982  0.4084  0.1957 -0.6587
  536MPD2    H7 7965   1.607   1.346  17.060 -2.1640  0.0069  1.0568
  537TMC3    C1 7966   1.555   1.101  17.097 -0.5527 -0.2121  0.8436
  537TMC3    C2 7967   1.670   1.138  17.163  0.0393  0.5227 -0.2870
  537TMC3    C3 7968   1.709   1.065  17.278  0.0267 -0.7072  0.1049
  537TMC3    C4 7969   1.485   0.991  17.145 -1.0774  0.6702  0.1731
  537TMC3    C5 7970   1.526   0.928  17.260  0.1177 -0.6167 -1.0191
  537TMC3    C6 7971   1.637   0.966  17.332 -0.1995 -0.1036  0.0880
  537TMC3     C 7972   1.496   1.181  16.995 -0.0976 -0.3541 -0.2721
  537TMC3     O 7973   1.420   1.122  16.920 -0.3966 -0.2874  0.0200
  537TMC3     H 7974   1.733   1.218  17.126  0.5634  1.2028  2.0619
  537TMC3    H1 7975   1.384   0.974  17.109 -1.0547 -0.7819  0.7889
  537TMC3    H2 7976   1.665   0.934  17.432  0.4039 -1.4857 -0.5299
  537TMC3    C7 7977   1.450   0.808  17.297  0.6470 -0.2619  0.0172
  537TMC3    C8 7978   1.821   1.117  17.357 -0.3349  0.9610  1.0047
  537TMC3    O1 7979   1.332   0.806  17.267 -0.0088  0.3214 -0.4923
  537TMC3    O2 7980   1.817   1.094  17.476  0.1695 -0.2296  0.1368
  538TMC3    C1 7981   2.358   0.162  10.771 -0.3396 -0.4037 -0.3769
  538TMC3    C2 7982   2.376   0.037  10.725  0.2205  0.0793  1.1210
  538TMC3    C3 7983   2.338   4.724  10.602 -0.7370  0.4235  0.7601
  538TMC3    C4 7984   2.294   0.252  10.694 -0.1517 -0.0855  0.2193
  538TMC3    C5 7985   2.269   0.219  10.562  0.4355 -1.0897  0.6630
  538TMC3    C6 7986   2.294   0.096  10.520 -0.0595  0.1294 -0.2748
  538TMC3     C 7987   2.391   0.195  10.904 -0.4974  0.3702 -0.0090
  538TMC3     O 7988   2.303   0.253  10.973  0.0333 -0.4859 -0.4659
  538TMC3     H 7989   2.415   4.688  10.795  2.8003  1.8556  1.5033
  538TMC3    H1 7990   2.295   0.357  10.719 -1.9063  0.1312 -0.6062
  538TMC3    H2 7991   2.265   0.086  10.416  0.9609 -0.5113 -0.4924
  538TMC3    C7 7992   2.151   0.278  10.498 -0.6890 -0.1029 -0.1193
  538TMC3    C8 7993   2.360   4.588  10.556  0.8930  0.2721 -0.0248
  538TMC3    O1 7994   2.064   0.201  10.449 -0.0423  0.1072 -0.0955
  538TMC3    O2 7995   2.316   4.554  10.445  0.1811  0.3512  0.0424
  539MPD2     C 7996   2.277   4.345  11.807 -0.1477 -0.1142 -0.2048
  539MPD2    C1 7997   2.274   4.364  11.669  0.8743  0.6789  0.3846
  539MPD2    C2 7998   2.233   4.484  11.621  0.3542  0.0910 -0.1319
  539MPD2    C3 7999   2.186   4.581  11.708 -0.2943 -0.3894  0.4420
  539MPD2    C4 8000   2.191   4.560  11.846 -0.7505  0.1851 -0.4286
  539MPD2    C5 8001   2.232   4.443  11.891 -0.0148  0.2229  0.3705
  539MPD2     H 8002   2.230   4.489  11.512 -0.8448  0.0939 -0.0912
  539MPD2    H1 8003   2.155   4.634  11.916 -0.5418  1.5098 -1.7105
  539MPD2    H2 8004   2.291   4.247  11.851  1.0581 -0.3578 -1.1382
  539MPD2    H3 8005   2.243   4.432  11.998 -0.2393  1.6107  0.5409
  539MPD2     N 8006   2.124   4.701  11.661 -0.0798 -0.3016 -0.5190
  539MPD2    H5 8007   2.077   0.037  11.728 -0.2881 -0.3856 -0.5911
  539MPD2    N1 8008   2.301   4.250  11.592 -0.0312 -0.5402  0.0855
  539MPD2    H7 8009   2.335   4.168  11.641 -0.6700  0.4170  2.1578
  540TMC3    C1 8010   2.064   0.169  11.530 -0.1235  0.5626 -0.1510
  540TMC3    C2 8011   2.056   0.220  11.408  0.1890 -0.6262 -0.3729
  540TMC3    C3 8012   1.973   0.331  11.399  0.1156 -0.0296  0.1601
  540TMC3    C4 8013   2.002   0.223  11.638  0.3413 -0.5530  0.2369
  540TMC3    C5 8014   1.919   0.327  11.627  0.0531 -1.4490 -0.6922
  540TMC3    C6 8015   1.906   0.382  11.504 -0.1359  0.2884  0.3921
  540TMC3     C 8016   2.138   0.040  11.538 -0.1993  0.3256 -0.3044
  540TMC3     O 8017   2.206   4.720  11.447 -0.3302 -0.2516 -0.2356
  540TMC3     H 8018   2.098   0.164  11.326 -0.3336 -1.0963 -0.3228
  540TMC3    H1 8019   1.997   0.166  11.731  0.3710 -1.0144 -0.0409
  540TMC3    H2 8020   1.838   0.460  11.474 -0.3002  0.8539  2.2095
  540TMC3    C7 8021   1.820   0.359  11.727  0.3823 -0.0232 -0.6110
  540TMC3    C8 8022   1.922   0.369  11.267  0.2595  0.4113  0.5163
  540TMC3    O1 8023   1.792   0.276  11.815 -0.0486  0.0018  0.1572
  540TMC3    O2 8024   1.910   0.487  11.233  0.1747 -0.2113 -0.2077
  541MPD2     C 8025   0.372   1.124  13.381  0.0628 -0.8523 -0.8572
  541MPD2    C1 8026   0.344   1.086  13.257  0.2391  0.9853  0.1163
  541MPD2    C2 8027   0.390   1.162  13.148 -0.3410 -0.7510  0.1923
  541MPD2    C3 8028   0.471   1.274  13.164  0.1744 -0.6479 -0.1193
  541MPD2    C4 8029   0.500   1.314  13.296 -0.4260  0.7339  0.4896
  541MPD2    C5 8030   0.456   1.235  13.399  0.1079  0.4694  0.7517
  541MPD2     H 8031   0.345   1.145  13.051  1.3258 -1.8066 -0.3795
  541MPD2    H1 8032   0.562   1.400  13.315  2.1528 -1.6063  2.6446
  541MPD2    H2 8033   0.342   1.069  13.469  2.1817 -0.4060  0.1498
  541MPD2    H3 8034   0.481   1.275  13.497  2.5885 -0.0686  0.3595
  541MPD2     N 8035   0.508   1.357  13.055  0.4082 -0.4794  0.0407
  541MPD2    H5 8036   0.565   1.439  13.070 -1.0871  0.3252  1.3626
  541MPD2    N1 8037   0.265   0.969  13.236 -0.0152 -0.0640  0.2889
  541MPD2    H7 8038   0.244   0.916  13.320  0.8866 -0.2189  0.4118
  542TMC3    C1 8039   0.540   1.412  12.820  0.2723 -0.7946 -0.7672
  542TMC3    C2 8040   0.590   1.352  12.711 -0.2236  0.2294  0.4043
  542TMC3    C3 8041   0.677   1.428  12.637  0.5021 -0.3053  0.0816
  542TMC3    C4 8042   0.574   1.541  12.858 -0.7847  0.5526 -0.0167
  542TMC3    C5 8043   0.638   1.616  12.766 -0.1013  0.7930 -0.2874
  542TMC3    C6 8044   0.702   1.558  12.662 -0.9685  0.1181 -0.9016
  542TMC3     C 8045   0.499   1.316  12.921 -0.1835  1.0324  0.8239
  542TMC3     O 8046   0.462   1.212  12.873 -0.1636  0.5580  0.0067
  542TMC3     H 8047   0.567   1.249  12.684 -0.7652  0.1617  1.1137
  542TMC3    H1 8048   0.530   1.576  12.950  0.4552  1.2568  0.2964
  542TMC3    H2 8049   0.746   1.621  12.585 -0.6416  2.6401  1.3583
  542TMC3    C7 8050   0.668   1.757  12.801 -0.5114  0.2218  0.3150
  542TMC3    C8 8051   0.704   1.371  12.502 -0.0948  0.2588  0.1275
  542TMC3    O1 8052   0.711   1.827  12.709 -0.3447 -0.1001 -0.0620
  542TMC3    O2 8053   0.653   1.264  12.468 -0.2937  0.0348 -0.2544
  543TMC3    C1 8054   4.471   2.049  17.164 -0.4204 -0.0273 -1.0308
  543TMC3    C2 8055   4.512   1.998  17.283 -0.2097 -0.0028  0.4858
  543TMC3    C3 8056   4.418   1.966  17.378 -0.1859  0.5741  0.5208
  543TMC3    C4 8057   4.339   2.082  17.142 -0.3878  0.3749  0.0430
  543TMC3    C5 8058   4.248   2.049  17.241  0.2236  0.1253  0.2861
  543TMC3    C6 8059   4.285   1.984  17.357  0.6441  0.1897  0.5281
  543TMC3     C 8060   4.556   2.014  17.053  0.9075 -0.1070 -0.0144
  543TMC3     O 8061   4.639   1.924  17.063 -0.8074  0.7441  0.0668
  543TMC3     H 8062   4.613   1.957  17.282 -0.6809 -1.1483 -0.9894
  543TMC3    H1 8063   4.310   2.117  17.043 -3.3632 -0.4748  0.6014
  543TMC3    H2 8064   4.209   1.956  17.429  2.2973 -2.9320  1.0203
  543TMC3    C7 8065   4.106   2.062  17.196 -0.0961  0.7072 -0.0608
  543TMC3    C8 8066   4.465   1.876  17.481 -0.1839  0.0471 -0.8118
  543TMC3    O1 8067   4.085   2.116  17.091 -0.3135  0.1978  0.4173
  543TMC3    O2 8068   4.584   1.845  17.475  0.0600 -0.2720 -0.4123
  544MPD2     C 8069   4.400   1.463   0.094 -0.0944 -0.6981  0.7677
  544MPD2    C1 8070   4.486   1.483  17.692  0.2544  0.1169 -0.2060
  544MPD2    C2 8071   4.480   1.597  17.616 -0.1013  0.2056  0.3799
  544MPD2    C3 8072   4.393   1.702  17.645  0.4964 -0.1625 -0.6067
  544MPD2    C4 8073   4.310   1.675   0.046 -0.5375 -0.6134  0.3066
  544MPD2    C5 8074   4.307   1.560   0.120 -0.5959  0.2537 -0.1858
  544MPD2     H 8075   4.540   1.614  17.527 -2.1719  0.2058 -1.0410
  544MPD2    H1 8076   4.238   1.754   0.065  0.4567  0.1970  0.7261
  544MPD2    H2 8077   4.413   1.382   0.165 -0.2220  0.5000  2.1646
  544MPD2    H3 8078   4.248   1.547   0.211  0.8855  1.7463  0.9776
  544MPD2     N 8079   4.369   1.818  17.562 -0.0673 -0.6700  0.8024
  544MPD2    H5 8080   4.278   1.863  17.570 -0.2615 -0.8055 -0.5595
  544MPD2    N1 8081   4.577   1.385  17.665  0.0226  0.4911  0.3916
  544MPD2    H7 8082   4.569   1.298   0.018  2.7342  1.0470  1.8057
  545TMC3    C1 8083   0.025   1.271  17.562  0.3882 -0.3065 -0.0657
  545TMC3    C2 8084   0.133   1.272  17.484 -0.0299  0.0464  0.0999
  545TMC3    C3 8085   0.212   1.164  17.490 -0.2544  0.4994  0.2939
  545TMC3    C4 8086   4.700   1.165  17.629 -0.0960 -0.5956 -1.0074
  545TMC3    C5 8087   0.052   1.046  17.616 -0.4675 -0.3615 -1.1135
  545TMC3    C6 8088   0.180   1.043  17.555 -0.2170  0.4268 -0.2534
  545TMC3     C 8089   4.670   1.387  17.564 -0.1038 -0.0174 -0.7253
  545TMC3     O 8090   4.709   1.477  17.483 -0.0343 -0.7117 -0.1559
  545TMC3     H 8091   0.170   1.365  17.441 -0.2734 -0.6330 -1.5783
  545TMC3    H1 8092   4.600   1.154  17.668 -0.2272  0.0498 -1.1685
  545TMC3    H2 8093   0.228   0.948  17.536  3.1155  1.6962  1.8092
  545TMC3    C7 8094   4.717   0.927  17.683  0.3002  0.4511 -1.1439
  545TMC3    C8 8095   0.340   1.177  17.421  0.2488  0.1993 -0.6616
  545TMC3    O1 8096   4.598   0.933   0.008 -0.5245 -0.2036 -0.3489
  545TMC3    O2 8097   0.348   1.252  17.326 -0.2503 -0.1129 -0.1627
  546MPD2     C 8098   1.289   1.636  17.030  0.5148 -0.4947 -0.0476
  546MPD2    C1 8099   1.288   1.656  17.167  0.3407 -0.2357 -0.3772
  546MPD2    C2 8100   1.338   1.773  17.223  0.6607 -0.2321 -0.9344
  546MPD2    C3 8101   1.396   1.874  17.143  0.7197  0.2568 -0.2005
  546MPD2    C4 8102   1.406   1.843  17.006  0.4071 -0.2900 -0.1404
  546MPD2    C5 8103   1.350   1.733  16.952  0.1504 -0.2973 -0.2862
  546MPD2     H 8104   1.337   1.779  17.331 -0.5286  1.0527 -1.0042
  546MPD2    H1 8105   1.439   1.921  16.938  0.4243 -1.0323 -0.9724
  546MPD2    H2 8106   1.253   1.545  16.983  0.9844 -1.1857  0.9294
  546MPD2    H3 8107   1.357   1.717  16.845 -0.6407 -0.4651 -0.3099
  546MPD2     N 8108   1.451   1.994  17.189 -0.3339 -0.2334  0.1185
  546MPD2    H5 8109   1.467   2.072  17.125 -2.1949  1.1547  1.3280
  546MPD2    N1 8110   1.214   1.562  17.250  0.0490 -0.2641  0.1678
  546MPD2    H7 8111   1.198   1.472  17.206 -0.1975 -0.0265 -0.2350
  547TMC3    C1 8112   1.068   1.487  17.427  0.0607 -0.0769 -0.6051
  547TMC3    C2 8113   0.974   1.454  17.333 -0.3808 -0.8467  0.4462
  547TMC3    C3 8114   0.854   1.403  17.380 -0.0772 -0.0775 -0.4364
  547TMC3    C4 8115   1.050   1.470  17.558  0.6459 -0.5112 -0.1040
  547TMC3    C5 8116   0.933   1.415  17.602  0.4086 -0.0170 -0.1752
  547TMC3    C6 8117   0.836   1.382  17.513 -0.0060 -0.5168  0.5570
  547TMC3     C 8118   1.162   1.588  17.379 -0.5144  0.2453  0.0505
  547TMC3     O 8119   1.188   1.682  17.456  0.6843 -0.2035  0.1311
  547TMC3     H 8120   0.992   1.473  17.228 -1.9451  0.2370  0.3765
  547TMC3    H1 8121   1.127   1.495  17.631 -0.2126 -0.1077  0.6629
  547TMC3    H2 8122   0.740   1.349  17.553 -0.3989 -2.5625 -2.0418
  547TMC3    C7 8123   0.900   1.408   0.045 -0.4162 -0.2913 -0.1562
  547TMC3    C8 8124   0.740   1.439  17.299 -0.3322 -0.8852  0.4088
  547TMC3    O1 8125   0.795   1.347   0.068  0.4381  0.5187 -0.0386
  547TMC3    O2 8126   0.773   1.476  17.187 -0.0786  0.4715 -0.4148
  548MPD2     C 8127   1.065   3.296  11.969  0.2303 -0.4235  0.4412
  548MPD2    C1 8128   1.097   3.177  12.023  0.0612 -0.0880 -0.4954
  548MPD2    C2 8129   1.191   3.110  11.944 -0.0832  0.0364  0.3916
  548MPD2    C3 8130   1.248   3.163  11.829  0.1179 -0.6883 -0.0216
  548MPD2    C4 8131   1.219   3.295  11.795 -0.9590  1.1842  0.1651
  548MPD2    C5 8132   1.127   3.358  11.869  0.2603 -0.0626 -0.6875
  548MPD2     H 8133   1.217   3.011  11.979  2.1416 -0.2339 -2.0479
  548MPD2    H1 8134   1.258   3.349  11.709  3.2354 -0.5207  1.0522
  548MPD2    H2 8135   0.985   3.361  12.003 -1.4069 -1.5117 -1.3578
  548MPD2    H3 8136   1.083   3.452  11.837  1.6622  1.5338  2.0895
  548MPD2     N 8137   1.325   3.072  11.754 -0.4358 -0.3226 -0.2644
  548MPD2    H5 8138   1.338   2.976  11.785 -0.4240 -0.1954  0.1354
  548MPD2    N1 8139   1.017   3.126  12.136 -0.0613  0.0412  0.0651
  548MPD2    H7 8140   0.944   3.191  12.163  1.0784  0.6159  1.7975
  549TMC3    C1 8141   0.943   2.982  12.315  0.3826 -0.2037  0.1298
  549TMC3    C2 8142   0.822   3.055  12.305  0.4284  0.4981  0.9123
  549TMC3    C3 8143   0.758   3.094  12.417  0.2737  0.1275  0.1192
  549TMC3    C4 8144   0.994   2.941  12.435  0.2867 -0.0252  0.4360
  549TMC3    C5 8145   0.921   2.975  12.549 -0.0527  0.2131  0.7900
  549TMC3    C6 8146   0.804   3.048  12.535  0.1007 -0.4682  0.3226
  549TMC3     C 8147   1.045   3.016  12.214 -0.9969  0.9169  0.2339
  549TMC3     O 8148   1.132   2.936  12.196 -0.0064  0.3159 -0.3584
  549TMC3     H 8149   0.781   3.078  12.207  0.3703 -1.8740  0.3823
  549TMC3    H1 8150   1.084   2.882  12.425 -0.2789 -0.7639 -0.2713
  549TMC3    H2 8151   0.751   3.074  12.626  2.0345  1.7769  0.8352
  549TMC3    C7 8152   0.959   2.920  12.683 -0.3523 -0.3259  0.4748
  549TMC3    C8 8153   0.633   3.168  12.398 -0.1900 -1.0765 -0.0324
  549TMC3    O1 8154   0.888   2.961  12.772  0.0647  0.4468  0.4222
  549TMC3    O2 8155   0.545   3.129  12.325 -0.5608 -0.1597 -0.5028
  550TMC3    C1 8156   4.627   0.608  12.338  0.5602  0.0620 -0.1732
  550TMC3    C2 8157   4.623   0.609  12.480 -0.7452 -0.4072 -0.3793
  550TMC3    C3 8158   4.574   0.721  12.541 -0.3713 -0.4759 -0.5299
  550TMC3    C4 8159   4.570   0.707  12.258  0.0213  0.1948  0.8495
  550TMC3    C5 8160   4.517   0.813  12.329  0.0881 -0.6568  0.8644
  550TMC3    C6 8161   4.521   0.825  12.464 -0.2742  0.1693 -0.1866
  550TMC3     C 8162   4.658   0.476  12.279  0.1067 -0.7906 -0.0350
  550TMC3     O 8163   0.017   0.407  12.332  0.0953  0.2776  0.1646
  550TMC3     H 8164   4.664   0.521  12.528 -0.8840  1.1489  2.5262
  550TMC3    H1 8165   4.567   0.713  12.150 -0.7161  0.8082  0.9073
  550TMC3    H2 8166   4.491   0.920  12.508  1.3553  0.4686  0.2979
  550TMC3    C7 8167   4.411   0.892  12.265 -0.1184 -0.0062  0.0475
  550TMC3    C8 8168   4.631   0.757  12.670 -0.0799  0.0656  0.4787
  550TMC3    O1 8169   4.319   0.930  12.339 -0.2178  0.6619 -0.4842
  550TMC3    O2 8170   0.022   0.726  12.700  0.3337 -0.0324 -0.1098
  551TMC3    C1 8171   2.363   3.716  13.695  0.1334 -0.2400  0.3591
  551TMC3    C2 8172   2.415   3.815  13.618  0.3236 -1.5381 -0.0623
  551TMC3    C3 8173   2.489   3.902  13.687  0.4291 -0.3342 -0.0287
  551TMC3    C4 8174   2.363   3.714  13.832  0.5256  0.6748  0.3334
  551TMC3    C5 8175   2.443   3.799  13.890 -0.2492  0.3692  0.0690
  551TMC3    C6 8176   2.512   3.900  13.823  0.3754 -0.4971 -0.2468
  551TMC3     C 8177   2.243   3.655  13.635  0.3866 -0.2109 -0.3135
  551TMC3     O 8178   2.219   3.542  13.663 -0.4855 -0.4290  0.1186
  551TMC3     H 8179   2.412   3.800  13.511 -1.7674 -0.0348 -0.2163
  551TMC3    H1 8180   2.310   3.637  13.888 -1.1564 -0.2315 -2.4823
  551TMC3    H2 8181   2.594   3.958  13.864 -0.6514 -1.0925  2.6076
  551TMC3    C7 8182   2.442   3.795  14.036  0.1926 -0.5269 -0.6365
  551TMC3    C8 8183   2.576   3.999  13.619  0.5826  0.1288 -0.0457
  551TMC3    O1 8184   2.402   3.691  14.087 -0.7852  0.5999 -0.0940
  551TMC3    O2 8185   2.686   4.018  13.662 -0.2273  0.0355  0.3272
  552MPD2     C 8186   4.113   0.885  14.061 -0.1971 -0.6968 -0.8224
  552MPD2    C1 8187   4.092   0.752  14.077  0.7123  0.5925 -0.8351
  552MPD2    C2 8188   4.188   0.677  14.134  0.3299 -0.1775  0.0984
  552MPD2    C3 8189   4.307   0.736  14.179  0.0319 -0.7446  0.3585
  552MPD2    C4 8190   4.322   0.874  14.166 -0.1003  0.3851  0.0681
  552MPD2    C5 8191   4.222   0.951  14.112  0.2333  0.6416  0.4308
  552MPD2     H 8192   4.177   0.570  14.149  1.5426 -0.5042 -1.2747
  552MPD2    H1 8193   4.412   0.924  14.201  0.7086  1.2217 -3.2242
  552MPD2    H2 8194   4.033   0.949  14.027  0.8790  0.9343 -0.2916
  552MPD2    H3 8195   4.229   1.058  14.124  0.4553  0.7510 -0.7017
  552MPD2     N 8196   4.425   0.662  14.225 -0.4850  0.5299  0.0755
  552MPD2    H5 8197   4.513   0.713  14.225  1.0565 -2.1641  0.1615
  552MPD2    N1 8198   3.980   0.691  14.016  0.1807 -0.2214 -0.1399
  552MPD2    H7 8199   3.997   0.592  14.002  0.2711 -0.2975  0.4997
  553TMC3    C1 8200   3.773   0.654  13.916 -0.8164  0.7358  0.3620
  553TMC3    C2 8201   3.732   0.695  13.794 -0.1321 -0.0218  0.3668
  553TMC3    C3 8202   3.682   0.598  13.706 -0.4541 -0.3270 -0.8266
  553TMC3    C4 8203   3.779   0.524  13.949  0.8398 -0.1633 -0.6425
  553TMC3    C5 8204   3.732   0.429  13.860 -0.3026 -0.5637  0.4919
  553TMC3    C6 8205   3.674   0.464  13.745  0.3557 -0.7523 -0.6123
  553TMC3     C 8206   3.862   0.751  13.981 -0.7624 -0.1490 -0.1828
  553TMC3     O 8207   3.816   0.860  14.001 -0.2250 -0.2768  0.8216
  553TMC3     H 8208   3.738   0.800  13.768  1.0116 -0.6965 -2.2122
  553TMC3    H1 8209   3.820   0.492  14.045  0.0359  1.9536  0.4073
  553TMC3    H2 8210   3.646   0.380  13.682 -0.4701 -0.2390 -0.9438
  553TMC3    C7 8211   3.763   0.290  13.884  0.0211 -0.4136 -0.5814
  553TMC3    C8 8212   3.748   0.626  13.579  0.4480 -0.2705 -0.5111
  553TMC3    O1 8213   3.672   0.210  13.859  0.2514  0.7441 -0.5114
  553TMC3    O2 8214   3.829   0.712  13.575  0.0951 -0.8580 -0.1841
  554TMC3    C1 8215   1.137   4.678  11.799  0.1479  0.2130  0.5515
  554TMC3    C2 8216   1.040   4.590  11.749 -0.0980  0.0819 -0.1730
  554TMC3    C3 8217   0.970   4.639  11.640  0.4207  0.1850 -0.0114
  554TMC3    C4 8218   1.172   0.076  11.741  0.2461  0.5818 -0.2344
  554TMC3    C5 8219   1.106   0.119  11.631 -0.3500 -0.5195 -0.0401
  554TMC3    C6 8220   1.001   0.039  11.588 -0.0979 -0.6672 -0.5494
  554TMC3     C 8221   1.195   4.655  11.936 -0.8707  0.4713 -0.3288
  554TMC3     O 8222   1.260   0.024  11.987 -0.2199 -0.0518  0.4394
  554TMC3     H 8223   1.030   4.490  11.789  0.1085 -0.0421 -0.4296
  554TMC3    H1 8224   1.255   0.131  11.784  2.6801 -3.4151  0.1550
  554TMC3    H2 8225   0.941   0.091  11.515 -0.2776 -1.4463 -0.9606
  554TMC3    C7 8226   1.179   0.186  11.524  0.2125  0.4173 -0.1104
  554TMC3    C8 8227   0.897   4.556  11.542  0.0412 -0.9230  0.2915
  554TMC3    O1 8228   1.126   0.169  11.410  0.3184  0.1751  0.1430
  554TMC3    O2 8229   0.846   4.616  11.445  0.1750  0.2710  0.2301
  555TMC3    C1 8230   0.157   3.993  14.985 -0.4644 -0.8418 -0.6335
  555TMC3    C2 8231   0.104   4.064  15.090  0.1761  0.2517  0.2714
  555TMC3    C3 8232   0.084   3.996  15.203  0.3369  0.3841 -0.1846
  555TMC3    C4 8233   0.186   3.854  14.989 -0.0499  0.2426  0.4697
  555TMC3    C5 8234   0.154   3.793  15.109 -0.2235  0.3366  0.4907
  555TMC3    C6 8235   0.107   3.863  15.221  0.3643  0.4730 -0.0223
  555TMC3     C 8236   0.161   4.059  14.860 -0.8332  0.2197 -0.1321
  555TMC3     O 8237   0.239   4.016  14.774  0.0038 -0.3352  0.5684
  555TMC3     H 8238   0.115   4.171  15.100 -0.3564  0.3813 -0.5143
  555TMC3    H1 8239   0.218   3.806  14.898 -0.2981  2.9883 -1.0512
  555TMC3    H2 8240   0.087   3.818  15.317 -0.5837  0.6374 -0.1488
  555TMC3    C7 8241   0.182   3.652  15.124 -0.0136  0.6662  0.3591
  555TMC3    C8 8242   0.079   4.089  15.318  0.5575 -0.3446 -0.0460
  555TMC3    O1 8243   0.108   3.600  15.207  1.1192 -0.3801 -0.1615
  555TMC3    O2 8244   0.048   4.207  15.295  0.0174  0.2254  0.0939
  556MPD2     C 8245   3.517   0.178  10.994  0.2307 -0.2713 -0.4993
  556MPD2    C1 8246   3.379   0.183  11.000  1.1483 -0.2411 -0.3703
  556MPD2    C2 8247   3.314   0.102  10.913  0.3826 -0.1379  0.2046
  556MPD2    C3 8248   3.374   0.022  10.817 -0.3786  0.0368  0.0872
  556MPD2    C4 8249   3.512   0.029  10.811 -0.1948  0.6610  0.1088
  556MPD2    C5 8250   3.576   0.094  10.904  0.2591  0.8285 -0.4091
  556MPD2     H 8251   3.206   0.098  10.917  0.3423  0.5670 -0.3035
  556MPD2    H1 8252   3.568   4.688  10.745 -3.2966  0.4277 -2.3054
  556MPD2    H2 8253   3.570   0.233  11.071  2.2893 -2.0955 -0.5893
  556MPD2    H3 8254   3.684   0.097  10.902  0.2302  0.8742 -1.5408
  556MPD2     N 8255   3.289   4.671  10.735 -0.2678  0.7919  0.9623
  556MPD2    H5 8256   3.189   4.673  10.756 -0.8730  1.3465 -1.9276
  556MPD2    N1 8257   3.309   0.270  11.089  0.2345 -0.1892  0.0213
  556MPD2    H7 8258   3.210   0.283  11.067  0.3500  0.2697 -0.2342
  557TMC3    C1 8259   3.235   4.517  10.549  0.2251  0.2587  0.0762
  557TMC3    C2 8260   3.271   4.461  10.427  0.2480 -0.3608  0.4677
  557TMC3    C3 8261   3.194   4.350  10.391 -0.3535 -0.4276  0.6563
  557TMC3    C4 8262   3.138   4.455  10.622  0.4646 -0.0791 -0.5898
  557TMC3    C5 8263   3.068   4.343  10.585  0.0868 -0.1636 -0.0335
  557TMC3    C6 8264   3.088   4.293  10.463  0.0822 -0.6806 -0.2241
  557TMC3     C 8265   3.331   4.587  10.634 -0.4806  0.5375  0.5396
  557TMC3     O 8266   3.445   4.577  10.595 -0.7233 -0.1877  0.4702
  557TMC3     H 8267   3.355   4.499  10.370 -0.3881 -0.4389 -0.5196
  557TMC3    H1 8268   3.125   4.479  10.727  1.8222  0.2095 -0.4794
  557TMC3    H2 8269   3.034   4.212  10.418  0.8114 -1.4598  0.3056
  557TMC3    C7 8270   2.933   4.348  10.644  0.6608  0.0039 -0.4007
  557TMC3    C8 8271   3.174   4.346  10.243 -0.4419  0.4638 -0.7426
  557TMC3    O1 8272   2.913   4.447  10.709 -0.6310 -0.1933  0.1382
  557TMC3    O2 8273   3.211   4.449  10.185  0.2345 -0.1913  0.1401
  558TMC3    C1 8274   0.764   3.509   9.554  0.3203  0.1060  0.2030
  558TMC3    C2 8275   0.740   3.427   9.663 -0.4569 -0.1376 -0.1791
  558TMC3    C3 8276   0.637   3.338   9.658  0.1457 -0.0319 -0.0633
  558TMC3    C4 8277   0.696   3.499   9.435  0.2344  0.3353  0.2116
  558TMC3    C5 8278   0.600   3.405   9.433  0.0841 -0.5701  0.0954
  558TMC3    C6 8279   0.570   3.324   9.545 -0.0960  0.3199 -1.2662
  558TMC3     C 8280   0.883   3.597   9.563  0.0059  0.7338  1.1918
  558TMC3     O 8281   0.895   3.648   9.680 -0.2201  0.2494  0.0081
  558TMC3     H 8282   0.790   3.446   9.757  0.0640 -2.7028  0.0700
  558TMC3    H1 8283   0.710   3.572   9.356 -4.1858  1.1552  0.1515
  558TMC3    H2 8284   0.472   3.282   9.567 -0.4967  2.1372  0.4103
  558TMC3    C7 8285   0.496   3.441   9.337 -0.1680  0.3297 -0.1781
  558TMC3    C8 8286   0.607   3.245   9.761  0.7681 -0.5819  0.3192
  558TMC3    O1 8287   0.523   3.527   9.254  0.0865 -0.1632  0.6095
  558TMC3    O2 8288   0.495   3.197   9.776 -0.0538  0.1420 -0.0648
  559MPD2     C 8289   0.698   3.338  11.150  0.2152 -0.4747  0.4366
  559MPD2    C1 8290   0.691   3.455  11.070  0.5859 -0.4757 -0.5147
  559MPD2    C2 8291   0.806   3.539  11.072 -0.5297  0.9898  0.9078
  559MPD2    C3 8292   0.920   3.496  11.139 -0.5405  0.1985  0.1867
  559MPD2    C4 8293   0.925   3.368  11.191 -0.2677  0.3944 -0.6761
  559MPD2    C5 8294   0.818   3.291  11.209 -0.0131 -0.3745  0.2507
  559MPD2     H 8295   0.811   3.633  11.020  0.6412  1.4190  1.8019
  559MPD2    H1 8296   1.013   3.322  11.233  0.7911  1.3812 -1.7970
  559MPD2    H2 8297   0.617   3.267  11.162  0.0766 -0.0554  1.8663
  559MPD2    H3 8298   0.821   3.193  11.253  1.6956 -1.0656 -1.3829
  559MPD2     N 8299   1.043   3.565  11.114  0.7039  0.1245 -0.3573
  559MPD2    H5 8300   1.044   3.639  11.044 -2.6616  0.3474 -0.1985
  559MPD2    N1 8301   0.565   3.488  11.008 -0.1769  0.0183 -0.1218
  559MPD2    H7 8302   0.488   3.430  11.041 -0.4296  0.3396 -0.1520
  560TMC3    C1 8303   1.262   3.635  11.131  0.3793  0.1974  0.4725
  560TMC3    C2 8304   1.291   3.622  10.998 -0.7400 -0.0854  0.1910
  560TMC3    C3 8305   1.420   3.649  10.958  0.1478 -0.1980  0.0527
  560TMC3    C4 8306   1.361   3.667  11.218  0.3402 -0.0028 -0.4897
  560TMC3    C5 8307   1.484   3.706  11.172  0.0570  0.2589  0.3982
  560TMC3    C6 8308   1.516   3.710  11.042  0.5158 -0.4228  0.5145
  560TMC3     C 8309   1.155   3.553  11.187  0.5416 -0.5675 -0.2400
  560TMC3     O 8310   1.169   3.494  11.294  0.1630 -0.4418  0.5021
  560TMC3     H 8311   1.221   3.573  10.932 -1.0764  0.3416  0.2284
  560TMC3    H1 8312   1.341   3.671  11.325  1.7340 -1.3797 -0.1697
  560TMC3    H2 8313   1.613   3.740  11.004  0.5109 -2.5257 -1.1688
  560TMC3    C7 8314   1.559   3.786  11.270 -0.4018 -0.0484 -0.5548
  560TMC3    C8 8315   1.460   3.576  10.836  0.0096  0.4500 -1.1137
  560TMC3    O1 8316   1.539   3.771  11.388 -0.6010 -0.5431 -0.3334
  560TMC3    O2 8317   1.372   3.534  10.759  0.5082 -0.1039  0.0323
  561TMC3    C1 8318   3.165   2.847  11.472 -0.4494 -0.7991 -0.2754
  561TMC3    C2 8319   3.132   2.830  11.603 -0.7221 -0.0002  0.6026
  561TMC3    C3 8320   3.086   2.943  11.665 -0.2386  0.3195  0.1005
  561TMC3    C4 8321   3.172   2.970  11.404 -0.3806  0.1599  0.1101
  561TMC3    C5 8322   3.124   3.081  11.474  0.5781  0.7301  0.0051
  561TMC3    C6 8323   3.089   3.069  11.607 -0.1446  0.1038 -0.3614
  561TMC3     C 8324   3.154   2.735  11.372 -0.4779 -0.2221  0.2863
  561TMC3     O 8325   3.113   2.752  11.258 -0.1315  0.7357 -0.6402
  561TMC3     H 8326   3.113   2.732  11.644  1.9319 -0.7581  0.0273
  561TMC3    H1 8327   3.205   2.964  11.301  0.5730 -0.6298  0.4589
  561TMC3    H2 8328   3.054   3.153  11.665 -0.5992 -0.5751  0.3568
  561TMC3    C7 8329   3.114   3.216  11.414 -0.3468  0.0598 -0.6442
  561TMC3    C8 8330   3.053   2.922  11.811 -0.4404 -0.2335  0.3632
  561TMC3    O1 8331   3.023   3.292  11.445  0.1542 -0.0087  0.0806
  561TMC3    O2 8332   3.123   2.834  11.866 -0.0345 -0.0286  0.1224
  562TMC3    C1 8333   4.612   3.959  16.165 -0.1726 -0.2304 -0.4943
  562TMC3    C2 8334   4.575   4.087  16.144 -0.1364  0.6240  0.1160
  562TMC3    C3 8335   4.575   4.142  16.019  0.4098  0.1290  0.5465
  562TMC3    C4 8336   4.641   3.885  16.057 -0.5268 -0.1391 -0.5672
  562TMC3    C5 8337   4.634   3.939  15.930  0.4435  0.5119  0.5213
  562TMC3    C6 8338   4.605   4.068  15.917 -0.0323  0.1530  0.0675
  562TMC3     C 8339   4.683   3.913  16.291  0.4884 -0.1459 -0.6172
  562TMC3     O 8340   0.036   3.820  16.283 -0.3187  0.4036 -0.3326
  562TMC3     H 8341   4.561   4.150  16.231  0.1851 -0.0473  0.6554
  562TMC3    H1 8342   4.643   3.779  16.077  3.0204  0.0629  0.2124
  562TMC3    H2 8343   4.569   4.098  15.819  1.4690 -0.7709 -0.7632
  562TMC3    C7 8344   4.653   3.850  15.819  0.1683  0.1287 -0.1513
  562TMC3    C8 8345   4.520   4.278  16.000 -0.2089 -0.6031  0.6783
  562TMC3    O1 8346   4.591   3.879  15.721 -0.0098 -0.7110 -0.3103
  562TMC3    O2 8347   4.452   4.310  16.095  0.5618  0.1134  0.3290
  563MPD2     C 8348   2.029   0.800  16.490  0.0652 -0.2926  1.0333
  563MPD2    C1 8349   2.123   0.730  16.558  0.3766 -0.3948  0.0046
  563MPD2    C2 8350   2.207   0.789  16.648  0.1269 -0.2913  0.3802
  563MPD2    C3 8351   2.205   0.927  16.671 -0.1638 -0.5733  0.3274
  563MPD2    C4 8352   2.117   1.002  16.606 -0.1063 -0.3028  0.1992
  563MPD2    C5 8353   2.037   0.937  16.514  0.4578  1.0417 -0.1786
  563MPD2     H 8354   2.284   0.731  16.696 -1.0933 -2.7377 -0.6278
  563MPD2    H1 8355   2.110   1.111  16.610 -0.8584 -0.3132 -0.7358
  563MPD2    H2 8356   1.963   0.752  16.419  2.0975 -0.4345 -0.7434
  563MPD2    H3 8357   1.966   0.997  16.458 -2.1024 -0.2748  1.6195
  563MPD2     N 8358   2.309   0.982  16.760  0.5070 -0.0561 -0.2584
  563MPD2    H5 8359   2.388   0.923  16.784  0.9684  0.9794  0.7642
  563MPD2    N1 8360   2.097   0.589  16.555  0.1885  0.2359  0.2603
  563MPD2    H7 8361   2.036   0.558  16.480  0.1640 -0.7839  0.7051
  564TMC3    C1 8362   2.089   0.368  16.629 -0.4602 -0.1096 -0.1222
  564TMC3    C2 8363   1.983   0.352  16.539  0.1153  0.2595  0.1510
  564TMC3    C3 8364   1.888   0.249  16.571 -0.6270  0.1907 -0.1393
  564TMC3    C4 8365   2.100   0.279  16.729  0.3661 -0.4759  0.3256
  564TMC3    C5 8366   2.001   0.192  16.759  0.4326  0.8282  0.2433
  564TMC3    C6 8367   1.894   0.173  16.684  0.4534  0.1132  0.3725
  564TMC3     C 8368   2.138   0.501  16.656 -0.4145 -0.1973 -0.2545
  564TMC3     O 8369   2.175   0.514  16.774 -0.8874 -0.1624  0.1608
  564TMC3     H 8370   1.967   0.420  16.456 -1.7884 -1.5258 -0.9637
  564TMC3    H1 8371   2.183   0.287  16.799  1.4886 -0.4268 -1.0089
  564TMC3    H2 8372   1.812   0.109  16.713 -0.7107  1.5034  0.1711
  564TMC3    C7 8373   2.043   0.068  16.827 -0.6364 -0.0624 -0.7277
  564TMC3    C8 8374   1.848   0.163  16.462 -0.1964  0.0409  0.6504
  564TMC3    O1 8375   2.155   0.066  16.871 -0.5063 -0.0487 -0.0230
  564TMC3    O2 8376   1.773   0.068  16.487  0.2395  0.6570  0.2110
  565TMC3    C1 8377   2.800   1.872  10.194 -0.3497 -0.1066 -0.3837
  565TMC3    C2 8378   2.724   1.767  10.233  0.2692 -0.1938  0.1579
  565TMC3    C3 8379   2.669   1.695  10.122  0.3240 -0.0088  0.7506
  565TMC3    C4 8380   2.826   1.910  10.062 -0.6509 -0.2862 -0.0170
  565TMC3    C5 8381   2.757   1.838   9.966 -0.5941 -0.2960  0.6781
  565TMC3    C6 8382   2.679   1.732   9.989  0.8303 -0.1828  0.4332
  565TMC3     C 8383   2.863   1.959  10.292  0.2922 -0.4733 -0.0586
  565TMC3     O 8384   2.924   2.053  10.250 -0.3791  0.3781  0.1646
  565TMC3     H 8385   2.710   1.730  10.334  0.6416 -1.9569 -0.4274
  565TMC3    H1 8386   2.888   1.995  10.039  0.0108  0.2022  3.6189
  565TMC3    H2 8387   2.668   1.654   9.915 -0.9669 -0.9044  1.4516
  565TMC3    C7 8388   2.795   1.867   9.833  0.0896  0.3870  0.1966
  565TMC3    C8 8389   2.616   1.565  10.147  0.0824 -0.3119  0.3962
  565TMC3    O1 8390   2.895   1.937   9.821  0.5326 -0.1978 -0.0336
  565TMC3    O2 8391   2.540   1.511  10.069  0.4680  0.5075 -0.0737
  566MPD2     C 8392   3.772   4.099  14.637 -0.5735  0.6935 -0.0972
  566MPD2    C1 8393   3.874   4.043  14.560  0.2846 -1.0821  0.2703
  566MPD2    C2 8394   3.852   3.926  14.492  0.0977 -0.0171 -0.6010
  566MPD2    C3 8395   3.724   3.868  14.491 -0.6341 -0.4881  0.5917
  566MPD2    C4 8396   3.625   3.924  14.569  0.3398  1.0030 -0.3028
  566MPD2    C5 8397   3.654   4.038  14.647  0.3148 -0.0675  0.7758
  566MPD2     H 8398   3.940   3.871  14.459  0.1295 -0.9490  1.0405
  566MPD2    H1 8399   3.524   3.885  14.574  0.2075  1.1291 -2.1128
  566MPD2    H2 8400   3.786   4.190  14.695  0.2291  1.0813 -0.9160
  566MPD2    H3 8401   3.575   4.097  14.692 -1.1055 -0.2818 -1.4705
  566MPD2     N 8402   3.699   3.737  14.431  0.9715 -0.5704 -0.4213
  566MPD2    H5 8403   3.602   3.710  14.417  0.6217  0.2469  0.4065
  566MPD2    N1 8404   3.996   4.116  14.559  0.3494  0.6286  0.8009
  566MPD2    H7 8405   3.988   4.210  14.596 -2.4984  0.6187  0.2120
  567TMC3    C1 8406   4.205   4.178  14.501 -0.0492  1.4164 -0.3733
  567TMC3    C2 8407   4.207   4.268  14.396 -0.2617 -0.2970 -0.2858
  567TMC3    C3 8408   4.327   4.302  14.347 -0.0153  0.2392 -0.2666
  567TMC3    C4 8409   4.318   4.129  14.551 -0.7163 -0.0480  0.4861
  567TMC3    C5 8410   4.438   4.184  14.511 -0.4103  0.5240  0.4679
  567TMC3    C6 8411   4.447   4.266  14.403  0.8381  0.5387  0.1955
  567TMC3     C 8412   4.109   4.072  14.497  0.0667  0.6204  0.2042
  567TMC3     O 8413   4.129   3.987  14.412 -0.3272 -0.4107 -0.0763
  567TMC3     H 8414   4.121   4.268  14.331  0.9205  0.1118 -1.8491
  567TMC3    H1 8415   4.315   4.050  14.625  2.3523  0.7082  1.4171
  567TMC3    H2 8416   4.538   4.321  14.380 -0.1993  2.6191  1.0423
  567TMC3    C7 8417   4.565   4.107  14.528  0.5294  0.4911  0.3527
  567TMC3    C8 8418   4.320   4.346  14.212  0.4194 -0.5675  0.1900
  567TMC3    O1 8419   4.633   4.109  14.422  0.2328  0.4675 -0.7353
  567TMC3    O2 8420   4.217   4.395  14.179 -0.3845 -0.7018 -0.3973
  568MPD2     C 8421   2.500   3.751  16.460 -0.1553  0.5354  0.8969
  568MPD2    C1 8422   2.383   3.736  16.531 -0.5448  0.3596 -0.3118
  568MPD2    C2 8423   2.265   3.778  16.474  0.1466  0.1373 -0.2733
  568MPD2    C3 8424   2.265   3.844  16.352 -0.6660  0.1775  0.4162
  568MPD2    C4 8425   2.384   3.861  16.279 -0.3454  0.0778 -1.0498
  568MPD2    C5 8426   2.499   3.816  16.342 -0.1686 -0.3405 -0.0774
  568MPD2     H 8427   2.179   3.765  16.538 -0.7419 -0.5756 -1.6205
  568MPD2    H1 8428   2.392   3.918  16.187 -0.7813  1.0065 -0.5146
  568MPD2    H2 8429   2.592   3.704  16.494 -0.1464  0.5761  0.9288
  568MPD2    H3 8430   2.596   3.824  16.296 -2.1164  2.0311 -3.7112
  568MPD2     N 8431   2.134   3.898  16.305 -0.2118  0.2787 -0.1928
  568MPD2    H5 8432   2.063   3.880  16.376  1.9625 -0.1437  1.8843
  568MPD2    N1 8433   2.386   3.652  16.648 -0.7616 -0.2151  0.2963
  568MPD2    H7 8434   2.476   3.608  16.667 -0.3332  0.5251  0.0069
  569TMC3    C1 8435   2.000   4.045  16.184 -0.1194 -0.5286 -0.4457
  569TMC3    C2 8436   1.889   4.028  16.272 -0.4469  0.4135  0.3579
  569TMC3    C3 8437   1.795   4.128  16.281  0.1015 -0.5427 -0.4412
  569TMC3    C4 8438   2.010   4.165  16.114 -0.0224  0.0518  0.1907
  569TMC3    C5 8439   1.905   4.258  16.122 -0.6201 -0.5056  0.5226
  569TMC3    C6 8440   1.796   4.234  16.195  0.4211 -0.4016  0.6499
  569TMC3     C 8441   2.119   3.968  16.191  0.4750 -0.3370 -0.2012
  569TMC3     O 8442   2.200   3.994  16.107 -0.0061  0.0485 -0.1485
  569TMC3     H 8443   1.873   3.936  16.328  0.3219 -0.3369 -0.6393
  569TMC3    H1 8444   2.101   4.183  16.058  0.0590  0.3873  0.4330
  569TMC3    H2 8445   1.718   4.309  16.193 -0.3846 -1.2770 -1.3851
  569TMC3    C7 8446   1.924   4.385  16.054  0.0580 -0.6479 -0.8751
  569TMC3    C8 8447   1.671   4.087  16.348  0.1623  0.2254  0.0992
  569TMC3    O1 8448   2.005   4.386  15.965 -0.0736 -0.1569 -0.1127
  569TMC3    O2 8449   1.571   4.116  16.283  0.6739 -0.5235  0.5457
  570TMC3    C1 8450   1.088   2.768  16.003  0.0991 -0.6895 -0.6985
  570TMC3    C2 8451   1.188   2.753  15.908  0.1067 -0.0471  0.3961
  570TMC3    C3 8452   1.227   2.865  15.848  0.4006 -0.9927  0.3937
  570TMC3    C4 8453   1.031   2.889  16.038  0.0071  0.5016  0.1987
  570TMC3    C5 8454   1.074   2.997  15.966  0.1083 -0.3826  0.0037
  570TMC3    C6 8455   1.173   2.986  15.872 -0.3568 -0.2261 -0.7820
  570TMC3     C 8456   1.031   2.647  16.055  0.4288 -0.1887 -0.7475
  570TMC3     O 8457   1.055   2.543  16.004  0.2122 -0.0207  0.3018
  570TMC3     H 8458   1.231   2.656  15.889 -1.9094 -1.2324  1.9538
  570TMC3    H1 8459   0.943   2.894  16.101 -0.3268  0.1092 -0.2379
  570TMC3    H2 8460   1.204   3.064  15.802 -0.1244 -0.0053 -0.4342
  570TMC3    C7 8461   1.054   3.123  16.040 -0.0048 -0.2144 -0.1625
  570TMC3    C8 8462   1.356   2.885  15.777 -0.0510 -0.1750  0.3681
  570TMC3    O1 8463   1.008   3.131  16.152 -0.0930 -0.3275  0.0084
  570TMC3    O2 8464   1.409   2.994  15.803 -0.0009  0.2170 -0.2637
  571MPD2     C 8465   4.464   3.933  17.108  0.2489  0.5465  0.4378
  571MPD2    C1 8466   4.404   3.840  17.195 -0.1359 -0.3321  0.4161
  571MPD2    C2 8467   4.296   3.879  17.277  0.2261  0.1715  0.4413
  571MPD2    C3 8468   4.249   4.012  17.268 -0.3956 -0.7836  0.2281
  571MPD2    C4 8469   4.305   4.107  17.184 -0.0872  0.3812  0.0256
  571MPD2    C5 8470   4.419   4.068  17.109 -0.3036  0.1222  0.1719
  571MPD2     H 8471   4.250   3.798  17.332 -1.6777 -1.0091 -2.8535
  571MPD2    H1 8472   4.259   4.204  17.167  1.1355  0.9404 -0.0837
  571MPD2    H2 8473   4.552   3.903  17.053  1.0074  0.6956  1.5783
  571MPD2    H3 8474   4.470   4.141  17.046 -0.8057  1.9429  1.8722
  571MPD2     N 8475   4.145   4.059  17.347  0.0154  0.0077  0.1627
  571MPD2    H5 8476   4.120   4.156  17.335 -2.1547 -0.3863  1.7180
  571MPD2    N1 8477   4.456   3.702  17.188  0.3567 -0.2448  0.2545
  571MPD2    H7 8478   4.532   3.695  17.121  1.4054  1.0362  1.3073
  572TMC3    C1 8479   4.043   4.080  17.558 -0.1170  0.3645  0.4274
  572TMC3    C2 8480   4.023   4.011  17.678  0.0279  0.6789  0.2182
  572TMC3    C3 8481   4.077   4.056   0.099  0.3058 -0.7269 -0.2603
  572TMC3    C4 8482   4.099   4.203  17.567  0.0279 -0.4998  0.0503
  572TMC3    C5 8483   4.142   4.249  17.686 -0.0083 -0.0640  0.8080
  572TMC3    C6 8484   4.125   4.181   0.110 -0.3029 -0.8266 -0.1225
  572TMC3     C 8485   4.076   3.993  17.447  0.5150  0.8160  0.3316
  572TMC3     O 8486   4.071   3.872  17.458 -0.5649 -0.8229 -0.6486
  572TMC3     H 8487   4.001   3.905  17.683  1.2666  0.5156  2.1622
  572TMC3    H1 8488   4.120   4.257  17.475  0.5720 -0.7664  0.0173
  572TMC3    H2 8489   4.182   4.218   0.194  0.6301 -0.8681 -0.7290
  572TMC3    C7 8490   4.211   4.378  17.683  0.0195  0.2607 -0.2713
  572TMC3    C8 8491   4.157   3.956   0.165  0.6676 -0.5254 -0.0408
  572TMC3    O1 8492   4.188   4.446  17.585  0.4520  0.0799 -0.1113
  572TMC3    O2 8493   4.190   3.861   0.093  0.4777  0.1914 -0.0273
  573MPD2     C 8494   0.551   4.492   0.865 -0.5472 -0.2035  0.3325
  573MPD2    C1 8495   0.613   4.609   0.843  0.2243  0.4551 -0.1015
  573MPD2    C2 8496   0.612   4.661   0.712 -0.0294 -0.1398 -0.1335
  573MPD2    C3 8497   0.534   4.595   0.615  0.9822 -0.3200 -0.0131
  573MPD2    C4 8498   0.465   4.488   0.651 -0.4018 -0.7369  0.1633
  573MPD2    C5 8499   0.481   4.431   0.770 -0.1680 -0.6837 -0.0115
  573MPD2     H 8500   0.664   0.026   0.680 -1.1397  0.4633 -0.2490
  573MPD2    H1 8501   0.407   4.436   0.575  0.6931  0.0085 -1.1855
  573MPD2    H2 8502   0.570   4.435   0.955  0.3453 -0.9253 -0.3083
  573MPD2    H3 8503   0.433   4.338   0.798 -0.7113  0.0078  1.3595
  573MPD2     N 8504   0.499   4.660   0.492 -0.1431 -0.3232  0.4214
  573MPD2    H5 8505   0.423   4.621   0.437 -0.2592  0.2357  0.1895
  573MPD2    N1 8506   0.691   4.672   0.949 -0.1754  0.5007  0.4157
  573MPD2    H7 8507   0.701   4.614   1.032 -1.1056  1.8354  1.4428
  574TMC3    C1 8508   0.517   0.070   0.310 -0.3848 -0.3264 -0.7589
  574TMC3    C2 8509   0.391   0.126   0.317  0.1196 -0.0891 -0.7829
  574TMC3    C3 8510   0.351   0.200   0.215  0.5417  0.0048 -0.0323
  574TMC3    C4 8511   0.599   0.096   0.200  0.2119 -1.2524 -0.0803
  574TMC3    C5 8512   0.550   0.169   0.095 -0.3821 -0.2344  0.0466
  574TMC3    C6 8513   0.423   0.220   0.099 -0.3119 -0.3955  0.1155
  574TMC3     C 8514   0.578   0.027   0.428 -0.3936 -0.0150 -0.7190
  574TMC3     O 8515   0.694   0.051   0.454  0.2377  0.1568 -0.1267
  574TMC3     H 8516   0.324   0.122   0.402 -0.5972  2.5781 -1.2112
  574TMC3    H1 8517   0.702   0.064   0.195  1.4328  2.5846  0.6351
  574TMC3    H2 8518   0.366   0.258   0.015  0.3700  3.6713  1.5173
  574TMC3    C7 8519   0.586   0.107  17.665  0.5053 -0.7942  0.3842
  574TMC3    C8 8520   0.234   0.282   0.248  0.5197  0.1543 -0.9231
  574TMC3    O1 8521   0.637   4.719  17.665  0.2441  0.1001 -0.1359
  574TMC3    O2 8522   0.158   0.246   0.339  0.3505  0.4651  0.8231
  575TMC3    C1 8523   2.516   0.714   9.959  0.6081  0.4804 -0.4874
  575TMC3    C2 8524   2.414   0.709   9.868  0.6053 -0.2988  1.1144
  575TMC3    C3 8525   2.330   0.812   9.873 -0.0253 -0.2034  0.2989
  575TMC3    C4 8526   2.535   0.826  10.040  0.2564 -0.3739 -1.4498
  575TMC3    C5 8527   2.433   0.917  10.053 -1.0805  0.4033 -0.1215
  575TMC3    C6 8528   2.326   0.909   9.969  0.3741  0.0999 -1.4063
  575TMC3     C 8529   2.624   0.614   9.957  0.4372 -0.3297  0.1353
  575TMC3     O 8530   2.735   0.640  10.010  0.4628 -0.1387 -0.0663
  575TMC3     H 8531   2.407   0.633   9.791 -0.7655 -0.4355  1.3697
  575TMC3    H1 8532   2.629   0.842  10.092 -1.0299 -0.5813  0.9588
  575TMC3    H2 8533   2.239   0.970   9.987  0.2723  0.2793 -2.5014
  575TMC3    C7 8534   2.456   1.050  10.115 -0.5365  0.5211  0.0693
  575TMC3    C8 8535   2.227   0.833   9.775  0.1451 -0.2876  0.0677
  575TMC3    O1 8536   2.381   1.138  10.080 -0.0863  1.3194  0.2712
  575TMC3    O2 8537   2.212   0.739   9.702  0.2743 -0.1884  0.3660
  576MPD2     C 8538   2.038   3.467  12.722 -0.7560  0.6690 -0.2660
  576MPD2    C1 8539   2.162   3.409  12.721 -0.7716 -0.0395  1.0186
  576MPD2    C2 8540   2.216   3.354  12.835 -0.4021 -0.4393 -0.0558
  576MPD2    C3 8541   2.142   3.371  12.959  0.0547  0.3202  0.1062
  576MPD2    C4 8542   2.026   3.445  12.961 -0.9849 -0.2015 -0.0702
  576MPD2    C5 8543   1.976   3.489  12.843 -0.2587 -0.3329 -0.6388
  576MPD2     H 8544   2.311   3.301  12.826 -0.6930 -1.0109  0.2633
  576MPD2    H1 8545   1.970   3.479  13.048  0.6105  1.4184  0.3317
  576MPD2    H2 8546   2.001   3.518  12.634  2.1114  0.9269 -1.3265
  576MPD2    H3 8547   1.883   3.545  12.845  0.2613  0.4668  0.7569
  576MPD2     N 8548   2.205   3.319  13.079 -0.2275 -0.2855 -0.0606
  576MPD2    H5 8549   2.301   3.286  13.069 -0.5941 -1.2214 -0.4369
  576MPD2    N1 8550   2.246   3.397  12.610  0.5508 -0.3056 -0.0182
  576MPD2    H7 8551   2.337   3.355  12.627  0.0498  0.3790  4.4586
  577TMC3    C1 8552   2.343   3.429  12.413 -0.0091 -0.2026 -0.1873
  577TMC3    C2 8553   2.369   3.299  12.376  0.2575 -0.0908  0.1770
  577TMC3    C3 8554   2.475   3.284  12.289 -0.4426  0.3280  0.1195
  577TMC3    C4 8555   2.394   3.542  12.358 -0.8055  0.2531 -0.5392
  577TMC3    C5 8556   2.490   3.519  12.264 -0.1848 -0.0090 -1.1855
  577TMC3    C6 8557   2.540   3.392  12.241 -0.0935  0.7350 -0.0070
  577TMC3     C 8558   2.222   3.447  12.484  0.0795  0.1656  0.5184
  577TMC3     O 8559   2.132   3.514  12.441 -0.3196  0.3364  0.0094
  577TMC3     H 8560   2.316   3.211  12.410  1.2206 -0.9983 -0.6727
  577TMC3    H1 8561   2.372   3.644  12.387 -1.3386  0.2890 -1.0721
  577TMC3    H2 8562   2.628   3.388  12.178 -0.2735  0.4879 -0.2416
  577TMC3    C7 8563   2.547   3.639  12.207 -0.7558  0.0548  0.7739
  577TMC3    C8 8564   2.521   3.147  12.251 -0.2563 -0.9033 -0.3249
  577TMC3    O1 8565   2.546   3.743  12.269  0.3763  0.0110  0.0371
  577TMC3    O2 8566   2.468   3.048  12.312 -0.4307  0.6713 -0.0250
  578MPD2     C 8567   1.615   1.990   1.675 -0.1097 -0.0548 -0.4014
  578MPD2    C1 8568   1.610   1.996   1.539  0.1734  0.4030  0.6944
  578MPD2    C2 8569   1.641   1.882   1.467 -0.0647  0.3240 -0.4035
  578MPD2    C3 8570   1.691   1.764   1.530  0.3310  0.0333  0.3267
  578MPD2    C4 8571   1.716   1.779   1.662  0.3456  0.5731  0.0385
  578MPD2    C5 8572   1.675   1.883   1.739 -0.5793  0.0762 -0.0918
  578MPD2     H 8573   1.630   1.876   1.359 -0.6418 -1.3774 -0.2592
  578MPD2    H1 8574   1.764   1.707   1.726  0.8296 -0.2420 -1.2400
  578MPD2    H2 8575   1.565   2.066   1.734  0.0062  0.4044 -0.8954
  578MPD2    H3 8576   1.695   1.893   1.845  1.1172  1.3851 -0.5311
  578MPD2     N 8577   1.726   1.648   1.451 -0.0875 -0.4513  0.3227
  578MPD2    H5 8578   1.690   1.641   1.356 -0.6344  0.9399  0.4140
  578MPD2    N1 8579   1.565   2.118   1.479 -0.8618 -0.2137  0.4708
  578MPD2    H7 8580   1.537   2.193   1.541  2.3041  0.7399  0.7663
  579TMC3    C1 8581   1.834   1.455   1.400 -0.5532  0.1460  0.6341
  579TMC3    C2 8582   1.963   1.415   1.390 -0.5680 -0.2202  0.3266
  579TMC3    C3 8583   1.990   1.287   1.365 -0.3748  0.7629  0.1930
  579TMC3    C4 8584   1.735   1.369   1.382 -0.4932 -0.2801 -0.0218
  579TMC3    C5 8585   1.761   1.240   1.344 -0.4597 -0.2440 -0.0130
  579TMC3    C6 8586   1.892   1.196   1.349 -0.3532 -0.2685  0.5823
  579TMC3     C 8587   1.811   1.552   1.496  0.3927 -0.8094  0.7531
  579TMC3     O 8588   1.864   1.542   1.604 -0.1110 -0.3090  0.1179
  579TMC3     H 8589   2.041   1.479   1.430 -0.6663 -0.4335  0.8588
  579TMC3    H1 8590   1.632   1.399   1.367 -0.9382 -2.3662 -1.3156
  579TMC3    H2 8591   1.918   1.096   1.316 -0.1888 -0.7548  2.2104
  579TMC3    C7 8592   1.657   1.142   1.316  0.5776 -0.2388 -0.8101
  579TMC3    C8 8593   2.132   1.246   1.353 -0.3222  0.5341  1.1063
  579TMC3    O1 8594   1.699   1.028   1.312 -0.1808  0.2940  0.2439
  579TMC3    O2 8595   2.157   1.126   1.357  0.5897 -0.2163 -0.3040
  580TMC3    C1 8596   0.634   2.861  12.029  0.6248  0.3406  0.3709
  580TMC3    C2 8597   0.715   2.957  11.965  0.2550 -0.1681  0.5688
  580TMC3    C3 8598   0.848   2.913  11.943 -0.1543  0.1175 -0.1430
  580TMC3    C4 8599   0.680   2.747  12.064  0.4498  0.3552 -0.0742
  580TMC3    C5 8600   0.809   2.707  12.041 -0.1591 -0.3371 -0.1673
  580TMC3    C6 8601   0.899   2.793  11.980  0.2414 -0.3360 -0.4545
  580TMC3     C 8602   0.489   2.884  12.040  0.6650 -0.3321  0.2203
  580TMC3     O 8603   0.424   2.801  12.097  0.7659 -0.2922  0.6436
  580TMC3     H 8604   0.693   3.056  11.928  2.0034  1.2606  3.3736
  580TMC3    H1 8605   0.615   2.672  12.107  0.4715  1.2719  1.5391
  580TMC3    H2 8606   1.004   2.773  11.963 -0.1109 -2.2834 -0.2786
  580TMC3    C7 8607   0.854   2.591  12.118  0.1145 -0.4194  0.1101
  580TMC3    C8 8608   0.904   2.983  11.826  0.5578  0.5391  0.0686
  580TMC3    O1 8609   0.951   2.602  12.190 -0.7385 -0.1821 -0.7782
  580TMC3    O2 8610   0.859   3.090  11.782  0.0305  0.3149  0.5325
  581MPD2     C 8611   3.244   1.796  15.079 -0.6095  0.0619  0.3394
  581MPD2    C1 8612   3.277   1.927  15.098 -0.5369 -0.3752 -0.3255
  581MPD2    C2 8613   3.174   2.016  15.110  0.0689 -0.6347 -0.2164
  581MPD2    C3 8614   3.045   1.981  15.087  0.0043 -0.7991  0.4092
  581MPD2    C4 8615   3.016   1.849  15.048 -0.0345  0.2212 -1.3994
  581MPD2    C5 8616   3.113   1.761  15.058 -0.3252 -0.1408  0.0164
  581MPD2     H 8617   3.193   2.117  15.143 -1.9835  0.0202 -1.0333
  581MPD2    H1 8618   2.920   1.817  15.009 -1.8796  0.5746  2.9177
  581MPD2    H2 8619   3.322   1.723  15.058 -0.8323 -0.4477  1.2545
  581MPD2    H3 8620   3.090   1.658  15.037 -0.6083 -0.2152  0.7014
  581MPD2     N 8621   2.956   2.090  15.078 -0.6285  0.5767  0.3304
  581MPD2    H5 8622   2.995   2.184  15.079  0.0036  0.3335 -1.5163
  581MPD2    N1 8623   3.409   1.956  15.129  0.1649 -0.2632 -0.2978
  581MPD2    H7 8624   3.471   1.876  15.135 -0.4402 -0.7758 -0.7945
  582TMC3    C1 8625   3.583   2.058  15.254 -0.4264 -0.3753  0.3922
  582TMC3    C2 8626   3.593   2.139  15.362 -0.4005 -1.0253  0.1992
  582TMC3    C3 8627   3.670   2.105  15.470  0.2490  0.4108 -1.0213
  582TMC3    C4 8628   3.640   1.930  15.258  0.6517 -0.0027  0.5761
  582TMC3    C5 8629   3.721   1.904  15.365  0.4622 -0.2688  0.1136
  582TMC3    C6 8630   3.749   1.991  15.462  0.5687 -0.4001  0.6136
  582TMC3     C 8631   3.453   2.074  15.181 -0.3372 -0.1590 -0.5100
  582TMC3     O 8632   3.388   2.168  15.217 -0.6143 -0.7368  0.0783
  582TMC3     H 8633   3.540   2.233  15.356  0.2684 -0.6165  0.8110
  582TMC3    H1 8634   3.645   1.861  15.175  1.4743  0.0151  0.6179
  582TMC3    H2 8635   3.809   1.948  15.541 -2.7330 -2.2445  2.1353
  582TMC3    C7 8636   3.750   1.762  15.404  0.2756 -0.2683  0.3433
  582TMC3    C8 8637   3.647   2.172  15.594 -0.3460 -0.6379  0.2619
  582TMC3    O1 8638   3.867   1.748  15.423 -0.3754 -0.0537 -0.3704
  582TMC3    O2 8639   3.541   2.228  15.608  0.5670 -0.3539 -0.2478
  583MPD2     C 8640   3.489   3.145  16.887  0.3794 -0.3379  0.2980
  583MPD2    C1 8641   3.422   3.263  16.866 -1.1868 -0.7043 -0.3910
  583MPD2    C2 8642   3.322   3.304  16.948  0.2561  0.4497 -0.0928
  583MPD2    C3 8643   3.307   3.231  17.065 -0.0984 -0.5320 -0.3706
  583MPD2    C4 8644   3.378   3.115  17.090  0.1443 -0.3266 -0.3128
  583MPD2    C5 8645   3.466   3.069  16.997 -0.8339 -0.1181 -0.0660
  583MPD2     H 8646   3.265   3.394  16.931 -2.5730 -1.8810 -2.7980
  583MPD2    H1 8647   3.361   3.056  17.179 -2.9191 -0.0743 -0.7173
  583MPD2    H2 8648   3.568   3.109  16.822  1.4810 -0.6311  1.8023
  583MPD2    H3 8649   3.520   2.976  17.015 -0.0550  0.2368 -0.5686
  583MPD2     N 8650   3.217   3.284  17.158 -0.2756  0.0141 -0.0632
  583MPD2    H5 8651   3.179   3.376  17.139 -1.2070 -0.3509  0.0283
  583MPD2    N1 8652   3.435   3.336  16.741 -0.0683  0.1171 -0.6280
  583MPD2    H7 8653   3.389   3.426  16.732  0.6753  0.3240 -2.4455
  584TMC3    C1 8654   3.120   3.326  17.374 -0.5305  0.4865 -0.4801
  584TMC3    C2 8655   3.042   3.431  17.323 -0.0175 -0.0116  0.6270
  584TMC3    C3 8656   3.003   3.541  17.404  0.1532 -0.0965 -0.4850
  584TMC3    C4 8657   3.152   3.325  17.504  0.8079  0.2112  0.4479
  584TMC3    C5 8658   3.100   3.419  17.584 -0.3898 -0.0666 -0.3683
  584TMC3    C6 8659   3.035   3.532  17.535  0.5893 -0.1226  0.4585
  584TMC3     C 8660   3.193   3.237  17.287  0.1141 -0.7719  0.5400
  584TMC3     O 8661   3.229   3.134  17.340 -0.3921  0.4195  0.0450
  584TMC3     H 8662   3.015   3.441  17.219 -0.1485  0.4037  0.7032
  584TMC3    H1 8663   3.204   3.241  17.549  1.0815  0.6095  0.8696
  584TMC3    H2 8664   2.998   3.607  17.604  3.8641  1.6160  0.3688
  584TMC3    C7 8665   3.125   3.408   0.033  0.1757  0.0003 -0.3493
  584TMC3    C8 8666   2.906   3.641  17.359  0.2747 -0.6345  0.2185
  584TMC3    O1 8667   3.186   3.308   0.061  0.3434 -0.0995 -0.1364
  584TMC3    O2 8668   2.843   3.619  17.255  0.3537 -0.2709 -0.1263
  585MPD2     C 8669   3.146   2.400   0.587  0.0629 -0.1432  0.3641
  585MPD2    C1 8670   3.144   2.305   0.489  0.1368 -0.2854  0.3230
  585MPD2    C2 8671   3.168   2.171   0.531  0.7263  0.4247 -0.4249
  585MPD2    C3 8672   3.189   2.140   0.666  0.5598  0.6042 -0.0168
  585MPD2    C4 8673   3.182   2.234   0.758  0.3115 -0.1110  0.5336
  585MPD2    C5 8674   3.163   2.357   0.718  0.3949 -1.0890  0.6696
  585MPD2     H 8675   3.166   2.089   0.460  0.0009  0.3050 -0.2681
  585MPD2    H1 8676   3.198   2.201   0.860 -1.1535 -0.6880  0.5691
  585MPD2    H2 8677   3.141   2.508   0.579  1.5170 -0.1265 -0.2664
  585MPD2    H3 8678   3.175   2.436   0.792  0.3528 -1.9836  1.6296
  585MPD2     N 8679   3.207   2.005   0.715 -0.1150  0.1163 -0.2704
  585MPD2    H5 8680   3.219   1.991   0.814  0.5320 -0.6132 -0.4508
  585MPD2    N1 8681   3.106   2.341   0.358  0.2100  0.6919  0.4151
  585MPD2    H7 8682   3.093   2.441   0.344  1.4594  1.4435  4.7599
  586TMC3    C1 8683   3.198   1.776   0.721  0.3654 -0.3061  0.2917
  586TMC3    C2 8684   3.233   1.665   0.642  0.4597 -0.0481  0.1447
  586TMC3    C3 8685   3.154   1.555   0.641 -0.3873  0.1485  0.3047
  586TMC3    C4 8686   3.082   1.770   0.795 -0.1599 -0.4307  0.2021
  586TMC3    C5 8687   3.012   1.657   0.798 -0.2608 -0.7785  1.3032
  586TMC3    C6 8688   3.039   1.544   0.721 -0.1450  0.4601 -0.0983
  586TMC3     C 8689   3.212   1.895   0.635 -0.4729 -0.7103  0.0236
  586TMC3     O 8690   3.220   1.880   0.516  0.2659 -0.1573 -0.0791
  586TMC3     H 8691   3.323   1.658   0.582  0.6789  0.2754  0.4363
  586TMC3    H1 8692   3.059   1.850   0.864 -1.6357 -1.5336  0.9742
  586TMC3    H2 8693   2.969   1.462   0.730 -1.2562  1.4495  0.2883
  586TMC3    C7 8694   2.874   1.690   0.760 -0.3457  0.0964 -0.4347
  586TMC3    C8 8695   3.106   1.529   0.509 -0.3559  0.3023  0.8545
  586TMC3    O1 8696   2.791   1.599   0.754 -0.2950  0.7832  0.1607
  586TMC3    O2 8697   3.044   1.423   0.509 -0.7832 -0.1182 -0.4158
  587TMC3    C1 8698   0.124   0.942  16.764  0.3024  0.5363  0.3744
  587TMC3    C2 8699   0.118   1.067  16.700 -0.5278 -0.4485  1.1630
  587TMC3    C3 8700   0.209   1.093  16.599  0.1969 -0.1154 -0.2071
  587TMC3    C4 8701   0.222   0.855  16.735 -0.1138  0.1593 -0.3397
  587TMC3    C5 8702   0.302   0.882  16.626 -0.9434 -0.3578 -0.0957
  587TMC3    C6 8703   0.287   0.991  16.548  0.1463  0.1041  0.5085
  587TMC3     C 8704   0.015   0.896  16.845  0.0855  0.0151  0.4193
  587TMC3     O 8705   0.022   0.799  16.914  0.1658  0.1578  0.2976
  587TMC3     H 8706   0.044   1.134  16.743 -0.5126  2.3177 -3.0654
  587TMC3    H1 8707   0.226   0.758  16.784  0.4621  0.7862  0.8821
  587TMC3    H2 8708   0.351   1.004  16.461 -1.5947  0.1912 -0.7669
  587TMC3    C7 8709   0.425   0.817  16.625  0.0891 -0.4852  0.3060
  587TMC3    C8 8710   0.214   1.220  16.529 -0.3337  0.1081 -0.7755
  587TMC3    O1 8711   0.434   0.720  16.699  0.2902  0.1406  0.1720
  587TMC3    O2 8712   0.285   1.233  16.433 -0.7543  0.6055 -0.6736
  588TMC3    C1 8713   2.502   3.927   9.574  0.1570 -0.0756  0.1444
  588TMC3    C2 8714   2.441   3.801   9.563 -0.8776 -0.2028 -0.2118
  588TMC3    C3 8715   2.492   3.699   9.640  0.0792 -0.9954 -0.1123
  588TMC3    C4 8716   2.594   3.954   9.675 -0.3135 -0.4139 -0.0323
  588TMC3    C5 8717   2.638   3.852   9.757 -0.4103  0.1718  0.0872
  588TMC3    C6 8718   2.584   3.725   9.736  0.3711  0.0531 -0.5999
  588TMC3     C 8719   2.412   4.044   9.540 -0.5403  0.1627  0.7694
  588TMC3     O 8720   2.374   4.053   9.423 -0.2406 -0.1340 -0.0775
  588TMC3     H 8721   2.353   3.791   9.501  0.4632  1.8277 -2.4584
  588TMC3    H1 8722   2.629   4.056   9.685  0.0918 -0.4623 -0.9939
  588TMC3    H2 8723   2.617   3.642   9.797  2.0600  0.5503 -0.8477
  588TMC3    C7 8724   2.698   3.888   9.887  0.2368  0.0469 -0.8174
  588TMC3    C8 8725   2.420   3.575   9.630 -0.3599 -0.2869  0.2324
  588TMC3    O1 8726   2.729   3.799   9.964 -0.2130  0.5872 -0.5634
  588TMC3    O2 8727   2.313   3.589   9.570 -0.1024  0.9291  0.3707
  589TMC3    C1 8728   1.744   0.128   1.867 -0.1054  0.0934  0.2561
  589TMC3    C2 8729   1.849   0.057   1.921  1.1037 -0.2488 -0.1018
  589TMC3    C3 8730   1.943   0.013   1.831 -0.0431 -0.7594 -0.1400
  589TMC3    C4 8731   1.728   0.151   1.732  0.4832  0.1401  0.1487
  589TMC3    C5 8732   1.813   0.088   1.650  0.3718  0.0793 -0.2711
  589TMC3    C6 8733   1.925   0.018   1.696  0.5147  0.1814 -0.0943
  589TMC3     C 8734   1.665   0.210   1.958  0.2742 -0.3863  0.1866
  589TMC3     O 8735   1.587   0.282   1.903  0.0478  0.2012 -0.0543
  589TMC3     H 8736   1.875   0.044   2.026  2.4569 -1.1040 -0.5421
  589TMC3    H1 8737   1.640   0.195   1.686 -0.6858 -0.9623  1.3098
  589TMC3    H2 8738   1.993   4.690   1.629 -0.4375 -0.4459 -0.5731
  589TMC3    C7 8739   1.792   0.080   1.510 -0.1704 -0.1141  0.0990
  589TMC3    C8 8740   2.047   4.655   1.888  0.5055 -0.2879  0.8191
  589TMC3    O1 8741   1.833   4.709   1.444 -0.2575  0.0722  0.4570
  589TMC3    O2 8742   2.003   4.590   1.984  0.0144  0.5033 -0.3824
  590MPD2     C 8743   0.676   4.112  16.759 -0.4143  0.4065 -0.5807
  590MPD2    C1 8744   0.626   4.148  16.635 -0.2902  0.3863  0.4276
  590MPD2    C2 8745   0.702   4.240  16.562  0.1777 -0.0323 -0.0939
  590MPD2    C3 8746   0.827   4.273  16.610 -0.1673 -0.3970 -0.4314
  590MPD2    C4 8747   0.878   4.231  16.731 -0.3342  0.2985 -0.3128
  590MPD2    C5 8748   0.803   4.147  16.802 -0.4027 -0.2061 -0.4014
  590MPD2     H 8749   0.665   4.277  16.467  1.4382  1.1530 -0.1186
  590MPD2    H1 8750   0.977   4.263  16.762 -0.4926 -0.2267  0.7573
  590MPD2    H2 8751   0.615   4.059  16.831  1.6860  1.8716  2.2792
  590MPD2    H3 8752   0.837   4.119  16.901  2.5217 -0.5633 -1.5038
  590MPD2     N 8753   0.893   4.359  16.520  0.0290  0.2608  0.1678
  590MPD2    H5 8754   0.843   4.380  16.435  0.7505  0.7039 -0.1539
  590MPD2    N1 8755   0.498   4.102  16.599  0.1639  0.9870  0.5235
  590MPD2    H7 8756   0.443   4.067  16.677 -1.2643  1.1183 -0.4330
  591TMC3    C1 8757   1.033   4.513  16.423  0.3388  0.1372  0.1763
  591TMC3    C2 8758   1.169   4.531  16.393 -0.9498  0.0935 -0.6947
  591TMC3    C3 8759   1.195   4.611  16.283 -0.0644  0.3536  0.4996
  591TMC3    C4 8760   0.934   4.587  16.365  0.1596 -0.3019  0.0908
  591TMC3    C5 8761   0.974   4.681  16.274 -0.4114 -1.0202 -0.2673
  591TMC3    C6 8762   1.103   4.692  16.225 -0.1613  0.5923 -0.0384
  591TMC3     C 8763   1.013   4.420  16.529 -0.0882  0.8416  0.0951
  591TMC3     O 8764   1.098   4.407  16.616 -0.2206 -0.0586  0.0137
  591TMC3     H 8765   1.239   4.455  16.425 -1.1469  0.0570 -0.3458
  591TMC3    H1 8766   0.829   4.568  16.384 -0.0810 -3.5482 -4.3931
  591TMC3    H2 8767   1.124   0.031  16.139 -1.3958  1.7688  0.5094
  591TMC3    C7 8768   0.866   0.049  16.223 -0.1712  0.6574 -0.6651
  591TMC3    C8 8769   1.325   4.606  16.220  0.3370 -0.0166  0.5117
  591TMC3    O1 8770   0.753   0.011  16.234  0.0095  0.6139  0.2700
  591TMC3    O2 8771   1.374   4.493  16.221  0.5702 -0.2694 -0.1016
  592MPD2     C 8772   1.606   1.946  10.985  0.6512 -0.7482 -0.6794
  592MPD2    C1 8773   1.638   2.035  11.083 -0.2831 -0.6818  0.0082
  592MPD2    C2 8774   1.583   2.019  11.206  0.9792 -0.6017 -0.2276
  592MPD2    C3 8775   1.488   1.925  11.234  0.2539 -0.4017 -0.8577
  592MPD2    C4 8776   1.455   1.836  11.129  0.7535 -0.7674  0.8174
  592MPD2    C5 8777   1.514   1.845  11.010  0.2920 -0.7435 -0.0082
  592MPD2     H 8778   1.616   2.089  11.282  0.7891  0.6092 -1.2539
  592MPD2    H1 8779   1.379   1.759  11.131  0.4687 -0.4796  1.0657
  592MPD2    H2 8780   1.662   1.936  10.893 -1.0806  2.3426 -2.0905
  592MPD2    H3 8781   1.492   1.778  10.928  0.4101  0.0397 -0.6812
  592MPD2     N 8782   1.419   1.929  11.357  0.1110  0.2291 -0.1163
  592MPD2    H5 8783   1.447   2.000  11.424  1.8497 -0.6957  0.1450
  592MPD2    N1 8784   1.751   2.124  11.054  1.1288  0.9465 -0.1388
  592MPD2    H7 8785   1.781   2.127  10.957  1.1873  0.6813 -0.1281
  593TMC3    C1 8786   1.953   2.245  11.093  0.8882 -0.0660  0.0570
  593TMC3    C2 8787   2.045   2.292  11.183  0.8141 -0.0294 -0.2228
  593TMC3    C3 8788   2.148   2.370  11.141 -0.6499 -0.7258  0.6855
  593TMC3    C4 8789   1.962   2.290  10.961  0.1618 -0.3831  0.5563
  593TMC3    C5 8790   2.069   2.370  10.926 -0.1457  0.0662  0.4273
  593TMC3    C6 8791   2.163   2.412  11.014  0.0141  0.4207  0.7923
  593TMC3     C 8792   1.827   2.188  11.151 -0.1175  0.0325  0.2669
  593TMC3     O 8793   1.815   2.180  11.274  0.0325 -0.0335  0.3234
  593TMC3     H 8794   2.039   2.260  11.286 -2.0046 -0.2412 -0.4338
  593TMC3    H1 8795   1.889   2.260  10.887 -0.2139 -2.2046  1.6637
  593TMC3    H2 8796   2.259   2.449  10.981  0.5541 -1.6448  0.0167
  593TMC3    C7 8797   2.081   2.420  10.791 -0.1176  0.8883  0.3185
  593TMC3    C8 8798   2.211   2.452  11.246  0.3113 -0.3695  0.0880
  593TMC3    O1 8799   2.147   2.525  10.783 -0.0536  0.3126  0.0475
  593TMC3    O2 8800   2.258   2.559  11.209  0.0035 -0.0397  0.2350
  594MPD2     C 8801   0.283   0.820  13.964 -0.3645 -0.1613 -0.0693
  594MPD2    C1 8802   0.286   0.779  14.095 -0.0808 -0.0983  0.4157
  594MPD2    C2 8803   0.388   0.836  14.170 -0.1649  0.2562  0.7182
  594MPD2    C3 8804   0.468   0.932  14.123 -0.5363 -0.2330  0.6499
  594MPD2    C4 8805   0.468   0.967  13.990 -0.4737  0.6664 -0.1551
  594MPD2    C5 8806   0.378   0.905  13.914 -0.1764 -0.0743  0.2947
  594MPD2     H 8807   0.390   0.813  14.276 -0.6400 -0.8453  0.4863
  594MPD2    H1 8808   0.524   1.049  13.945 -0.8406  1.7547  1.3802
  594MPD2    H2 8809   0.221   0.769  13.891  0.0712 -0.7430 -0.0319
  594MPD2    H3 8810   0.371   0.934  13.810 -1.9640 -0.0917  0.4041
  594MPD2     N 8811   0.558   0.995  14.214  0.2249  0.8177  0.0676
  594MPD2    H5 8812   0.529   0.979  14.309  0.7633 -0.5035  0.0176
  594MPD2    N1 8813   0.187   0.687  14.140 -0.4632  0.3499  0.1644
  594MPD2    H7 8814   0.106   0.670  14.081 -1.4572  2.0054  1.0381
  595TMC3    C1 8815   0.827   1.343  14.382  0.1084 -0.2682 -0.2752
  595TMC3    C2 8816   0.814   1.240  14.288 -0.0846  0.0398  0.0531
  595TMC3    C3 8817   0.703   1.161  14.306 -0.1340 -0.1425  0.0155
  595TMC3    C4 8818   0.737   1.382  14.478 -0.2110 -0.0095 -0.1920
  595TMC3    C5 8819   0.620   1.310  14.473  0.5584  0.2806  0.3651
  595TMC3    C6 8820   0.603   1.200  14.388  0.1479 -0.5339  0.6462
  595TMC3     C 8821   0.956   1.405  14.392  0.8353 -0.4700  0.0448
  595TMC3     O 8822   0.963   1.508  14.456  0.0434 -0.4366 -0.4856
  595TMC3     H 8823   0.892   1.204  14.222  0.8162  1.2059  0.4811
  595TMC3    H1 8824   0.734   1.475  14.533  1.4447  0.4195 -0.8290
  595TMC3    H2 8825   0.521   1.131  14.404 -1.7145  1.3045 -0.8460
  595TMC3    C7 8826   0.515   1.340  14.567  0.8362 -0.6902  0.1848
  595TMC3    C8 8827   0.664   1.082  14.187  0.8785 -0.5327  0.2409
  595TMC3    O1 8828   0.401   1.321  14.534  0.4926  0.9572 -0.0357
  595TMC3    O2 8829   0.715   1.115  14.085 -0.3356  0.2935  0.1218
  596MPD2     C 8830   4.319   3.354  16.763  0.5496 -0.0834 -0.2361
  596MPD2    C1 8831   4.272   3.476  16.715 -0.1942  0.5707  0.7954
  596MPD2    C2 8832   4.269   3.500  16.584 -0.8694  0.2299  0.5380
  596MPD2    C3 8833   4.306   3.416  16.487  0.4328  0.1366  0.0440
  596MPD2    C4 8834   4.358   3.296  16.528 -0.0866  1.2263 -0.2548
  596MPD2    C5 8835   4.357   3.259  16.662 -0.5360  0.4024  0.5378
  596MPD2     H 8836   4.224   3.596  16.564  0.9450  1.3189  1.7136
  596MPD2    H1 8837   4.385   3.223  16.453 -1.0359  0.4484  0.1729
  596MPD2    H2 8838   4.329   3.329  16.868  0.7379 -1.8682 -0.6710
  596MPD2    H3 8839   4.385   3.158  16.692  2.4361  1.3578  0.9969
  596MPD2     N 8840   4.279   3.438  16.347 -0.0217 -0.2186 -0.0624
  596MPD2    H5 8841   4.295   3.365  16.278  0.7252  0.4042 -0.5503
  596MPD2    N1 8842   4.215   3.571  16.799  0.2309  0.1560  0.0060
  596MPD2    H7 8843   4.177   3.659  16.766  0.8075  0.5519  0.4059
  597TMC3    C1 8844   4.121   3.658  17.001  0.2969  0.6218 -0.5572
  597TMC3    C2 8845   4.150   3.787  16.960 -0.7528  0.1905  0.4470
  597TMC3    C3 8846   4.071   3.887  17.009  0.2455  0.2580 -0.0394
  597TMC3    C4 8847   4.019   3.634  17.089 -1.0449  0.4056  0.3633
  597TMC3    C5 8848   3.941   3.739  17.134 -0.1253  0.4800 -0.0730
  597TMC3    C6 8849   3.965   3.866  17.091 -0.4894  0.0409 -0.0405
  597TMC3     C 8850   4.184   3.547  16.933  0.5977 -0.0743  0.6572
  597TMC3     O 8851   4.175   3.442  16.997 -0.4038 -0.9721  0.1535
  597TMC3     H 8852   4.232   3.799  16.891 -1.6690 -2.1647 -1.0503
  597TMC3    H1 8853   3.992   3.532  17.117 -0.8471  0.6695  1.5388
  597TMC3    H2 8854   3.913   3.949  17.137 -0.0467 -0.0652  0.6419
  597TMC3    C7 8855   3.842   3.713  17.243  0.4874  0.2427  0.3915
  597TMC3    C8 8856   4.086   4.008  16.938 -0.8117  0.3922  0.0550
  597TMC3    O1 8857   3.850   3.607  17.306 -0.3615  0.7607 -0.0369
  597TMC3    O2 8858   4.166   4.010  16.845 -0.1487 -0.0643  0.1815
  598TMC3    C1 8859   2.328   0.962  16.206  0.4916  0.0110  0.4083
  598TMC3    C2 8860   2.372   0.861  16.281  0.1928 -0.2468  0.1695
  598TMC3    C3 8861   2.376   0.733  16.228 -0.0064 -0.4587 -0.1155
  598TMC3    C4 8862   2.315   0.938  16.069  0.5142 -0.3862  0.6897
  598TMC3    C5 8863   2.325   0.811  16.019  0.2289  0.6946 -0.1583
  598TMC3    C6 8864   2.363   0.705  16.101 -0.0782  0.2363 -0.7460
  598TMC3     C 8865   2.306   1.091  16.275  0.0566 -0.5631 -1.5034
  598TMC3     O 8866   2.399   1.143  16.334  0.3446  0.5207  0.0898
  598TMC3     H 8867   2.390   0.876  16.387 -1.6372  2.5364  0.0945
  598TMC3    H1 8868   2.287   1.021  16.004 -0.6593 -1.2336  0.1123
  598TMC3    H2 8869   2.398   0.618  16.047 -0.2157 -1.6358  2.1972
  598TMC3    C7 8870   2.355   0.794  15.880  0.5105 -0.0342  0.5407
  598TMC3    C8 8871   2.413   0.621  16.313  0.1868  0.4813 -0.5023
  598TMC3    O1 8872   2.322   0.691  15.822  0.5181  0.1803 -0.1000
  598TMC3    O2 8873   2.474   0.647  16.416 -0.4009 -0.0523 -0.0459
  599MPD2     C 8874   2.382   2.198  15.506 -0.2121  0.5118 -0.1338
  599MPD2    C1 8875   2.417   2.294  15.599 -0.1456 -0.6680 -0.8499
  599MPD2    C2 8876   2.322   2.370  15.659 -0.1024 -0.0120 -0.4377
  599MPD2    C3 8877   2.187   2.363  15.622  0.1171  0.2451 -0.1885
  599MPD2    C4 8878   2.148   2.270  15.523 -0.3090  0.6207 -0.0064
  599MPD2    C5 8879   2.247   2.191  15.464  0.6911  0.2567 -0.4467
  599MPD2     H 8880   2.341   2.438  15.741 -0.6422 -1.7134  1.1098
  599MPD2    H1 8881   2.048   2.264  15.481 -1.1030 -1.2825  2.1449
  599MPD2    H2 8882   2.453   2.120  15.480 -0.4111 -0.5691  2.5495
  599MPD2    H3 8883   2.215   2.116  15.392  3.8637  0.2628 -1.8191
  599MPD2     N 8884   2.091   2.452  15.679 -0.1409  0.5299  0.3129
  599MPD2    H5 8885   2.126   2.504  15.759 -1.3138  1.4981  0.1871
  599MPD2    N1 8886   2.550   2.281  15.648  0.1514  0.5291 -0.2260
  599MPD2    H7 8887   2.600   2.206  15.601 -0.6853 -1.4052  1.9930
  600TMC3    C1 8888   1.903   2.578  15.727  0.7814  0.7978  0.1059
  600TMC3    C2 8889   1.768   2.564  15.765 -0.7095 -0.1580 -0.9479
  600TMC3    C3 8890   1.726   2.639  15.869 -0.4153 -0.8410 -0.4846
  600TMC3    C4 8891   1.988   2.673  15.778  0.5422  0.4022 -0.6576
  600TMC3    C5 8892   1.929   2.757  15.865 -0.3728 -0.4076 -0.3404
  600TMC3    C6 8893   1.803   2.740  15.925 -0.2173 -0.2924  0.0075
  600TMC3     C 8894   1.960   2.477  15.645 -0.1238  0.3246 -0.1247
  600TMC3     O 8895   1.890   2.421  15.558 -0.2111  0.2838  0.1780
  600TMC3     H 8896   1.710   2.478  15.735 -0.5680 -0.7562  0.5176
  600TMC3    H1 8897   2.086   2.696  15.737  0.7918  0.5623  0.0282
  600TMC3    H2 8898   1.773   2.795  16.013  0.6718  0.8397 -0.4058
  600TMC3    C7 8899   2.003   2.875  15.907 -0.3120 -0.6191  0.2558
  600TMC3    C8 8900   1.589   2.620  15.916  0.1235  0.1775  0.1231
  600TMC3    O1 8901   2.128   2.870  15.901  0.2015  0.2807  0.0700
  600TMC3    O2 8902   1.529   2.515  15.890  0.0028 -0.2727 -0.3937
  601MPD2     C 8903   4.582   4.718   0.115 -0.4656  0.4654  0.4756
  601MPD2    C1 8904   4.480   0.005   0.020  0.0145 -0.6219  0.2807
  601MPD2    C2 8905   4.390   4.622  17.696  0.7714  0.6431  0.5272
  601MPD2    C3 8906   4.401   4.510   0.082  0.2232  0.7828  0.0170
  601MPD2    C4 8907   4.496   4.505   0.180 -0.0894  0.0722 -0.9526
  601MPD2    C5 8908   4.588   4.606   0.195  0.3424 -0.7140 -0.3967
  601MPD2     H 8909   4.302   4.638  17.635  0.6411 -0.2547  0.4871
  601MPD2    H1 8910   4.505   4.429   0.257 -1.1079  2.7100  1.7694
  601MPD2    H2 8911   4.653   0.075   0.132  0.1716 -0.4835  2.4184
  601MPD2    H3 8912   4.662   4.595   0.273  1.0246  3.1511 -0.5232
  601MPD2     N 8913   4.305   4.402   0.080 -0.0203 -0.3612 -0.3656
  601MPD2    H5 8914   4.320   4.329   0.149 -0.0771  0.2478  0.2835
  601MPD2    N1 8915   4.467   0.123  17.638  0.4028 -0.3984 -0.0857
  601MPD2    H7 8916   4.376   0.137  17.594 -0.2807 -1.3904  1.0180
  602TMC3    C1 8917   4.524   0.333  17.552  0.0744 -0.2214 -0.4138
  602TMC3    C2 8918   4.387   0.354  17.531  0.3775 -0.0201  0.1927
  602TMC3    C3 8919   4.355   0.468  17.465 -0.0796 -0.1334  0.4033
  602TMC3    C4 8920   4.624   0.415  17.507  0.2896  0.7310 -0.4414
  602TMC3    C5 8921   4.585   0.519  17.434  0.3133  0.4107  0.1969
  602TMC3    C6 8922   4.450   0.547  17.414  0.8419  0.1174  0.4746
  602TMC3     C 8923   4.567   0.219  17.627 -0.8171  0.5593  0.1311
  602TMC3     O 8924   4.681   0.218  17.660  0.0709 -0.1335  0.2380
  602TMC3     H 8925   4.312   0.298  17.586  1.0495 -1.2648 -0.1603
  602TMC3    H1 8926   4.724   0.407  17.547  0.9174 -0.7043 -2.2767
  602TMC3    H2 8927   4.421   0.624  17.344 -0.8234  0.2109  1.2691
  602TMC3    C7 8928   4.678   0.627  17.427  0.5450 -0.7514  0.1456
  602TMC3    C8 8929   4.216   0.500  17.430  0.2306 -0.2997  0.3171
  602TMC3    O1 8930   0.075   0.613  17.436  0.2264  0.1572 -0.3810
  602TMC3    O2 8931   4.155   0.409  17.374 -0.2877  0.2946  0.8728
  603TMC3    C1 8932   2.710   1.094  10.773 -0.0565 -0.0945  0.7856
  603TMC3    C2 8933   2.756   1.118  10.898  0.0201  0.1780  0.0616
  603TMC3    C3 8934   2.741   1.244  10.946 -0.2862  0.7265 -0.3424
  603TMC3    C4 8935   2.639   1.187  10.701  0.1098 -0.2422  0.1358
  603TMC3    C5 8936   2.626   1.312  10.757 -0.3163  0.1639 -0.3118
  603TMC3    C6 8937   2.686   1.346  10.875 -0.0752 -0.0266 -0.2905
  603TMC3     C 8938   2.712   0.957  10.719  0.4660  0.5080  0.1038
  603TMC3     O 8939   2.724   0.936  10.598  0.0333  0.2893  0.1835
  603TMC3     H 8940   2.807   1.036  10.948 -1.5051 -0.2164  0.9521
  603TMC3    H1 8941   2.613   1.161  10.599 -1.1290 -0.0350  0.3959
  603TMC3    H2 8942   2.652   1.440  10.916 -0.0469  0.7963 -2.1388
  603TMC3    C7 8943   2.555   1.428  10.688  0.1735  0.1898  0.3971
  603TMC3    C8 8944   2.785   1.272  11.085  0.3515  0.6509 -0.4937
  603TMC3    O1 8945   2.559   1.542  10.738  0.0683  0.1669  0.1715
  603TMC3    O2 8946   2.778   1.185  11.174 -0.3509 -0.5177 -0.4406
  604MPD2     C 8947   2.797   4.087  16.455 -0.2367 -0.3942  0.4378
  604MPD2    C1 8948   2.779   4.219  16.501 -0.6749 -0.2030 -0.3973
  604MPD2    C2 8949   2.841   4.322  16.423  0.2134  0.0427  0.6767
  604MPD2    C3 8950   2.922   4.292  16.314  0.2288 -0.6699 -0.2792
  604MPD2    C4 8951   2.948   4.161  16.280 -0.3641 -0.6087  0.2907
  604MPD2    C5 8952   2.885   4.063  16.351  0.0776  0.5006 -0.1636
  604MPD2     H 8953   2.824   4.427  16.445  1.1883  0.4179 -0.3358
  604MPD2    H1 8954   3.018   4.127  16.206  0.2182 -0.0731  0.5950
  604MPD2    H2 8955   2.759   3.996  16.500 -1.5036 -2.1457 -4.2684
  604MPD2    H3 8956   2.898   3.959  16.324  0.5740  0.5659 -0.1740
  604MPD2     N 8957   2.968   4.405  16.235  0.1280  0.3056 -0.5811
  604MPD2    H5 8958   2.945   4.497  16.273  0.0346  0.3764 -0.8075
  604MPD2    N1 8959   2.712   4.246  16.621 -0.5559 -0.2136  0.1065
  604MPD2    H7 8960   2.719   4.341  16.657  0.3899 -0.7059  1.2252
  605TMC3    C1 8961   2.615   4.223  16.838 -0.5840  0.3371  0.0335
  605TMC3    C2 8962   2.719   4.282  16.900  0.1042 -0.2687 -0.4664
  605TMC3    C3 8963   2.683   4.351  17.013 -0.1438 -0.0687 -0.5948
  605TMC3    C4 8964   2.489   4.194  16.879  0.0364 -0.3927 -0.3005
  605TMC3    C5 8965   2.459   4.272  16.994 -0.0792  0.6684 -0.3065
  605TMC3    C6 8966   2.551   4.345  17.058  0.1629 -0.1314  0.7779
  605TMC3     C 8967   2.651   4.161  16.709  0.4822 -0.4220 -0.9252
  605TMC3     O 8968   2.621   4.046  16.688  0.5360 -0.5247 -0.3595
  605TMC3     H 8969   2.813   4.301  16.850 -0.1925  1.2304 -0.4864
  605TMC3    H1 8970   2.416   4.138  16.820  2.6008  1.6210 -5.3880
  605TMC3    H2 8971   2.514   4.389  17.150  2.0243  0.4929  1.2148
  605TMC3    C7 8972   2.347   4.362  16.970 -0.5003 -0.2391  0.1192
  605TMC3    C8 8973   2.740   4.483  17.029  0.0578 -0.2954 -0.1326
  605TMC3    O1 8974   2.364   4.480  16.993  0.2646  0.2774 -0.1167
  605TMC3    O2 8975   2.860   4.484  16.999  0.0407 -0.6159  0.8069
  606TMC3    C1 8976   0.119   2.192  17.639 -0.3178  0.2781  0.4504
  606TMC3    C2 8977   0.202   2.181   0.055  0.0197 -0.2913  1.2793
  606TMC3    C3 8978   0.150   2.130   0.173 -0.8587  0.6334  0.3034
  606TMC3    C4 8979   4.704   2.155  17.647  0.5310  0.0390 -0.2301
  606TMC3    C5 8980   4.662   2.106   0.071  0.6636 -0.2740  0.0876
  606TMC3    C6 8981   0.017   2.091   0.182  0.0122  0.9247  0.6587
  606TMC3     C 8982   0.167   2.274  17.529 -0.3783 -0.1569 -0.0831
  606TMC3     O 8983   0.289   2.289  17.517  0.2843  0.0703 -0.4271
  606TMC3     H 8984   0.301   2.225   0.054 -0.4103  0.6689  1.0783
  606TMC3    H1 8985   4.635   2.153  17.563 -1.0178 -1.1590  1.0759
  606TMC3    H2 8986   4.692   2.052   0.270  2.7239 -0.1988  1.6826
  606TMC3    C7 8987   4.518   2.078   0.084  0.8742 -0.1951 -0.2885
  606TMC3    C8 8988   0.224   2.174   0.291 -0.1986 -0.3886  0.0040
  606TMC3    O1 8989   4.483   1.997   0.164  0.4553  0.3781  0.5860
  606TMC3    O2 8990   0.322   2.249   0.276 -0.6239  0.3834 -0.1980
  607MPD2     C 8991   1.513   1.525  11.491  0.1415  0.1600  0.6348
  607MPD2    C1 8992   1.583   1.633  11.544 -0.0840  0.4213  0.4606
  607MPD2    C2 8993   1.563   1.667  11.674 -0.4612  0.3221 -0.1056
  607MPD2    C3 8994   1.474   1.603  11.755 -0.4052  0.0438 -0.5321
  607MPD2    C4 8995   1.403   1.497  11.705  0.2511 -0.0147 -0.4442
  607MPD2    C5 8996   1.427   1.456  11.573  0.9029 -1.1412  0.1316
  607MPD2     H 8997   1.603   1.759  11.713  0.3555  0.0435 -0.2967
  607MPD2    H1 8998   1.337   1.437  11.768 -1.0840 -1.2416 -3.0310
  607MPD2    H2 8999   1.526   1.502  11.386  1.3564 -1.8501  1.2224
  607MPD2    H3 9000   1.367   1.381  11.522  0.3351 -0.8189  0.3215
  607MPD2     N 9001   1.474   1.649  11.886  0.3128 -0.2532 -0.6079
  607MPD2    H5 9002   1.532   1.730  11.903  3.1943 -2.2516 -0.9749
  607MPD2    N1 9003   1.678   1.708  11.475  0.4172 -0.4820  0.7629
  607MPD2    H7 9004   1.724   1.779  11.532 -1.4317 -0.8334  2.7301
  608TMC3    C1 9005   1.841   1.794  11.325  0.2546  0.3194 -0.4266
  608TMC3    C2 9006   1.866   1.885  11.433  0.3511 -0.9305 -0.0553
  608TMC3    C3 9007   1.977   1.965  11.416  0.2354 -0.3183  0.8267
  608TMC3    C4 9008   1.894   1.798  11.203  0.0410  0.1887  0.4260
  608TMC3    C5 9009   2.014   1.872  11.188  0.5460  0.4408 -0.1640
  608TMC3    C6 9010   2.053   1.948  11.296  0.3161  0.4254 -0.1729
  608TMC3     C 9011   1.729   1.696  11.346  0.3078 -0.6698 -0.1871
  608TMC3     O 9012   1.684   1.617  11.264 -0.1543  0.1280  0.1431
  608TMC3     H 9013   1.800   1.892  11.518  1.3082  1.6723  0.4778
  608TMC3    H1 9014   1.872   1.728  11.123  0.2026 -1.7290  2.0329
  608TMC3    H2 9015   2.150   1.994  11.282 -0.5142  1.8920 -1.2528
  608TMC3    C7 9016   2.086   1.864  11.062  0.0226 -0.7451 -0.1562
  608TMC3    C8 9017   2.030   2.042  11.526  0.3692 -0.2019  0.1658
  608TMC3    O1 9018   2.031   1.796  10.976  0.2289 -0.1493 -0.7151
  608TMC3    O2 9019   2.094   2.148  11.517  0.3513  0.1602 -0.3160
  609TMC3    C1 9020   0.573   4.593   9.167 -0.6293 -0.8484 -0.7617
  609TMC3    C2 9021   0.568   4.535   9.043 -0.1859 -0.2338 -0.9639
  609TMC3    C3 9022   0.670   4.457   9.001 -0.1333 -0.0234 -0.4815
  609TMC3    C4 9023   0.679   4.564   9.247 -0.2335  0.0332  0.6021
  609TMC3    C5 9024   0.786   4.492   9.195 -0.4033 -0.6787 -0.0876
  609TMC3    C6 9025   0.779   4.434   9.074  0.3786  0.0781  0.9546
  609TMC3     C 9026   0.477   4.701   9.196  0.4972 -0.0986  0.2334
  609TMC3     O 9027   0.374   4.699   9.131  0.3603 -0.1496 -0.1717
  609TMC3     H 9028   0.492   4.577   8.978  0.6089 -1.4278 -2.6414
  609TMC3    H1 9029   0.677   4.594   9.351  2.0044  1.1635  0.3305
  609TMC3    H2 9030   0.853   4.371   9.027  0.4149  1.2799 -0.6091
  609TMC3    C7 9031   0.878   4.443   9.300 -1.0129 -0.2561  0.2099
  609TMC3    C8 9032   0.666   4.397   8.874  0.2736  0.2044 -0.4156
  609TMC3    O1 9033   0.876   4.510   9.402 -0.0221 -0.1405 -0.5859
  609TMC3    O2 9034   0.772   4.368   8.824  0.2599  0.3373 -0.0264
  610TMC3    C1 9035   1.954   1.449  12.589 -0.2123 -0.2204  0.2132
  610TMC3    C2 9036   2.072   1.493  12.530  0.6011  0.5715 -0.6348
  610TMC3    C3 9037   2.183   1.418  12.547  0.1648 -0.0099 -0.0359
  610TMC3    C4 9038   1.954   1.339  12.665 -0.0031  0.3642  0.1070
  610TMC3    C5 9039   2.076   1.266  12.678  0.4395  1.1417 -0.0718
  610TMC3    C6 9040   2.188   1.302  12.615  1.2545 -0.5564  0.4522
  610TMC3     C 9041   1.835   1.522  12.580  0.8111 -0.4807  0.1867
  610TMC3     O 9042   1.731   1.453  12.601  0.3501 -0.4762  0.0958
  610TMC3     H 9043   2.061   1.588  12.478  2.2805  0.6898 -0.7750
  610TMC3    H1 9044   1.866   1.310  12.721 -0.2058  1.2448  0.2445
  610TMC3    H2 9045   2.273   1.235  12.608  1.3572 -0.6638  2.5353
  610TMC3    C7 9046   2.077   1.143  12.762  0.2681 -0.1026  0.2735
  610TMC3    C8 9047   2.302   1.437  12.461 -0.2191  0.5835  0.4039
  610TMC3    O1 9048   2.187   1.105  12.800 -0.5087 -0.1770  0.2265
  610TMC3    O2 9049   2.401   1.363  12.479  0.1147  0.2678  0.1201
  611MPD2     C 9050   1.252   1.603   9.821 -0.0875  0.5173 -0.2879
  611MPD2    C1 9051   1.258   1.466   9.861  0.6020 -0.5293 -0.4966
  611MPD2    C2 9052   1.381   1.412   9.898 -0.2474  0.4196 -0.0491
  611MPD2    C3 9053   1.498   1.492   9.902 -0.1870  0.0118 -0.0587
  611MPD2    C4 9054   1.487   1.619   9.859  0.0785 -0.0599 -0.3719
  611MPD2    C5 9055   1.367   1.675   9.830  0.3464 -0.1395  0.4312
  611MPD2     H 9056   1.380   1.315   9.947  0.0720  0.3004 -0.2751
  611MPD2    H1 9057   1.576   1.681   9.853 -0.1024  0.1341 -1.0738
  611MPD2    H2 9058   1.165   1.656   9.785 -1.1893 -0.9378  0.1926
  611MPD2    H3 9059   1.369   1.773   9.785 -0.8696 -1.1883 -1.9240
  611MPD2     N 9060   1.614   1.434   9.951 -0.1271  0.6300  0.4354
  611MPD2    H5 9061   1.698   1.490   9.961 -0.1390  0.7656 -0.2472
  611MPD2    N1 9062   1.138   1.396   9.860 -0.1692 -0.3367  0.0601
  611MPD2    H7 9063   1.067   1.449   9.811  0.9197  0.1646 -0.9678
  612TMC3    C1 9064   1.781   1.269  10.001 -0.3521 -0.6374 -0.5495
  612TMC3    C2 9065   1.863   1.364  10.047 -0.0239 -0.1837  0.6435
  612TMC3    C3 9066   1.985   1.329  10.088 -0.3943 -0.0540 -0.1484
  612TMC3    C4 9067   1.822   1.139  10.007  0.5730 -0.1101  0.6832
  612TMC3    C5 9068   1.948   1.105  10.051 -0.4077  0.1943 -0.3012
  612TMC3    C6 9069   2.030   1.199  10.090  0.0776 -0.7067 -0.5987
  612TMC3     C 9070   1.642   1.301   9.965  1.0390 -0.2652  0.8164
  612TMC3     O 9071   1.566   1.206   9.939 -0.1417  0.1195 -0.2446
  612TMC3     H 9072   1.835   1.468  10.039  0.9087 -0.1031 -1.6654
  612TMC3    H1 9073   1.755   1.054  10.002  1.0138 -0.4716  0.9309
  612TMC3    H2 9074   2.132   1.175  10.119 -0.4592  0.2344  2.0670
  612TMC3    C7 9075   1.985   0.961  10.066  0.0775 -0.1419 -0.1888
  612TMC3    C8 9076   2.081   1.430  10.119  0.4603  0.3072  0.3110
  612TMC3    O1 9077   2.063   0.925  10.155 -0.1037  0.2389  0.6788
  612TMC3    O2 9078   2.066   1.540  10.067  0.2038  0.1062 -0.3181
  613MPD2     C 9079   0.692   3.497  16.516 -0.1274  0.6171  0.2550
  613MPD2    C1 9080   0.576   3.526  16.447  0.0926 -0.4341  0.2400
  613MPD2    C2 9081   0.515   3.423  16.380  0.0615 -0.0197  0.2192
  613MPD2    C3 9082   0.565   3.291  16.391 -0.2466 -0.9764 -0.1130
  613MPD2    C4 9083   0.670   3.264  16.477  0.6150 -0.0287  0.3941
  613MPD2    C5 9084   0.738   3.372  16.533 -0.5729  0.0775  0.1187
  613MPD2     H 9085   0.416   3.440  16.338  1.2538  3.1412 -1.3390
  613MPD2    H1 9086   0.702   3.161  16.487 -1.6362 -0.8907 -1.2070
  613MPD2    H2 9087   0.756   3.573  16.559 -1.5600  2.5741 -1.0566
  613MPD2    H3 9088   0.831   3.366  16.589 -1.4106 -1.0868  1.3630
  613MPD2     N 9089   0.519   3.189  16.302 -0.2336  0.4132 -0.4099
  613MPD2    H5 9090   0.582   3.112  16.285  1.0227  0.9995  1.5596
  613MPD2    N1 9091   0.555   3.666  16.424  0.2551  0.4601  0.7100
  613MPD2    H7 9092   0.631   3.730  16.445  0.0054  1.5430 -1.5999
  614TMC3    C1 9093   0.461   3.834  16.279  0.2429  0.5793 -0.3538
  614TMC3    C2 9094   0.592   3.860  16.252  0.7467  0.3363 -0.3617
  614TMC3    C3 9095   0.625   3.893  16.122  0.2431  0.3969 -0.8753
  614TMC3    C4 9096   0.364   3.849  16.179  0.0711 -0.1192  0.5066
  614TMC3    C5 9097   0.397   3.880  16.055  0.5617 -0.5980 -0.7598
  614TMC3    C6 9098   0.526   3.901  16.023  0.3450 -0.0079  0.0064
  614TMC3     C 9099   0.446   3.707  16.351  0.5734 -0.3478 -0.4721
  614TMC3     O 9100   0.341   3.645  16.329  0.4019 -0.4512  0.0350
  614TMC3     H 9101   0.664   3.875  16.332  0.1427  1.6929 -0.0810
  614TMC3    H1 9102   0.260   3.839  16.208  0.0614  0.4075  0.6599
  614TMC3    H2 9103   0.554   3.917  15.919  0.7716 -0.5310  0.0444
  614TMC3    C7 9104   0.301   3.969  16.005 -0.0804  0.0756  0.1354
  614TMC3    C8 9105   0.756   3.846  16.076  0.4356 -0.2435 -0.3390
  614TMC3    O1 9106   0.233   4.035  16.083  0.5124  0.4413 -0.5738
  614TMC3    O2 9107   0.763   3.805  15.959  0.8758  0.0766  0.8295
  615MPD2     C 9108   4.567   0.095  16.362  0.2326  0.6123  0.7140
  615MPD2    C1 9109   4.450   0.164  16.374 -0.9293 -0.1343  0.1652
  615MPD2    C2 9110   4.331   0.096  16.361 -0.7033 -0.0879  0.5673
  615MPD2    C3 9111   4.336   4.684  16.331 -0.3849  0.4563  0.0869
  615MPD2    C4 9112   4.452   4.617  16.321  0.4376 -0.6426  0.3926
  615MPD2    C5 9113   4.575   4.682  16.339  0.8482 -0.6150 -0.1705
  615MPD2     H 9114   4.242   0.153  16.384 -0.6903 -0.9942  2.9111
  615MPD2    H1 9115   4.443   4.510  16.308 -1.1694 -0.6491  1.6131
  615MPD2    H2 9116   4.666   0.139  16.368  1.7190 -2.5506 -0.5483
  615MPD2    H3 9117   4.667   4.626  16.340  0.7119 -0.8415 -0.2965
  615MPD2     N 9118   4.218   4.607  16.305 -0.4219  0.0249  0.0860
  615MPD2    H5 9119   4.235   4.519  16.258  0.3233 -1.3117  2.8652
  615MPD2    N1 9120   4.435   0.305  16.387 -0.4575 -0.1043  0.5102
  615MPD2    H7 9121   4.342   0.345  16.390 -0.5817 -0.4399  1.3012
  616TMC3    C1 9122   4.516   0.529  16.386 -0.1426 -0.4255 -0.4669
  616TMC3    C2 9123   4.603   0.613  16.326 -0.8692  0.6189 -0.4179
  616TMC3    C3 9124   4.568   0.745  16.325  0.0221  0.2137 -0.2905
  616TMC3    C4 9125   4.396   0.569  16.432 -0.5425  0.9222  0.3391
  616TMC3    C5 9126   4.369   0.702  16.441 -0.5722 -0.5936 -0.5015
  616TMC3    C6 9127   4.449   0.790  16.375 -0.6213  0.1047  0.1352
  616TMC3     C 9128   4.544   0.385  16.378  0.2965  0.5200  1.1935
  616TMC3     O 9129   4.658   0.361  16.340 -0.2473  0.1996 -0.0623
  616TMC3     H 9130   4.696   0.575  16.285 -0.7244 -0.1249  0.5887
  616TMC3    H1 9131   4.318   0.499  16.458  0.2675 -0.1820 -0.1737
  616TMC3    H2 9132   4.439   0.898  16.380  0.9036  0.3433 -1.9137
  616TMC3    C7 9133   4.244   0.752  16.492  0.6928  0.6670 -0.4296
  616TMC3    C8 9134   4.664   0.852  16.283 -0.0424  0.1008  0.3862
  616TMC3    O1 9135   4.206   0.859  16.441  0.4133 -0.0746  0.0296
  616TMC3    O2 9136   4.605   0.944  16.229  0.3148  0.6158 -0.1847
  617MPD2     C 9137   2.846   3.531  13.848 -0.1019  0.0538 -0.5120
  617MPD2    C1 9138   2.917   3.465  13.951 -0.1645  0.5776  0.4458
  617MPD2    C2 9139   2.857   3.429  14.071  0.2839 -0.0560 -0.4720
  617MPD2    C3 9140   2.723   3.428  14.075  0.1501  0.8432  0.4475
  617MPD2    C4 9141   2.648   3.485  13.969 -0.1387  0.2969 -0.7299
  617MPD2    C5 9142   2.714   3.541  13.861  0.5991  0.2034 -0.5569
  617MPD2     H 9143   2.912   3.380  14.150  0.2200 -2.0779 -1.6935
  617MPD2    H1 9144   2.541   3.469  13.963  0.1757 -3.0062  2.1046
  617MPD2    H2 9145   2.900   3.565  13.760  1.0771  3.6385  1.5847
  617MPD2    H3 9146   2.650   3.584  13.785  2.0988  1.2424 -1.2292
  617MPD2     N 9147   2.651   3.369  14.180  0.1119  0.4193 -0.1244
  617MPD2    H5 9148   2.553   3.395  14.188  0.0042 -0.5443  1.6753
  617MPD2    N1 9149   3.053   3.460  13.931  0.0140 -0.3378  0.0361
  617MPD2    H7 9150   3.078   3.498  13.839 -0.8419 -1.5838 -0.7085
  618TMC3    C1 9151   3.273   3.434  13.972 -0.5966  0.4377 -0.0090
  618TMC3    C2 9152   3.371   3.402  14.066 -0.1078  0.3113 -0.5814
  618TMC3    C3 9153   3.472   3.328  14.021  0.1393 -0.0316  0.0061
  618TMC3    C4 9154   3.290   3.396  13.837  0.4330 -0.0331  0.7222
  618TMC3    C5 9155   3.393   3.321  13.805  1.1795  0.1765  0.2895
  618TMC3    C6 9156   3.478   3.271  13.899 -0.5638  0.5761 -0.3629
  618TMC3     C 9157   3.139   3.416  14.024  0.0976  0.2566 -0.0120
  618TMC3     O 9158   3.129   3.352  14.129 -0.7706  0.4703  0.2640
  618TMC3     H 9159   3.357   3.425  14.171 -1.2046 -0.2182 -0.6116
  618TMC3    H1 9160   3.226   3.417  13.752 -1.2797 -0.9515  1.7788
  618TMC3    H2 9161   3.549   3.193  13.875 -0.2581  0.3060  1.4362
  618TMC3    C7 9162   3.388   3.254  13.674  0.1859  0.0272 -1.0853
  618TMC3    C8 9163   3.547   3.259  14.121  0.4382  0.2333 -0.1943
  618TMC3    O1 9164   3.278   3.232  13.621 -0.6153 -0.0629  0.0098
  618TMC3    O2 9165   3.511   3.268  14.236  0.2358 -0.4349 -0.1532
  619MPD2     C 9166   4.388   0.086  13.779  0.3504  0.1888 -0.3476
  619MPD2    C1 9167   4.310   0.148  13.687  0.0068 -0.0742  0.0760
  619MPD2    C2 9168   4.180   0.110  13.674 -0.0879  0.8206 -0.1272
  619MPD2    C3 9169   4.126   0.019  13.763  0.0539  0.4462 -0.6360
  619MPD2    C4 9170   4.196   4.693  13.868 -0.4411  0.2156  0.6704
  619MPD2    C5 9171   4.331   4.720  13.870  0.3270  0.0604  0.8077
  619MPD2     H 9172   4.121   0.153  13.594 -2.6767 -1.0706  0.7496
  619MPD2    H1 9173   4.153   4.635  13.950 -0.0964 -2.1225 -0.7903
  619MPD2    H2 9174   4.495   0.102  13.779  0.7384 -2.4077  0.7226
  619MPD2    H3 9175   4.390   4.664  13.941  1.5690 -2.6011 -2.2942
  619MPD2     N 9176   3.987   4.707  13.757 -0.2208 -0.0963 -0.1459
  619MPD2    H5 9177   3.961   4.667  13.847 -0.9953  0.4812 -0.1093
  619MPD2    N1 9178   4.365   0.253  13.608 -0.2093  0.5599  0.0891
  619MPD2    H7 9179   4.302   0.296  13.541 -1.3850  0.7779  1.3347
  620TMC3    C1 9180   4.482   0.430  13.529 -0.3796  0.0512 -0.3616
  620TMC3    C2 9181   4.382   0.450  13.438  0.0124  0.4303 -0.6164
  620TMC3    C3 9182   4.359   0.579  13.388 -0.2674  0.3554 -0.1663
  620TMC3    C4 9183   4.552   0.530  13.582  0.7220  0.1024 -0.1785
  620TMC3    C5 9184   4.513   0.657  13.550 -1.4442  0.3914 -0.2387
  620TMC3    C6 9185   4.418   0.683  13.452  0.4647 -0.5179 -0.3233
  620TMC3     C 9186   4.489   0.311  13.609 -0.5722  0.4819  0.0764
  620TMC3     O 9187   4.593   0.281  13.672 -0.0957 -0.5500 -0.4238
  620TMC3     H 9188   4.346   0.364  13.383  1.3715 -0.3048 -0.3842
  620TMC3    H1 9189   4.636   0.516  13.650  0.8134 -0.0400 -0.3218
  620TMC3    H2 9190   4.400   0.781  13.410  0.4749 -0.0727  0.7178
  620TMC3    C7 9191   4.553   0.763  13.648  0.3915 -0.5857  0.7271
  620TMC3    C8 9192   4.222   0.607  13.360  0.2438 -0.6945 -0.2471
  620TMC3    O1 9193   4.655   0.749  13.714  0.1873 -0.3555 -0.3789
  620TMC3    O2 9194   4.182   0.715  13.400  0.1291  0.8030 -0.0281
  621MPD2     C 9195   4.504   4.639  10.301  0.2018  0.0299 -0.4429
  621MPD2    C1 9196   4.639   4.623  10.299  0.0260 -0.0175 -0.1316
  621MPD2    C2 9197   4.709   4.679  10.192  0.2214  0.1461  0.0621
  621MPD2    C3 9198   4.642   0.016  10.089  0.4946  0.3641  0.0341
  621MPD2    C4 9199   4.507   0.036  10.091  0.2400 -0.0031  0.7575
  621MPD2    C5 9200   4.441   4.714  10.200 -0.7682  0.6898  0.0495
  621MPD2     H 9201   0.092   4.664  10.185  0.2406  0.0352  0.6036
  621MPD2    H1 9202   4.459   0.088  10.009  1.4022 -0.7201 -0.3737
  621MPD2    H2 9203   4.441   4.601  10.381  1.2363  1.9702  1.2676
  621MPD2    H3 9204   4.335   0.004  10.211 -0.6920 -0.9449  2.9968
  621MPD2     N 9205   0.001   0.060   9.990  0.5300  0.0588 -0.2029
  621MPD2    H5 9206   0.096   0.031  10.008  0.3488  0.1423  0.9155
  621MPD2    N1 9207   4.711   4.549  10.397 -0.3539 -0.6461  0.4601
  621MPD2    H7 9208   0.087   4.537  10.382 -0.2268  1.8622 -0.7140
  622TMC3    C1 9209   0.039   4.373  10.541 -0.1164  0.1942  0.0492
  622TMC3    C2 9210   4.708   4.256  10.583 -0.0482 -0.2325 -0.2249
  622TMC3    C3 9211   0.003   4.133  10.525 -0.2089 -0.0951 -0.5576
  622TMC3    C4 9212   0.149   4.349  10.455  0.2541  0.8343  0.1801
  622TMC3    C5 9213   0.184   4.223  10.410  0.3258  0.7282 -0.3799
  622TMC3    C6 9214   0.113   4.107  10.450 -0.1008  0.3151 -0.5389
  622TMC3     C 9215   4.663   4.468  10.496  0.9031  0.2054  0.2296
  622TMC3     O 9216   4.547   4.432  10.511  0.3019  0.2213 -0.7268
  622TMC3     H 9217   4.626   4.263  10.654 -0.6592 -0.5521 -0.8983
  622TMC3    H1 9218   0.209   4.432  10.418 -0.8777  1.6748  0.2206
  622TMC3    H2 9219   0.135   4.011  10.406  1.3205 -1.2824  3.5914
  622TMC3    C7 9220   0.291   4.215  10.314  0.1088  0.1105 -0.5399
  622TMC3    C8 9221   4.615   4.041  10.513 -0.1353  0.0774  0.5200
  622TMC3    O1 9222   0.374   4.308  10.310 -0.3741  0.1270 -0.2089
  622TMC3    O2 9223   4.643   3.923  10.494 -0.1825  0.4803  0.1768
  623MPD2     C 9224   3.097   1.036  17.102  0.2512 -0.0192  0.1519
  623MPD2    C1 9225   2.994   0.982  17.025 -0.4210 -0.3388  0.0660
  623MPD2    C2 9226   3.033   0.869  16.955  0.1816 -0.0616  0.7177
  623MPD2    C3 9227   3.153   0.801  16.968 -0.8534  0.0472 -0.4829
  623MPD2    C4 9228   3.252   0.868  17.042 -0.9023  0.0854  0.2581
  623MPD2    C5 9229   3.219   0.981  17.104 -0.7191  0.6111 -0.3141
  623MPD2     H 9230   2.952   0.821  16.902 -1.0042  1.8200  0.8468
  623MPD2    H1 9231   3.354   0.834  17.050 -1.1714 -0.3168  1.9348
  623MPD2    H2 9232   3.073   1.130  17.151 -3.1715 -0.8527  0.0595
  623MPD2    H3 9233   3.296   1.030  17.162 -0.0666 -1.2332  0.3706
  623MPD2     N 9234   3.174   0.678  16.911 -0.1438 -0.0142 -0.0056
  623MPD2    H5 9235   3.100   0.651  16.846 -0.4367 -2.0489  1.1909
  623MPD2    N1 9236   2.872   1.052  17.023  0.7500  0.0338  0.1341
  623MPD2    H7 9237   2.870   1.134  17.083  0.5133  0.6631 -0.7554
  624TMC3    C1 9238   3.388   0.277  16.832  0.2349  0.1015 -0.6531
  624TMC3    C2 9239   3.277   0.202  16.852  0.6288  0.5892  0.0686
  624TMC3    C3 9240   3.153   0.263  16.873 -1.0109 -0.0074  0.1304
  624TMC3    C4 9241   3.377   0.414  16.836 -0.4145 -0.0754  0.4731
  624TMC3    C5 9242   3.260   0.470  16.865 -0.1188 -0.7141 -0.1273
  624TMC3    C6 9243   3.143   0.397  16.873  0.4983 -0.2095 -0.3557
  624TMC3     C 9244   3.515   0.209  16.820 -0.3493 -0.3687 -0.1269
  624TMC3     O 9245   3.523   0.091  16.858  0.3475 -0.3780  0.4359
  624TMC3     H 9246   3.296   0.096  16.842 -1.4572  0.2420 -0.1850
  624TMC3    H1 9247   3.470   0.471  16.841 -0.1045 -0.6621  1.4482
  624TMC3    H2 9248   3.053   0.443  16.913  0.9689  1.4638 -1.2256
  624TMC3    C7 9249   3.270   0.588  16.939  0.3257 -0.5061 -0.3929
  624TMC3    C8 9250   3.042   0.171  16.887 -0.4138 -0.1378 -0.1039
  624TMC3    O1 9251   3.367   0.599  17.014  0.4037  0.6471  0.1095
  624TMC3    O2 9252   3.075   0.058  16.913 -0.2483  0.3611 -0.6462
  625MPD2     C 9253   3.882   0.275   0.443  0.0694  0.0844 -0.5449
  625MPD2    C1 9254   3.924   0.381   0.520 -0.6797 -0.7409 -0.3388
  625MPD2    C2 9255   4.024   0.356   0.611  0.2133  0.3332 -0.6933
  625MPD2    C3 9256   4.061   0.230   0.633  0.5800  0.1751  1.0317
  625MPD2    C4 9257   4.012   0.123   0.559  0.2923  0.1149 -0.5287
  625MPD2    C5 9258   3.913   0.148   0.468  0.5763  0.8837  0.2996
  625MPD2     H 9259   4.069   0.439   0.664 -1.9155  0.1315  1.4202
  625MPD2    H1 9260   4.051   0.023   0.570  0.1029  0.1860  0.7178
  625MPD2    H2 9261   3.793   0.283   0.380 -1.8029  0.1684  2.1083
  625MPD2    H3 9262   3.877   0.066   0.407  0.6520  1.6917 -0.8431
  625MPD2     N 9263   4.153   0.211   0.736 -0.9456 -0.5336  0.0130
  625MPD2    H5 9264   4.165   0.295   0.792 -2.7625  0.2631 -0.7857
  625MPD2    N1 9265   3.898   0.513   0.487  0.4004  0.2607  0.0820
  625MPD2    H7 9266   3.941   0.581   0.549 -1.4591 -0.7543  2.4930
  626TMC3    C1 9267   3.785   0.695   0.415  0.3796 -0.0440  1.4346
  626TMC3    C2 9268   3.734   0.765   0.309  0.0767  0.1557  0.7371
  626TMC3    C3 9269   3.666   0.878   0.336 -0.3165  0.3177 -0.1995
  626TMC3    C4 9270   3.771   0.735   0.542  0.1763 -0.3124  0.0488
  626TMC3    C5 9271   3.702   0.854   0.568  0.4670 -0.5258  0.2734
  626TMC3    C6 9272   3.651   0.930   0.465 -0.2690  0.6078  0.5264
  626TMC3     C 9273   3.822   0.556   0.385  0.4293  0.0424 -0.2686
  626TMC3     O 9274   3.782   0.497   0.286 -0.1511 -0.4098 -0.4735
  626TMC3     H 9275   3.764   0.738   0.208  0.7881  1.0212  0.7257
  626TMC3    H1 9276   3.795   0.676   0.630 -0.5205  0.8877  1.0579
  626TMC3    H2 9277   3.593   1.020   0.482 -0.0396  0.4980  1.8904
  626TMC3    C7 9278   3.675   0.874   0.708  0.0987 -0.9872 -0.1094
  626TMC3    C8 9279   3.605   0.944   0.227 -0.0761 -0.3224  0.1809
  626TMC3    O1 9280   3.775   0.851   0.780 -0.5382 -0.3995 -0.1933
  626TMC3    O2 9281   3.677   0.968   0.130  0.0243 -0.0403  0.0927
  627MPD2     C 9282   2.264   2.047  14.666 -0.1621  0.3099 -0.4804
  627MPD2    C1 9283   2.310   2.021  14.793 -0.1865 -0.1663 -0.1378
  627MPD2    C2 9284   2.270   1.897  14.850  0.1242 -0.2361  0.7367
  627MPD2    C3 9285   2.182   1.805  14.783  0.2060 -0.5797 -0.0160
  627MPD2    C4 9286   2.159   1.827  14.650 -0.2858 -0.6060  0.0660
  627MPD2    C5 9287   2.196   1.950  14.596 -0.0366 -0.1079  0.2752
  627MPD2     H 9288   2.288   1.868  14.953  0.9873  0.9286  0.9115
  627MPD2    H1 9289   2.104   1.759  14.585  0.4757 -0.3596 -0.8428
  627MPD2    H2 9290   2.301   2.132  14.610  0.1133  0.5450  0.0537
  627MPD2    H3 9291   2.182   1.971  14.491 -0.1645 -2.5242 -0.1969
  627MPD2     N 9292   2.147   1.689  14.857 -0.4375  0.3070  0.5146
  627MPD2    H5 9293   2.162   1.706  14.956 -1.5916 -1.7977  1.0484
  627MPD2    N1 9294   2.407   2.099  14.860 -0.0038  0.5286  0.2789
  627MPD2    H7 9295   2.441   2.067  14.950 -0.4945 -0.4882  0.0991
  628TMC3    C1 9296   2.588   2.260  14.875 -1.1174 -0.6168  1.0430
  628TMC3    C2 9297   2.639   2.181  14.971  0.2597  0.3641 -0.2823
  628TMC3    C3 9298   2.769   2.203  15.007  0.0521  0.6873  0.3978
  628TMC3    C4 9299   2.660   2.360  14.817 -0.3182  0.3674 -0.4345
  628TMC3    C5 9300   2.783   2.381  14.872 -0.5647  0.1450 -1.0069
  628TMC3    C6 9301   2.840   2.299  14.957  0.1049  0.2376 -0.2538
  628TMC3     C 9302   2.466   2.213  14.802 -0.7006  0.4664  0.0520
  628TMC3     O 9303   2.427   2.282  14.712 -0.3867 -0.2171  0.1716
  628TMC3     H 9304   2.578   2.121  15.037 -1.3473  0.8331 -1.3406
  628TMC3    H1 9305   2.630   2.410  14.726 -2.1672  1.5716  0.8292
  628TMC3    H2 9306   2.927   2.338  15.008 -1.7963  1.5464  1.9721
  628TMC3    C7 9307   2.857   2.489  14.813 -0.3725  0.1433 -0.0938
  628TMC3    C8 9308   2.823   2.086  15.071  0.8108 -0.7238  0.2883
  628TMC3    O1 9309   2.979   2.472  14.812 -0.2423  1.2338 -0.6225
  628TMC3    O2 9310   2.748   1.991  15.074  0.2604 -0.0195 -0.3902
  629MPD2     C 9311   0.400   0.977  16.103 -0.3505 -0.3439  0.6081
  629MPD2    C1 9312   0.406   0.857  16.173 -0.0046 -0.3255  0.3677
  629MPD2    C2 9313   0.296   0.803  16.238 -0.0884  0.6748 -0.6040
  629MPD2    C3 9314   0.177   0.872  16.231  0.1246  0.7410 -0.2008
  629MPD2    C4 9315   0.177   1.000  16.185 -0.2819 -0.6703  0.3462
  629MPD2    C5 9316   0.290   1.060  16.123 -0.7214  1.2012  0.3844
  629MPD2     H 9317   0.292   0.706  16.285 -0.8007  1.1475  0.3034
  629MPD2    H1 9318   0.084   1.057  16.190  0.3821  0.4570 -0.1422
  629MPD2    H2 9319   0.489   1.018  16.056 -0.7177  1.8973  1.8865
  629MPD2    H3 9320   0.285   1.161  16.086  1.6177 -0.1629 -3.6306
  629MPD2     N 9321   0.071   0.811  16.285 -0.2895 -0.4931  0.8951
  629MPD2    H5 9322   0.094   0.721  16.325 -1.3732 -1.3930 -0.4739
  629MPD2    N1 9323   0.534   0.795  16.179 -0.6274 -0.4941  0.3904
  629MPD2    H7 9324   0.614   0.856  16.164 -2.6272  1.6365 -1.8052
  630TMC3    C1 9325   0.699   0.651  16.255  0.1309 -0.3118  0.4994
  630TMC3    C2 9326   0.801   0.716  16.188  0.1754  0.3890 -0.4421
  630TMC3    C3 9327   0.930   0.683  16.222  0.4438  0.2103  0.8279
  630TMC3    C4 9328   0.718   0.542  16.331  0.1722  0.3740  0.1385
  630TMC3    C5 9329   0.847   0.516  16.367 -0.9680  0.2639  0.2846
  630TMC3    C6 9330   0.957   0.593  16.320  0.0759  0.4518 -0.2558
  630TMC3     C 9331   0.560   0.669  16.232 -0.3870 -0.5203  0.1447
  630TMC3     O 9332   0.482   0.580  16.262  0.6358 -0.0640  0.1294
  630TMC3     H 9333   0.783   0.795  16.116 -1.2001  1.4718  1.0845
  630TMC3    H1 9334   0.640   0.517  16.402 -0.3917  0.8540 -0.3108
  630TMC3    H2 9335   1.057   0.553  16.334 -0.1125 -0.7039 -2.4111
  630TMC3    C7 9336   0.875   0.418  16.467  0.4834  0.0127 -0.4256
  630TMC3    C8 9337   1.037   0.779  16.182 -0.4980  0.2253 -0.2633
  630TMC3    O1 9338   0.973   0.424  16.540  0.4161 -0.1285 -0.3556
  630TMC3    O2 9339   1.026   0.852  16.085  0.1017 -0.2033  0.3122
  631MPD2     C 9340   3.369   0.425  16.016 -0.4337  0.0283  0.8768
  631MPD2    C1 9341   3.485   0.456  15.944  0.0889  0.4278 -0.1010
  631MPD2    C2 9342   3.591   0.377  15.956 -0.0394  0.1128  0.0861
  631MPD2    C3 9343   3.585   0.255  16.015  0.6212 -0.4527  0.9917
  631MPD2    C4 9344   3.467   0.218  16.077 -0.3219  0.3069 -1.1031
  631MPD2    C5 9345   3.357   0.306  16.080  0.3159  0.1850  0.4363
  631MPD2     H 9346   3.687   0.413  15.919 -0.1221 -1.5930 -1.8097
  631MPD2    H1 9347   3.455   0.122  16.126  0.8699  0.2701 -0.8786
  631MPD2    H2 9348   3.280   0.486  16.004 -0.2494  0.3664  1.2244
  631MPD2    H3 9349   3.266   0.275  16.131 -0.2126 -0.5956 -0.9544
  631MPD2     N 9350   3.702   0.175  16.015 -0.1162  0.4234 -0.8457
  631MPD2    H5 9351   3.780   0.208  15.959 -0.7084 -0.1508 -2.0051
  631MPD2    N1 9352   3.480   0.570  15.857  0.1312 -0.0733 -0.0065
  631MPD2    H7 9353   3.399   0.629  15.870 -0.0836 -0.9036  2.3877
  632TMC3    C1 9354   3.553   0.712  15.688 -0.3684 -0.1324 -0.2306
  632TMC3    C2 9355   3.425   0.769  15.683  0.1635 -0.4997  0.3232
  632TMC3    C3 9356   3.415   0.888  15.609  0.9859 -0.0908  0.2292
  632TMC3    C4 9357   3.656   0.752  15.610 -0.4269  0.0874 -0.1206
  632TMC3    C5 9358   3.626   0.860  15.527  0.5999 -0.1903 -0.8622
  632TMC3    C6 9359   3.511   0.933  15.530  0.2725 -0.3704 -0.9640
  632TMC3     C 9360   3.576   0.592  15.759 -0.3028  0.2291  0.1110
  632TMC3     O 9361   3.682   0.530  15.739 -0.8765  0.9831  0.4538
  632TMC3     H 9362   3.346   0.733  15.747 -0.2586  2.3587  1.4364
  632TMC3    H1 9363   3.749   0.699  15.595 -0.0138  0.8858 -0.4162
  632TMC3    H2 9364   3.491   1.018  15.467 -2.5096  0.0245  0.4646
  632TMC3    C7 9365   3.717   0.893  15.417  0.3227  0.0665  0.6602
  632TMC3    C8 9366   3.312   0.984  15.644 -0.3956 -0.1658 -0.2428
  632TMC3    O1 9367   3.672   0.915  15.304 -0.4948  0.2066  0.7607
  632TMC3    O2 9368   3.273   0.972  15.759 -0.4988  0.0236 -0.5696
  633MPD2     C 9369   3.653   3.225  17.500  0.4922 -0.1799 -0.6819
  633MPD2    C1 9370   3.623   3.169  17.379 -0.4332 -0.1264  0.1141
  633MPD2    C2 9371   3.642   3.034  17.349 -0.6605 -0.7161 -0.0746
  633MPD2    C3 9372   3.693   2.948  17.445  1.0595  0.7070  0.1969
  633MPD2    C4 9373   3.724   3.002  17.563  0.3281 -0.3655  0.0880
  633MPD2    C5 9374   3.710   3.135  17.588  0.7706 -0.9558  0.3329
  633MPD2     H 9375   3.618   3.002  17.248  0.6276 -0.4648 -0.4516
  633MPD2    H1 9376   3.760   2.936  17.641  1.7112 -0.3390 -0.5177
  633MPD2    H2 9377   3.635   3.329  17.522  1.9250 -0.1789  0.5205
  633MPD2    H3 9378   3.741   3.164  17.688 -1.1439  1.3591  0.2621
  633MPD2     N 9379   3.724   2.816  17.408 -0.4896 -0.1031 -0.1345
  633MPD2    H5 9380   3.781   2.767  17.476 -1.8306  0.6820  1.5801
  633MPD2    N1 9381   3.576   3.245  17.273 -0.5055  0.6310  0.2737
  633MPD2    H7 9382   3.583   3.197  17.184 -2.3791  2.5693 -0.9076
  634TMC3    C1 9383   3.558   3.449  17.166 -0.6517  0.7723  0.2769
  634TMC3    C2 9384   3.657   3.407  17.084 -0.4437  0.7380  0.2485
  634TMC3    C3 9385   3.691   3.489  16.976 -0.2796 -0.5058 -0.3341
  634TMC3    C4 9386   3.468   3.551  17.133  0.3632 -0.0614 -0.6768
  634TMC3    C5 9387   3.497   3.619  17.018  0.2506  0.3753 -0.7948
  634TMC3    C6 9388   3.606   3.587  16.937  0.5336 -0.6698  0.1950
  634TMC3     C 9389   3.531   3.383  17.287 -0.6121  0.4536  0.2362
  634TMC3     O 9390   3.452   3.437  17.367 -0.6319 -0.1299  0.2726
  634TMC3     H 9391   3.727   3.327  17.102 -0.2014  0.4100 -2.1734
  634TMC3    H1 9392   3.407   3.593  17.213 -1.4527  0.3900 -2.2948
  634TMC3    H2 9393   3.626   3.651  16.851 -1.7085  0.1041  0.2575
  634TMC3    C7 9394   3.407   3.715  16.952 -0.1182 -1.0386 -0.2487
  634TMC3    C8 9395   3.755   3.418  16.863 -0.7279  0.2415 -0.4285
  634TMC3    O1 9396   3.457   3.766  16.853  0.9555 -0.5695  0.1287
  634TMC3    O2 9397   3.799   3.309  16.897 -0.0963  0.0319  0.1451
  635TMC3    C1 9398   4.493   3.477  17.233  0.0078  0.3302  0.0769
  635TMC3    C2 9399   4.533   3.464  17.101 -0.6102 -0.5222  0.1125
  635TMC3    C3 9400   4.614   3.354  17.076  0.4633  0.1458 -0.0985
  635TMC3    C4 9401   4.522   3.392  17.333 -0.3792  0.1068 -0.3201
  635TMC3    C5 9402   4.600   3.287  17.300 -0.9049 -0.2332  0.1879
  635TMC3    C6 9403   4.656   3.267  17.176  0.2311  0.2027 -0.2236
  635TMC3     C 9404   4.418   3.598  17.270  0.0308  0.3051 -0.4228
  635TMC3     O 9405   4.350   3.599  17.370  0.4207  0.3476 -0.1359
  635TMC3     H 9406   4.490   3.521  17.019 -1.0846 -0.0283  0.7000
  635TMC3    H1 9407   4.489   3.407  17.435 -0.0060  1.9124 -0.4609
  635TMC3    H2 9408   0.008   3.192  17.156 -0.9965 -0.5907 -1.9148
  635TMC3    C7 9409   4.647   3.197  17.398  0.1371 -0.8973  0.5239
  635TMC3    C8 9410   4.674   3.324  16.944 -0.2806  0.1457 -0.0250
  635TMC3    O1 9411   4.653   3.083  17.358  0.8761 -0.8561  0.2043
  635TMC3    O2 9412   0.011   3.218  16.935  0.2296  0.6931 -0.5166
  636MPD2     C 9413   0.022   3.645  15.631  0.0847 -0.4870  0.0852
  636MPD2    C1 9414   0.063   3.658  15.764  0.2198 -0.2994 -0.0709
  636MPD2    C2 9415   0.163   3.577  15.801 -0.4693  1.2471 -0.1867
  636MPD2    C3 9416   0.230   3.499  15.720  0.0992 -0.6009  0.1855
  636MPD2    C4 9417   0.191   3.477  15.588  0.0766 -0.3148  0.2080
  636MPD2    C5 9418   0.083   3.555  15.553 -0.2336  0.2471  0.1768
  636MPD2     H 9419   0.193   3.579  15.905  2.7731  2.2579 -1.1277
  636MPD2    H1 9420   0.241   3.413  15.516 -0.6997  0.1764 -0.7577
  636MPD2    H2 9421   4.677   3.716  15.587 -2.6468 -4.5501 -2.1093
  636MPD2    H3 9422   0.056   3.557  15.448  3.0183 -1.7908 -0.6983
  636MPD2     N 9423   0.329   3.426  15.784 -0.8386 -0.1888  0.0227
  636MPD2    H5 9424   0.340   3.442  15.884  1.1905  2.6577 -0.6773
  636MPD2    N1 9425   0.013   3.746  15.855  0.1759 -0.1233 -0.5447
  636MPD2    H7 9426   0.059   3.759  15.945  1.7696  0.0601 -1.3974
  637TMC3    C1 9427   0.479   3.256  15.836  0.4830 -0.1721 -0.6622
  637TMC3    C2 9428   0.425   3.211  15.957  0.3165 -0.4520  0.3156
  637TMC3    C3 9429   0.504   3.171  16.064 -0.8467 -0.0559  0.0138
  637TMC3    C4 9430   0.614   3.256  15.828  0.2296 -0.2346 -0.4223
  637TMC3    C5 9431   0.687   3.227  15.939 -0.0696  0.0461  0.2700
  637TMC3    C6 9432   0.638   3.177  16.055 -0.2745 -0.8060 -0.4295
  637TMC3     C 9433   0.407   3.324  15.727  0.0321 -0.0327  0.2423
  637TMC3     O 9434   0.410   3.294  15.609  0.5270  0.5182  0.4790
  637TMC3     H 9435   0.317   3.221  15.958  0.0314 -3.4502 -0.2246
  637TMC3    H1 9436   0.666   3.287  15.738  0.7208  4.1197  1.3727
  637TMC3    H2 9437   0.698   3.142  16.138 -1.5903 -0.5501  0.6322
  637TMC3    C7 9438   0.781   3.345  15.963 -0.8107 -0.0425  0.3274
  637TMC3    C8 9439   0.448   3.217  16.193 -0.4806  0.5997  0.2859
  637TMC3    O1 9440   0.767   3.434  15.882  0.2361  0.3885  0.3708
  637TMC3    O2 9441   0.353   3.295  16.177  0.6242 -0.0443 -0.0549
  638MPD2     C 9442   0.326   2.679  15.111 -0.3488  0.5374 -0.2105
  638MPD2    C1 9443   0.378   2.559  15.140  0.1169  0.4216 -0.2066
  638MPD2    C2 9444   0.321   2.475  15.231 -1.1966  1.1861  0.6000
  638MPD2    C3 9445   0.192   2.500  15.276  0.3172  0.3192 -0.0484
  638MPD2    C4 9446   0.131   2.618  15.243  0.2990 -0.2738  0.4078
  638MPD2    C5 9447   0.198   2.701  15.152  0.4706 -0.4206 -0.2360
  638MPD2     H 9448   0.362   2.379  15.259  2.5072  1.8988 -2.4690
  638MPD2    H1 9449   0.032   2.646  15.277  1.0717  0.9713  1.5919
  638MPD2    H2 9450   0.371   2.752  15.044  2.3872 -1.5410 -0.6250
  638MPD2    H3 9451   0.159   2.797  15.118  0.9418 -0.9211 -2.2007
  638MPD2     N 9452   0.130   2.387  15.339  0.9666 -0.2217 -0.2787
  638MPD2    H5 9453   0.187   2.306  15.360  0.7774 -0.2170  0.2619
  638MPD2    N1 9454   0.503   2.530  15.078 -0.9259 -0.5573  0.3017
  638MPD2    H7 9455   0.526   2.589  14.998  1.0428 -0.5654  0.8545
  639TMC3    C1 9456   4.689   2.242  15.418 -0.0790  0.5863  0.6296
  639TMC3    C2 9457   4.569   2.204  15.382 -0.5225  0.2322 -0.4044
  639TMC3    C3 9458   4.532   2.076  15.397 -0.1138 -0.2237 -0.0425
  639TMC3    C4 9459   0.053   2.171  15.491 -0.0833  0.4419 -0.3351
  639TMC3    C5 9460   0.021   2.035  15.495 -0.4163 -0.8803 -0.2282
  639TMC3    C6 9461   4.624   1.987  15.456 -0.3070  0.3879 -0.5505
  639TMC3     C 9462   4.723   2.372  15.364 -0.0558 -0.0706 -0.1673
  639TMC3     O 9463   4.630   2.450  15.357 -0.1071 -0.2691 -0.0213
  639TMC3     H 9464   4.512   2.264  15.312  0.9387 -0.0619 -1.8382
  639TMC3    H1 9465   0.149   2.207  15.524 -0.5013 -1.7151  3.1719
  639TMC3    H2 9466   4.593   1.883  15.464 -0.1445  0.3349 -0.6057
  639TMC3    C7 9467   0.110   1.942  15.562  1.2064 -0.7102 -0.1731
  639TMC3    C8 9468   4.469   2.015  15.282  0.1951  0.0674 -0.2819
  639TMC3    O1 9469   0.063   1.840  15.613  0.6905 -0.0162  0.2012
  639TMC3    O2 9470   4.528   1.935  15.210  0.7462 -0.2221 -0.0058
  640MPD2     C 9471   0.316   0.707   9.351  0.4554 -0.0450  0.6719
  640MPD2    C1 9472   0.436   0.757   9.392 -0.4843  0.4793  0.5982
  640MPD2    C2 9473   0.435   0.876   9.463 -0.0576 -0.2549 -0.1457
  640MPD2    C3 9474   0.315   0.947   9.492  0.2173  0.8510 -0.7437
  640MPD2    C4 9475   0.197   0.893   9.447  0.3430 -0.2512 -0.0684
  640MPD2    C5 9476   0.201   0.779   9.375  0.0125 -0.0251  0.2368
  640MPD2     H 9477   0.526   0.916   9.504  0.0483 -2.0536  1.3632
  640MPD2    H1 9478   0.097   0.925   9.472 -0.2155 -0.9512 -1.3811
  640MPD2    H2 9479   0.314   0.622   9.284 -1.1357 -0.8092  1.6923
  640MPD2    H3 9480   0.108   0.732   9.343  0.2863 -0.0077 -0.5827
  640MPD2     N 9481   0.297   1.059   9.572 -0.3071 -0.5856 -0.5597
  640MPD2    H5 9482   0.203   1.093   9.584  0.4787  0.4455  2.5477
  640MPD2    N1 9483   0.549   0.671   9.374 -0.2512 -0.2824 -0.1927
  640MPD2    H7 9484   0.539   0.593   9.310  0.8851  0.0374 -0.7479
  641TMC3    C1 9485   0.770   0.586   9.377 -0.4799  0.5365 -0.4064
  641TMC3    C2 9486   0.885   0.561   9.453  0.4148  0.1144 -0.9870
  641TMC3    C3 9487   0.975   0.475   9.404  0.7720 -0.3487  0.4568
  641TMC3    C4 9488   0.741   0.507   9.269  0.6976  0.0639  0.2042
  641TMC3    C5 9489   0.824   0.407   9.228 -0.2263  0.2141  0.1671
  641TMC3    C6 9490   0.949   0.397   9.293  0.2257  0.3008 -0.3647
  641TMC3     C 9491   0.670   0.686   9.429 -0.1018 -0.5460  0.2269
  641TMC3     O 9492   0.714   0.773   9.502  0.1400 -0.7182 -0.3400
  641TMC3     H 9493   0.894   0.631   9.536  0.6281 -0.2330 -0.7150
  641TMC3    H1 9494   0.649   0.518   9.212  0.8412  1.4977  0.2581
  641TMC3    H2 9495   1.024   0.325   9.262 -1.0826  0.0804 -2.9951
  641TMC3    C7 9496   0.787   0.329   9.110  0.3457 -0.1601 -0.2776
  641TMC3    C8 9497   1.054   0.410   9.504 -0.2756  0.3597 -0.0930
  641TMC3    O1 9498   0.677   0.348   9.063  0.3840  0.2463  0.1439
  641TMC3    O2 9499   1.097   0.296   9.479 -0.2231 -0.1943 -0.3149
  642TMC3    C1 9500   1.431   2.977  11.563  0.3590  0.2433 -0.6375
  642TMC3    C2 9501   1.466   2.997  11.431  0.2179  0.1282 -0.1683
  642TMC3    C3 9502   1.549   2.903  11.363 -0.5177 -0.1449  0.3101
  642TMC3    C4 9503   1.481   2.863  11.625  0.3663  0.3554  0.0288
  642TMC3    C5 9504   1.569   2.781  11.557  0.5473 -0.1536 -0.6693
  642TMC3    C6 9505   1.593   2.793  11.428  0.1458  0.0283  0.3926
  642TMC3     C 9506   1.381   3.102  11.629  0.0734  0.4647  0.6135
  642TMC3     O 9507   1.373   3.204  11.566  0.0159  0.6127 -0.2384
  642TMC3     H 9508   1.433   3.091  11.388 -1.1213 -0.3384 -0.1291
  642TMC3    H1 9509   1.484   2.860  11.734 -4.1565 -1.7394  0.0959
  642TMC3    H2 9510   1.637   2.714  11.369  0.1821  1.4313 -1.4793
  642TMC3    C7 9511   1.571   2.645  11.608  0.4046  0.7823 -0.1351
  642TMC3    C8 9512   1.567   2.907  11.220 -0.5997  0.0032  0.3289
  642TMC3    O1 9513   1.557   2.561  11.524  0.1590  0.1647  0.0284
  642TMC3    O2 9514   1.637   2.817  11.176 -0.0961 -0.4040  0.3874
  643TMC3    C1 9515   0.324   1.188   0.641  0.0031 -0.0809  0.0760
  643TMC3    C2 9516   0.258   1.281   0.722 -0.0416  0.3110  0.3632
  643TMC3    C3 9517   0.309   1.413   0.718  0.0034 -0.5162 -0.6492
  643TMC3    C4 9518   0.426   1.224   0.556 -0.2073 -0.0655  0.2730
  643TMC3    C5 9519   0.476   1.351   0.551  0.1962  0.8290  0.3825
  643TMC3    C6 9520   0.421   1.448   0.635 -0.1617 -0.2853 -0.2710
  643TMC3     C 9521   0.311   1.054   0.691 -0.3189 -0.4611 -0.0781
  643TMC3     O 9522   0.209   1.035   0.749  0.5037 -0.5218 -0.2904
  643TMC3     H 9523   0.175   1.249   0.784 -1.9532  0.0814 -2.3077
  643TMC3    H1 9524   0.464   1.147   0.490 -1.7571  0.5071 -1.2814
  643TMC3    H2 9525   0.450   1.550   0.615 -0.5407 -0.2453 -0.6105
  643TMC3    C7 9526   0.575   1.384   0.453  0.2116 -0.4726  0.0152
  643TMC3    C8 9527   0.278   1.510   0.816 -0.8508  0.2851 -0.1095
  643TMC3    O1 9528   0.591   1.307   0.360 -0.4474  0.3311 -0.4937
  643TMC3    O2 9529   0.163   1.501   0.859 -0.0044  0.7573  0.0648
  644MPD2     C 9530   0.166   1.260   9.323  0.1609  0.2122 -0.2135
  644MPD2    C1 9531   0.293   1.306   9.326  0.0572  0.6010  0.9465
  644MPD2    C2 9532   0.312   1.435   9.354 -0.4101 -0.4559 -0.6772
  644MPD2    C3 9533   0.212   1.515   9.407  0.5026  0.5365 -0.7947
  644MPD2    C4 9534   0.085   1.472   9.406  0.9017  0.3901  0.0362
  644MPD2    C5 9535   0.056   1.342   9.361  0.8515  0.1270 -0.0982
  644MPD2     H 9536   0.413   1.473   9.338 -0.8015  0.8555 -0.0779
  644MPD2    H1 9537   0.002   1.538   9.432 -1.3628 -1.6456 -2.0295
  644MPD2    H2 9538   0.136   1.162   9.288  2.0435 -0.2384 -0.6119
  644MPD2    H3 9539   4.679   1.309   9.339  0.5563  1.0453 -0.1209
  644MPD2     N 9540   0.248   1.645   9.456  0.6330 -0.1025 -0.0887
  644MPD2    H5 9541   0.341   1.678   9.434  1.0324 -1.0060  0.2477
  644MPD2    N1 9542   0.393   1.213   9.276 -0.1831 -0.3559  0.8832
  644MPD2    H7 9543   0.356   1.122   9.248  0.5007 -0.0869 -0.8505
  645TMC3    C1 9544   0.229   1.850   9.571 -0.1338  0.5513  0.2264
  645TMC3    C2 9545   0.172   1.925   9.673 -0.6961  0.3265 -0.9242
  645TMC3    C3 9546   0.205   2.056   9.686 -0.7300 -0.4102 -0.0370
  645TMC3    C4 9547   0.317   1.905   9.482 -0.1112 -0.3194 -0.2495
  645TMC3    C5 9548   0.346   2.040   9.499 -0.5390  0.2776  0.4399
  645TMC3    C6 9549   0.296   2.112   9.603  0.1386 -0.0983  0.3691
  645TMC3     C 9550   0.161   1.727   9.522 -0.1374 -0.0464 -0.7038
  645TMC3     O 9551   0.043   1.715   9.553 -0.3365 -0.0295  0.6737
  645TMC3     H 9552   0.097   1.881   9.738  0.2453 -1.0409 -0.7547
  645TMC3    H1 9553   0.343   1.845   9.396 -0.8002 -0.8257 -0.1058
  645TMC3    H2 9554   0.337   2.210   9.627  0.4196 -0.1677  0.1789
  645TMC3    C7 9555   0.441   2.099   9.403 -0.3743  0.7186  0.5949
  645TMC3    C8 9556   0.135   2.147   9.780  0.0643  0.0111  0.3445
  645TMC3    O1 9557   0.475   2.016   9.314 -0.3065  0.3874 -0.5034
  645TMC3    O2 9558   0.158   2.263   9.760 -0.0895 -0.2393  0.5777
  646MPD2     C 9559   0.049   1.278  14.634 -0.1819 -0.9974  0.1342
  646MPD2    C1 9560   4.669   1.271  14.732  0.2816  0.5835  0.1037
  646MPD2    C2 9561   4.570   1.374  14.731  0.0929 -0.0223 -0.1892
  646MPD2    C3 9562   4.575   1.486  14.645  0.0897  0.0966 -0.2023
  646MPD2    C4 9563   4.696   1.497  14.568  0.2795 -0.0389 -1.1694
  646MPD2    C5 9564   0.064   1.399  14.568  0.0900  0.2624  1.0336
  646MPD2     H 9565   4.487   1.356  14.798  0.2914  2.1679  0.6418
  646MPD2    H1 9566   4.710   1.582  14.502  2.4103  0.2391 -0.3696
  646MPD2    H2 9567   0.124   1.201  14.629 -1.5607 -2.2973 -0.3159
  646MPD2    H3 9568   0.147   1.409  14.498 -1.0338 -2.1525 -0.6480
  646MPD2     N 9569   4.459   1.572  14.627  0.0284  0.6825 -0.0556
  646MPD2    H5 9570   4.372   1.546  14.672 -0.0360  0.0630 -0.5367
  646MPD2    N1 9571   4.662   1.162  14.818  0.6027  0.4459 -0.5563
  646MPD2    H7 9572   4.722   1.086  14.786  2.5064  0.9079  1.8998
  647TMC3    C1 9573   4.636   1.044  15.010  0.5084 -0.0597 -0.0181
  647TMC3    C2 9574   4.562   1.020  15.124  0.1300  0.1172 -0.5326
  647TMC3    C3 9575   4.628   1.002  15.243  0.8111  0.1881 -0.6163
  647TMC3    C4 9576   0.051   1.036  15.016  0.0500 -0.0857  0.4444
  647TMC3    C5 9577   0.115   1.013  15.141 -0.2798  0.0534  0.1839
  647TMC3    C6 9578   0.045   0.993  15.252 -0.9229 -0.2315  0.1032
  647TMC3     C 9579   4.571   1.135  14.919  0.8718 -0.1626  0.0541
  647TMC3     O 9580   4.461   1.179  14.947 -0.0561 -0.0355  0.2145
  647TMC3     H 9581   4.455   1.004  15.130  0.2092 -0.1766  0.1408
  647TMC3    H1 9582   0.115   1.052  14.930  0.5766 -0.8263  0.6954
  647TMC3    H2 9583   0.098   0.964  15.342 -0.3254  4.0235  1.0906
  647TMC3    C7 9584   0.259   0.984  15.137  0.4573 -0.7350 -0.6983
  647TMC3    C8 9585   4.570   0.910  15.333  0.6679  0.1126  0.5342
  647TMC3    O1 9586   0.308   0.939  15.242 -0.1619  0.1789 -0.3187
  647TMC3    O2 9587   4.509   0.811  15.295 -0.2270  0.0538  0.2441
  648TMC3    C1 9588   4.153   3.533  16.161 -0.7882 -0.2897  0.1974
  648TMC3    C2 9589   4.170   3.418  16.089 -1.0042 -0.6416  0.1101
  648TMC3    C3 9590   4.102   3.408  15.974  1.0379 -0.7024 -0.8762
  648TMC3    C4 9591   4.055   3.626  16.131  0.0820 -0.0094 -0.5185
  648TMC3    C5 9592   3.978   3.604  16.022 -0.0631  0.5181 -0.2370
  648TMC3    C6 9593   4.010   3.502  15.936 -0.3131  0.1626 -0.3242
  648TMC3     C 9594   4.208   3.545  16.296 -0.4319  0.0979  0.0418
  648TMC3     O 9595   4.176   3.646  16.358  0.0778 -0.2085 -0.3352
  648TMC3     H 9596   4.222   3.335  16.136  2.1678  0.8115 -0.8539
  648TMC3    H1 9597   4.034   3.710  16.196 -3.1647  0.3531 -2.0256
  648TMC3    H2 9598   3.953   3.500  15.843  0.3971  0.9523 -0.7718
  648TMC3    C7 9599   3.905   3.716  15.967 -0.3314  0.0702  0.3295
  648TMC3    C8 9600   4.097   3.275  15.925  0.3993 -0.5819  0.2403
  648TMC3    O1 9601   3.904   3.713  15.846  0.0657  0.1172  0.4294
  648TMC3    O2 9602   3.988   3.239  15.899 -0.4798  0.0553  0.2501
  649TMC3    C1 9603   2.765   4.627  13.280 -0.1178 -0.5234 -0.1365
  649TMC3    C2 9604   2.901   4.646  13.253  0.0043  0.6219 -0.4359
  649TMC3    C3 9605   2.989   4.597  13.349  0.3484  0.1412 -0.5647
  649TMC3    C4 9606   2.717   4.584  13.396  0.9429 -0.5254 -0.1007
  649TMC3    C5 9607   2.809   4.533  13.486  0.2517  0.1575  0.1172
  649TMC3    C6 9608   2.943   4.530  13.466 -0.1187  0.3327  0.3489
  649TMC3     C 9609   2.662   4.643  13.178  0.2980  0.2619  0.2608
  649TMC3     O 9610   2.549   4.656  13.214  0.3883 -0.1584  0.6175
  649TMC3     H 9611   2.938   4.699  13.166  2.4670 -0.6023 -0.1097
  649TMC3    H1 9612   2.611   4.589  13.420  0.7915  0.8001 -1.0209
  649TMC3    H2 9613   3.015   4.508  13.544  0.5380 -1.2600 -0.6967
  649TMC3    C7 9614   2.764   4.508  13.617  0.3340  0.5510 -0.1913
  649TMC3    C8 9615   3.131   4.597  13.327  0.4331 -0.0220 -0.2832
  649TMC3    O1 9616   2.647   4.537  13.648  0.0686 -0.0713  0.8707
  649TMC3    O2 9617   3.198   4.520  13.396  0.1932 -0.2073  0.2872
  650TMC3    C1 9618   1.047   1.980  12.751  0.0387  1.2526 -0.4049
  650TMC3    C2 9619   1.103   2.101  12.777  0.3422 -1.3741 -0.8135
  650TMC3    C3 9620   1.178   2.157  12.675  0.0839  0.5962  0.2642
  650TMC3    C4 9621   1.048   1.924  12.625  0.4565  0.1813  0.3106
  650TMC3    C5 9622   1.100   1.996  12.519 -0.3291 -0.3182  0.4210
  650TMC3    C6 9623   1.172   2.112  12.546 -0.6905  0.6144 -0.8283
  650TMC3     C 9624   1.030   1.896  12.860 -0.1295 -0.6087 -0.0286
  650TMC3     O 9625   1.037   1.946  12.973  0.1260 -0.5813 -0.0749
  650TMC3     H 9626   1.097   2.151  12.873 -1.6173 -1.5818 -0.8295
  650TMC3    H1 9627   0.977   1.846  12.603  0.4394  0.3364 -0.1808
  650TMC3    H2 9628   1.224   2.166  12.468 -0.5901  1.8528  0.0966
  650TMC3    C7 9629   1.023   1.997  12.393  0.2679  0.4954  0.1576
  650TMC3    C8 9630   1.199   2.306  12.683  0.3108 -0.2216  0.0751
  650TMC3    O1 9631   0.955   1.896  12.369 -0.0099  0.0292  0.3320
  650TMC3    O2 9632   1.264   2.359  12.595  0.3832 -0.3591 -0.0869
  651MPD2     C 9633   4.349   3.194  10.835  0.0288 -0.3128 -0.1521
  651MPD2    C1 9634   4.327   3.318  10.889  0.4633  0.0611 -0.0875
  651MPD2    C2 9635   4.430   3.409  10.901  0.2938 -0.6567 -1.1020
  651MPD2    C3 9636   4.561   3.371  10.875  0.5144  0.1420 -0.7889
  651MPD2    C4 9637   4.580   3.242  10.821  0.1753 -0.1612 -0.4949
  651MPD2    C5 9638   4.475   3.157  10.806 -0.4977 -0.1086  0.0363
  651MPD2     H 9639   4.399   3.502  10.947 -0.5566 -0.7964 -1.3808
  651MPD2    H1 9640   4.680   3.200  10.811  0.7833  0.8942  1.1246
  651MPD2    H2 9641   4.272   3.123  10.807  0.0454 -0.2591 -0.3323
  651MPD2    H3 9642   4.493   3.058  10.766 -1.7837 -1.0463  1.7830
  651MPD2     N 9643   4.672   3.464  10.911 -0.3924  0.5248  0.7525
  651MPD2    H5 9644   4.653   3.553  10.955 -0.6543  0.6695  0.3416
  651MPD2    N1 9645   4.198   3.362  10.930  0.2650 -0.2947 -0.2937
  651MPD2    H7 9646   4.201   3.460  10.957 -0.5499 -1.0639  2.5637
  652TMC3    C1 9647   0.383   3.623  10.918 -0.1400  0.0977  0.1192
  652TMC3    C2 9648   0.300   3.515  10.927  0.3156 -0.1339 -0.4830
  652TMC3    C3 9649   0.164   3.546  10.920  0.3059 -0.2883 -0.1924
  652TMC3    C4 9650   0.342   3.757  10.898  0.8003 -0.1798  0.0038
  652TMC3    C5 9651   0.206   3.781  10.885 -0.0693  0.6466  0.7547
  652TMC3    C6 9652   0.120   3.672  10.892 -1.1674  0.4427 -0.2393
  652TMC3     C 9653   0.530   3.605  10.941 -0.0180 -0.4061 -0.1946
  652TMC3     O 9654   0.602   3.695  10.912 -0.3702  0.2608  0.0578
  652TMC3     H 9655   0.337   3.413  10.921  0.0755 -0.1505 -1.8921
  652TMC3    H1 9656   0.414   3.836  10.911  0.0845  0.4259  0.3164
  652TMC3    H2 9657   0.016   3.701  10.899 -0.7465  0.8338  4.0048
  652TMC3    C7 9658   0.148   3.921  10.891  0.0882  1.3821  0.0325
  652TMC3    C8 9659   0.078   3.430  10.888 -0.0089 -0.2552  0.1838
  652TMC3    O1 9660   0.039   3.935  10.943  0.4251  0.0382 -0.4633
  652TMC3    O2 9661   0.132   3.323  10.862  0.1959 -0.2900 -0.1804
  653MPD2     C 9662   3.525   2.906   0.095 -1.1542  0.0670  0.7635
  653MPD2    C1 9663   3.444   3.000   0.035  0.3040 -0.3819 -0.1868
  653MPD2    C2 9664   3.363   2.959  17.626 -0.6343  0.3293  1.0783
  653MPD2    C3 9665   3.378   2.829  17.573 -0.4747  0.4157  0.5315
  653MPD2    C4 9666   3.471   2.744  17.625 -0.4126  0.0062 -0.8525
  653MPD2    C5 9667   3.539   2.783   0.040  0.6229 -0.2270 -0.1740
  653MPD2     H 9668   3.295   3.027  17.576 -0.6925  0.0331  0.7509
  653MPD2    H1 9669   3.497   2.647  17.585  2.5367 -0.2880  1.8098
  653MPD2    H2 9670   3.593   2.927   0.177  1.5567  1.2087 -1.7717
  653MPD2    H3 9671   3.618   2.724   0.085 -0.9321 -1.7931  0.4574
  653MPD2     N 9672   3.302   2.792  17.459  0.4711  0.4279 -0.2152
  653MPD2    H5 9673   3.239   2.867  17.432 -0.4126 -0.4067 -0.4878
  653MPD2    N1 9674   3.427   3.136   0.079  0.2591  0.3626 -0.5308
  653MPD2    H7 9675   3.365   3.197   0.026 -0.9512  1.3791  2.0990
  654TMC3    C1 9676   3.185   2.656  17.304  0.0387 -0.2503  0.6247
  654TMC3    C2 9677   3.092   2.749  17.279 -0.4206 -0.4760  0.3795
  654TMC3    C3 9678   2.971   2.723  17.213  0.1860  0.4078  0.4044
  654TMC3    C4 9679   3.162   2.518  17.276 -1.5571 -0.4789 -0.2903
  654TMC3    C5 9680   3.032   2.499  17.217 -0.3314  0.3596 -0.6000
  654TMC3    C6 9681   2.947   2.596  17.183 -0.0416  0.1849 -0.2153
  654TMC3     C 9682   3.305   2.672  17.388 -0.4381 -0.6864  1.0290
  654TMC3     O 9683   3.372   2.572  17.397 -0.2342  0.2032 -0.2817
  654TMC3     H 9684   3.107   2.855  17.295  0.1345 -0.6102  0.7511
  654TMC3    H1 9685   3.240   2.444  17.269 -2.2532 -1.0866 -1.6258
  654TMC3    H2 9686   2.854   2.571  17.132  0.5089 -1.4133 -0.4475
  654TMC3    C7 9687   3.021   2.376  17.146  0.2292 -0.4006 -0.1301
  654TMC3    C8 9688   2.907   2.828  17.145 -0.2650  0.3140  0.0145
  654TMC3    O1 9689   2.961   2.391  17.041  0.5065  0.9150 -0.4098
  654TMC3    O2 9690   2.788   2.813  17.119 -0.6059  0.7268 -0.0582
  655MPD2     C 9691   4.414   3.605  15.930 -0.5421  0.8679  0.1689
  655MPD2    C1 9692   4.350   3.705  15.858 -0.5583 -0.4061 -0.0741
  655MPD2    C2 9693   4.342   3.677  15.720 -0.0970 -0.2561  0.3462
  655MPD2    C3 9694   4.388   3.560  15.660 -0.1793  0.0718 -1.1600
  655MPD2    C4 9695   4.452   3.468  15.740 -0.0906 -0.8244  0.0512
  655MPD2    C5 9696   4.463   3.486  15.876 -0.7545  0.0781  0.8412
  655MPD2     H 9697   4.277   3.739  15.660  0.2013  0.8941  1.2002
  655MPD2    H1 9698   4.502   3.378  15.705  0.5485 -0.8788  1.1086
  655MPD2    H2 9699   4.438   3.621  16.035  1.7213 -0.6928 -0.1118
  655MPD2    H3 9700   4.517   3.417  15.940  1.6637  1.9359  0.7920
  655MPD2     N 9701   4.380   3.535  15.521  0.3073  0.0334 -0.2628
  655MPD2    H5 9702   4.430   3.450  15.497 -0.9305 -0.3322 -1.5381
  655MPD2    N1 9703   4.280   3.815  15.912  0.0968  0.4773  0.2288
  655MPD2    H7 9704   4.216   3.859  15.845  0.5479 -0.4367 -0.8094
  656TMC3    C1 9705   4.185   3.960  16.076 -0.0285 -0.5455  0.4874
  656TMC3    C2 9706   4.124   3.945  16.202 -0.0502  0.0135  0.3588
  656TMC3    C3 9707   4.027   4.031  16.243  0.0026 -0.8956  0.1489
  656TMC3    C4 9708   4.150   4.053  15.986  0.0674 -0.3547 -0.1536
  656TMC3    C5 9709   4.046   4.131  16.026 -0.2520  0.1963 -0.5816
  656TMC3    C6 9710   3.981   4.124  16.156  0.1510 -0.2684  0.3686
  656TMC3     C 9711   4.285   3.855  16.046  0.2988 -0.3139 -0.1021
  656TMC3     O 9712   4.348   3.808  16.141 -0.1841 -0.8279 -0.1574
  656TMC3     H 9713   4.147   3.860  16.266 -0.3528 -0.5129 -0.2285
  656TMC3    H1 9714   4.203   4.062  15.892 -1.6125 -0.7959 -1.1421
  656TMC3    H2 9715   3.892   4.179  16.185 -1.0123 -1.2259 -1.4201
  656TMC3    C7 9716   3.996   4.231  15.934  0.2973 -0.4891 -0.4283
  656TMC3    C8 9717   3.934   3.974  16.327  0.2681  1.1583 -0.4051
  656TMC3    O1 9718   4.059   4.241  15.827 -0.0093 -0.7968 -0.1618
  656TMC3    O2 9719   3.922   3.851  16.324 -0.1500 -0.4155 -0.2428
  657TMC3    C1 9720   3.469   3.155  15.396 -0.4166 -0.5038  0.2802
  657TMC3    C2 9721   3.492   3.225  15.513  0.2870 -0.0997  0.9895
  657TMC3    C3 9722   3.398   3.314  15.557 -0.0390 -0.1495 -0.4252
  657TMC3    C4 9723   3.354   3.184  15.324 -0.0884 -0.5604 -0.2851
  657TMC3    C5 9724   3.261   3.266  15.377  0.0671  0.0567  0.4859
  657TMC3    C6 9725   3.269   3.324  15.500  0.2671  0.0950  0.3514
  657TMC3     C 9726   3.565   3.058  15.359 -0.8113 -0.1151  0.3628
  657TMC3     O 9727   3.659   3.046  15.435 -0.1892 -0.2989  0.1145
  657TMC3     H 9728   3.582   3.212  15.571 -0.9872 -0.1298  2.9723
  657TMC3    H1 9729   3.330   3.126  15.236 -0.4111  0.8021 -1.0958
  657TMC3    H2 9730   3.203   3.406  15.529  0.0786 -0.2316  0.8324
  657TMC3    C7 9731   3.200   3.356  15.275 -0.4022  0.5044 -0.2778
  657TMC3    C8 9732   3.409   3.377  15.691 -0.4742  0.1218 -0.0705
  657TMC3    O1 9733   3.148   3.452  15.327 -0.2637 -0.0091 -0.0302
  657TMC3    O2 9734   3.319   3.459  15.719 -0.0211 -0.3051  0.5570
  658MPD2     C 9735   0.019   3.664  14.699  0.6600  0.8997 -0.1060
  658MPD2    C1 9736   4.655   3.719  14.793 -0.6044  0.3087 -0.1550
  658MPD2    C2 9737   4.598   3.842  14.758  0.1455 -0.2064 -0.2912
  658MPD2    C3 9738   4.635   3.909  14.653 -0.7448 -0.5068 -0.0862
  658MPD2    C4 9739   0.003   3.857  14.568 -0.0238  0.4996  0.0430
  658MPD2    C5 9740   0.059   3.734  14.590  0.4303 -0.3513  0.0973
  658MPD2     H 9741   4.513   3.882  14.813  3.0937  2.9544  1.9506
  658MPD2    H1 9742   0.024   3.899  14.471 -1.3832  1.2692  0.0769
  658MPD2    H2 9743   0.076   3.573  14.711  0.3401  0.6603 -0.4392
  658MPD2    H3 9744   0.127   3.687  14.521  1.8352  1.4658  0.2328
  658MPD2     N 9745   4.555   4.019  14.632  0.2112 -0.0509 -0.0332
  658MPD2    H5 9746   4.488   4.038  14.705 -0.0584 -1.3180  0.0469
  658MPD2    N1 9747   4.607   3.641  14.899 -0.3706  0.0494  0.0931
  658MPD2    H7 9748   4.628   3.543  14.911 -1.6755 -0.5620 -2.4726
  659TMC3    C1 9749   4.463   3.613  15.083 -0.6482  0.8439  0.2035
  659TMC3    C2 9750   4.444   3.656  15.215 -0.1067  0.0871  0.5525
  659TMC3    C3 9751   4.369   3.575  15.290  0.3168  0.0836 -0.5900
  659TMC3    C4 9752   4.397   3.511  15.019 -0.0144  0.1029 -0.3981
  659TMC3    C5 9753   4.322   3.428  15.103  0.6315  0.3430  0.4465
  659TMC3    C6 9754   4.316   3.455  15.239  0.2077  0.0743 -0.0549
  659TMC3     C 9755   4.543   3.703  15.003  0.3064 -0.0492 -0.5297
  659TMC3     O 9756   4.528   3.822  15.035 -0.4572  0.3961 -0.2891
  659TMC3     H 9757   4.513   3.729  15.255 -0.0921  0.8994 -0.9939
  659TMC3    H1 9758   4.423   3.493  14.916 -0.1764  2.7691 -0.8979
  659TMC3    H2 9759   4.241   3.400  15.295 -0.2335  1.6759  0.9416
  659TMC3    C7 9760   4.190   3.398  15.044  0.0425  0.2411 -0.6216
  659TMC3    C8 9761   4.332   3.617  15.421  0.1673  0.1736 -0.2321
  659TMC3    O1 9762   4.114   3.321  15.106 -0.1713 -0.1946 -0.2853
  659TMC3    O2 9763   4.296   3.737  15.426 -0.9698  0.3799  0.1295
  660MPD2     C 9764   2.838   2.236  12.616  0.2324 -0.6059 -0.1564
  660MPD2    C1 9765   2.709   2.251  12.559  0.2173  0.2117 -0.3560
  660MPD2    C2 9766   2.599   2.195  12.615  0.1062  0.0395 -0.1423
  660MPD2    C3 9767   2.616   2.129  12.742  0.0524  0.1242 -0.3664
  660MPD2    C4 9768   2.740   2.133  12.807 -0.3551  0.0253 -0.5055
  660MPD2    C5 9769   2.848   2.185  12.741 -0.4792 -0.3547  0.9375
  660MPD2     H 9770   2.504   2.195  12.563  0.8248 -2.1769 -1.4418
  660MPD2    H1 9771   2.756   2.093  12.906  2.0571 -0.0482 -0.9407
  660MPD2    H2 9772   2.932   2.270  12.574 -0.9852  0.0557 -2.3439
  660MPD2    H3 9773   2.943   2.170  12.790  0.3148 -0.8777 -0.7425
  660MPD2     N 9774   2.504   2.073  12.822 -0.2524 -0.4989  0.0215
  660MPD2    H5 9775   2.527   2.016  12.903  0.7280  0.8389  0.6884
  660MPD2    N1 9776   2.699   2.309  12.431 -0.4995 -0.5339  0.2456
  660MPD2    H7 9777   2.786   2.317  12.380 -0.5938  0.2742  0.2263
  661TMC3    C1 9778   2.600   2.357  12.218  0.4917 -0.3333 -0.7778
  661TMC3    C2 9779   2.696   2.287  12.149 -0.4225 -0.0698  0.1216
  661TMC3    C3 9780   2.672   2.259  12.016  0.2934  0.5051 -0.3883
  661TMC3    C4 9781   2.484   2.401  12.161  0.5618  0.9337  0.0614
  661TMC3    C5 9782   2.477   2.384  12.025  0.0269  0.3703  0.4970
  661TMC3    C6 9783   2.561   2.303  11.956  0.3262 -0.7200 -0.6453
  661TMC3     C 9784   2.587   2.332  12.361  0.1935 -0.1707 -0.8252
  661TMC3     O 9785   2.472   2.356  12.399  0.4410  0.5527  0.4382
  661TMC3     H 9786   2.780   2.245  12.204  0.5156 -1.6567 -2.4742
  661TMC3    H1 9787   2.405   2.452  12.215  0.3103  0.6897 -0.0799
  661TMC3    H2 9788   2.563   2.299  11.848 -0.0576 -0.9364 -0.6428
  661TMC3    C7 9789   2.371   2.452  11.955 -0.2014 -0.2112  0.0672
  661TMC3    C8 9790   2.753   2.158  11.942  0.3928  0.1693  0.6838
  661TMC3    O1 9791   2.307   2.539  12.015 -0.6688 -0.0732 -0.5288
  661TMC3    O2 9792   2.694   2.100  11.850 -0.3100  0.0763  0.0328
  662MPD2     C 9793   2.817   1.691   0.115 -0.3232  0.7054  0.7972
  662MPD2    C1 9794   2.814   1.583   0.196  0.4341 -0.0087 -0.1979
  662MPD2    C2 9795   2.898   1.575   0.302  0.4510  0.0160  0.2369
  662MPD2    C3 9796   3.006   1.659   0.317 -0.7017 -0.3934  0.4275
  662MPD2    C4 9797   3.013   1.775   0.240 -0.2384 -0.2622 -0.4189
  662MPD2    C5 9798   2.908   1.796   0.148 -0.6734 -0.4476 -0.4216
  662MPD2     H 9799   2.878   1.496   0.373  0.7948 -1.6292 -1.4876
  662MPD2    H1 9800   3.088   1.852   0.254  0.1407 -0.6700 -0.2168
  662MPD2    H2 9801   2.744   1.709   0.038 -0.6218  0.1631  0.9544
  662MPD2    H3 9802   2.909   1.884   0.085  0.2339 -0.4805 -0.4451
  662MPD2     N 9803   3.098   1.636   0.422  0.6085  0.0605 -0.3529
  662MPD2    H5 9804   3.166   1.711   0.435  0.9284  0.2517 -3.2292
  662MPD2    N1 9805   2.708   1.483   0.181  0.0524  0.1706 -0.5064
  662MPD2    H7 9806   2.705   1.414   0.256 -2.5852  1.2529  0.3745
  663TMC3    C1 9807   2.536   1.354   0.087 -0.1860 -0.6348  0.4150
  663TMC3    C2 9808   2.537   1.305   0.211 -0.3877 -0.8747  0.2330
  663TMC3    C3 9809   2.472   1.188   0.216 -0.4393  0.2644 -0.3491
  663TMC3    C4 9810   2.481   1.299  17.674 -0.4432 -0.1255 -0.5858
  663TMC3    C5 9811   2.413   1.182  17.681  0.8071  0.4972 -0.1151
  663TMC3    C6 9812   2.414   1.124   0.107  0.8540 -0.0115 -0.4152
  663TMC3     C 9813   2.623   1.468   0.072 -0.2997  0.2049 -0.8367
  663TMC3     O 9814   2.617   1.539  17.668  0.5046  0.7530 -0.2979
  663TMC3     H 9815   2.546   1.360   0.304 -1.0343 -0.6893  0.1824
  663TMC3    H1 9816   2.502   1.334  17.574  0.9119 -0.6757 -0.4959
  663TMC3    H2 9817   2.337   1.048   0.118  0.6702  0.6906  3.0503
  663TMC3    C7 9818   2.457   1.088  17.581  0.1495 -0.0425 -0.6524
  663TMC3    C8 9819   2.382   1.181   0.331 -0.2352  0.0868 -0.5673
  663TMC3    O1 9820   2.485   1.139  17.471 -0.2330 -0.8770  0.3430
  663TMC3    O2 9821   2.334   1.286   0.374  0.1838  0.0766 -0.0184
  664MPD2     C 9822   0.927   4.413  17.500  0.2456 -0.0763  1.0328
  664MPD2    C1 9823   0.909   4.534  17.557  0.3642  0.2822  0.3366
  664MPD2    C2 9824   0.866   4.544  17.688 -0.4703 -0.1714 -0.4280
  664MPD2    C3 9825   0.861   4.426   0.070 -0.6722 -0.1859 -0.5633
  664MPD2    C4 9826   0.880   4.305   0.010  0.3442  0.7875 -0.0584
  664MPD2    C5 9827   0.911   4.297  17.577 -0.8076  0.4737  0.2408
  664MPD2     H 9828   0.852   4.647   0.023  1.0714 -0.2870  0.5658
  664MPD2    H1 9829   0.871   4.211   0.062  0.3708  0.6494 -0.3047
  664MPD2    H2 9830   0.954   4.390  17.398  1.6321  0.8109  1.2042
  664MPD2    H3 9831   0.913   4.198  17.532 -0.7798 -0.4882  2.3385
  664MPD2     N 9832   0.823   4.443   0.207  0.3067  0.3218 -0.5098
  664MPD2    H5 9833   0.811   4.539   0.237  4.2550  0.4212  0.6951
  664MPD2    N1 9834   0.921   4.655  17.492 -0.4603 -0.4912 -0.3032
  664MPD2    H7 9835   0.886   0.011  17.543 -1.8823 -1.5102  0.3170
  665TMC3    C1 9836   0.813   4.397   0.441 -0.4684 -0.7181 -0.7327
  665TMC3    C2 9837   0.787   4.314   0.545  0.5695  0.1409 -0.3229
  665TMC3    C3 9838   0.827   4.350   0.669 -0.2371  0.8042  0.8961
  665TMC3    C4 9839   0.886   4.516   0.459  0.1941  0.6026 -0.7410
  665TMC3    C5 9840   0.935   4.540   0.585 -0.1402  0.0601 -1.0555
  665TMC3    C6 9841   0.907   4.461   0.690 -0.4251 -1.0833 -0.2672
  665TMC3     C 9842   0.804   4.347   0.305  0.0138  0.6906 -0.2563
  665TMC3     O 9843   0.789   4.228   0.292 -0.3996  0.7411 -1.1764
  665TMC3     H 9844   0.732   4.224   0.519  0.1968 -0.1538  1.4663
  665TMC3    H1 9845   0.887   4.591   0.382  0.3768  0.6532 -0.6891
  665TMC3    H2 9846   0.940   4.488   0.789 -0.6602  0.4134 -0.5950
  665TMC3    C7 9847   1.022   4.657   0.605  0.1817  0.2842 -0.6150
  665TMC3    C8 9848   0.794   4.270   0.782  0.6168 -0.1454 -0.0972
  665TMC3    O1 9849   1.019   0.019   0.521 -0.0090  0.3789 -0.1966
  665TMC3    O2 9850   0.833   4.303   0.892  0.2576  0.3278  0.2882
  666TMC3    C1 9851   0.104   0.161   9.807  0.7989 -0.2089  0.0743
  666TMC3    C2 9852   0.218   0.088   9.843 -0.8619  0.3585  0.2615
  666TMC3    C3 9853   0.337   0.143   9.843  0.0976 -0.2005  0.6841
  666TMC3    C4 9854   0.119   0.274   9.733  0.0866  0.0513  0.1716
  666TMC3    C5 9855   0.238   0.345   9.762  0.7580 -0.3319 -0.2912
  666TMC3    C6 9856   0.349   0.281   9.807  0.4303 -1.0647 -0.0612
  666TMC3     C 9857   4.700   0.136   9.880 -0.3727  0.5041 -0.4461
  666TMC3     O 9858   4.600   0.202   9.852 -0.2801  0.1628  0.3725
  666TMC3     H 9859   0.202   4.716   9.890 -0.5108  0.9345  1.5601
  666TMC3    H1 9860   0.033   0.327   9.694  0.8097  0.0572 -1.4367
  666TMC3    H2 9861   0.433   0.332   9.852 -0.0980  1.6864 -2.2009
  666TMC3    C7 9862   0.231   0.493   9.757  0.2849 -0.0027  0.5449
  666TMC3    C8 9863   0.433   0.095   9.940  0.3524 -0.3150 -0.0074
  666TMC3    O1 9864   0.124   0.541   9.781  0.2953  0.1413  0.1563
  666TMC3    O2 9865   0.383   0.035  10.034 -0.5867  0.1041  0.4813
  667MPD2     C 9866   1.696   0.548  15.046  0.4325  0.5818 -0.1003
  667MPD2    C1 9867   1.590   0.508  15.132 -0.3944 -0.0594 -0.5309
  667MPD2    C2 9868   1.464   0.486  15.072  0.2901  0.4506 -0.9336
  667MPD2    C3 9869   1.449   0.496  14.932  0.0010  0.0881  0.1835
  667MPD2    C4 9870   1.557   0.515  14.850  0.4557 -0.7890  0.7169
  667MPD2    C5 9871   1.675   0.561  14.912  0.2133 -0.2527 -0.2715
  667MPD2     H 9872   1.382   0.457  15.137  0.3361  1.8754 -0.2343
  667MPD2    H1 9873   1.562   0.505  14.742 -1.8560  0.1799  0.5106
  667MPD2    H2 9874   1.796   0.568  15.084  0.9404 -0.8295 -0.7032
  667MPD2    H3 9875   1.760   0.584  14.849 -1.0506  1.9538 -1.1582
  667MPD2     N 9876   1.321   0.477  14.871  0.6378  0.2083 -0.8220
  667MPD2    H5 9877   1.312   0.483  14.770  1.7506 -0.8375 -0.9806
  667MPD2    N1 9878   1.601   0.485  15.269 -0.1475 -0.1631 -0.5456
  667MPD2    H7 9879   1.516   0.457  15.316 -1.0925  3.3952 -0.0834
  668TMC3    C1 9880   1.709   0.485  15.487  0.4997  0.2430 -0.7186
  668TMC3    C2 9881   1.811   0.542  15.560  0.5043  0.7329 -0.1623
  668TMC3    C3 9882   1.786   0.601  15.681 -0.4122 -0.2218  0.6741
  668TMC3    C4 9883   1.583   0.469  15.535 -0.0940 -0.4524 -0.5568
  668TMC3    C5 9884   1.574   0.501  15.671  0.1002 -0.0693  0.3934
  668TMC3    C6 9885   1.668   0.575  15.743  0.2790 -0.0736  0.0493
  668TMC3     C 9886   1.720   0.509  15.339 -0.0653  0.0175 -0.4958
  668TMC3     O 9887   1.825   0.561  15.298  0.4349  0.5356 -0.3368
  668TMC3     H 9888   1.904   0.558  15.508  1.1941 -0.0081  0.8304
  668TMC3    H1 9889   1.513   0.399  15.490 -1.6345 -0.4038  1.7363
  668TMC3    H2 9890   1.650   0.602  15.846 -2.6596 -0.7568 -0.2963
  668TMC3    C7 9891   1.471   0.438  15.746  0.1774  0.4315 -0.2605
  668TMC3    C8 9892   1.855   0.714  15.734  0.3071  0.4951 -0.4947
  668TMC3    O1 9893   1.487   0.409  15.864 -0.2278  0.0339 -0.1298
  668TMC3    O2 9894   1.806   0.758  15.839  0.4452  0.1689 -0.3708
  669TMC3    C1 9895   4.708   0.338  14.383 -0.7492  0.2370 -0.4115
  669TMC3    C2 9896   4.581   0.377  14.360  0.2426  0.4341 -0.9575
  669TMC3    C3 9897   4.571   0.504  14.307 -0.1471  0.1016 -0.0065
  669TMC3    C4 9898   0.093   0.418  14.353 -0.5288 -0.4240  0.6091
  669TMC3    C5 9899   0.083   0.528  14.277 -0.0308  0.5511  0.1251
  669TMC3    C6 9900   4.680   0.575  14.250 -0.6732  0.0590 -0.4158
  669TMC3     C 9901   4.720   0.252  14.500 -0.2537  0.0321  0.6113
  669TMC3     O 9902   4.631   0.277  14.578  0.6125  0.1968 -0.1334
  669TMC3     H 9903   4.498   0.319  14.398 -0.0293  2.0034  0.8236
  669TMC3    H1 9904   0.184   0.379  14.395  0.7025  0.7840 -0.9353
  669TMC3    H2 9905   4.677   0.671  14.200 -0.7234 -1.0223 -2.4830
  669TMC3    C7 9906   0.200   0.609  14.254 -0.6356  0.0700 -0.1950
  669TMC3    C8 9907   4.430   0.542  14.276  0.5608  0.2169  0.1501
  669TMC3    O1 9908   0.300   0.594  14.327 -0.1864  0.1533 -0.1962
  669TMC3    O2 9909   4.341   0.454  14.288 -0.4110  0.2359  0.0805
  670MPD2     C 9910   2.610   3.022  13.299  0.0277  0.5066 -0.4868
  670MPD2    C1 9911   2.744   3.034  13.329  0.3648 -0.5051  0.0017
  670MPD2    C2 9912   2.784   3.039  13.461 -1.0251  0.2025  0.1787
  670MPD2    C3 9913   2.682   3.040  13.564  0.1586  0.1553 -0.2921
  670MPD2    C4 9914   2.548   3.041  13.528  0.3405 -0.4259 -0.8077
  670MPD2    C5 9915   2.508   3.035  13.397 -0.6103 -0.1784  0.1250
  670MPD2     H 9916   2.891   3.037  13.476 -0.6403  0.3766 -2.5393
  670MPD2    H1 9917   2.466   3.042  13.600 -1.1974 -1.2359 -2.5313
  670MPD2    H2 9918   2.571   3.016  13.198  0.7377 -2.7510 -0.5570
  670MPD2    H3 9919   2.403   3.041  13.369 -0.9595 -0.8250  1.2917
  670MPD2     N 9920   2.729   3.052  13.694 -0.2589  0.5228 -0.0532
  670MPD2    H5 9921   2.829   3.054  13.710 -0.7609 -0.2125  3.1872
  670MPD2    N1 9922   2.837   3.038  13.227  0.2482 -0.5705 -0.1914
  670MPD2    H7 9923   2.935   3.030  13.253  0.3135 -2.7441 -1.0891
  671TMC3    C1 9924   2.726   3.073  13.924 -0.0848 -0.9137 -0.3314
  671TMC3    C2 9925   2.860   3.099  13.922  0.2467 -0.4156 -0.0824
  671TMC3    C3 9926   2.933   3.063  14.030  0.5701 -0.2831  0.1992
  671TMC3    C4 9927   2.669   2.994  14.017  0.3145  0.7542  0.1859
  671TMC3    C5 9928   2.751   2.942  14.117  0.5388  0.1883  0.2154
  671TMC3    C6 9929   2.881   2.977  14.123  0.5554  0.1762 -0.2662
  671TMC3     C 9930   2.649   3.070  13.802  0.1602 -0.3567 -0.1938
  671TMC3     O 9931   2.528   3.076  13.807  0.5504 -0.4588 -0.6959
  671TMC3     H 9932   2.900   3.173  13.854 -1.2196  1.7895  1.4345
  671TMC3    H1 9933   2.561   2.987  14.016  0.6084 -3.4993 -0.8500
  671TMC3    H2 9934   2.949   2.947  14.202 -0.7741  0.0435  0.8328
  671TMC3    C7 9935   2.709   2.819  14.179 -0.1202 -0.4895  0.5623
  671TMC3    C8 9936   3.061   3.026  13.994 -0.2326  0.2780  0.6893
  671TMC3    O1 9937   2.600   2.785  14.143 -1.1567  0.0685 -0.2966
  671TMC3    O2 9938   3.083   2.963  13.888 -0.1186 -0.4250 -0.1905
  672MPD2     C 9939   3.564   2.305   1.207  0.0881  0.8536 -0.0838
  672MPD2    C1 9940   3.682   2.257   1.151  0.0909 -0.7074 -0.2874
  672MPD2    C2 9941   3.802   2.327   1.165  0.0906  0.2227  0.3511
  672MPD2    C3 9942   3.808   2.449   1.228 -0.1715 -0.1786  0.1880
  672MPD2    C4 9943   3.684   2.502   1.273  0.0156  1.1413 -0.2286
  672MPD2    C5 9944   3.569   2.436   1.263  0.1091  1.0500  0.0258
  672MPD2     H 9945   3.885   2.280   1.114 -1.4509 -2.1995  0.0909
  672MPD2    H1 9946   3.678   2.595   1.328 -1.9080 -1.2260  3.5739
  672MPD2    H2 9947   3.471   2.250   1.202  1.4917 -1.5719  0.5474
  672MPD2    H3 9948   3.481   2.478   1.310 -1.3824  0.2636 -2.0592
  672MPD2     N 9949   3.928   2.527   1.260  0.1024  0.2239 -0.2139
  672MPD2    H5 9950   3.903   2.612   1.309  2.7184  1.2795 -0.7180
  672MPD2    N1 9951   3.692   2.139   1.073 -0.0614  0.8130  0.2078
  672MPD2    H7 9952   3.777   2.128   1.018 -1.6040 -0.4685 -1.9156
  673TMC3    C1 9953   3.603   2.006   0.901 -0.4078 -0.3642 -0.0377
  673TMC3    C2 9954   3.708   1.916   0.885  0.2296 -0.2791 -0.1355
  673TMC3    C3 9955   3.737   1.888   0.752  0.0457 -0.6897  0.1570
  673TMC3    C4 9956   3.543   2.082   0.802  0.1062 -0.2392  0.2242
  673TMC3    C5 9957   3.592   2.058   0.676 -0.6362  0.0038 -0.6015
  673TMC3    C6 9958   3.686   1.961   0.647  0.8945 -0.7969 -0.2199
  673TMC3     C 9959   3.588   2.055   1.039  0.7976 -0.1679  0.5084
  673TMC3     O 9960   3.472   2.059   1.081 -0.2236 -0.4141  0.1047
  673TMC3     H 9961   3.747   1.857   0.968 -0.8209  0.3957  0.8310
  673TMC3    H1 9962   3.471   2.160   0.826 -1.1859 -0.8996 -1.4409
  673TMC3    H2 9963   3.707   1.934   0.544  3.3965  3.8020 -0.9033
  673TMC3    C7 9964   3.549   2.148   0.564 -0.2652  0.3948 -0.2927
  673TMC3    C8 9965   3.808   1.768   0.723  0.3742 -0.7293  0.1004
  673TMC3    O1 9966   3.565   2.102   0.452 -0.5067 -0.2022  0.1559
  673TMC3    O2 9967   3.782   1.695   0.625  0.0686 -0.2259 -0.1963
  674MPD2     C 9968   2.925   1.683  17.393 -0.6596 -0.6516 -0.8472
  674MPD2    C1 9969   2.999   1.703  17.504  0.6080  0.1737  0.3179
  674MPD2    C2 9970   3.021   1.837  17.546  0.2484  0.4099 -0.3106
  674MPD2    C3 9971   2.949   1.945  17.494  0.1607  0.2950 -0.5195
  674MPD2    C4 9972   2.874   1.920  17.379  0.5549  0.1642 -0.2951
  674MPD2    C5 9973   2.858   1.788  17.340  0.2130 -0.2109 -0.0950
  674MPD2     H 9974   3.073   1.856  17.639 -3.1242  0.5238  1.5815
  674MPD2    H1 9975   2.827   1.994  17.316  0.3955  0.4914  0.2103
  674MPD2    H2 9976   2.914   1.587  17.345 -1.1121 -1.3652  0.6852
  674MPD2    H3 9977   2.800   1.761  17.253 -1.9721  1.7040  0.7374
  674MPD2     N 9978   2.956   2.071  17.557  0.1052  0.2171  0.3285
  674MPD2    H5 9979   3.025   2.076  17.631 -1.0640 -1.2005  1.5246
  674MPD2    N1 9980   3.053   1.584  17.564  0.2305 -0.1063 -0.3125
  674MPD2    H7 9981   3.017   1.492  17.540 -3.1089  0.6071  1.9005
  675TMC3    C1 9982   3.170   1.457   0.021 -0.0880  0.4060  0.0906
  675TMC3    C2 9983   3.059   1.377   0.055  0.1236  0.3369 -0.7651
  675TMC3    C3 9984   3.064   1.312   0.175 -0.1877 -0.5332  0.3282
  675TMC3    C4 9985   3.286   1.452   0.086 -0.2423  0.2751 -0.3295
  675TMC3    C5 9986   3.296   1.386   0.199 -0.4382 -0.1122  0.3847
  675TMC3    C6 9987   3.184   1.317   0.244 -0.2257  0.1243 -0.1325
  675TMC3     C 9988   3.147   1.582  17.662 -0.3345  0.2022  0.2957
  675TMC3     O 9989   3.223   1.674  17.694 -0.2031  0.0964 -0.1225
  675TMC3     H 9990   2.965   1.388   0.002 -1.0963 -0.4131  1.2195
  675TMC3    H1 9991   3.374   1.502   0.047 -0.0446 -1.0362 -1.5484
  675TMC3    H2 9992   3.186   1.250   0.329  2.8578  1.3979  0.7991
  675TMC3    C7 9993   3.426   1.361   0.252  0.2340 -0.3756 -0.3025
  675TMC3    C8 9994   2.945   1.243   0.217  0.1040 -0.6695  0.1616
  675TMC3    O1 9995   3.521   1.376   0.178 -0.0567 -0.1197  0.7307
  675TMC3    O2 9996   2.865   1.209   0.128  0.4167 -0.1183  0.2783
  676MPD2     C 9997   0.968   1.319  11.128  0.3886  0.2266 -0.0482
  676MPD2    C1 9998   0.834   1.309  11.148 -0.3498  0.4599  0.5268
  676MPD2    C2 9999   0.772   1.200  11.097  0.4144  0.7492 -0.1543
  676MPD2    C310000   0.830   1.139  10.990 -0.2051 -0.3809  0.4685
  676MPD2    C410001   0.961   1.162  10.957 -0.1212  0.4537 -0.5364
  676MPD2    C510002   1.037   1.253  11.028  0.1566 -0.7088 -0.3875
  676MPD2     H10003   0.668   1.172  11.115  1.2659 -1.1457  1.8400
  676MPD2    H110004   1.010   1.119  10.870 -0.5875 -0.6069 -0.2783
  676MPD2    H210005   1.037   1.378  11.188 -0.5958  0.9136  0.4009
  676MPD2    H310006   1.140   1.273  11.001  0.2978 -0.9237  0.0037
  676MPD2     N10007   0.761   1.040  10.911 -0.7996  0.5703 -0.2840
  676MPD2    H510008   0.795   1.022  10.818  0.1266 -3.1248  0.7725
  676MPD2    N110009   0.765   1.376  11.246  0.1303 -0.2009 -0.1361
  676MPD2    H710010   0.667   1.358  11.267  0.0383  0.9417  0.4067
  677TMC3    C110011   0.722   1.550  11.400 -0.1071 -0.1507 -0.0628
  677TMC3    C210012   0.664   1.459  11.494  0.7042 -0.1399 -0.1618
  677TMC3    C310013   0.613   1.514  11.606  0.2159  0.2602 -0.1758
  677TMC3    C410014   0.736   1.685  11.429 -0.3230  1.1004 -0.3112
  677TMC3    C510015   0.681   1.732  11.545 -0.2567 -0.2948 -0.4393
  677TMC3    C610016   0.611   1.646  11.630 -0.9302 -0.5598 -0.6022
  677TMC3     C10017   0.807   1.486  11.299 -0.5161 -0.2526 -0.0030
  677TMC3     O10018   0.906   1.551  11.267  0.4120  0.3946 -0.5697
  677TMC3     H10019   0.686   1.353  11.489 -1.8396 -0.7252  0.7256
  677TMC3    H110020   0.776   1.751  11.353 -2.4540  1.9833 -0.6620
  677TMC3    H210021   0.559   1.685  11.717 -1.3223 -2.4329  0.0065
  677TMC3    C710022   0.733   1.853  11.602  0.0165 -0.4775 -0.7396
  677TMC3    C810023   0.573   1.425  11.711 -0.0659  0.0614  1.0105
  677TMC3    O110024   0.673   1.897  11.700  0.6919 -0.0638  0.4169
  677TMC3    O210025   0.529   1.319  11.666  0.0243  0.3350 -0.3455
  678MPD2     C10026   2.529   4.462   1.894 -0.0172  0.3278 -0.6434
  678MPD2    C110027   2.517   4.535   1.779  0.3000  0.4483 -0.2584
  678MPD2    C210028   2.391   4.591   1.752 -0.5640 -0.7842  0.7111
  678MPD2    C310029   2.284   4.576   1.839  0.2712 -0.5852  0.3624
  678MPD2    C410030   2.295   4.504   1.955  0.0818  0.5148  0.4923
  678MPD2    C510031   2.419   4.448   1.974  0.0515 -0.5163  0.4251
  678MPD2     H10032   2.388   4.650   1.661 -0.6721 -0.4659  0.9199
  678MPD2    H110033   2.217   4.479   2.026  0.2138 -0.0544  0.4367
  678MPD2    H210034   2.619   4.408   1.920 -0.0359  0.4188 -0.3892
  678MPD2    H310035   2.414   4.385   2.062 -1.0411  0.1885  0.8710
  678MPD2     N10036   2.164   4.648   1.811 -0.0612 -0.1030  0.0649
  678MPD2    H510037   2.172   4.706   1.728 -0.5508  2.0553  1.5028
  678MPD2    N110038   2.625   4.564   1.693 -0.2743  0.2232 -0.0859
  678MPD2    H710039   2.607   4.621   1.611  0.1865  0.9164  0.2901
  679TMC3    C110040   3.057   4.667   1.586  0.4860  0.1140 -0.3466
  679TMC3    C210041   2.975   4.566   1.631  0.3827  0.1121  0.4062
  679TMC3    C310042   2.844   4.575   1.607  0.0058 -0.7176 -0.0224
  679TMC3    C410043   3.024   0.046   1.497  0.6004 -0.0604  0.1026
  679TMC3    C510044   2.893   0.032   1.455  0.3990  0.7823 -0.0811
  679TMC3    C610045   2.800   4.678   1.529 -0.1436  0.3462 -0.4774
  679TMC3     C10046   3.190   4.671   1.647 -0.2737  0.7698 -0.1588
  679TMC3     O10047   3.230   0.062   1.662  0.0351 -0.1349  0.1693
  679TMC3     H10048   3.009   4.496   1.708 -0.7115 -0.5271  0.3043
  679TMC3    H110049   3.089   0.129   1.472 -0.5483  1.0800  0.9487
  679TMC3    H210050   2.695   4.672   1.504 -0.1709  1.3460 -0.6019
  679TMC3    C710051   2.829   0.138   1.374 -0.8261 -0.1332  0.4638
  679TMC3    C810052   2.753   4.526   1.712 -0.5607  0.2372  0.0328
  679TMC3    O110053   2.704   0.154   1.376 -0.1650 -0.0170  0.0829
  679TMC3    O210054   2.807   4.459   1.803 -0.2728 -0.1814  0.0087
  680MPD2     C10055   2.117   0.257  14.030 -0.0717 -0.6270  0.5239
  680MPD2    C110056   2.230   0.219  14.099  0.9247 -0.6445 -0.4294
  680MPD2    C210057   2.323   0.316  14.118 -0.1899  0.4591 -0.0120
  680MPD2    C310058   2.296   0.448  14.099 -0.3431  0.3369 -0.7828
  680MPD2    C410059   2.181   0.484  14.030 -0.3589 -0.2339  0.5960
  680MPD2    C510060   2.094   0.386  13.991  0.7403  0.1758  0.1842
  680MPD2     H10061   2.412   0.291  14.175 -0.8249 -1.2746  0.2001
  680MPD2    H110062   2.155   0.585  13.998  1.0588  0.5567  1.9347
  680MPD2    H210063   2.046   0.182  13.996 -1.1355  1.1318 -1.0822
  680MPD2    H310064   2.005   0.410  13.935  0.3183  0.9148  1.1680
  680MPD2     N10065   2.395   0.546  14.129  0.0979  0.0274  0.1996
  680MPD2    H510066   2.388   0.643  14.101 -0.7255  0.8892  3.3378
  680MPD2    N110067   2.256   0.086  14.139 -0.2466 -0.0272  0.4338
  680MPD2    H710068   2.350   0.072  14.173  0.0426 -1.8508 -1.1053
  681TMC3    C110069   2.215   4.592  14.191  0.1780  0.1344 -0.0487
  681TMC3    C210070   2.155   4.542  14.301  0.0195 -0.1659  0.1904
  681TMC3    C310071   2.228   4.479  14.394 -0.1640 -0.2246 -0.2742
  681TMC3    C410072   2.344   4.580  14.169 -0.4036 -0.1433 -0.8087
  681TMC3    C510073   2.416   4.510  14.256  0.4597 -0.2750 -0.1085
  681TMC3    C610074   2.360   4.458  14.368 -0.2202 -0.0529 -0.6276
  681TMC3     C10075   2.161   4.715  14.148 -0.1638  0.0546  0.3901
  681TMC3     O10076   2.040   4.720  14.137  1.0575  0.0356 -0.0805
  681TMC3     H10077   2.048   4.546  14.317 -0.1978 -1.2716 -0.9847
  681TMC3    H110078   2.387   4.629  14.083 -1.5497  1.4872 -0.4506
  681TMC3    H210079   2.420   4.426  14.453 -1.1467  0.7205  0.3107
  681TMC3    C710080   2.552   4.457  14.228  0.9359 -0.3878  0.2352
  681TMC3    C810081   2.196   4.520  14.532 -0.1036  0.0358  0.1447
  681TMC3    O110082   2.615   4.405  14.323  0.0539  0.0436  0.7670
  681TMC3    O210083   2.076   4.508  14.562  0.1240  0.4741  0.3841
  682MPD2     C10084   0.173   1.438  10.693 -0.7200  0.8019 -0.2427
  682MPD2    C110085   0.054   1.388  10.647 -0.1071  0.1213  0.1004
  682MPD2    C210086   4.674   1.389  10.739  0.2061 -0.2643 -0.3165
  682MPD2    C310087   4.690   1.441  10.863  0.4948 -0.6059  0.3102
  682MPD2    C410088   0.082   1.487  10.899 -0.2551  0.6099 -0.0971
  682MPD2    C510089   0.183   1.498  10.812 -0.0220 -0.0960  0.0117
  682MPD2     H10090   4.581   1.345  10.704  0.0022 -0.0772 -0.0137
  682MPD2    H110091   0.092   1.523  11.001  1.1545  0.7414 -0.2863
  682MPD2    H210092   0.267   1.427  10.640 -0.8305 -1.5289  0.0248
  682MPD2    H310093   0.273   1.554  10.837 -1.4153  1.9401  0.4345
  682MPD2     N10094   4.591   1.442  10.955 -0.1181  0.0469 -0.7267
  682MPD2    H510095   4.615   1.455  11.053 -1.2366 -3.2310 -0.0136
  682MPD2    N110096   0.041   1.338  10.514  0.0704  0.2237 -0.0558
  682MPD2    H710097   4.682   1.287  10.487 -1.2655  2.1053  0.5278
  683TMC3    C110098   4.395   1.281  11.264 -0.7470 -0.7470 -0.0283
  683TMC3    C210099   4.305   1.190  11.234 -0.0749 -0.1225 -0.0372
  683TMC3    C310100   4.251   1.194  11.110 -0.1593 -0.4386 -0.4525
  683TMC3    C410101   4.457   1.363  11.166 -0.2774  0.3754  0.3280
  683TMC3    C510102   4.393   1.369  11.046 -0.2669  0.4202 -0.3604
  683TMC3    C610103   4.282   1.294  11.021 -0.5534  0.6047 -0.2180
  683TMC3     C10104   4.463   1.276  11.395 -0.2078  0.0866  0.3538
  683TMC3     O10105   4.516   1.378  11.442  0.0266  0.7382 -0.6742
  683TMC3     H10106   4.261   1.127  11.311 -0.5915 -0.4211 -0.5776
  683TMC3    H110107   4.533   1.435  11.197 -0.7913  1.0353  0.0693
  683TMC3    H210108   4.233   1.274  10.926  1.8884  2.7373 -1.9325
  683TMC3    C710109   4.457   1.418  10.926 -0.1002 -0.0936  0.2087
  683TMC3    C810110   4.153   1.098  11.066  0.1586  0.1296 -0.2519
  683TMC3    O110111   4.393   1.409  10.820  0.1598 -0.0856  0.4361
  683TMC3    O210112   4.082   1.122  10.969 -0.5109 -0.3403  0.1343
  684MPD2     C10113   2.687   1.715  16.778  0.0910  0.2410  0.7874
  684MPD2    C110114   2.762   1.608  16.818  0.3984 -0.4396  0.0624
  684MPD2    C210115   2.889   1.606  16.780 -0.5275  0.0284 -0.1040
  684MPD2    C310116   2.939   1.712  16.696  0.1020  0.3247  0.2900
  684MPD2    C410117   2.864   1.825  16.661  0.1214 -0.2936 -0.6882
  684MPD2    C510118   2.735   1.814  16.702 -0.6087  0.2731 -0.8892
  684MPD2     H10119   2.965   1.537  16.815  0.7661  0.8912 -1.2187
  684MPD2    H110120   2.885   1.906  16.592  0.2672  1.9655  1.9878
  684MPD2    H210121   2.584   1.724  16.810  1.1950  1.1181  4.0607
  684MPD2    H310122   2.664   1.894  16.687 -0.7810  0.4334  0.7629
  684MPD2     N10123   3.072   1.699  16.644 -0.4762 -0.2748 -0.4843
  684MPD2    H510124   3.103   1.781  16.592 -1.3409  0.7715  0.6526
  684MPD2    N110125   2.714   1.503  16.897  0.5099  0.5902 -0.2916
  684MPD2    H710126   2.784   1.436  16.927 -0.4543  0.3324  1.4020
  685TMC3    C110127   2.557   1.331  16.954 -0.1032 -0.1031 -0.1558
  685TMC3    C210128   2.430   1.291  16.910 -0.5586  0.5453  0.3898
  685TMC3    C310129   2.425   1.149  16.890 -0.7134  0.0523  0.7929
  685TMC3    C410130   2.669   1.249  16.964 -0.5346 -0.3710  0.1179
  685TMC3    C510131   2.650   1.115  16.938  0.1114  0.5661  0.3346
  685TMC3    C610132   2.529   1.059  16.915  0.5061 -0.6562  0.6171
  685TMC3     C10133   2.581   1.471  16.916  0.3796  0.6946  0.6312
  685TMC3     O10134   2.487   1.538  16.889  0.4485  0.2814  0.0280
  685TMC3     H10135   2.349   1.358  16.886  0.6953  1.1662 -2.1224
  685TMC3    H110136   2.761   1.278  17.014 -0.7417  1.0601 -0.3418
  685TMC3    H210137   2.511   0.953  16.926 -2.4501 -0.5174 -2.6942
  685TMC3    C710138   2.768   1.022  16.929  0.0035  1.4397  0.2100
  685TMC3    C810139   2.311   1.111  16.810  0.1659 -0.1212 -0.5792
  685TMC3    O110140   2.733   0.915  16.883  0.5787 -0.0271  0.2357
  685TMC3    O210141   2.217   1.192  16.796  0.1885  0.4213 -0.2210
  686MPD2     C10142   4.211   0.549  16.035 -0.5796 -0.5977  0.0024
  686MPD2    C110143   4.158   0.483  16.140 -0.1943  0.8698 -0.9771
  686MPD2    C210144   4.154   0.344  16.135  0.1201  0.0606  0.1270
  686MPD2    C310145   4.191   0.270  16.023 -0.7306 -0.3683  0.3186
  686MPD2    C410146   4.256   0.347  15.922 -0.0246  0.2017  0.8656
  686MPD2    C510147   4.275   0.482  15.936 -0.2256  0.5001 -0.0453
  686MPD2     H10148   4.104   0.290  16.215 -0.0523  0.2181  0.1259
  686MPD2    H110149   4.292   0.301  15.831  2.0356  0.2687  1.6562
  686MPD2    H210150   4.217   0.655  16.057 -0.2634 -0.3298 -1.3739
  686MPD2    H310151   4.315   0.540  15.854 -1.3982 -0.8976 -1.5959
  686MPD2     N10152   4.154   0.130  16.025 -0.2398 -0.5954 -0.2149
  686MPD2    H510153   4.110   0.085  16.104  1.6638  0.2319  1.3285
  686MPD2    N110154   4.092   0.552  16.242  0.6221 -1.0522  0.1962
  686MPD2    H710155   4.063   0.649  16.233  2.2857 -0.4638  1.2297
  687TMC3    C110156   4.044   4.679  15.945 -0.0195  0.3068 -0.2406
  687TMC3    C210157   3.913   4.717  15.940  0.4801  0.1524 -1.4831
  687TMC3    C310158   3.832   4.700  16.056 -0.0121 -0.0112 -0.1482
  687TMC3    C410159   4.091   4.623  16.060 -0.3882 -0.2366  0.1032
  687TMC3    C510160   4.020   4.616  16.174  0.3365 -0.5860  0.1532
  687TMC3    C610161   3.885   4.637  16.165 -0.5459  0.1247  0.7970
  687TMC3     C10162   4.128   0.069  15.906  0.2594  0.2343  0.4314
  687TMC3     O10163   4.109   0.109  15.793  0.5073 -0.1502  0.6530
  687TMC3     H10164   3.874   0.063  15.867  0.0989  1.2577 -0.2218
  687TMC3    H110165   4.199   4.617  16.065 -0.4145 -2.0811 -1.5780
  687TMC3    H210166   3.820   4.636  16.252  0.7452 -3.1910  1.7182
  687TMC3    C710167   4.088   4.660  16.298 -0.0456 -0.7582  0.3247
  687TMC3    C810168   3.705   0.048  16.074  0.1060 -0.7989  0.6289
  687TMC3    O110169   4.032   0.036  16.335 -0.0270 -1.1144  1.1389
  687TMC3    O210170   3.630   4.715  16.153  0.2936 -0.2638  0.0517
  688MPD2     C10171   3.406   3.798  17.489  0.1365 -0.0022 -0.2997
  688MPD2    C110172   3.506   3.711  17.519 -0.1115 -0.1313  0.3128
  688MPD2    C210173   3.622   3.715  17.446 -0.2939  0.4528 -0.4745
  688MPD2    C310174   3.627   3.788  17.324  0.4742  0.1006  0.3502
  688MPD2    C410175   3.526   3.878  17.299  0.0039  0.4663 -0.5069
  688MPD2    C510176   3.422   3.888  17.390 -0.5622 -0.8506 -0.4608
  688MPD2     H10177   3.699   3.646  17.478 -2.1112 -1.1770  0.4081
  688MPD2    H110178   3.520   3.928  17.203 -1.8138  2.2281  0.5224
  688MPD2    H210179   3.316   3.816  17.547  0.8870  0.7167  0.6541
  688MPD2    H310180   3.336   3.952  17.373  0.3554  0.4842  0.0349
  688MPD2     N10181   3.734   3.795  17.234  0.1862 -0.3276  0.3279
  688MPD2    H510182   3.721   3.860  17.157 -2.2431 -0.4539  0.6110
  688MPD2    N110183   3.496   3.622  17.627 -0.2666  0.0681 -0.6678
  688MPD2    H710184   3.574   3.559  17.639 -0.1014  0.8221  2.4092
  689TMC3    C110185   3.435   3.545   0.147 -0.3994 -0.0639  0.0244
  689TMC3    C210186   3.440   3.587   0.268  0.9876  0.6402 -0.0426
  689TMC3    C310187   3.458   3.493   0.369  1.1048 -0.7726 -0.9235
  689TMC3    C410188   3.456   3.417   0.112 -0.0546  0.1196  0.2748
  689TMC3    C510189   3.474   3.326   0.207 -0.1062  0.8457  0.6220
  689TMC3    C610190   3.478   3.361   0.341  0.8872  0.5577 -0.0312
  689TMC3     C10191   3.418   3.642   0.040  0.4507 -0.2208  0.5384
  689TMC3     O10192   3.350   3.739   0.069  0.0509 -0.1575 -0.1293
  689TMC3     H10193   3.421   3.692   0.285 -2.8338 -0.2086  0.8085
  689TMC3    H110194   3.462   3.396   0.006 -1.5325 -0.9344  0.3954
  689TMC3    H210195   3.495   3.287   0.419 -1.5430  0.9920  0.9207
  689TMC3    C710196   3.496   3.187   0.181 -0.3677  0.0907 -0.3316
  689TMC3    C810197   3.482   3.540   0.504  0.2482 -0.5053 -0.4625
  689TMC3    O110198   3.570   3.137   0.263 -0.3207  0.6084 -0.3034
  689TMC3    O210199   3.475   3.458   0.594  0.1908  0.7007  0.3400
  690MPD2     C10200   0.997   1.104  15.872  0.2629 -0.3156 -0.1961
  690MPD2    C110201   0.967   1.167  15.751  0.1861  0.0533  0.6788
  690MPD2    C210202   1.057   1.250  15.692  0.5239  0.2120  0.3441
  690MPD2    C310203   1.180   1.266  15.746 -0.2393 -0.2389  0.0657
  690MPD2    C410204   1.214   1.182  15.845  0.3950 -0.6103  0.2415
  690MPD2    C510205   1.125   1.103  15.910  0.0716  0.6656  0.0852
  690MPD2     H10206   1.038   1.303  15.599 -0.9536  2.0162  1.6583
  690MPD2    H110207   1.316   1.179  15.882  0.3659  1.1158  0.4503
  690MPD2    H210208   0.927   1.042  15.926  0.6218 -0.9691 -0.4898
  690MPD2    H310209   1.150   1.044  15.997 -1.0417  0.8599  0.5375
  690MPD2     N10210   1.266   1.359  15.687  0.6571  0.1203 -0.0649
  690MPD2    H510211   1.217   1.419  15.621  2.4229  0.3758 -1.1394
  690MPD2    N110212   0.838   1.155  15.694  0.5193 -0.0267  0.4731
  690MPD2    H710213   0.812   1.213  15.615  4.2952 -0.7824 -1.3433
  691TMC3    C110214   0.618   1.095  15.659 -0.6712  0.1097 -0.3862
  691TMC3    C210215   0.503   1.126  15.717  0.4925 -0.3550 -0.3927
  691TMC3    C310216   0.388   1.087  15.659  0.6986  0.2062  0.8959
  691TMC3    C410217   0.618   1.011  15.550 -0.2469  0.1465  1.0457
  691TMC3    C510218   0.503   0.964  15.496  0.3531 -0.0031  0.0512
  691TMC3    C610219   0.386   1.004  15.553 -0.3041  0.7341 -0.0325
  691TMC3     C10220   0.729   1.088  15.745 -0.1753  0.7909 -0.5487
  691TMC3     O10221   0.713   1.032  15.854  0.2991  0.2015 -0.0369
  691TMC3     H10222   0.500   1.188  15.806 -1.9838 -1.7500  0.4706
  691TMC3    H110223   0.718   0.974  15.533 -0.9773 -0.6604 -1.4049
  691TMC3    H210224   0.295   0.965  15.508 -0.8936  0.7817  1.1278
  691TMC3    C710225   0.517   0.832  15.432 -0.0288  0.1017  0.7982
  691TMC3    C810226   0.260   1.114  15.725 -0.5302  0.2797 -0.9995
  691TMC3    O110227   0.621   0.793  15.381 -0.1934 -0.1754 -0.1183
  691TMC3    O210228   0.180   1.024  15.717  0.2610 -0.2928  0.7111
  692TMC3    C110229   2.735   2.328  15.793 -0.5484 -0.2270  0.4992
  692TMC3    C210230   2.802   2.418  15.855  0.2475  0.4999 -0.1030
  692TMC3    C310231   2.916   2.390  15.915 -0.6797 -0.2727  0.3416
  692TMC3    C410232   2.766   2.196  15.795  0.0630  0.0452  0.3637
  692TMC3    C510233   2.875   2.166  15.867 -0.6769 -0.0531 -0.3444
  692TMC3    C610234   2.952   2.258  15.927  0.4098 -0.5670  0.2383
  692TMC3     C10235   2.608   2.373  15.732  0.1860 -0.1068 -0.5006
  692TMC3     O10236   2.568   2.488  15.763  0.0192 -0.0854 -0.3375
  692TMC3     H10237   2.789   2.520  15.820 -1.8755  0.2569  0.0059
  692TMC3    H110238   2.705   2.120  15.748  1.1746 -0.3822 -0.3742
  692TMC3    H210239   3.049   2.230  15.967 -0.4196 -2.1582  1.1036
  692TMC3    C710240   2.935   2.037  15.837  0.5062  0.1948  0.8812
  692TMC3    C810241   2.919   2.460  16.041 -0.4096 -0.3477  0.0422
  692TMC3    O110242   2.904   1.986  15.730  0.2181  0.1590 -0.1001
  692TMC3    O210243   3.015   2.435  16.113 -0.6906 -0.4573 -0.3362
  693MPD2     C10244   1.818   0.678  10.521  0.9395 -0.0425 -0.2811
  693MPD2    C110245   1.798   0.537  10.510 -0.6008  0.1330 -0.9543
  693MPD2    C210246   1.910   0.455  10.492  0.4595  0.8474 -0.4865
  693MPD2    C310247   2.037   0.503  10.507 -0.5284  0.2769 -0.5594
  693MPD2    C410248   2.054   0.636  10.520 -0.2789 -0.4078  0.4175
  693MPD2    C510249   1.948   0.724  10.529 -0.2785  0.3963 -0.3914
  693MPD2     H10250   1.893   0.353  10.462  1.7377  0.8014 -1.0419
  693MPD2    H110251   2.153   0.680  10.519  0.3715 -1.9165 -1.2749
  693MPD2    H210252   1.750   0.754  10.558  1.9174  1.5761 -1.8104
  693MPD2    H310253   1.971   0.828  10.548 -1.5605  0.7089 -0.5461
  693MPD2     N10254   2.148   0.418  10.514 -0.2668 -1.1065 -0.1833
  693MPD2    H510255   2.236   0.459  10.544 -1.2827  0.1626  1.0804
  693MPD2    N110256   1.672   0.476  10.537 -0.0981  0.1177  0.9795
  693MPD2    H710257   1.599   0.538  10.569 -1.9985 -1.7082  0.1407
  694TMC3    C110258   1.544   0.305  10.639 -0.2932  0.7544  0.5531
  694TMC3    C210259   1.462   0.197  10.617  0.7802  0.0544  0.3275
  694TMC3    C310260   1.404   0.142  10.727 -0.4850  0.3392 -0.1114
  694TMC3    C410261   1.559   0.358  10.766 -0.0316 -0.3977  0.4835
  694TMC3    C510262   1.500   0.300  10.872  0.2399  0.6038  0.5375
  694TMC3    C610263   1.425   0.188  10.860 -0.7981  1.0878 -0.9629
  694TMC3     C10264   1.644   0.344  10.539 -0.4212 -1.1277 -0.5678
  694TMC3     O10265   1.700   0.252  10.473 -0.6001 -0.4106  0.4015
  694TMC3     H10266   1.458   0.147  10.521  0.0554  0.8390 -0.0533
  694TMC3    H110267   1.623   0.443  10.787  2.1675 -1.7468 -0.7314
  694TMC3    H210268   1.386   0.132  10.944  2.6012  0.6455  0.3058
  694TMC3    C710269   1.524   0.360  11.005 -0.2739  0.6120  0.1604
  694TMC3    C810270   1.302   0.043  10.709 -0.2014  0.0181 -0.7295
  694TMC3    O110271   1.603   0.454  11.007 -0.5012 -0.3251 -0.0494
  694TMC3    O210272   1.256   4.715  10.808  0.3125  0.3009  0.0311
  695MPD2     C10273   2.913   1.969  13.854 -0.6370 -0.2404  0.3859
  695MPD2    C110274   2.919   2.097  13.908 -0.0408 -0.1560 -0.3440
  695MPD2    C210275   2.805   2.151  13.960 -0.3010  0.2633 -0.5006
  695MPD2    C310276   2.686   2.081  13.951 -0.4940  0.3646  0.3817
  695MPD2    C410277   2.678   1.951  13.895  1.4059 -0.0792 -0.1609
  695MPD2    C510278   2.795   1.897  13.844 -0.3816 -0.2080 -0.1439
  695MPD2     H10279   2.809   2.245  14.014 -0.2966 -1.5562  2.6688
  695MPD2    H110280   2.585   1.896  13.900  0.8621  1.0528  2.1419
  695MPD2    H210281   2.996   1.916  13.811 -1.4683 -0.0520 -1.4663
  695MPD2    H310282   2.802   1.794  13.810  0.9158 -0.2287  0.1788
  695MPD2     N10283   2.575   2.131  14.024  0.8437 -0.1765  0.4104
  695MPD2    H510284   2.596   2.218  14.072  2.5096  0.3389 -1.2647
  695MPD2    N110285   3.042   2.165  13.908 -0.0462 -0.5696  0.0327
  695MPD2    H710286   3.042   2.261  13.939 -0.5358 -0.0895 -1.4920
  696TMC3    C110287   2.364   2.164  14.122 -1.4861 -0.1857 -0.3464
  696TMC3    C210288   2.421   2.220  14.232 -0.5073 -0.1905  0.2226
  696TMC3    C310289   2.346   2.305  14.310 -0.0934 -0.0150 -0.2716
  696TMC3    C410290   2.244   2.213  14.064 -0.1948 -0.3148  0.0121
  696TMC3    C510291   2.193   2.319  14.128 -0.2005 -0.0923  0.3661
  696TMC3    C610292   2.230   2.357  14.257  0.9672  0.1499 -0.4162
  696TMC3     C10293   2.450   2.089  14.027 -0.2744  0.1285  0.7461
  696TMC3     O10294   2.393   2.013  13.950 -0.3038  0.0519  0.1338
  696TMC3     H10295   2.511   2.178  14.276 -1.2060 -0.9372  0.9366
  696TMC3    H110296   2.206   2.175  13.970  1.0025  0.2141 -0.6872
  696TMC3    H210297   2.185   2.439  14.310  0.4662  0.3819 -1.1967
  696TMC3    C710298   2.173   2.437  14.044  0.5112  0.6040 -0.3218
  696TMC3    C810299   2.419   2.408  14.372  0.3620  1.1162  0.3100
  696TMC3    O110300   2.140   2.426  13.929 -0.1616 -0.0767 -0.0429
  696TMC3    O210301   2.376   2.518  14.341  0.5505  0.1731 -0.2657
  697MPD2     C10302   1.977   3.820  15.755 -0.0635 -0.2215  0.2245
  697MPD2    C110303   1.991   3.815  15.614 -0.1082  0.0336  0.8099
  697MPD2    C210304   2.041   3.926  15.549  0.4807  0.0975  1.4542
  697MPD2    C310305   2.085   4.032  15.622 -0.0997  0.2111 -0.5947
  697MPD2    C410306   2.071   4.038  15.759  0.0602  0.1483  0.0352
  697MPD2    C510307   2.025   3.926  15.824  0.0613 -0.4101  0.1021
  697MPD2     H10308   2.063   3.921  15.443 -0.7663 -1.5026  1.2582
  697MPD2    H110309   2.098   4.123  15.820 -2.1720  0.0174  1.1955
  697MPD2    H210310   1.952   3.739  15.823  1.0632  0.3541  1.3324
  697MPD2    H310311   2.028   3.913  15.932  1.4488 -1.7381 -0.0877
  697MPD2     N10312   2.146   4.140  15.547 -0.2903 -1.2362  0.5679
  697MPD2    H510313   2.160   4.119  15.448  1.9260 -0.6403  0.7380
  697MPD2    N110314   1.960   3.699  15.534  0.2919  0.3702  0.2816
  697MPD2    H710315   1.976   3.707  15.434 -0.2012 -1.1801  0.0803
  698TMC3    C110316   2.270   4.340  15.494  0.3106 -0.5362 -0.2382
  698TMC3    C210317   2.365   4.426  15.552 -0.3937 -0.0782 -0.4119
  698TMC3    C310318   2.455   4.484  15.475 -0.1510 -0.0095 -0.2694
  698TMC3    C410319   2.255   4.342  15.359 -0.5989 -0.1252 -0.5380
  698TMC3    C510320   2.353   4.406  15.284  0.2919  0.1732  0.2804
  698TMC3    C610321   2.457   4.479  15.335  0.5680  0.1955 -0.5932
  698TMC3     C10322   2.182   4.267  15.588 -0.6735  0.3196 -0.3042
  698TMC3     O10323   2.163   4.312  15.700  0.1707 -0.1159 -0.0244
  698TMC3     H10324   2.366   4.444  15.659 -0.9956 -3.5049  0.1825
  698TMC3    H110325   2.164   4.299  15.321 -1.6209 -0.0106  1.7735
  698TMC3    H210326   2.533   4.525  15.273  0.3862  1.2922  0.0060
  698TMC3    C710327   2.334   4.376  15.137  0.0918 -0.5356  0.0618
  698TMC3    C810328   2.572   4.539  15.536  0.5758 -0.4712  0.2650
  698TMC3    O110329   2.226   4.329  15.108 -0.0363  0.5564 -0.0597
  698TMC3    O210330   2.593   4.484  15.645  0.3382  0.2359  0.2635
  699TMC3    C110331   2.279   2.031  12.888 -0.1792  0.4221  0.1864
  699TMC3    C210332   2.321   1.928  12.959  0.4218  0.1231  0.3864
  699TMC3    C310333   2.227   1.863  13.035  0.3521 -0.5708  0.3638
  699TMC3    C410334   2.148   2.068  12.879 -0.8857  0.0711 -0.4602
  699TMC3    C510335   2.058   1.992  12.941  0.1338 -0.1052  0.3055
  699TMC3    C610336   2.089   1.887  13.026 -0.8115  0.4467 -0.0498
  699TMC3     C10337   2.369   2.091  12.791  0.5159 -0.0794  0.1558
  699TMC3     O10338   2.323   2.175  12.710 -0.4689  0.5094  0.4848
  699TMC3     H10339   2.426   1.902  12.964  0.0870 -1.3016 -0.0253
  699TMC3    H110340   2.115   2.149  12.814  1.5825  1.5648  0.1654
  699TMC3    H210341   2.009   1.824  13.065  0.3005 -0.7879  0.2108
  699TMC3    C710342   1.934   2.060  12.953  0.4645 -0.8291 -0.4170
  699TMC3    C810343   2.269   1.746  13.118 -0.1183  0.0145 -0.0436
  699TMC3    O110344   1.925   2.178  12.977 -0.2181 -0.2188 -0.1069
  699TMC3    O210345   2.174   1.696  13.179  0.0552 -0.0117 -0.2744
  700TMC3    C110346   1.414   3.724  17.396  0.3410  0.5747  0.2743
  700TMC3    C210347   1.534   3.677  17.368 -1.4878 -0.0824  0.5297
  700TMC3    C310348   1.632   3.695  17.461 -0.5214 -0.5103  0.5636
  700TMC3    C410349   1.388   3.790  17.509 -0.3776  0.0136 -0.3496
  700TMC3    C510350   1.487   3.808  17.605 -0.0255 -0.4191 -0.6814
  700TMC3    C610351   1.612   3.758  17.586  0.0472  0.3447  0.1226
  700TMC3     C10352   1.352   3.786  17.275 -0.1020 -0.6203 -0.0933
  700TMC3     O10353   1.317   3.716  17.180  0.1480  0.6907 -0.4377
  700TMC3     H10354   1.561   3.645  17.268  1.5862 -1.4711  1.7923
  700TMC3    H110355   1.296   3.844  17.524 -0.0884  0.8592 -1.6602
  700TMC3    H210356   1.686   3.763  17.665 -0.4644 -1.6936  0.7176
  700TMC3    C710357   1.493   3.936  17.675  0.0105  0.0846  0.4975
  700TMC3    C810358   1.768   3.684  17.405 -0.3389 -0.2758  0.5832
  700TMC3    O110359   1.604   3.964   0.024  0.3194  0.1351  0.2448
  700TMC3    O210360   1.784   3.670  17.284  0.9910 -0.3711  0.3017
  701TMC3    C110361   1.356   3.229  15.335  0.6716 -0.2578 -0.2240
  701TMC3    C210362   1.397   3.214  15.209 -0.4470  0.0203 -0.1890
  701TMC3    C310363   1.476   3.305  15.155  0.6960 -0.0469  0.2110
  701TMC3    C410364   1.377   3.342  15.408 -0.0800  0.3510 -0.1215
  701TMC3    C510365   1.473   3.426  15.351  0.4795 -0.1695  0.0260
  701TMC3    C610366   1.528   3.411  15.225 -0.1183 -0.3567  0.0669
  701TMC3     C10367   1.270   3.130  15.390 -0.0186 -0.5745  0.0503
  701TMC3     O10368   1.173   3.169  15.445  0.4113 -0.1635  0.1241
  701TMC3     H10369   1.369   3.126  15.153  1.2164 -0.1922 -0.7145
  701TMC3    H110370   1.332   3.349  15.506 -1.2776 -2.3034 -0.4709
  701TMC3    H210371   1.613   3.473  15.200  0.1104 -1.2818 -1.4556
  701TMC3    C710372   1.525   3.543  15.421  0.3048  0.5745 -0.1114
  701TMC3    C810373   1.557   3.283  15.035  0.4047 -0.3649 -0.8749
  701TMC3    O110374   1.563   3.640  15.352  0.1745 -0.1248 -0.2584
  701TMC3    O210375   1.658   3.343  15.029  0.0175 -0.0542  0.2977
  702MPD2     C10376   1.059   0.779  10.445 -0.0474 -1.0571 -0.5733
  702MPD2    C110377   0.925   0.794  10.431 -0.0919 -0.1381 -0.0568
  702MPD2    C210378   0.881   0.847  10.312  0.3726  0.0228  0.0655
  702MPD2    C310379   0.967   0.883  10.211  0.3759 -0.0904  0.6096
  702MPD2    C410380   1.102   0.870  10.228 -0.9464 -0.4069 -0.3937
  702MPD2    C510381   1.146   0.819  10.347 -0.5191  0.5595 -0.9430
  702MPD2     H10382   0.774   0.855  10.294  0.9175 -0.5857 -3.5592
  702MPD2    H110383   1.169   0.903  10.150 -1.3153 -0.6040 -0.7916
  702MPD2    H210384   1.103   0.729  10.530  1.5475 -1.7208 -1.7788
  702MPD2    H310385   1.252   0.803  10.361 -1.0542 -1.4554  0.8204
  702MPD2     N10386   0.929   0.934  10.089 -0.0549  0.2039 -0.5050
  702MPD2    H510387   1.006   0.964  10.029 -0.5085  0.2349 -1.0637
  702MPD2    N110388   0.839   0.752  10.538 -0.1603 -0.1765  0.4742
  702MPD2    H710389   0.878   0.735  10.630  0.6378 -0.3923  0.0914
  703TMC3    C110390   0.811   1.098   9.983 -0.0331  0.1933 -0.4128
  703TMC3    C210391   0.725   1.200  10.015 -0.1390  0.4464 -0.0042
  703TMC3    C310392   0.771   1.328  10.002 -0.3165  0.4423  0.3833
  703TMC3    C410393   0.929   1.121   9.925 -0.4520 -0.0495  0.3940
  703TMC3    C510394   0.965   1.253   9.911 -0.0598 -0.3572 -0.1726
  703TMC3    C610395   0.894   1.365   9.952 -0.2975 -0.5958  0.9911
  703TMC3     C10396   0.802   0.974  10.055 -0.5531  0.0658 -0.3626
  703TMC3     O10397   0.693   0.935  10.098  0.1599 -0.4843  0.0830
  703TMC3     H10398   0.638   1.175  10.073 -0.9660  0.2881 -1.3216
  703TMC3    H110399   0.983   1.050   9.864  0.2294  0.4315  0.4386
  703TMC3    H210400   0.938   1.462   9.971 -1.2304 -0.1620  0.9022
  703TMC3    C710401   1.115   1.271   9.902  0.0020  0.3065 -0.0316
  703TMC3    C810402   0.709   1.436  10.081 -0.6413  0.1824  0.8043
  703TMC3    O110403   1.194   1.179   9.923 -0.2881 -0.7396  0.0717
  703TMC3    O210404   0.722   1.549  10.030  0.0767  0.2359 -0.3073
  704TMC3    C110405   3.136   4.028  12.280  0.3275  0.6805  0.0147
  704TMC3    C210406   3.266   4.060  12.289 -0.0245 -0.0035  0.1307
  704TMC3    C310407   3.336   3.975  12.373  0.0267  0.3377 -0.6858
  704TMC3    C410408   3.072   3.926  12.346 -0.4674  0.5056 -0.2169
  704TMC3    C510409   3.146   3.859  12.437 -0.9392  0.1626  0.0907
  704TMC3    C610410   3.277   3.884  12.447 -0.2616  0.3346 -0.0926
  704TMC3     C10411   3.068   4.091  12.168 -0.2854 -0.3451  0.5533
  704TMC3     O10412   2.955   4.140  12.184  0.4731  0.0671 -0.0180
  704TMC3     H10413   3.318   4.123  12.217  1.7850 -0.0137  1.4376
  704TMC3    H110414   2.964   3.919  12.342 -0.2797 -2.0434 -1.3011
  704TMC3    H210415   3.329   3.822  12.519  1.0365  1.8357  0.2701
  704TMC3    C710416   3.108   3.724  12.463  0.5306 -0.4088  0.3457
  704TMC3    C810417   3.466   3.944  12.312 -0.3134  0.6723  0.0342
  704TMC3    O110418   3.196   3.640  12.467  0.1266 -0.2863  0.0331
  704TMC3    O210419   3.507   4.006  12.212  0.1107 -0.2763  0.4850
  705MPD2     C10420   2.737   2.096  16.145 -0.3918 -0.6164  0.2387
  705MPD2    C110421   2.755   2.193  16.234  0.3781  0.2108  0.8179
  705MPD2    C210422   2.639   2.272  16.272  1.2319  0.6237  0.5502
  705MPD2    C310423   2.518   2.255  16.215 -0.0118 -0.3434  0.5032
  705MPD2    C410424   2.509   2.170  16.103  1.0377 -0.4146 -0.3062
  705MPD2    C510425   2.616   2.084  16.083 -0.7825 -0.4635 -0.5384
  705MPD2     H10426   2.650   2.349  16.348  1.3505  0.4488  0.7134
  705MPD2    H110427   2.417   2.149  16.049  1.1615  0.6369 -0.9304
  705MPD2    H210428   2.815   2.022  16.126 -1.1659 -1.5645  0.7390
  705MPD2    H310429   2.596   1.998  16.020  0.2425 -0.6291 -0.6221
  705MPD2     N10430   2.396   2.318  16.257 -0.6610  0.1585  0.1599
  705MPD2    H510431   2.319   2.314  16.191  0.1814 -1.3159 -0.7223
  705MPD2    N110432   2.884   2.226  16.294 -0.0692 -0.2329 -0.1297
  705MPD2    H710433   2.887   2.303  16.360 -1.6179 -0.6003  0.3656
  706TMC3    C110434   3.341   2.302  16.275  0.0431 -0.2078  0.2055
  706TMC3    C210435   3.329   2.401  16.360  0.1747 -0.2867 -0.0627
  706TMC3    C310436   3.215   2.422  16.424  0.1420 -0.3571 -0.3593
  706TMC3    C410437   3.237   2.208  16.269  0.6175  0.0595 -0.2673
  706TMC3    C510438   3.116   2.236  16.325 -0.1222 -0.3530 -0.5905
  706TMC3    C610439   3.103   2.336  16.415 -0.3770 -0.4175  0.0300
  706TMC3     C10440   3.477   2.255  16.247 -0.1295 -0.0051 -0.2132
  706TMC3     O10441   3.560   2.276  16.335 -0.5805 -0.3788 -0.4262
  706TMC3     H10442   3.409   2.473  16.372 -0.3372  0.1171  0.9877
  706TMC3    H110443   3.265   2.115  16.221 -0.5939 -1.9442  2.9862
  706TMC3    H210444   3.020   2.358  16.482  0.1477 -0.0424  0.5599
  706TMC3    C710445   3.001   2.165  16.265  1.4202  0.2337 -0.2225
  706TMC3    C810446   3.223   2.536  16.510  0.5710  0.8583 -0.4739
  706TMC3    O110447   3.025   2.078  16.185  0.1049 -0.3883  0.0701
  706TMC3    O210448   3.196   2.519  16.628 -0.3272  0.0220 -0.5312
  707TMC3    C110449   4.597   0.093   1.542 -0.7510 -0.6125 -0.4402
  707TMC3    C210450   4.607   4.696   1.597  0.5796 -0.3074 -0.2309
  707TMC3    C310451   4.509   4.641   1.670 -0.0422  0.8349  0.0180
  707TMC3    C410452   4.479   0.167   1.538  0.4251  0.2259  0.0280
  707TMC3    C510453   4.380   0.107   1.611  0.4332  0.2749 -0.3179
  707TMC3    C610454   4.391   4.713   1.690 -0.0653  0.0197  0.3775
  707TMC3     C10455   4.719   0.146   1.473 -0.4961  0.4101 -0.5668
  707TMC3     O10456   0.098   0.142   1.543  0.0952 -0.3050  0.2386
  707TMC3     H10457   4.704   4.648   1.591  1.6007  1.8763 -1.1277
  707TMC3    H110458   4.468   0.266   1.494 -0.0784  0.5832  0.9481
  707TMC3    H210459   4.308   4.686   1.754 -0.9482 -0.5276 -0.9998
  707TMC3    C710460   4.243   0.158   1.594 -0.8342  0.2709 -0.1121
  707TMC3    C810461   4.527   4.517   1.745  0.0635  0.3580  0.2445
  707TMC3    O110462   4.155   0.084   1.638 -0.5456 -0.2478  0.3280
  707TMC3    O210463   4.444   4.489   1.831  0.3387 -0.2509 -0.1119
  708MPD2     C10464   1.239   1.149  13.874  0.0536 -0.0370 -0.8255
  708MPD2    C110465   1.297   1.035  13.913  0.3824 -0.7268  0.9084
  708MPD2    C210466   1.430   1.027  13.959  0.2576  0.0980  0.1045
  708MPD2    C310467   1.486   1.145  14.003  0.0001 -0.2917  0.4975
  708MPD2    C410468   1.419   1.258  13.982 -0.9337  0.9469 -0.1982
  708MPD2    C510469   1.296   1.268  13.922 -0.0208 -0.1231  0.1673
  708MPD2     H10470   1.472   0.929  13.977  0.6329  0.2482  0.0387
  708MPD2    H110471   1.461   1.353  14.014  1.6017 -1.3752  3.4850
  708MPD2    H210472   1.137   1.155  13.838 -0.2399  1.5030  0.2690
  708MPD2    H310473   1.246   1.363  13.910 -0.1544 -0.1070  0.8609
  708MPD2     N10474   1.612   1.147  14.055  0.2391  0.0307 -0.0667
  708MPD2    H510475   1.644   1.238  14.087 -1.6066  1.0245 -1.0418
  708MPD2    N110476   1.239   0.909  13.887  0.2699 -0.4048  0.0512
  708MPD2    H710477   1.288   0.830  13.928 -0.8886  0.1189  2.4617
  709TMC3    C110478   1.126   0.740  13.773 -0.2763 -0.0716 -0.4150
  709TMC3    C210479   1.149   0.688  13.653 -0.7260  0.5014  0.4611
  709TMC3    C310480   1.203   0.565  13.649 -0.9142 -0.3884 -0.6870
  709TMC3    C410481   1.163   0.670  13.883  0.6629 -0.3413  1.1636
  709TMC3    C510482   1.246   0.555  13.877 -0.1765 -0.4186 -0.1963
  709TMC3    C610483   1.260   0.502  13.755  0.7190  0.7513  0.1048
  709TMC3     C10484   1.148   0.882  13.784  0.3846  0.9289 -0.1483
  709TMC3     O10485   1.113   0.958  13.694  0.1314 -0.3748  0.3245
  709TMC3     H10486   1.121   0.744  13.564 -0.4666  1.9074  1.2738
  709TMC3    H110487   1.141   0.707  13.982 -0.7426 -1.2115  1.1731
  709TMC3    H210488   1.313   0.409  13.740 -0.8540  0.0351 -1.0245
  709TMC3    C710489   1.364   0.583  13.956  0.2372  0.6423  0.2024
  709TMC3    C810490   1.211   0.487  13.519  0.5303  0.4890 -0.5771
  709TMC3    O110491   1.370   0.692  14.007 -0.5347  0.1734 -0.1076
  709TMC3    O210492   1.270   0.381  13.519 -0.0945 -0.0589 -0.3266
  710TMC3    C110493   2.172   0.431   0.915  0.2248  0.0931 -0.0340
  710TMC3    C210494   2.175   0.473   0.786 -0.6196 -0.5001 -0.1408
  710TMC3    C310495   2.293   0.493   0.731  0.2111  0.9578 -0.1039
  710TMC3    C410496   2.286   0.413   0.992  0.6163 -0.6288  0.3191
  710TMC3    C510497   2.407   0.436   0.932 -0.3793 -0.5271 -0.5991
  710TMC3    C610498   2.407   0.473   0.797 -0.3977 -0.9333  0.2180
  710TMC3     C10499   2.046   0.476   0.980 -0.6742  0.5866 -0.2994
  710TMC3     O10500   1.954   0.520   0.914  0.1499  0.6499  0.5285
  710TMC3     H10501   2.090   0.501   0.725 -1.0119  1.4700  1.3307
  710TMC3    H110502   2.287   0.395   1.099  0.3599  1.3932  0.6721
  710TMC3    H210503   2.497   0.467   0.738 -0.8332 -2.8070 -0.2431
  710TMC3    C710504   2.517   0.371   0.991  0.5766 -0.4941 -0.5275
  710TMC3    C810505   2.304   0.611   0.653  0.0160 -0.3836 -0.9763
  710TMC3    O110506   2.491   0.281   1.068 -0.0050  0.5173  0.0021
  710TMC3    O210507   2.399   0.614   0.573  0.0521  0.1151 -0.0708
  711TMC3    C110508   2.464   3.014  15.098 -0.0138 -0.2321  0.2444
  711TMC3    C210509   2.447   3.095  15.204 -0.6493  1.1081 -0.0383
  711TMC3    C310510   2.542   3.107  15.300  0.0771  0.1081 -0.6236
  711TMC3    C410511   2.579   2.946  15.080 -0.2824  0.3545 -0.4848
  711TMC3    C510512   2.668   2.944  15.179 -0.0149 -0.0179 -0.2259
  711TMC3    C610513   2.660   3.034  15.284 -0.8413 -0.8381  0.3505
  711TMC3     C10514   2.349   2.925  15.068  0.8496  0.4058  0.4871
  711TMC3     O10515   2.350   2.864  14.963 -0.0013  0.3782  0.0827
  711TMC3     H10516   2.351   3.143  15.223 -1.1487  0.2168 -0.2710
  711TMC3    H110517   2.595   2.894  14.987  2.1253  0.3931 -0.0880
  711TMC3    H210518   2.718   3.015  15.374  1.1990  2.2909 -0.3217
  711TMC3    C710519   2.712   2.807  15.203 -0.1987  0.6512  0.0076
  711TMC3    C810520   2.479   3.074  15.429 -0.1502  0.2119  1.3295
  711TMC3    O110521   2.796   2.788  15.290 -0.1912 -0.3079 -0.3544
  711TMC3    O210522   2.369   3.018  15.429 -0.6903 -0.2671  0.5101
  712MPD2     C10523   3.611   4.152  14.268 -0.9026 -0.1699  0.4436
  712MPD2    C110524   3.532   4.156  14.152  0.1771  0.0943 -0.2161
  712MPD2    C210525   3.540   4.258  14.058 -0.0256 -0.5854  0.1938
  712MPD2    C310526   3.638   4.357  14.075 -0.6124 -0.0610  0.7208
  712MPD2    C410527   3.722   4.357  14.189  0.0937 -0.8505 -0.0745
  712MPD2    C510528   3.705   4.256  14.286 -0.5575 -0.1275 -0.6039
  712MPD2     H10529   3.474   4.256  13.972 -0.8059  1.5119  0.7554
  712MPD2    H110530   3.804   4.426  14.209  0.6785 -1.1591 -1.3946
  712MPD2    H210531   3.600   4.084  14.352  0.8021 -2.1357 -0.9192
  712MPD2    H310532   3.761   4.249  14.378 -1.3895 -3.0856 -0.3167
  712MPD2     N10533   3.649   4.462  13.977  0.5104 -0.0819  0.0108
  712MPD2    H510534   3.728   4.526  13.982  0.5974 -0.4330  3.2863
  712MPD2    N110535   3.428   4.063  14.139 -0.2873  0.0621  0.1183
  712MPD2    H710536   3.372   4.070  14.055 -0.1382 -1.9742 -0.1472
  713TMC3    C110537   3.604   4.579  13.772 -0.2761 -0.4688 -0.2288
  713TMC3    C210538   3.737   4.603  13.763 -0.5142 -0.2949  0.3234
  713TMC3    C310539   3.770   4.705  13.678 -0.0995  0.4168 -0.5041
  713TMC3    C410540   3.510   4.646  13.699  0.0741 -0.0561  0.0467
  713TMC3    C510541   3.550   0.030  13.631 -0.1376 -0.3106 -0.8498
  713TMC3    C610542   3.682   0.057  13.609 -0.2702 -0.1149  0.4524
  713TMC3     C10543   3.549   4.493  13.884  0.1289  0.2135  0.0851
  713TMC3     O10544   3.433   4.457  13.882 -0.6567 -0.2036  0.2089
  713TMC3     H10545   3.813   4.548  13.817 -0.4196  1.4670  1.9556
  713TMC3    H110546   3.404   4.633  13.719  0.8905 -1.9789  3.0834
  713TMC3    H210547   3.719   0.136  13.545 -1.2322 -0.3712 -0.4251
  713TMC3    C710548   3.459   0.106  13.549  0.5618 -0.1890 -0.0614
  713TMC3    C810549   3.910   0.013  13.651 -0.4114  0.6932 -0.3891
  713TMC3    O110550   3.508   0.177  13.462  0.1272 -0.3309  0.7908
  713TMC3    O210551   3.928   0.051  13.538  0.1178  0.2057 -0.4085
  714MPD2     C10552   1.575   1.702   2.017  0.1086  0.2867  0.4320
  714MPD2    C110553   1.502   1.637   1.918  0.1445 -0.8935 -0.6934
  714MPD2    C210554   1.400   1.710   1.856  0.5177  0.5010  0.4892
  714MPD2    C310555   1.378   1.847   1.886 -0.6561 -0.3203 -0.2738
  714MPD2    C410556   1.452   1.907   1.981 -0.2359 -0.2494 -0.4396
  714MPD2    C510557   1.549   1.834   2.052 -0.3737  0.1734  0.3529
  714MPD2     H10558   1.346   1.677   1.768  0.1370  1.2963  0.4258
  714MPD2    H110559   1.449   2.014   1.997 -0.9342  0.0072 -2.2295
  714MPD2    H210560   1.656   1.653   2.070  1.5193  0.9210 -1.1506
  714MPD2    H310561   1.601   1.879   2.136 -0.4196  0.8143  0.0384
  714MPD2     N10562   1.292   1.922   1.798  0.0291 -0.2470  0.9384
  714MPD2    H510563   1.230   1.863   1.745  0.2388 -0.0210  0.4324
  714MPD2    N110564   1.550   1.514   1.878  0.4382 -0.3856  0.9965
  714MPD2    H710565   1.636   1.483   1.922  0.1106 -0.3126  1.6870
  715TMC3    C110566   1.564   1.305   1.756  0.3419  0.0524 -0.7385
  715TMC3    C210567   1.490   1.207   1.717 -0.3593 -0.4174  0.0804
  715TMC3    C310568   1.548   1.095   1.678 -0.0465  0.4141 -0.2340
  715TMC3    C410569   1.702   1.301   1.766 -0.9907  0.5973 -0.4312
  715TMC3    C510570   1.762   1.184   1.715 -0.1526 -0.7616 -0.7636
  715TMC3    C610571   1.687   1.077   1.675  0.1526  0.3820 -0.3273
  715TMC3     C10572   1.494   1.432   1.787 -0.3615  0.4476  0.3405
  715TMC3     O10573   1.379   1.452   1.754  0.6610  0.0985  0.6535
  715TMC3     H10574   1.383   1.206   1.729 -0.6126  0.1938 -2.1525
  715TMC3    H110575   1.762   1.390   1.781  0.2770 -0.3404  0.0448
  715TMC3    H210576   1.736   0.989   1.635 -1.1003  0.0857 -1.2022
  715TMC3    C710577   1.907   1.171   1.693  0.4580 -0.2807  0.1659
  715TMC3    C810578   1.466   0.988   1.625 -0.0963 -0.6505 -0.4669
  715TMC3    O110579   1.944   1.056   1.672  0.1248 -0.2758 -0.4720
  715TMC3    O210580   1.349   1.014   1.604  0.0751 -0.3281  0.3951
  716MPD2     C10581   1.168   0.511   9.831  0.8280 -0.1185  1.0822
  716MPD2    C110582   1.124   0.418   9.740  0.1356  0.8620  0.0318
  716MPD2    C210583   1.161   0.287   9.751  0.5683 -0.1434  0.3454
  716MPD2    C310584   1.229   0.241   9.866  0.9864  0.0460 -0.1935
  716MPD2    C410585   1.277   0.336   9.958  0.3282  0.0154  0.6455
  716MPD2    C510586   1.236   0.466   9.943 -0.4018  0.3543  0.6125
  716MPD2     H10587   1.132   0.213   9.677 -2.6165  0.1349  1.3401
  716MPD2    H110588   1.334   0.318  10.048  0.6020 -2.7130 -0.0736
  716MPD2    H210589   1.148   0.618   9.828 -1.0166 -0.5713 -1.7204
  716MPD2    H310590   1.258   0.538  10.021 -0.1415 -0.4088  1.2449
  716MPD2     N10591   1.257   0.102   9.870 -0.2210 -0.7270  0.5816
  716MPD2    H510592   1.208   0.049   9.799 -0.5166  2.3915 -1.5324
  716MPD2    N110593   1.066   0.473   9.622 -0.7656 -0.4311 -0.0244
  716MPD2    H710594   1.039   0.569   9.637 -0.1667 -0.0387 -1.5226
  717TMC3    C110595   1.297   4.615   9.967 -0.4190 -0.7965 -0.5639
  717TMC3    C210596   1.302   4.559   9.841 -0.3606  0.3993 -0.1494
  717TMC3    C310597   1.274   4.425   9.831 -0.8746  0.3341  0.1449
  717TMC3    C410598   1.282   4.538  10.077 -0.5417  0.8711  0.2774
  717TMC3    C510599   1.278   4.399  10.060 -0.2412 -0.0335  1.0256
  717TMC3    C610600   1.250   4.338   9.939 -0.9095  1.0634 -0.6399
  717TMC3     C10601   1.313   0.032   9.980  0.3014 -0.5081  0.2487
  717TMC3     O10602   1.343   0.073  10.093 -0.3578 -0.4541  0.4715
  717TMC3     H10603   1.326   4.613   9.750  2.2204 -0.1029  0.2188
  717TMC3    H110604   1.299   4.588  10.172  0.8938 -0.3658  0.6726
  717TMC3    H210605   1.230   4.232   9.925 -3.1600  1.1401  1.7623
  717TMC3    C710606   1.273   4.307  10.178 -0.0738 -0.2411 -0.1793
  717TMC3    C810607   1.221   4.391   9.698 -0.2256 -0.2126  0.0250
  717TMC3    O110608   1.247   4.188  10.162 -0.3369 -0.2476  0.6912
  717TMC3    O210609   1.170   4.482   9.640 -0.3081 -0.1702 -0.0239
  718MPD2     C10610   0.531   4.024  13.081  0.7964 -0.8142  0.6405
  718MPD2    C110611   0.440   4.105  13.022  1.1037 -0.5526 -0.2311
  718MPD2    C210612   0.332   4.159  13.094 -0.0455  0.6246  0.2633
  718MPD2    C310613   0.313   4.117  13.227  0.0755  0.0510 -0.1135
  718MPD2    C410614   0.401   4.028  13.281  0.2949 -0.7224 -0.1134
  718MPD2    C510615   0.513   3.986  13.213 -0.0257  0.0147  0.3165
  718MPD2     H10616   0.264   4.231  13.049 -1.3212 -0.2592  0.7820
  718MPD2    H110617   0.390   3.983  13.379 -0.8619 -0.0375  0.0714
  718MPD2    H210618   0.613   3.974  13.030  0.8306  0.3095 -0.3954
  718MPD2    H310619   0.584   3.913  13.249  1.4218  0.6225 -1.2853
  718MPD2     N10620   0.193   4.169  13.293 -0.5144  0.3126 -0.0505
  718MPD2    H510621   0.129   4.218  13.232 -1.1873 -0.2760  0.1919
  718MPD2    N110622   0.471   4.141  12.889  0.2065 -0.0523 -0.2493
  718MPD2    H710623   0.557   4.113  12.843  0.2393  0.7798 -0.6731
  719TMC3    C110624   0.411   4.238  12.681 -0.0960 -0.0913 -0.7310
  719TMC3    C210625   0.288   4.262  12.613 -0.2511  0.4880 -0.0117
  719TMC3    C310626   0.279   4.379  12.536  0.3124  0.7885  0.6722
  719TMC3    C410627   0.516   4.318  12.661  0.4513  0.2224 -0.1531
  719TMC3    C510628   0.500   4.425  12.585  0.2601 -0.1646  0.5819
  719TMC3    C610629   0.383   4.465  12.524 -0.4441  0.7128 -0.6844
  719TMC3     C10630   0.376   4.196  12.809  0.3460  0.9115 -0.7016
  719TMC3     O10631   0.252   4.202  12.816  0.3973  0.6195  0.6543
  719TMC3     H10632   0.202   4.196  12.610  0.3033 -0.1835 -1.1243
  719TMC3    H110633   0.599   4.292  12.726 -0.2536 -2.4371 -0.3438
  719TMC3    H210634   0.383   4.552  12.460 -0.9847  0.6295 -0.7998
  719TMC3    C710635   0.618   4.483  12.514 -0.6472  0.5218 -0.6886
  719TMC3    C810636   0.158   4.456  12.556 -0.7105  0.4746  0.3509
  719TMC3    O110637   0.600   4.551  12.414 -0.6958 -0.2819 -0.0349
  719TMC3    O210638   0.140   4.559  12.494  0.2462 -0.3979 -0.1616
  720MPD2     C10639   3.448   1.422  14.398 -0.5215 -0.7613 -0.0981
  720MPD2    C110640   3.556   1.402  14.314 -0.6825 -0.7532  0.4215
  720MPD2    C210641   3.679   1.355  14.367  0.0934  0.6661 -0.2776
  720MPD2    C310642   3.688   1.309  14.495  0.3101  0.3751 -0.2949
  720MPD2    C410643   3.576   1.322  14.576 -0.1824  1.1532 -0.3930
  720MPD2    C510644   3.465   1.389  14.534 -0.5078  0.6725 -0.4193
  720MPD2     H10645   3.766   1.336  14.306 -0.0127 -0.6569 -0.0105
  720MPD2    H110646   3.584   1.302  14.682  1.7134 -0.5463 -0.8476
  720MPD2    H210647   3.356   1.474  14.374  0.4846  0.4872 -1.2387
  720MPD2    H310648   3.378   1.400  14.597 -0.7762  1.8299 -0.9888
  720MPD2     N10649   3.821   1.270  14.540  0.0190 -0.3708  0.1141
  720MPD2    H510650   3.893   1.278  14.468 -1.2451 -1.6977 -1.3052
  720MPD2    N110651   3.557   1.441  14.176  0.2153  0.0380 -0.6354
  720MPD2    H710652   3.621   1.395  14.111  0.9837  0.5981 -0.2660
  721TMC3    C110653   3.977   1.165  14.675 -0.0783  0.0482 -0.1898
  721TMC3    C210654   3.994   1.068  14.778 -0.6802  0.2891 -0.6433
  721TMC3    C310655   4.130   1.039  14.805  0.3204  0.4895  0.6284
  721TMC3    C410656   4.073   1.218  14.596  0.2002 -0.4322 -0.0891
  721TMC3    C510657   4.200   1.172  14.626 -0.1372 -0.7823 -0.1269
  721TMC3    C610658   4.232   1.090  14.734  0.8183  0.3001 -0.1439
  721TMC3     C10659   3.839   1.203  14.659  0.3318  0.9416 -0.1773
  721TMC3     O10660   3.770   1.188  14.761 -0.1122 -0.1442 -0.2431
  721TMC3     H10661   3.913   1.020  14.832  0.6125 -3.3868 -2.0028
  721TMC3    H110662   4.055   1.280  14.509  0.7799  1.8257  1.3639
  721TMC3    H210663   4.337   1.080  14.760  1.2762 -0.2295 -2.1880
  721TMC3    C710664   4.302   1.210  14.530 -0.0960  0.7851 -0.1010
  721TMC3    C810665   4.167   0.977  14.925 -0.0114  0.5651 -0.1252
  721TMC3    O110666   4.291   1.313  14.467 -0.0662 -0.1910  0.6910
  721TMC3    O210667   4.281   0.926  14.923  0.1518  0.3947  0.0625
  722MPD2     C10668   2.317   4.518  13.870  0.7689  0.0307 -0.2950
  722MPD2    C110669   2.250   4.634  13.828 -0.2175 -0.7419 -0.3560
  722MPD2    C210670   2.118   4.632  13.802  0.1963  0.0559 -0.2380
  722MPD2    C310671   2.042   4.510  13.794  0.5415 -0.1091  0.1356
  722MPD2    C410672   2.115   4.394  13.829  0.1512 -0.1115  0.1892
  722MPD2    C510673   2.244   4.401  13.872  0.6694 -0.0387  0.2533
  722MPD2     H10674   2.064   4.723  13.779 -1.6290 -1.0016 -0.2198
  722MPD2    H110675   2.070   4.295  13.830 -0.2291  0.0411 -2.1627
  722MPD2    H210676   2.418   4.521  13.910  0.3404 -0.1940  0.7973
  722MPD2    H310677   2.295   4.310  13.901  0.3723 -0.3989 -0.3692
  722MPD2     N10678   1.906   4.517  13.757  0.1777 -0.0778  0.1439
  722MPD2    H510679   1.871   4.611  13.744 -0.7133 -0.5486 -0.9359
  722MPD2    N110680   2.317   0.034  13.806 -0.1335 -0.0357  0.4339
  722MPD2    H710681   2.269   0.115  13.769  2.4649  1.4495  0.2885
  723TMC3    C110682   1.690   4.438  13.698 -1.0976 -0.0132 -0.6579
  723TMC3    C210683   1.591   4.376  13.762 -0.3925 -0.0428 -0.5024
  723TMC3    C310684   1.470   4.438  13.754  0.2976  0.1816  0.1850
  723TMC3    C410685   1.683   4.556  13.638  0.1340 -0.4027  0.6463
  723TMC3    C510686   1.561   4.619  13.637  0.1137 -0.4345  0.4856
  723TMC3    C610687   1.452   4.555  13.692  0.7017 -0.0576  0.1029
  723TMC3     C10688   1.825   4.408  13.739 -0.7977 -0.2459 -0.0091
  723TMC3     O10689   1.843   4.290  13.757  0.5109  0.1256 -0.2710
  723TMC3     H10690   1.595   4.286  13.822 -1.0558  0.0375 -0.3309
  723TMC3    H110691   1.761   4.599  13.577 -0.3681 -1.0959 -0.4729
  723TMC3    H210692   1.359   4.604  13.666  1.3005  1.6469  1.1620
  723TMC3    C710693   1.524   4.701  13.515 -0.1249 -0.6622  0.6493
  723TMC3    C810694   1.350   4.352  13.733 -0.2508 -0.4013 -0.2557
  723TMC3    O110695   1.464   0.078  13.539 -0.1855  0.4240  0.0822
  723TMC3    O210696   1.244   4.415  13.731 -0.5175 -0.0653 -0.0652
  724TMC3    C110697   2.514   2.209   9.557 -0.0694 -0.2768  0.3795
  724TMC3    C210698   2.434   2.278   9.463  0.1525  0.5473 -0.2641
  724TMC3    C310699   2.493   2.372   9.387  0.1565  0.4899 -0.3680
  724TMC3    C410700   2.648   2.219   9.555 -0.0383 -0.2046 -0.6507
  724TMC3    C510701   2.705   2.295   9.459 -0.0090  0.4148  0.4499
  724TMC3    C610702   2.633   2.376   9.378  0.1301  0.5878 -0.2360
  724TMC3     C10703   2.439   2.115   9.637  0.3587 -0.7970 -1.0881
  724TMC3     O10704   2.344   2.055   9.589  0.2443  0.2825 -0.0587
  724TMC3     H10705   2.326   2.287   9.460  0.0076 -0.9150  0.2680
  724TMC3    H110706   2.714   2.157   9.615 -3.3855 -0.5722  2.6099
  724TMC3    H210707   2.681   2.425   9.294  1.0574 -0.8813 -0.5724
  724TMC3    C710708   2.851   2.317   9.459 -0.1516  1.2416  0.4419
  724TMC3    C810709   2.430   2.499   9.375  0.6066  0.5092 -0.4684
  724TMC3    O110710   2.903   2.326   9.567  0.4562 -0.1024 -0.4012
  724TMC3    O210711   2.309   2.499   9.359 -0.3494  0.1169  0.1594
  725TMC3    C110712   4.083   1.433  12.950  0.5084  0.7128  0.4793
  725TMC3    C210713   4.028   1.415  12.828  0.0258  0.4118  0.0290
  725TMC3    C310714   4.015   1.287  12.790 -0.1591  0.4290  0.2425
  725TMC3    C410715   4.143   1.338  13.024  0.2711 -0.4513 -0.2317
  725TMC3    C510716   4.126   1.211  12.985  0.3312 -0.4598  0.1878
  725TMC3    C610717   4.078   1.189  12.857 -0.2061  0.4202 -0.5044
  725TMC3     C10718   4.098   1.572  12.990  0.0652 -0.8292  0.5013
  725TMC3     O10719   4.106   1.650  12.894 -0.0524 -0.0596 -0.0475
  725TMC3     H10720   3.970   1.492  12.779 -0.2545 -0.7994 -1.5557
  725TMC3    H110721   4.185   1.365  13.120 -0.6460  1.9280 -0.4987
  725TMC3    H210722   4.071   1.088  12.817 -0.0267  0.4932 -0.7176
  725TMC3    C710723   4.234   1.132  13.011 -0.6506  0.1280 -0.5579
  725TMC3    C810724   4.037   1.274  12.646 -0.1806 -0.3202 -0.1735
  725TMC3    O110725   4.214   1.013  13.007 -0.2570 -0.7322  0.3518
  725TMC3    O210726   4.050   1.161  12.604 -0.1479  0.4082 -0.0393
  726MPD2     C10727   1.871   3.050   9.641  0.3433  0.1484  0.0323
  726MPD2    C110728   1.916   3.083   9.768  0.5062 -0.4706 -0.0050
  726MPD2    C210729   1.886   2.996   9.878 -0.0812 -0.4967  0.5316
  726MPD2    C310730   1.824   2.875   9.861  0.2723 -1.0187 -0.0372
  726MPD2    C410731   1.792   2.840   9.729 -0.0714  0.7166 -0.7377
  726MPD2    C510732   1.820   2.925   9.626 -0.2956 -0.2188 -0.1030
  726MPD2     H10733   1.895   3.044   9.975  2.4270 -0.3789  0.2537
  726MPD2    H110734   1.750   2.743   9.702 -1.2435  0.3054  2.5687
  726MPD2    H210735   1.896   3.107   9.553 -0.1420 -0.0730 -0.2515
  726MPD2    H310736   1.782   2.894   9.529  0.0856 -1.3707  0.1145
  726MPD2     N10737   1.774   2.796   9.965  0.2545  1.0716 -0.3380
  726MPD2    H510738   1.743   2.707   9.929  1.3255  1.5182 -2.3444
  726MPD2    N110739   1.971   3.210   9.794 -0.0891  0.5039  0.2009
  726MPD2    H710740   2.012   3.216   9.887 -1.8976 -0.4123  1.0605
  727TMC3    C110741   1.996   3.443   9.778 -0.0115  0.3458 -0.4858
  727TMC3    C210742   2.098   3.444   9.869 -0.4924  0.2811 -0.0485
  727TMC3    C310743   2.118   3.567   9.927 -0.6852  0.0244  0.2038
  727TMC3    C410744   1.916   3.549   9.741  0.2070  0.7867 -0.8870
  727TMC3    C510745   1.935   3.666   9.809  0.5971 -0.9430 -0.0725
  727TMC3    C610746   2.029   3.673   9.909  0.4241  0.0906 -0.6412
  727TMC3     C10747   1.951   3.321   9.720  0.0774  0.2541 -0.6835
  727TMC3     O10748   1.878   3.327   9.622  0.1911  0.2004 -0.5175
  727TMC3     H10749   2.173   3.365   9.871  0.6010  1.3217  0.3755
  727TMC3    H110750   1.825   3.535   9.683  0.8959 -1.5419 -1.4340
  727TMC3    H210751   2.047   3.775   9.941 -1.4766  0.8204 -1.8855
  727TMC3    C710752   1.861   3.790   9.774 -0.1693  0.0375 -0.0433
  727TMC3    C810753   2.227   3.575  10.022  0.1397  0.6056  0.1350
  727TMC3    O110754   1.873   3.882   9.852  0.1331 -0.4342  0.4608
  727TMC3    O210755   2.311   3.487  10.019 -0.0430  1.1946 -0.4857
  728TMC3    C110756   1.462   1.483  15.637  0.3327 -1.0095 -0.1731
  728TMC3    C210757   1.581   1.524  15.689  0.2358 -0.0284 -0.0253
  728TMC3    C310758   1.671   1.595  15.609  0.3706 -0.1284  0.2958
  728TMC3    C410759   1.427   1.518  15.515 -0.3284  0.3653  0.0593
  728TMC3    C510760   1.516   1.592  15.440  0.7520  0.0312  0.2852
  728TMC3    C610761   1.633   1.646  15.487 -0.0609 -0.0025 -0.0774
  728TMC3     C10762   1.394   1.380  15.716 -0.6738  0.0386  1.0182
  728TMC3     O10763   1.470   1.302  15.774  0.1141 -0.2869  0.3023
  728TMC3     H10764   1.583   1.503  15.795 -2.7936 -1.9344 -0.3244
  728TMC3    H110765   1.326   1.503  15.479  0.9400 -2.6678 -2.2891
  728TMC3    H210766   1.702   1.712  15.435 -1.9048  1.0986 -1.1347
  728TMC3    C710767   1.458   1.664  15.326 -0.1627  0.0553  0.1273
  728TMC3    C810768   1.808   1.595  15.646 -0.1762  0.8934  1.1132
  728TMC3    O110769   1.338   1.686  15.316 -0.2230  0.3095  0.1985
  728TMC3    O210770   1.884   1.684  15.605 -0.2265 -0.0044 -0.3363
  729MPD2     C10771   4.244   2.384  16.619  0.5956 -0.0852 -0.3936
  729MPD2    C110772   4.179   2.488  16.663  0.6241  0.3898  0.2163
  729MPD2    C210773   4.088   2.474  16.769  0.3548 -0.0353  0.5873
  729MPD2    C310774   4.071   2.355  16.845  0.2846  0.0632  0.5827
  729MPD2    C410775   4.138   2.249  16.800 -0.0488 -0.0482 -0.2218
  729MPD2    C510776   4.218   2.264  16.686 -0.0491  0.3121 -0.3343
  729MPD2     H10777   4.050   2.567  16.811 -0.1164  0.3309 -0.6229
  729MPD2    H110778   4.128   2.150  16.845  1.9691  0.0994  0.5506
  729MPD2    H210779   4.311   2.385  16.535  0.0067 -1.3245 -0.8932
  729MPD2    H310780   4.272   2.172  16.668  0.8254  1.0649 -1.5355
  729MPD2     N10781   4.003   2.359  16.972  0.3310  0.5610 -0.7817
  729MPD2    H510782   4.015   2.275  17.028  1.9237  0.6130 -1.0553
  729MPD2    N110783   4.205   2.609  16.594 -0.3472 -0.3577 -0.6453
  729MPD2    H710784   4.281   2.605  16.527  1.5461  0.2225  1.4513
  730TMC3    C110785   3.871   2.483  17.135  0.8970 -0.0099 -0.1331
  730TMC3    C210786   3.922   2.411  17.238  0.0139  0.0947  0.0158
  730TMC3    C310787   3.887   2.447  17.366  0.0122 -0.3563 -0.2817
  730TMC3    C410788   3.798   2.596  17.149 -0.0284 -0.7902  0.2962
  730TMC3    C510789   3.774   2.630  17.278 -0.1294 -0.1135  0.4093
  730TMC3    C610790   3.812   2.560  17.392  0.3720  1.2416 -0.1246
  730TMC3     C10791   3.910   2.463  16.997 -0.4675  0.1842  0.0531
  730TMC3     O10792   3.843   2.524  16.916 -0.7740  0.1080 -0.6477
  730TMC3     H10793   3.994   2.334  17.212  0.7799  0.5474  0.7616
  730TMC3    H110794   3.749   2.653  17.071  1.0739  0.4559  0.5181
  730TMC3    H210795   3.781   2.576  17.494  1.4671  2.0948  0.0700
  730TMC3    C710796   3.689   2.746  17.295 -0.2759 -0.1408 -0.1973
  730TMC3    C810797   3.910   2.352  17.465 -0.0683  0.9361 -0.2710
  730TMC3    O110798   3.614   2.781  17.205  0.2092  0.1517  0.1129
  730TMC3    O210799   3.811   2.313  17.528  0.0152 -0.3171  0.0715
  731MPD2     C10800   3.348   1.230  12.511 -0.6518  0.3425  0.2005
  731MPD2    C110801   3.484   1.202  12.492 -1.6648  0.1687 -0.3347
  731MPD2    C210802   3.556   1.142  12.593  0.5182 -0.4198 -0.2197
  731MPD2    C310803   3.492   1.103  12.710  0.4240  0.4859 -0.1916
  731MPD2    C410804   3.360   1.147  12.732 -0.0272  0.2217  0.1152
  731MPD2    C510805   3.286   1.215  12.634 -0.0813 -0.4434  0.2557
  731MPD2     H10806   3.656   1.101  12.592  0.7813  0.2180  0.1828
  731MPD2    H110807   3.304   1.119  12.820  0.9558  0.4799  0.8161
  731MPD2    H210808   3.285   1.281  12.438 -2.8607  1.5257  2.9617
  731MPD2    H310809   3.186   1.246  12.662 -0.6805  0.4983 -2.8412
  731MPD2     N10810   3.564   1.022  12.805 -0.3231 -0.3838 -0.1163
  731MPD2    H510811   3.663   1.004  12.795  0.1252  2.8222 -1.4098
  731MPD2    N110812   3.546   1.243  12.371 -0.0431  0.1254 -0.0548
  731MPD2    H710813   3.487   1.267  12.292 -2.3438  0.0542  1.6472
  732TMC3    C110814   3.703   1.215  12.194  0.8386 -0.3812  0.2342
  732TMC3    C210815   3.594   1.207  12.107  0.1233 -0.3415 -0.2198
  732TMC3    C310816   3.610   1.230  11.976  0.2769 -0.1775  0.3858
  732TMC3    C410817   3.829   1.251  12.151  0.3707 -0.4307 -0.9713
  732TMC3    C510818   3.846   1.277  12.017  0.9335  0.2507 -0.1110
  732TMC3    C610819   3.736   1.267  11.928 -0.0253 -0.3559 -0.6337
  732TMC3     C10820   3.677   1.218  12.344  0.1581 -0.6063  0.4995
  732TMC3     O10821   3.774   1.233  12.419  0.0196  0.0232  0.2733
  732TMC3     H10822   3.519   1.142  12.148 -3.2294  0.9091 -4.3466
  732TMC3    H110823   3.905   1.268  12.227 -0.1291 -0.8740 -0.3656
  732TMC3    H210824   3.756   1.275  11.822 -2.3593 -1.1938 -1.1269
  732TMC3    C710825   3.973   1.259  11.956  0.4020 -0.4980 -0.3984
  732TMC3    C810826   3.511   1.170  11.887 -0.5753  0.3569 -0.6843
  732TMC3    O110827   3.999   1.323  11.855  0.3379 -0.3154  0.2390
  732TMC3    O210828   3.528   1.169  11.764  0.0843 -0.2481 -0.5937
  733TMC3    C110829   4.522   4.151  13.465 -0.2548  0.8879  0.1909
  733TMC3    C210830   4.656   4.134  13.496  0.3318  0.8785 -0.0143
  733TMC3    C310831   0.024   4.208  13.424  0.7941  0.3831  0.8119
  733TMC3    C410832   4.475   4.246  13.376  0.5902  0.7026  0.5636
  733TMC3    C510833   4.574   4.318  13.314 -0.7428 -0.0286 -0.2074
  733TMC3    C610834   4.709   4.291  13.322  0.1145 -0.1489 -0.3874
  733TMC3     C10835   4.419   4.086  13.545  0.5435  0.2848  0.5194
  733TMC3     O10836   4.305   4.081  13.500  0.2381  0.1016  0.0324
  733TMC3     H10837   4.682   4.052  13.563 -0.0498  0.4027 -0.4446
  733TMC3    H110838   4.371   4.272  13.364  0.8940  1.5061 -0.4109
  733TMC3    H210839   0.048   4.365  13.275 -0.1892 -0.0831 -0.6956
  733TMC3    C710840   4.529   4.401  13.204 -0.3970  0.0946  0.5611
  733TMC3    C810841   0.152   4.158  13.420 -0.6201 -0.0274 -0.1434
  733TMC3    O110842   4.418   4.452  13.197 -0.8627  0.2891 -1.0636
  733TMC3    O210843   0.194   4.102  13.519  0.0724 -0.2518 -0.5973
  734MPD2     C10844   1.928   2.172  12.024 -0.1422  0.2349  0.4519
  734MPD2    C110845   1.854   2.063  11.988 -0.2171  0.0395 -0.1005
  734MPD2    C210846   1.879   2.004  11.863  0.3343  0.3634 -0.2156
  734MPD2    C310847   1.964   2.064  11.766 -0.3084  0.2564 -0.8765
  734MPD2    C410848   2.027   2.178  11.801  0.7928  0.8370 -0.4733
  734MPD2    C510849   2.013   2.232  11.933 -0.7727  1.0206 -0.4308
  734MPD2     H10850   1.822   1.915  11.841 -1.7398  1.5422  0.3128
  734MPD2    H110851   2.085   2.242  11.737 -0.7317  1.4107 -1.2809
  734MPD2    H210852   1.912   2.213  12.123 -1.3403  0.5097  0.1420
  734MPD2    H310853   2.068   2.321  11.958 -0.8987  0.7184  0.9199
  734MPD2     N10854   1.978   1.992  11.646  0.5372 -0.0668  0.4520
  734MPD2    H510855   1.934   1.900  11.645  1.5830 -0.5347 -3.6795
  734MPD2    N110856   1.752   2.010  12.071  0.6949  0.4532 -0.3179
  734MPD2    H710857   1.745   2.042  12.168 -0.0873 -0.2003 -0.1593
  735TMC3    C110858   1.596   1.853  12.138  0.5181 -0.3789 -0.3221
  735TMC3    C210859   1.477   1.803  12.104  0.3248 -0.6668 -0.6381
  735TMC3    C310860   1.454   1.662  12.112  0.1384  0.0585 -0.0871
  735TMC3    C410861   1.698   1.778  12.198  0.3809 -0.2100 -0.1334
  735TMC3    C510862   1.679   1.645  12.209  0.5542 -0.2103 -0.3613
  735TMC3    C610863   1.559   1.587  12.173  0.5187 -0.7366 -0.2619
  735TMC3     C10864   1.645   1.937  12.032  0.1348 -0.4513  0.1335
  735TMC3     O10865   1.597   1.903  11.923 -0.4295  0.0945 -0.0646
  735TMC3     H10866   1.409   1.866  12.047  0.3913 -0.8566 -0.9307
  735TMC3    H110867   1.793   1.819  12.227 -0.0445  0.7773 -0.1518
  735TMC3    H210868   1.549   1.479  12.167 -0.5750 -0.6881  0.5927
  735TMC3    C710869   1.792   1.557  12.185 -0.4136  0.1771 -0.5980
  735TMC3    C810870   1.411   1.586  11.998  1.0273  0.5056 -0.3304
  735TMC3    O110871   1.888   1.609  12.123  0.5829  0.0875  0.2967
  735TMC3    O210872   1.368   1.473  12.013  0.6049  0.4580 -0.2181
  736MPD2     C10873   1.875   1.234  12.352 -0.6469 -0.2859 -0.3155
  736MPD2    C110874   1.891   1.338  12.260 -0.0460  0.0530 -0.1962
  736MPD2    C210875   1.987   1.325  12.163  0.0970  0.1304 -0.0401
  736MPD2    C310876   2.078   1.224  12.172  0.1237  0.2905 -0.1010
  736MPD2    C410877   2.064   1.129  12.273  0.3464  0.2329  0.8359
  736MPD2    C510878   1.960   1.125  12.351 -1.1300 -0.3116  0.2093
  736MPD2     H10879   1.997   1.388  12.075 -0.2933 -0.4743 -0.5186
  736MPD2    H110880   2.141   1.054  12.291  1.9342  1.8515  0.8457
  736MPD2    H210881   1.782   1.223  12.407 -1.3400  0.4202 -1.3577
  736MPD2    H310882   1.941   1.041  12.417  0.6552 -0.6701  0.2800
  736MPD2     N10883   2.201   1.216  12.094  0.2842  0.0308 -0.0336
  736MPD2    H510884   2.266   1.138  12.102 -0.7414 -0.7934  0.3085
  736MPD2    N110885   1.791   1.441  12.257  0.0859 -0.4911  0.1979
  736MPD2    H710886   1.716   1.437  12.325 -0.3531 -1.9983 -0.3644
  737TMC3    C110887   2.385   1.271  11.939  0.5854 -0.1493 -0.1179
  737TMC3    C210888   2.425   1.371  11.854  0.0842  1.2348 -0.2193
  737TMC3    C310889   2.512   1.331  11.757  0.2144 -0.3086 -0.1003
  737TMC3    C410890   2.429   1.141  11.930  0.6743 -0.0608  0.6494
  737TMC3    C510891   2.529   1.105  11.843 -0.8829 -0.2718  0.1381
  737TMC3    C610892   2.568   1.198  11.749 -0.2483  0.8538 -0.5777
  737TMC3     C10893   2.252   1.308  12.007 -0.2356  0.2496  0.0204
  737TMC3     O10894   2.198   1.411  11.965  0.2820 -0.0013 -0.5191
  737TMC3     H10895   2.391   1.473  11.858  1.4628  1.6940 -0.4520
  737TMC3    H110896   2.402   1.066  12.004  1.0424 -1.3315 -0.5078
  737TMC3    H210897   2.656   1.191  11.686  1.5960  0.8515  2.0153
  737TMC3    C710898   2.564   0.962  11.835 -0.8488  0.1480  0.6834
  737TMC3    C810899   2.567   1.431  11.675 -0.1291 -0.2220 -0.5861
  737TMC3    O110900   2.504   0.883  11.914  0.2297 -0.0844 -0.6756
  737TMC3    O210901   2.573   1.544  11.720  0.2307  0.3895  0.0610
  738MPD2     C10902   2.812   4.672  15.653 -0.1508 -0.0955 -0.1495
  738MPD2    C110903   2.740   4.719  15.541  0.0786 -0.0542  0.1719
  738MPD2    C210904   2.786   0.115  15.486 -0.7927 -0.0477  0.1048
  738MPD2    C310905   2.907   0.177  15.531  1.3425  0.3797  0.3288
  738MPD2    C410906   2.974   0.122  15.638 -0.0152  0.1189  1.0795
  738MPD2    C510907   2.927   0.011  15.706 -0.6593 -0.1928  0.0318
  738MPD2     H10908   2.729   0.155  15.403  1.8946  0.7079 -1.3850
  738MPD2    H110909   3.068   0.162  15.675 -0.1204  0.4299  1.0102
  738MPD2    H210910   2.784   4.584  15.710 -0.5948  1.7430  2.4831
  738MPD2    H310911   2.984   4.693  15.788 -1.1523  0.4867  0.7239
  738MPD2     N10912   2.968   0.283  15.463 -0.1951 -0.5783 -0.1638
  738MPD2    H510913   3.053   0.322  15.502  0.3944  0.5646 -2.5934
  738MPD2    N110914   2.626   4.655  15.486 -0.4683  0.1252  0.1180
  738MPD2    H710915   2.577   4.695  15.407 -1.7051 -2.7529 -0.5480
  739TMC3    C110916   3.047   0.402  15.278  0.9438  0.1288  0.1790
  739TMC3    C210917   3.024   0.500  15.192  0.5402  0.1551 -0.1201
  739TMC3    C310918   3.123   0.538  15.106 -0.4443 -0.6491 -0.1397
  739TMC3    C410919   3.168   0.335  15.287 -0.2640  0.2369 -0.6200
  739TMC3    C510920   3.271   0.384  15.214 -0.4779  0.2957 -0.0684
  739TMC3    C610921   3.249   0.486  15.120  0.8994  0.2348 -0.1741
  739TMC3     C10922   2.933   0.334  15.340  0.2636  0.0309 -0.2067
  739TMC3     O10923   2.823   0.327  15.281 -0.0673  0.1294 -0.4664
  739TMC3     H10924   2.920   0.528  15.179  0.5002  0.0157 -0.1108
  739TMC3    H110925   3.178   0.257  15.361 -2.7056 -0.1772 -0.7051
  739TMC3    H210926   3.338   0.535  15.084 -0.5420  2.0058 -1.2869
  739TMC3    C710927   3.401   0.320  15.202  0.0380 -0.3369 -0.1300
  739TMC3    C810928   3.086   0.595  14.973  0.1628  0.3940 -0.3241
  739TMC3    O110929   3.486   0.384  15.147 -0.2281  0.4186  0.1972
  739TMC3    O210930   2.980   0.658  14.959 -0.3734  0.2001  1.0031
  740TMC3    C110931   3.421   1.723  14.612  0.1101 -0.2992 -0.2714
  740TMC3    C210932   3.451   1.712  14.744  0.6494  0.4717 -0.0777
  740TMC3    C310933   3.589   1.699  14.769 -0.3452 -0.2367  0.1580
  740TMC3    C410934   3.511   1.733  14.507 -0.3543  0.0753 -0.6151
  740TMC3    C510935   3.645   1.726  14.543  0.3575 -0.2774 -0.3461
  740TMC3    C610936   3.682   1.714  14.675 -0.1094 -0.4371 -0.0354
  740TMC3     C10937   3.282   1.706  14.572  0.1500 -0.6624  0.1464
  740TMC3     O10938   3.254   1.727  14.456  0.3952 -0.1030  0.6332
  740TMC3     H10939   3.382   1.700  14.827 -1.1056 -0.2245 -1.6142
  740TMC3    H110940   3.478   1.710  14.407 -1.3872  1.3012 -0.5603
  740TMC3    H210941   3.788   1.719  14.696 -0.2742  1.4706  0.3642
  740TMC3    C710942   3.748   1.691  14.447 -0.3097  0.3672 -0.5387
  740TMC3    C810943   3.619   1.653  14.901  0.0600 -0.5845 -0.2734
  740TMC3    O110944   3.854   1.661  14.501  0.3977 -0.0584 -0.1625
  740TMC3    O210945   3.524   1.611  14.967  0.4136  0.2641 -0.1584
  741TMC3    C110946   2.843   0.694  15.572  0.0987 -0.1488  0.6916
  741TMC3    C210947   2.776   0.587  15.533 -0.9303  0.2371 -0.4968
  741TMC3    C310948   2.689   0.516  15.618  0.4124 -0.2511 -0.0597
  741TMC3    C410949   2.830   0.741  15.702  0.1099 -0.0951 -0.1262
  741TMC3    C510950   2.754   0.658  15.794  1.0459  0.0000  0.0575
  741TMC3    C610951   2.677   0.549  15.752  0.6729 -0.1516  0.2263
  741TMC3     C10952   2.971   0.737  15.510 -0.1860  0.0172  0.7896
  741TMC3     O10953   3.078   0.714  15.567 -0.1156 -0.2569  0.3385
  741TMC3     H10954   2.799   0.551  15.433 -0.0497 -0.8853  0.1114
  741TMC3    H110955   2.901   0.810  15.745  1.3850 -1.8005  0.4694
  741TMC3    H210956   2.608   0.498  15.819 -1.6455  1.4503 -0.9370
  741TMC3    C710957   2.735   0.693  15.934  0.3704  0.0727 -0.1518
  741TMC3    C810958   2.595   0.434  15.549 -0.5305  0.1465  0.2058
  741TMC3    O110959   2.673   0.613  16.007 -0.2084 -0.7361  0.3211
  741TMC3    O210960   2.569   0.472  15.432  0.0561  0.3225 -0.0106
  742TMC3    C110961   2.785   4.308  15.794  0.8597  0.2667 -0.6700
  742TMC3    C210962   2.720   4.219  15.720  0.2482  0.7289  0.5192
  742TMC3    C310963   2.786   4.174  15.609 -0.2898 -0.3871  0.4404
  742TMC3    C410964   2.914   4.356  15.774 -0.0470  0.3044 -0.4879
  742TMC3    C510965   2.973   4.303  15.664  0.2273 -0.3010  0.4721
  742TMC3    C610966   2.912   4.213  15.582 -0.4855 -0.0446 -0.4655
  742TMC3     C10967   2.722   4.363  15.911  0.5900 -0.4150 -0.2902
  742TMC3     O10968   2.759   4.473  15.949  0.2462  0.0215  0.1355
  742TMC3     H10969   2.612   4.222  15.728  0.1034 -2.1306 -0.3061
  742TMC3    H110970   2.977   4.410  15.845  2.3627 -2.2472 -0.6891
  742TMC3    H210971   2.970   4.179  15.497 -0.1528  0.2121 -0.3437
  742TMC3    C710972   3.114   4.313  15.651  0.5047 -0.8072  0.1850
  742TMC3    C810973   2.733   4.071  15.521  0.1794  0.2981 -0.1898
  742TMC3    O110974   3.165   4.419  15.690 -0.0750  0.0227 -0.1712
  742TMC3    O210975   2.786   4.058  15.413  0.0684  0.5362 -0.1140
  743MPD2     C10976   0.722   4.435   1.986  0.1543 -0.0112  0.0858
  743MPD2    C110977   0.781   4.334   1.916 -0.0780 -0.4482 -0.5305
  743MPD2    C210978   0.912   4.289   1.953 -0.3019 -0.9283  0.6302
  743MPD2    C310979   0.987   4.350   2.054 -0.0592  0.1245 -0.0973
  743MPD2    C410980   0.932   4.462   2.111 -0.6730  0.1983  0.2094
  743MPD2    C510981   0.799   4.499   2.084 -0.0055  0.3596  0.0779
  743MPD2     H10982   0.958   4.203   1.905 -0.8952 -1.1304  0.4267
  743MPD2    H110983   0.985   4.522   2.184 -0.1878 -0.5860  0.5080
  743MPD2    H210984   0.618   4.464   1.975 -0.1448 -1.4386 -0.8200
  743MPD2    H310985   0.757   4.589   2.127  0.6540 -0.2335  1.9329
  743MPD2     N10986   1.123   4.305   2.082  0.2553  0.3329  0.2201
  743MPD2    H510987   1.154   4.236   2.014  2.4823  0.8103  0.7591
  743MPD2    N110988   0.710   4.280   1.804  0.5359 -0.4415  0.1460
  743MPD2    H710989   0.619   4.322   1.788  1.9508  2.2118 -0.9008
  744TMC3    C110990   0.664   4.153   1.620 -0.6066 -0.5698 -0.2608
  744TMC3    C210991   0.532   4.162   1.656  0.2113 -0.0446  0.2528
  744TMC3    C310992   0.442   4.127   1.560 -0.0312  0.4109 -0.3953
  744TMC3    C410993   0.704   4.122   1.490  0.0180  0.1852  0.4757
  744TMC3    C510994   0.608   4.090   1.403 -0.0321  0.4280  0.1076
  744TMC3    C610995   0.477   4.097   1.432 -0.0854  0.7332 -0.2439
  744TMC3     C10996   0.763   4.184   1.722 -0.0482  0.3643 -0.1653
  744TMC3     O10997   0.872   4.131   1.715  0.0580 -0.1568 -0.1751
  744TMC3     H10998   0.503   4.163   1.761 -1.0252  1.2331 -0.1046
  744TMC3    H110999   0.810   4.128   1.471 -0.1835  0.6192 -0.5185
  744TMC3    H211000   0.398   4.066   1.365  0.4244 -1.2019  0.0515
  744TMC3    C711001   0.641   4.102   1.267  0.3459 -0.2175 -0.1783
  744TMC3    C811002   0.299   4.142   1.574 -0.1580 -0.2370  0.0068
  744TMC3    O111003   0.719   4.190   1.242 -0.1089 -0.3576  0.4652
  744TMC3    O211004   0.236   4.196   1.482 -0.7453  0.0747  0.4414
  745TMC3    C111005   3.268   3.909  14.187  0.2410  0.4870 -0.2520
  745TMC3    C211006   3.169   3.883  14.280  0.4982  0.3797  0.3530
  745TMC3    C311007   3.043   3.865  14.228 -0.0175 -0.1989  0.3265
  745TMC3    C411008   3.254   3.880  14.057 -0.1346 -0.7785 -1.0544
  745TMC3    C511009   3.130   3.852  14.005 -0.0329 -0.4376  1.4200
  745TMC3    C611010   3.024   3.840  14.094  0.4286  0.0291  0.0523
  745TMC3     C11011   3.390   3.971  14.234 -0.1806  0.2618 -0.2399
  745TMC3     O11012   3.409   3.952  14.354  0.5153  0.2222 -0.1545
  745TMC3     H11013   3.187   3.891  14.387 -1.0299 -1.2757  0.7469
  745TMC3    H111014   3.331   3.909  13.985  0.7333 -0.9097 -0.1831
  745TMC3    H211015   2.931   3.792  14.066  0.0283  1.2347 -0.7051
  745TMC3    C711016   3.120   3.787  13.880  0.0885  0.0934  0.4427
  745TMC3    C811017   2.950   3.807  14.319  1.2269 -0.1547  0.8642
  745TMC3    O111018   3.007   3.795  13.828  0.1594 -0.2576 -0.2787
  745TMC3    O211019   2.939   3.684  14.315  0.0212  0.0938 -0.2583
  746TMC3    C111020   0.608   0.866  10.865  0.2954  0.2533  0.7832
  746TMC3    C211021   0.688   0.825  10.759 -0.2001 -0.2621  0.3380
  746TMC3    C311022   0.625   0.756  10.654 -0.2268  0.3712 -0.2714
  746TMC3    C411023   0.484   0.822  10.884 -0.3786 -0.3120  0.5554
  746TMC3    C511024   0.422   0.746  10.784  0.6485  0.1765 -0.3318
  746TMC3    C611025   0.488   0.720  10.664 -0.0912 -0.2192  0.2338
  746TMC3     C11026   0.652   0.971  10.951 -0.2422 -0.2308  0.5970
  746TMC3     O11027   0.600   0.964  11.063 -0.5259  0.3670 -0.4052
  746TMC3     H11028   0.792   0.856  10.762  0.0832 -1.3100  1.6355
  746TMC3    H111029   0.425   0.859  10.966  0.5356  1.5145  0.3966
  746TMC3    H211030   0.446   0.657  10.586 -0.4654 -0.7077  0.8348
  746TMC3    C711031   0.313   0.662  10.815  0.5009  0.4504 -0.6630
  746TMC3    C811032   0.698   0.744  10.526 -0.2924  0.5036  0.3127
  746TMC3    O111033   0.256   0.625  10.714 -0.6038 -0.2575  0.1725
  746TMC3    O211034   0.631   0.727  10.427 -0.3910  0.1344 -0.6723
  747TMC3    C111035   3.297   0.475  11.216  0.3380 -0.0919 -0.1397
  747TMC3    C211036   3.163   0.464  11.237  0.0142 -0.5396 -0.1145
  747TMC3    C311037   3.107   0.578  11.300  0.0866 -0.2097 -0.3214
  747TMC3    C411038   3.367   0.589  11.259 -0.1675  0.7505  0.1781
  747TMC3    C511039   3.308   0.700  11.309  0.6045 -0.0975  0.5355
  747TMC3    C611040   3.175   0.694  11.335 -0.4299 -0.1067  0.1999
  747TMC3     C11041   3.375   0.358  11.176  0.2926 -0.3027 -0.2485
  747TMC3     O11042   3.486   0.358  11.218  0.7323  0.0516 -0.6746
  747TMC3     H11043   3.108   0.373  11.219 -0.8947  0.2446 -1.3271
  747TMC3    H111044   3.475   0.590  11.252 -0.0517  1.0997  2.1074
  747TMC3    H211045   3.145   0.784  11.387 -2.4142 -0.3086 -0.5758
  747TMC3    C711046   3.386   0.812  11.350 -0.4137  0.1655  0.1489
  747TMC3    C811047   2.984   0.557  11.378  0.9573 -0.5192 -0.6472
  747TMC3    O111048   3.338   0.892  11.435  0.4408  0.8988  0.4998
  747TMC3    O211049   2.957   0.435  11.393  0.2452  0.5356  0.1508
  748MPD2     C11050   4.240   0.687   1.739  0.2790 -0.0447  0.5852
  748MPD2    C111051   4.301   0.569   1.770  0.0566 -0.0337 -0.3779
  748MPD2    C211052   4.425   0.537   1.722 -0.2117 -0.5071  0.2100
  748MPD2    C311053   4.486   0.615   1.629  0.0067  0.1969  0.1283
  748MPD2    C411054   4.419   0.732   1.594 -0.2322 -0.4255 -0.0269
  748MPD2    C511055   4.298   0.773   1.648  0.2413 -0.2967 -0.1880
  748MPD2     H11056   4.478   0.451   1.762  1.2723  0.0846 -0.4700
  748MPD2    H111057   4.470   0.787   1.516  1.1352 -0.8347  0.5837
  748MPD2    H211058   4.140   0.711   1.774  0.3729  1.3095 -0.0677
  748MPD2    H311059   4.250   0.867   1.625  1.3296  0.1251 -0.7736
  748MPD2     N11060   4.609   0.571   1.580 -0.6670  0.3516 -0.3641
  748MPD2    H511061   4.654   0.488   1.618 -0.2476  1.1014  0.8041
  748MPD2    N111062   4.226   0.491   1.864  0.1383 -0.2587 -0.2324
  748MPD2    H711063   4.137   0.524   1.900 -0.6682 -1.3224 -1.2676
  749TMC3    C111064   0.091   0.577   1.459  0.5499 -0.4510  0.4632
  749TMC3    C211065   0.166   0.548   1.572 -0.0145  0.0198 -0.0088
  749TMC3    C311066   0.300   0.565   1.566  1.0345  0.0736  0.2650
  749TMC3    C411067   0.159   0.620   1.351  0.1980 -0.4745 -0.0587
  749TMC3    C511068   0.292   0.640   1.349 -0.9380 -0.4793 -0.5576
  749TMC3    C611069   0.368   0.597   1.452 -0.2589  0.5105  0.3789
  749TMC3     C11070   4.685   0.634   1.485 -0.6986 -0.0960 -0.3758
  749TMC3     O11071   4.661   0.735   1.425 -0.7568  0.2618 -0.1705
  749TMC3     H11072   0.125   0.531   1.671 -3.0109  0.6035 -1.1726
  749TMC3    H111073   0.087   0.640   1.272  1.0269 -1.5168 -1.0764
  749TMC3    H211074   0.472   0.621   1.434 -0.5903  1.0643 -0.8500
  749TMC3    C711075   0.342   0.753   1.273  0.2806  0.3147 -0.1602
  749TMC3    C811076   0.383   0.532   1.682 -0.0970  0.2621 -1.0633
  749TMC3    O111077   0.460   0.773   1.267  0.0862 -0.3705  0.4086
  749TMC3    O211078   0.329   0.536   1.789  0.7969 -0.4645 -0.0572
  750MPD2     C11079   0.474   2.845  10.786 -0.5584 -0.0265  0.2356
  750MPD2    C111080   0.436   2.805  10.911 -0.2147  0.0654  0.3503
  750MPD2    C211081   0.489   2.689  10.974  0.1802  0.0500 -0.5130
  750MPD2    C311082   0.595   2.625  10.907 -0.2278  0.4112 -0.0726
  750MPD2    C411083   0.640   2.676  10.788  0.8331  0.2440 -0.2105
  750MPD2    C511084   0.583   2.791  10.729  0.1358 -0.5082  0.2315
  750MPD2     H11085   0.445   2.648  11.064 -0.5278  0.6315 -0.5878
  750MPD2    H111086   0.726   2.632  10.739  2.6634  0.6256  2.7188
  750MPD2    H211087   0.426   2.930  10.740 -0.8677  1.4238  3.1998
  750MPD2    H311088   0.613   2.824  10.630  1.7734  2.5263  1.7274
  750MPD2     N11089   0.669   2.511  10.952 -0.3329  0.6537  0.5382
  750MPD2    H511090   0.763   2.506  10.912 -0.0925 -1.2471  1.3661
  750MPD2    N111091   0.348   2.893  10.980  0.4417  0.0253 -0.4806
  750MPD2    H711092   0.313   2.974  10.931 -1.8801  0.1390  1.3538
  751TMC3    C111093   0.704   2.325  11.087 -0.1762 -0.2744  0.1435
  751TMC3    C211094   0.666   2.237  11.191  1.2613 -0.3322 -0.2868
  751TMC3    C311095   0.731   2.120  11.215 -0.1055 -0.6524  0.0896
  751TMC3    C411096   0.802   2.278  11.002 -0.2950 -0.3022  0.1897
  751TMC3    C511097   0.860   2.156  11.021  0.7726 -0.2799  0.1968
  751TMC3    C611098   0.837   2.088  11.135  0.1582  0.6859  0.3664
  751TMC3     C11099   0.613   2.422  11.042 -0.5252  0.6463 -0.6222
  751TMC3     O11100   0.500   2.429  11.083  0.5051 -0.0116  0.0923
  751TMC3     H11101   0.568   2.248  11.237  1.5521 -0.1541  0.2970
  751TMC3    H111102   0.812   2.329  10.907 -1.1102  1.8260  1.2511
  751TMC3    H211103   0.899   2.004  11.163  0.4035  0.6675 -0.2463
  751TMC3    C711104   0.860   2.062  10.904 -1.1987  0.1025 -0.2462
  751TMC3    C811105   0.646   2.003  11.238 -0.2641  0.5268  0.2728
  751TMC3    O111106   0.877   2.098  10.792  0.3630  0.0478  0.1046
  751TMC3    O211107   0.684   1.899  11.189  0.2229  0.0705 -0.0421
  752TMC3    C111108   0.433   2.463  16.505  0.4824  0.5447 -0.0247
  752TMC3    C211109   0.503   2.362  16.446 -0.9893 -0.5137 -0.1621
  752TMC3    C311110   0.512   2.242  16.507  0.4712  0.4653 -0.6403
  752TMC3    C411111   0.395   2.452  16.633 -0.2654  0.4496 -0.0695
  752TMC3    C511112   0.409   2.335  16.694 -0.1722  0.7135 -0.0258
  752TMC3    C611113   0.454   2.225  16.630 -0.2950  0.0380 -0.0806
  752TMC3     C11114   0.388   2.585  16.426 -0.4165  0.6811  0.5077
  752TMC3     O11115   0.467   2.626  16.342  0.3012  0.2911  0.1536
  752TMC3     H11116   0.537   2.372  16.344  1.7355  2.2574  1.0161
  752TMC3    H111117   0.343   2.535  16.680 -0.7007 -0.5882  1.2762
  752TMC3    H211118   0.430   2.129  16.675 -1.4425  1.1869  1.7354
  752TMC3    C711119   0.358   2.317  16.824  0.2719 -0.4055  0.1735
  752TMC3    C811120   0.592   2.128  16.447 -0.0391  0.0593  0.2818
  752TMC3    O111121   0.259   2.382  16.850  0.0200 -0.6209  0.1927
  752TMC3    O211122   0.580   2.120  16.324 -0.5314 -0.3250  0.2139
  753TMC3    C111123   1.338   3.711  13.787  0.5423  0.0351  0.0781
  753TMC3    C211124   1.467   3.686  13.822  0.7534  0.3925  0.1179
  753TMC3    C311125   1.531   3.593  13.740 -0.3334  0.0366  0.7282
  753TMC3    C411126   1.276   3.650  13.683 -0.0903  0.7518  0.5740
  753TMC3    C511127   1.349   3.559  13.603 -0.0663 -0.3355  0.1447
  753TMC3    C611128   1.488   3.540  13.624 -0.2731  0.1486  0.1758
  753TMC3     C11129   1.262   3.808  13.864 -0.3222 -0.4028  0.0682
  753TMC3     O11130   1.139   3.789  13.875 -0.1546 -0.2858 -0.0662
  753TMC3     H11131   1.497   3.718  13.921 -1.2790  0.2330  0.7909
  753TMC3    H111132   1.172   3.671  13.661 -0.4921  0.2976  2.0088
  753TMC3    H211133   1.551   3.470  13.571  0.3653  0.4876  0.4808
  753TMC3    C711134   1.277   3.510  13.489 -0.3171 -1.0871  0.0314
  753TMC3    C811135   1.661   3.554  13.781  1.2731 -0.0609 -0.7963
  753TMC3    O111136   1.174   3.564  13.458 -0.2542 -0.1993 -0.2067
  753TMC3    O211137   1.713   3.447  13.747 -0.3625 -0.4224 -1.0343
  754MPD2     C11138   4.669   2.696  13.006  0.2648  0.1525  0.5861
  754MPD2    C111139   4.608   2.577  13.022  0.4917  0.3973  0.1335
  754MPD2    C211140   4.537   2.515  12.924 -0.3738  0.0098 -0.8187
  754MPD2    C311141   4.515   2.582  12.802 -0.9130 -0.2042 -0.5358
  754MPD2    C411142   4.568   2.708  12.786  0.2606  0.0354  0.0495
  754MPD2    C511143   4.654   2.757  12.882 -0.5231  0.0631  1.0235
  754MPD2     H11144   4.503   2.414  12.944 -2.4879  1.2348  1.7231
  754MPD2    H111145   4.573   2.765  12.694 -1.5772  1.4724  0.8268
  754MPD2    H211146   4.722   2.740  13.089 -0.3414  3.2342 -0.6682
  754MPD2    H311147   4.701   2.854  12.866  2.5076 -1.4318  0.8372
  754MPD2     N11148   4.434   2.534  12.698  0.0067  0.1783  0.0588
  754MPD2    H511149   4.438   2.587  12.611  1.4418  2.3188  1.4499
  754MPD2    N111150   4.634   2.516  13.148 -0.1653  0.3131  0.5845
  754MPD2    H711151   4.691   2.575  13.209  0.7921  0.5293 -0.5068
  755MPD2     C11152   4.448   2.938  13.315  0.1201 -0.0774 -0.2631
  755MPD2    C111153   4.349   2.861  13.373 -0.5089 -0.3782  0.5478
  755MPD2    C211154   4.277   2.783  13.291  0.0382 -0.3415 -0.5170
  755MPD2    C311155   4.308   2.766  13.156 -0.3942  0.0660  0.2407
  755MPD2    C411156   4.395   2.858  13.099 -1.0894  0.2782 -0.3970
  755MPD2    C511157   4.459   2.946  13.178  0.0752 -0.0734  0.4204
  755MPD2     H11158   4.204   2.722  13.343 -0.6226  2.5821  1.9894
  755MPD2    H111159   4.417   2.859  12.993  0.5894 -1.0211 -0.0588
  755MPD2    H211160   4.506   3.019  13.358 -0.2310 -0.0655  0.1811
  755MPD2    H311161   4.540   3.008  13.141 -0.2506  1.4775  2.2835
  755MPD2     N11162   4.245   2.662  13.075 -0.1603  0.3583  0.9281
  755MPD2    H511163   4.262   2.670  12.975  0.4758 -1.3742  0.8987
  755MPD2    N111164   4.335   2.863  13.516 -1.0273 -0.1175  0.7378
  755MPD2    H711165   4.243   2.834  13.547 -0.7650 -0.0514  1.5887
  756MPD2     C11166   0.245   3.476   9.187 -0.6668  0.6095 -0.5248
  756MPD2    C111167   0.266   3.373   9.278 -0.3296  0.8081 -0.4813
  756MPD2    C211168   0.164   3.289   9.301 -0.1366  0.6373 -0.3894
  756MPD2    C311169   0.035   3.306   9.256 -0.6685 -0.5189  0.6908
  756MPD2    C411170   0.015   3.409   9.163  0.2123 -0.0691 -0.3024
  756MPD2    C511171   0.120   3.494   9.134 -0.2605  1.0234 -0.2493
  756MPD2     H11172   0.184   3.203   9.363  1.6252  0.2025 -1.5661
  756MPD2    H111173   4.644   3.436   9.117 -0.9763 -0.9232  1.6341
  756MPD2    H211174   0.313   3.550   9.148 -0.2543  1.6778  2.1867
  756MPD2    H311175   0.101   3.575   9.066 -1.6705  2.1188  1.4489
  756MPD2     N11176   4.651   3.225   9.301 -0.0122 -0.4644  0.3139
  756MPD2    H511177   4.661   3.166   9.383 -0.1578 -1.4842 -0.3931
  756MPD2    N111178   0.390   3.351   9.338  0.4376 -0.4526  0.1687
  756MPD2    H711179   0.382   3.267   9.395  0.2186  0.1972  1.0998
  757MPD2     C11180   3.712   2.671   9.380  0.3534  0.2245  0.2993
  757MPD2    C111181   3.823   2.598   9.426  0.3591 -0.8366  0.5851
  757MPD2    C211182   3.943   2.664   9.426 -0.2931 -0.5547  0.1515
  757MPD2    C311183   3.960   2.792   9.370  0.0991  0.9952  0.2355
  757MPD2    C411184   3.842   2.858   9.322 -0.4286 -0.1989  0.7207
  757MPD2    C511185   3.718   2.796   9.327 -0.1925  0.0504 -0.0123
  757MPD2     H11186   4.029   2.615   9.469  1.5797  0.7019 -2.1167
  757MPD2    H111187   3.840   2.960   9.285 -0.2690  0.1494  1.6973
  757MPD2    H211188   3.617   2.618   9.380  0.7554 -0.5157 -1.1370
  757MPD2    H311189   3.629   2.850   9.298 -0.0242  0.9250  1.1207
  757MPD2     N11190   4.086   2.856   9.376  0.3553  0.2957  0.5875
  757MPD2    H511191   4.162   2.818   9.431 -1.0106 -1.7238  1.0637
  757MPD2    N111192   3.801   2.465   9.471 -0.5354  0.1926  1.0041
  757MPD2    H711193   3.714   2.418   9.451 -0.5073  0.7439 -0.3898
  758MPD2     C11194   0.718   1.407  15.966  0.7177  0.1662 -0.2582
  758MPD2    C111195   0.763   1.370  16.096 -0.0002 -0.4183  0.1728
  758MPD2    C211196   0.698   1.413  16.208 -0.8499 -0.1059  0.1558
  758MPD2    C311197   0.578   1.483  16.192  0.0683 -0.1201 -0.2871
  758MPD2    C411198   0.521   1.492  16.070  0.1336  0.6786  0.4824
  758MPD2    C511199   0.592   1.459  15.957 -0.0433  0.3634 -0.1943
  758MPD2     H11200   0.743   1.404  16.307 -1.4722  0.4209  0.4800
  758MPD2    H111201   0.423   1.536  16.051 -0.5202 -0.6015  0.8747
  758MPD2    H211202   0.762   1.372  15.873  1.2357 -0.9023  0.3933
  758MPD2    H311203   0.545   1.472  15.860  1.9185  0.4012 -1.1481
  758MPD2     N11204   0.504   1.533  16.306 -0.8298 -0.7003  0.1206
  758MPD2    H511205   0.426   1.596  16.291  1.8880  2.5617 -0.5312
  758MPD2    N111206   0.886   1.300  16.098 -0.5858 -1.2729 -0.0597
  758MPD2    H711207   0.936   1.293  16.010 -0.7626 -1.1714 -0.1676
  759MPD2     C11208   4.128   0.291  10.167  0.0775 -0.3101  0.1869
  759MPD2    C111209   4.123   0.171  10.097  0.8010 -0.0494  0.1995
  759MPD2    C211210   4.179   0.172   9.968 -0.9427  0.7391  0.0191
  759MPD2    C311211   4.236   0.283   9.910  0.2979  0.0183 -0.4739
  759MPD2    C411212   4.240   0.399   9.981 -1.0608  0.0692 -0.0983
  759MPD2    C511213   4.186   0.403  10.105 -0.1716  0.5903 -0.2236
  759MPD2     H11214   4.182   0.086   9.902  0.7371  2.2754 -1.9170
  759MPD2    H111215   4.285   0.491   9.944 -0.8089  0.5819  1.5107
  759MPD2    H211216   4.098   0.297  10.270  2.0284 -1.3738  0.8177
  759MPD2    H311217   4.208   0.486  10.171 -1.2413  0.6122  0.0955
  759MPD2     N11218   4.295   0.266   9.783 -0.0741 -0.1002 -0.0149
  759MPD2    H511219   4.303   0.173   9.744 -0.0996  0.0178 -0.3025
  759MPD2    N111220   4.064   0.060  10.162  0.2510  0.4979  0.2689
  759MPD2    H711221   4.038   0.072  10.259 -2.0515  0.4396 -0.3370
  760MPD2     C11222   3.733   2.309  12.200 -0.0887 -0.0425  0.2441
  760MPD2    C111223   3.823   2.355  12.107 -0.6280 -0.8068 -0.1330
  760MPD2    C211224   3.931   2.275  12.073 -0.7134  0.1344 -0.0170
  760MPD2    C311225   3.947   2.143  12.117  0.6145 -0.1989  0.2683
  760MPD2    C411226   3.852   2.104  12.207  0.0732 -0.3604  0.5573
  760MPD2    C511227   3.747   2.179  12.241  1.0130  0.5613  0.4667
  760MPD2     H11228   4.005   2.315  12.004 -0.7105  1.2456  0.6217
  760MPD2    H111229   3.843   2.005  12.250  1.5439 -0.5987  0.3117
  760MPD2    H211230   3.642   2.360  12.226  1.5724  2.4443  1.1738
  760MPD2    H311231   3.666   2.130  12.293  1.3215 -0.1006  0.3257
  760MPD2     N11232   4.037   2.048  12.071 -0.5135 -0.7314 -0.2535
  760MPD2    H511233   4.033   1.954  12.110  0.1911 -0.1030  1.3120
  760MPD2    N111234   3.818   2.488  12.052 -0.0109  0.0612 -0.6746
  760MPD2    H711235   3.900   2.512  11.998  1.7461  3.1325  3.4142
  761MPD2     C11236   0.276   1.710  11.399  0.0656 -1.3361 -0.0196
  761MPD2    C111237   0.353   1.700  11.290  0.2798 -0.4240 -0.0482
  761MPD2    C211238   0.433   1.808  11.263  0.9046  0.2320  0.2136
  761MPD2    C311239   0.437   1.916  11.343  0.0613 -0.5397  0.8693
  761MPD2    C411240   0.349   1.924  11.451 -0.0049  0.4997 -0.6567
  761MPD2    C511241   0.275   1.814  11.490  0.7891  0.2525  0.8927
  761MPD2     H11242   0.480   1.805  11.166  0.0943  0.2960 -0.1790
  761MPD2    H111243   0.323   2.016  11.501  1.3494  1.0093 -0.8936
  761MPD2    H211244   0.220   1.623  11.431  0.4387 -1.1956  1.0026
  761MPD2    H311245   0.215   1.816  11.580 -1.2456  1.3216 -0.5024
  761MPD2     N11246   0.522   2.019  11.311  0.6017 -0.3000 -0.0179
  761MPD2    H511247   0.512   2.101  11.370 -1.1887 -1.4088  1.2223
  761MPD2    N111248   0.346   1.591  11.210 -0.2145 -0.2285 -0.4329
  761MPD2    H711249   0.259   1.540  11.219 -0.0365 -0.3194  0.7922
  762MPD2     C11250   0.546   1.625  10.518 -0.7079  0.2794  0.0610
  762MPD2    C111251   0.542   1.489  10.537  0.3311  0.3446  0.3022
  762MPD2    C211252   0.572   1.412  10.427 -0.7323  0.3580 -0.2946
  762MPD2    C311253   0.594   1.476  10.304  0.5438 -0.7548 -0.8962
  762MPD2    C411254   0.583   1.613  10.283 -0.0088 -0.5772  0.0038
  762MPD2    C511255   0.565   1.681  10.401  0.5833  0.2586 -0.3644
  762MPD2     H11256   0.574   1.303  10.426  1.6457  0.4089  0.0612
  762MPD2    H111257   0.599   1.662  10.188  1.9530  1.8734  1.5868
  762MPD2    H211258   0.524   1.693  10.601 -2.1519  1.1381 -1.0254
  762MPD2    H311259   0.563   1.789  10.395  0.7717  0.3504  1.1735
  762MPD2     N11260   0.647   1.393  10.200 -0.1828 -0.5287 -0.2797
  762MPD2    H511261   0.636   1.293  10.214 -1.4096 -0.5975 -1.6483
  762MPD2    N111262   0.516   1.449  10.672 -0.2262 -0.1628  0.3272
  762MPD2    H711263   0.495   1.520  10.740 -1.4058 -0.7966  0.6235
  763MPD2     C11264   1.658   2.271  16.120  0.7160  0.4525  0.7827
  763MPD2    C111265   1.780   2.296  16.064  0.7335  0.1823  1.0612
  763MPD2    C211266   1.849   2.406  16.109  0.3082  0.3353  0.4992
  763MPD2    C311267   1.804   2.489  16.207 -0.2399 -0.4417  0.2427
  763MPD2    C411268   1.675   2.466  16.256  0.3801  0.1214 -0.2067
  763MPD2    C511269   1.612   2.346  16.221 -0.2189  0.0400 -0.6088
  763MPD2     H11270   1.947   2.416  16.064  0.2731  0.0927  0.3649
  763MPD2    H111271   1.634   2.521  16.340 -1.2554  1.4105 -1.8506
  763MPD2    H211272   1.591   2.192  16.087  2.1670 -0.2161 -0.5530
  763MPD2    H311273   1.507   2.329  16.242 -0.4766  0.0352 -1.8881
  763MPD2     N11274   1.872   2.596  16.259 -0.1530  0.7273 -0.2241
  763MPD2    H511275   1.826   2.659  16.324  0.0276  0.4405  0.1823
  763MPD2    N111276   1.820   2.224  15.949  0.3753 -0.1636 -0.1965
  763MPD2    H711277   1.919   2.225  15.927  0.0203  1.0555 -1.7848
  764MPD2     C11278   0.550   3.335   0.370  0.0379 -0.0163 -0.4281
  764MPD2    C111279   0.553   3.222   0.292  0.3902 -0.1299 -0.1004
  764MPD2    C211280   0.582   3.096   0.349  0.7345  0.1345 -0.4610
  764MPD2    C311281   0.614   3.084   0.480 -0.0413 -0.3368  0.4551
  764MPD2    C411282   0.617   3.198   0.551 -0.2959 -0.0505 -0.2341
  764MPD2    C511283   0.597   3.323   0.500 -0.4126 -0.6224 -0.4750
  764MPD2     H11284   0.594   3.003   0.294  0.5967 -0.5014  0.5857
  764MPD2    H111285   0.653   3.208   0.653  2.3103  0.2784 -1.1845
  764MPD2    H211286   0.535   3.434   0.328  2.5672  0.3765 -0.4603
  764MPD2    H311287   0.629   3.413   0.551 -0.1487 -0.9865  0.0038
  764MPD2     N11288   0.642   2.958   0.533 -0.3251  0.3419  0.3295
  764MPD2    H511289   0.608   2.885   0.471 -0.1322 -0.5841  1.2996
  764MPD2    N111290   0.532   3.221   0.152 -0.6189 -0.0907 -0.1793
  764MPD2    H711291   0.539   3.138   0.094 -1.7836 -1.1998  1.2768
  765MPD2     C11292   4.677   1.370  16.039  0.3067  1.1397 -0.6237
  765MPD2    C111293   0.044   1.462  15.995  0.6104  0.3056 -0.2659
  765MPD2    C211294   0.135   1.421  15.901  0.1621  0.1586 -0.2199
  765MPD2    C311295   0.146   1.288  15.866  0.5839 -0.4782  0.1806
  765MPD2    C411296   0.055   1.196  15.915 -0.3677 -0.3674 -0.1374
  765MPD2    C511297   4.682   1.244  16.008 -0.1543 -0.5894 -0.3146
  765MPD2     H11298   0.210   1.491  15.866  0.3953  0.2853  0.5429
  765MPD2    H111299   0.057   1.091  15.890  1.2980 -0.0050 -1.5598
  765MPD2    H211300   4.613   1.403  16.119 -0.7738 -2.3474 -0.0700
  765MPD2    H311301   4.620   1.175  16.063 -3.0988  1.7525 -0.6482
  765MPD2     N11302   0.247   1.245  15.781  0.3885  0.1553  0.4408
  765MPD2    H511303   0.307   1.320  15.750 -2.7172  2.1050 -0.9478
  765MPD2    N111304   0.025   1.608  16.023 -0.0241  0.3525 -0.0956
  765MPD2    H711305   4.661   1.632  16.067 -0.4497 -1.3560  0.0159
  766MPD2     C11306   4.214   1.826  15.651 -0.2211  0.8387  0.0911
  766MPD2    C111307   4.342   1.774  15.650  0.1778 -0.0669  0.3259
  766MPD2    C211308   4.379   1.693  15.542  0.4161  0.5014 -0.2014
  766MPD2    C311309   4.298   1.670  15.434  0.7990  0.4290  0.6907
  766MPD2    C411310   4.170   1.718  15.438 -0.1737  0.0516 -0.2054
  766MPD2    C511311   4.135   1.796  15.543 -0.2713 -0.1091  0.3672
  766MPD2     H11312   4.484   1.666  15.535  0.4834  0.3911  1.1715
  766MPD2    H111313   4.105   1.720  15.351 -1.4153 -3.6882  0.6355
  766MPD2    H211314   4.182   1.895  15.729 -0.9378 -1.2581  1.6639
  766MPD2    H311315   4.035   1.838  15.541 -0.5056 -0.7463 -1.4876
  766MPD2     N11316   4.346   1.608  15.318  0.8111 -0.8695 -0.3123
  766MPD2    H511317   4.289   1.619  15.235  1.4784 -0.1955 -0.6836
  766MPD2    N111318   4.439   1.807  15.745 -0.0543  0.2975 -0.1632
  766MPD2    H711319   4.522   1.747  15.744 -0.2807 -0.0364  1.4804
  767MPD2     C11320   4.112   1.997  15.267 -0.5794 -0.1506  0.4286
  767MPD2    C111321   4.239   1.969  15.223 -0.2155 -1.1584  0.2990
  767MPD2    C211322   4.259   1.923  15.098  0.1966 -0.0236 -0.8074
  767MPD2    C311323   4.156   1.899  15.005 -0.2113  0.8199 -0.1548
  767MPD2    C411324   4.027   1.917  15.057 -0.0465  0.1521  0.1798
  767MPD2    C511325   4.004   1.969  15.180 -0.6080  0.8787 -0.6471
  767MPD2     H11326   4.360   1.932  15.059  0.3340 -2.0705 -0.9145
  767MPD2    H111327   3.940   1.895  14.996  0.0284  0.1147  0.0870
  767MPD2    H211328   4.106   2.057  15.357 -2.1781  0.0860  0.1665
  767MPD2    H311329   3.903   1.993  15.211 -0.6293  0.8356 -0.6834
  767MPD2     N11330   4.179   1.865  14.866  0.7939  0.4807  0.6931
  767MPD2    H511331   4.276   1.840  14.849  0.1112 -1.2657 -0.6073
  767MPD2    N111332   4.339   2.028  15.301  0.2215  0.1203  0.0026
  767MPD2    H711333   4.302   2.066  15.387 -1.9807  0.6573 -1.1704
  768MPD2     C11334   0.373   0.197  10.495  0.2562  0.6423  0.1568
  768MPD2    C111335   0.316   0.182  10.619  0.5615  0.5823  0.7187
  768MPD2    C211336   0.375   0.227  10.732  0.3217 -0.1640  0.2815
  768MPD2    C311337   0.497   0.289  10.723 -0.2183  0.4977 -0.9932
  768MPD2    C411338   0.556   0.307  10.605 -0.0899  0.8301 -0.3610
  768MPD2    C511339   0.498   0.259  10.488 -0.1776  0.1906  0.1505
  768MPD2     H11340   0.325   0.235  10.828 -1.4081 -0.7828 -0.5827
  768MPD2    H111341   0.650   0.359  10.595  0.4755 -0.4575 -1.7215
  768MPD2    H211342   0.324   0.172  10.402  0.4154 -0.6911  0.4314
  768MPD2    H311343   0.541   0.273  10.390  0.8634  1.5291  0.8052
  768MPD2     N11344   0.566   0.345  10.829  0.3195 -0.1879 -0.4021
  768MPD2    H511345   0.656   0.386  10.806 -1.1511  2.8130 -0.6818
  768MPD2    N111346   0.178   0.145  10.628  0.3168 -0.7171  0.3889
  768MPD2    H711347   0.138   0.144  10.721 -1.4542  0.1796 -0.3635
  769MPD2     C11348   1.654   3.020  14.603 -0.5932 -0.4656  0.0932
  769MPD2    C111349   1.537   2.976  14.663  0.1240  0.6347 -0.2048
  769MPD2    C211350   1.479   3.042  14.769  0.5716 -0.2738  0.1379
  769MPD2    C311351   1.550   3.141  14.833  0.2876 -0.4857  0.3813
  769MPD2    C411352   1.676   3.168  14.782  0.5784  0.2726  0.7214
  769MPD2    C511353   1.725   3.115  14.664  0.1713  0.4431 -0.5734
  769MPD2     H11354   1.382   3.020  14.813  0.1492  0.3828 -0.4597
  769MPD2    H111355   1.733   3.252  14.820  1.0506  1.5941 -2.9716
  769MPD2    H211356   1.694   2.966  14.518 -0.6936  0.4524 -0.5329
  769MPD2    H311357   1.824   3.144  14.630 -0.0181 -0.2951 -1.7246
  769MPD2     N11358   1.494   3.194  14.950  0.5210  0.0532  0.2205
  769MPD2    H511359   1.407   3.148  14.977 -1.1888  4.0183  1.5733
  769MPD2    N111360   1.476   2.865  14.612  0.4266 -0.1422  0.3789
  769MPD2    H711361   1.502   2.833  14.519  1.7884 -0.1076  0.7586
  770MPD2     C11362   0.839   2.116  14.890 -0.1654  0.7090  0.2457
  770MPD2    C111363   0.959   2.138  14.955  0.3910 -0.8090  0.0683
  770MPD2    C211364   1.053   2.213  14.888  0.4832  0.0855 -0.0194
  770MPD2    C311365   1.025   2.262  14.762 -0.7392  1.0861  0.0149
  770MPD2    C411366   0.907   2.228  14.698  0.2762  0.5820 -0.4094
  770MPD2    C511367   0.823   2.148  14.757 -0.0759  0.0441 -0.1157
  770MPD2     H11368   1.153   2.234  14.926  1.2687  0.0440 -2.0757
  770MPD2    H111369   0.879   2.252  14.596  0.4168  2.3234 -0.0304
  770MPD2    H211370   0.769   2.048  14.938  0.4297  0.7031  1.1030
  770MPD2    H311371   0.733   2.121  14.703 -2.4620  0.0273  3.8955
  770MPD2     N11372   1.124   2.336  14.694  0.3963  0.1890  0.5924
  770MPD2    H511373   1.210   2.347  14.746  1.4034 -1.7665 -0.6500
  770MPD2    N111374   0.977   2.089  15.083  0.1159  0.5119 -0.1083
  770MPD2    H711375   0.897   2.048  15.130 -0.8305  0.7956 -1.4551
  771MPD2     C11376   1.909   0.704  13.732  0.2725  0.2341  0.0215
  771MPD2    C111377   1.909   0.807  13.637  0.0136  0.6847  0.4361
  771MPD2    C211378   1.811   0.812  13.543 -0.1009 -0.4526 -0.3948
  771MPD2    C311379   1.732   0.701  13.529  0.7868  0.4477  1.1432
  771MPD2    C411380   1.734   0.602  13.620 -0.1129 -0.4830 -0.2967
  771MPD2    C511381   1.816   0.602  13.717  0.7810  1.1795  0.9416
  771MPD2     H11382   1.819   0.892  13.471  0.7118  1.7114  2.0841
  771MPD2    H111383   1.673   0.516  13.595 -0.3328 -0.2408 -0.5993
  771MPD2    H211384   1.973   0.699  13.819 -0.4276 -4.0887  0.2621
  771MPD2    H311385   1.805   0.522  13.790 -0.0098  1.6957  1.3869
  771MPD2     N11386   1.654   0.685  13.410  0.3954 -0.9192  0.7499
  771MPD2    H511387   1.588   0.607  13.415  1.7009 -1.9031  2.6248
  771MPD2    N111388   1.998   0.914  13.648  0.5965 -0.0117 -0.9892
  771MPD2    H711389   1.986   0.988  13.580 -2.8586  0.6255  0.3340
  772MPD2     C11390   2.166   1.446  14.193  0.2020  0.2121  0.0762
  772MPD2    C111391   2.063   1.415  14.103  0.1438 -0.4067  0.4570
  772MPD2    C211392   1.932   1.440  14.141  0.0831 -0.3520 -0.0526
  772MPD2    C311393   1.900   1.521  14.249 -0.4049  1.1717  0.4753
  772MPD2    C411394   2.006   1.565  14.331  0.1924 -0.1547 -0.3327
  772MPD2    C511395   2.131   1.517  14.299  0.3868 -0.1732  0.4952
  772MPD2     H11396   1.856   1.392  14.080  0.3464 -1.0097  0.1324
  772MPD2    H111397   1.995   1.630  14.417  0.0067 -1.4644  0.6346
  772MPD2    H211398   2.271   1.426  14.175 -0.3795 -1.6703 -1.1214
  772MPD2    H311399   2.210   1.554  14.364 -0.6623  0.2038  1.5683
  772MPD2     N11400   1.765   1.558  14.284 -0.1879  0.2962  0.6618
  772MPD2    H511401   1.759   1.615  14.368  1.6175  1.0348  0.2923
  772MPD2    N111402   2.092   1.345  13.983 -0.2852  0.9524 -0.5388
  772MPD2    H711403   2.010   1.333  13.925  0.2711  3.3121 -1.8103
  773MPD2     C11404   1.245   1.976   1.315 -0.1643 -0.7806 -0.2374
  773MPD2    C111405   1.190   1.940   1.195 -0.0068  0.5725 -0.1545
  773MPD2    C211406   1.246   1.830   1.124  0.5255 -0.9992 -0.8226
  773MPD2    C311407   1.339   1.748   1.182 -0.3115  0.3572 -0.4383
  773MPD2    C411408   1.378   1.771   1.308 -0.3611  0.3721 -0.8478
  773MPD2    C511409   1.340   1.892   1.368  0.1947 -0.3058  0.4560
  773MPD2     H11410   1.199   1.806   1.029  0.5344  0.2624 -1.1465
  773MPD2    H111411   1.450   1.701   1.349  0.0117  2.2866  1.7649
  773MPD2    H211412   1.219   2.064   1.374 -2.0140 -0.5649 -1.3558
  773MPD2    H311413   1.374   1.907   1.470  2.0063  3.2958 -0.6423
  773MPD2     N11414   1.396   1.641   1.112 -0.1360 -0.4305 -0.0715
  773MPD2    H511415   1.347   1.616   1.027  0.7863  2.0688 -1.3548
  773MPD2    N111416   1.086   2.006   1.142  0.0555 -0.4140 -0.7087
  773MPD2    H711417   1.022   1.963   1.076 -0.2593  1.7208 -1.8021
  774MPD2     C11418   4.480   1.787  13.961  0.7130  0.1207 -0.3326
  774MPD2    C111419   4.617   1.815  13.960  0.6036  0.0267  0.8087
  774MPD2    C211420   4.663   1.898  13.856 -0.4979  0.0822 -0.2158
  774MPD2    C311421   4.578   1.963  13.769  0.3451  0.5035  0.4218
  774MPD2    C411422   4.439   1.956  13.786 -0.7038 -0.1607  0.4893
  774MPD2    C511423   4.395   1.863  13.884 -0.3842  0.4024  0.0186
  774MPD2     H11424   0.043   1.925  13.846 -0.3063 -0.2669  0.8821
  774MPD2    H111425   4.372   2.020  13.730  2.5744  1.1228 -1.9757
  774MPD2    H211426   4.446   1.719  14.038 -1.2974  2.0483  0.4671
  774MPD2    H311427   4.288   1.850  13.890 -0.2979 -0.9555 -1.3905
  774MPD2     N11428   4.637   2.051  13.669  0.1438 -0.8933 -0.9552
  774MPD2    H511429   0.013   2.068  13.672 -0.6591  3.6450 -0.5465
  774MPD2    N111430   4.702   1.732  14.038  0.3917 -0.2775  0.1010
  774MPD2    H711431   4.659   1.668  14.105  2.1859  0.7292  2.1983
  775MPD2     C11432   1.547   2.687  15.526  0.5634 -0.2192  0.7877
  775MPD2    C111433   1.510   2.798  15.595  0.0300 -0.7606  0.8379
  775MPD2    C211434   1.566   2.920  15.562 -0.1359  0.0899 -0.4026
  775MPD2    C311435   1.675   2.930  15.470 -1.0025  0.1024 -0.2365
  775MPD2    C411436   1.716   2.815  15.410 -0.5032  0.1055  0.1778
  775MPD2    C511437   1.650   2.700  15.441  0.2397 -0.0574 -0.2180
  775MPD2     H11438   1.543   3.011  15.616 -0.0393 -0.5135  0.6513
  775MPD2    H111439   1.803   2.811  15.346 -0.0086 -1.1807  0.9306
  775MPD2    H211440   1.517   2.589  15.561 -0.3417  0.0092  0.6476
  775MPD2    H311441   1.688   2.615  15.385  0.8827 -0.6735  1.1242
  775MPD2     N11442   1.735   3.051  15.432  0.7238  0.2458  0.2953
  775MPD2    H511443   1.817   3.049  15.372  0.3922 -0.3467 -0.1254
  775MPD2    N111444   1.410   2.785  15.699  0.1814 -0.0081  0.4615
  775MPD2    H711445   1.358   2.699  15.694 -3.1424  2.1870 -2.1477
  776MPD2     C11446   0.104   3.681  11.255  0.0156  0.7827 -0.4993
  776MPD2    C111447   0.205   3.586  11.263 -0.6791  0.2540  0.6057
  776MPD2    C211448   0.335   3.619  11.269  0.1482 -0.2399  0.1941
  776MPD2    C311449   0.377   3.748  11.248  0.3657  0.0729  0.3061
  776MPD2    C411450   0.282   3.849  11.232 -0.3788 -0.3946 -0.1128
  776MPD2    C511451   0.152   3.817  11.239 -0.4729  0.2137  0.2013
  776MPD2     H11452   0.411   3.542  11.281  0.1021 -0.5388 -1.5166
  776MPD2    H111453   0.298   3.955  11.220 -0.2105 -0.5389 -1.2226
  776MPD2    H211454   0.002   3.659  11.226  0.4821  0.1001 -1.6313
  776MPD2    H311455   0.079   3.894  11.219 -1.7439 -0.2778  2.8733
  776MPD2     N11456   0.508   3.793  11.249 -0.4339 -0.2072  0.2024
  776MPD2    H511457   0.532   3.882  11.206 -0.7500  0.1070  0.6720
  776MPD2    N111458   0.164   3.450  11.235 -0.4450 -0.5019  0.1157
  776MPD2    H711459   0.063   3.434  11.236 -0.0938 -2.9152 -1.6328
  777MPD2     C11460   1.193   0.284   0.924 -0.0793  0.5906 -0.2215
  777MPD2    C111461   1.185   0.166   0.987 -0.1131  1.0364  0.5981
  777MPD2    C211462   1.150   0.048   0.922  0.7641 -0.2491 -0.1025
  777MPD2    C311463   1.123   0.052   0.788  0.2348 -0.6094  0.5708
  777MPD2    C411464   1.125   0.171   0.722 -0.1588  0.1998 -0.6964
  777MPD2    C511465   1.158   0.285   0.790  0.2780  0.0800  0.3975
  777MPD2     H11466   1.148   4.674   0.967  1.9806 -0.4848 -0.5653
  777MPD2    H111467   1.106   0.176   0.616 -0.2487 -2.5350 -0.8070
  777MPD2    H211468   1.220   0.376   0.975 -1.9272  1.0351 -0.0350
  777MPD2    H311469   1.152   0.381   0.740  0.9214 -2.1373 -3.9179
  777MPD2     N11470   1.082   4.658   0.728 -0.3777  0.0357  0.2516
  777MPD2    H511471   1.107   4.565   0.762 -0.3216 -0.1097 -0.1894
  777MPD2    N111472   1.193   0.176   1.131  0.9458  0.2441  0.1329
  777MPD2    H711473   1.204   0.267   1.175  0.2106 -0.9155  2.7364
  778MPD2     C11474   2.026   0.972  15.733 -0.0326 -0.2404 -0.1933
  778MPD2    C111475   2.020   0.881  15.631  0.4144 -0.6822 -0.4646
  778MPD2    C211476   2.100   0.903  15.521  0.3710  0.2691 -0.2992
  778MPD2    C311477   2.160   1.023  15.502  0.2725 -0.1347  0.7423
  778MPD2    C411478   2.176   1.108  15.609 -0.1020  0.0467  0.4189
  778MPD2    C511479   2.109   1.081  15.724  0.7054 -0.8419 -0.1277
  778MPD2     H11480   2.100   0.833  15.439 -0.6454  0.1057 -0.1646
  778MPD2    H111481   2.237   1.197  15.596  0.8120 -0.8920 -1.6978
  778MPD2    H211482   1.974   0.949  15.826  0.8063  0.1994  0.3787
  778MPD2    H311483   2.119   1.144  15.811 -1.4101 -1.1670  0.3728
  778MPD2     N11484   2.212   1.056  15.369  0.3753  0.0316  0.1211
  778MPD2    H511485   2.207   0.991  15.292  1.3489  1.0098 -0.7590
  778MPD2    N111486   1.945   0.758  15.631  0.4301 -0.1716 -0.3547
  778MPD2    H711487   1.964   0.695  15.554  0.5547  0.4721 -0.8489
  779MPD2     C11488   1.610   4.450  14.734 -0.0001  0.4121 -0.6204
  779MPD2    C111489   1.746   4.479  14.703 -1.2557  0.1441 -0.0210
  779MPD2    C211490   1.810   4.596  14.746  0.6233 -0.2975  0.2179
  779MPD2    C311491   1.743   4.675  14.844  0.5494  0.2556  0.0961
  779MPD2    C411492   1.618   4.638  14.884 -0.3004  0.8480 -0.2297
  779MPD2    C511493   1.556   4.531  14.828 -0.3827  0.1520  0.3269
  779MPD2     H11494   1.908   4.628  14.713  1.6083 -3.0910  0.4621
  779MPD2    H111495   1.562   4.699  14.954 -0.7133 -0.6604  0.7731
  779MPD2    H211496   1.560   4.359  14.702  2.6938 -0.4026 -2.5420
  779MPD2    H311497   1.458   4.517  14.872 -0.8100 -1.3061 -1.0576
  779MPD2     N11498   1.812   0.063  14.886 -0.4952  0.1108 -0.4444
  779MPD2    H511499   1.895   0.085  14.832 -0.8538 -0.0123 -1.0490
  779MPD2    N111500   1.815   4.396  14.616  0.3211 -0.4814  0.7459
  779MPD2    H711501   1.916   4.404  14.615  0.5302 -4.0795 -3.5536
  780MPD2     C11502   1.868   4.073   1.247 -0.4894  0.5461 -0.4563
  780MPD2    C111503   1.772   3.986   1.203  0.2251 -0.3938  0.0001
  780MPD2    C211504   1.697   4.029   1.094  0.1437  0.5996  0.1886
  780MPD2    C311505   1.725   4.143   1.025 -0.0272  0.4394 -0.7608
  780MPD2    C411506   1.812   4.236   1.078  0.4637 -0.5038  0.4321
  780MPD2    C511507   1.875   4.196   1.194 -0.2141  0.2165  0.5491
  780MPD2     H11508   1.614   3.965   1.066 -0.0098  0.1378  1.6943
  780MPD2    H111509   1.822   4.331   1.027  0.9591 -0.4482  0.6339
  780MPD2    H211510   1.934   4.059   1.331 -0.4559 -3.2093 -1.1192
  780MPD2    H311511   1.952   4.263   1.228 -2.7862  2.2085  2.4477
  780MPD2     N11512   1.664   4.186   0.901 -0.3780  0.0804 -0.1365
  780MPD2    H511513   1.678   4.278   0.861 -1.1597  0.2267 -0.0849
  780MPD2    N111514   1.770   3.859   1.268  0.0040 -0.2461 -0.2431
  780MPD2    H711515   1.845   3.843   1.335  1.1510 -1.1532 -1.7560
  781MPD2     C11516   3.134   1.567  12.257 -0.2819 -0.6906  0.0242
  781MPD2    C111517   3.264   1.592  12.309 -0.7516 -0.3207 -0.3794
  781MPD2    C211518   3.362   1.612  12.220 -0.4656  0.4459 -0.1920
  781MPD2    C311519   3.349   1.596  12.085  0.2148  0.7043 -0.2313
  781MPD2    C411520   3.221   1.571  12.040  1.0626 -0.1852 -0.9923
  781MPD2    C511521   3.117   1.568  12.125 -0.0240 -0.2431 -0.5567
  781MPD2     H11522   3.465   1.620  12.253 -1.2828 -0.7059  2.6629
  781MPD2    H111523   3.194   1.549  11.937 -1.8928  1.3820 -0.5550
  781MPD2    H211524   3.048   1.553  12.321  0.2766 -0.6990  0.7690
  781MPD2    H311525   3.020   1.540  12.084 -0.4199 -0.4461  0.5072
  781MPD2     N11526   3.463   1.573  12.000  0.0316  0.8205  0.5693
  781MPD2    H511527   3.553   1.567  12.046  1.2293  1.2066 -1.7321
  781MPD2    N111528   3.282   1.597  12.452  0.0501  0.4054  0.3393
  781MPD2    H711529   3.374   1.631  12.477  0.2857 -0.1803  0.2577
  782MPD2     C11530   1.036   2.171  10.002  0.3407  0.2621  0.8413
  782MPD2    C111531   1.114   2.113  10.095 -0.9157 -0.0543  0.1089
  782MPD2    C211532   1.231   2.178  10.127 -0.0274  0.1816 -0.4519
  782MPD2    C311533   1.260   2.308  10.082 -0.2151  0.9599 -0.5773
  782MPD2    C411534   1.176   2.362   9.986  0.2673 -0.4232 -0.0758
  782MPD2    C511535   1.062   2.298   9.950  0.2082  0.1750  0.2173
  782MPD2     H11536   1.314   2.139  10.185 -0.2275 -0.4182 -0.5628
  782MPD2    H111537   1.198   2.458   9.941 -0.5457 -0.9997 -1.6836
  782MPD2    H211538   0.945   2.128   9.962  0.5945 -0.2357  0.7985
  782MPD2    H311539   0.997   2.344   9.877  0.5864 -1.6975 -1.2778
  782MPD2     N11540   1.385   2.364  10.121  0.3920 -0.2327 -0.1814
  782MPD2    H511541   1.453   2.309  10.173 -0.8897 -1.6278  0.0081
  782MPD2    N111542   1.098   1.979  10.144 -0.0271 -0.5059  0.2248
  782MPD2    H711543   1.177   1.939  10.194  1.0098  1.4146  0.0943
  783MPD2     C11544   0.821   1.698  10.943 -0.4526  0.6535 -0.2496
  783MPD2    C111545   0.822   1.811  10.868 -0.5295  0.1835 -0.6188
  783MPD2    C211546   0.845   1.798  10.732 -0.4579 -0.0819 -0.1791
  783MPD2    C311547   0.850   1.679  10.670  0.4142  0.2297 -0.0956
  783MPD2    C411548   0.823   1.569  10.741  0.0567 -0.2023 -0.0302
  783MPD2    C511549   0.815   1.582  10.879  1.0209  0.0297  0.1004
  783MPD2     H11550   0.858   1.890  10.677 -1.6853  0.3545  0.2654
  783MPD2    H111551   0.826   1.472  10.693 -0.7069 -0.9035  1.3557
  783MPD2    H211552   0.823   1.692  11.051  0.7732  1.4155 -0.2349
  783MPD2    H311553   0.827   1.493  10.940  1.2115 -0.4820 -0.6883
  783MPD2     N11554   0.885   1.671  10.534 -0.6511 -0.1338 -0.1491
  783MPD2    H511555   0.907   1.761  10.492  1.6058 -0.2885  0.6987
  783MPD2    N111556   0.821   1.929  10.939  0.1695 -0.9106  0.1460
  783MPD2    H711557   0.803   1.912  11.038  1.1691 -1.0634  0.3113
  784MPD2     C11558   4.242   1.490   0.788  0.3425 -0.2900 -0.2517
  784MPD2    C111559   4.234   1.582   0.896 -0.8314 -0.5193  0.4497
  784MPD2    C211560   4.115   1.659   0.899  0.0889  0.2930  0.3405
  784MPD2    C311561   4.011   1.653   0.807  0.2732 -0.1456 -0.2011
  784MPD2    C411562   4.023   1.570   0.698 -0.5027  0.0046 -0.3052
  784MPD2    C511563   4.140   1.499   0.695  0.5288 -0.0342 -0.0386
  784MPD2     H11564   4.108   1.724   0.985 -1.1608  1.0724 -0.3512
  784MPD2    H111565   3.958   1.561   0.611 -0.1240  0.2576 -0.6167
  784MPD2    H211566   4.330   1.431   0.766  0.4658 -0.0223 -0.4787
  784MPD2    H311567   4.153   1.427   0.615  2.3758  1.5701 -1.1708
  784MPD2     N11568   3.898   1.739   0.818 -0.0715  0.6833  0.0247
  784MPD2    H511569   3.901   1.802   0.898  2.6682  0.5635  0.0130
  784MPD2    N111570   4.330   1.611   0.996  0.4114 -0.2858 -0.2053
  784MPD2    H711571   4.317   1.692   1.057  3.5529 -0.7619  1.0870
  785MPD2     C11572   3.858   0.988  10.712  0.7676  0.3158  0.7630
  785MPD2    C111573   3.735   0.953  10.768  0.2364  0.8671  0.6211
  785MPD2    C211574   3.682   0.828  10.733  0.5842  0.4889  0.9274
  785MPD2    C311575   3.751   0.734  10.664 -0.8335 -1.0114  0.1966
  785MPD2    C411576   3.878   0.772  10.610 -0.3334  0.3060 -0.8592
  785MPD2    C511577   3.930   0.897  10.638  0.1998 -0.5881 -0.1548
  785MPD2     H11578   3.580   0.803  10.762  0.5555  0.3064  0.6722
  785MPD2    H111579   3.941   0.704  10.554  0.3565  2.8140 -3.1494
  785MPD2    H211580   3.901   1.087  10.726  0.9567  0.1203  1.5284
  785MPD2    H311581   4.026   0.916  10.591  0.5247 -0.9871  0.3524
  785MPD2     N11582   3.694   0.607  10.646  0.4685 -0.5491 -0.4947
  785MPD2    H511583   3.606   0.597  10.696 -0.1849 -0.5120 -1.6499
  785MPD2    N111584   3.673   1.051  10.849  0.3908  0.1617  0.0928
  785MPD2    H711585   3.719   1.141  10.852 -1.4213  1.1428 -1.6100
  786MPD2     C11586   2.371   3.752  15.358  0.4844 -0.3729 -0.1101
  786MPD2    C111587   2.485   3.795  15.294 -0.4738  0.0286  0.1722
  786MPD2    C211588   2.569   3.871  15.364 -0.6764  0.4536  0.3316
  786MPD2    C311589   2.542   3.911  15.496 -0.0438  0.1119 -1.1059
  786MPD2    C411590   2.433   3.853  15.559 -0.4872  0.3111  0.0760
  786MPD2    C511591   2.347   3.781  15.484  0.4487  0.2350  0.0376
  786MPD2     H11592   2.653   3.909  15.308 -1.8257  1.3714 -0.7761
  786MPD2    H111593   2.404   3.868  15.662  2.4864  0.0700  0.9414
  786MPD2    H211594   2.304   3.683  15.308  0.3262 -0.2600 -0.0550
  786MPD2    H311595   2.267   3.722  15.529  0.4749 -1.1195 -1.7116
  786MPD2     N11596   2.619   4.007  15.571  0.1260 -0.0536 -0.2352
  786MPD2    H511597   2.599   4.027  15.668  0.0470  2.0081 -0.6817
  786MPD2    N111598   2.522   3.754  15.161  0.2014  0.0084 -0.6893
  786MPD2    H711599   2.620   3.762  15.138  0.1940 -2.1139 -1.4817
  787MPD2     C11600   2.882   3.243  15.158 -0.6355  0.1820 -0.0788
  787MPD2    C111601   2.862   3.265  15.017 -0.3671  0.2923  0.2184
  787MPD2    C211602   2.931   3.182  14.928  0.3814 -0.2913  0.4504
  787MPD2    C311603   3.005   3.081  14.981  1.1698 -0.5536  0.7633
  787MPD2    C411604   3.030   3.061  15.116  0.5715  0.2215 -0.0531
  787MPD2    C511605   2.959   3.145  15.206 -0.2404  0.5172 -0.2484
  787MPD2     H11606   2.910   3.191  14.822 -1.3102  1.6405  0.9298
  787MPD2    H111607   3.091   2.986  15.165  0.4366  0.0517 -0.1428
  787MPD2    H211608   2.839   3.313  15.229 -1.1963  1.2595 -1.4620
  787MPD2    H311609   2.977   3.124  15.311  2.3879  1.5813 -0.4976
  787MPD2     N11610   3.085   3.002  14.903  0.3055 -0.3398  0.1042
  787MPD2    H511611   3.078   3.028  14.805 -2.1116 -0.4213  0.2332
  787MPD2    N111612   2.772   3.367  14.980  0.2093 -0.3928  0.0775
  787MPD2    H711613   2.717   3.399  15.059 -0.4679 -1.0299 -0.1394
  788MPD2     C11614   4.419   0.654   1.194  0.1594  0.6481 -0.2092
  788MPD2    C111615   4.353   0.606   1.086  0.1267 -0.1255  0.8537
  788MPD2    C211616   4.297   0.692   0.989  0.0672  0.4628  0.6615
  788MPD2    C311617   4.334   0.829   0.993 -0.0725 -0.5450  0.2597
  788MPD2    C411618   4.409   0.875   1.098 -0.7378 -0.0572  0.5313
  788MPD2    C511619   4.442   0.792   1.205  0.6323 -0.5732 -0.6555
  788MPD2     H11620   4.219   0.657   0.923 -0.7797  1.3307  1.1914
  788MPD2    H111621   4.441   0.978   1.095 -0.3563 -0.1236  2.1753
  788MPD2    H211622   4.461   0.591   1.272 -1.5455 -0.8343 -0.4907
  788MPD2    H311623   4.480   0.832   1.298  1.6479 -1.7734 -0.5501
  788MPD2     N11624   4.291   0.925   0.894 -0.3217  0.4583  0.3102
  788MPD2    H511625   4.306   1.025   0.908 -0.8018  0.6009 -0.1792
  788MPD2    N111626   4.350   0.467   1.061 -0.0118  0.1909 -0.2261
  788MPD2    H711627   4.325   0.437   0.967  0.6122  0.6340 -0.5363
  789MPD2     C11628   0.130   1.494  16.429 -0.5549 -0.3478  0.7077
  789MPD2    C111629   0.084   1.434  16.542 -0.0371  0.2538 -0.6943
  789MPD2    C211630   0.006   1.508  16.633  0.9876  0.3726  0.3142
  789MPD2    C311631   4.679   1.629  16.599  0.5477 -0.3727 -0.2457
  789MPD2    C411632   4.713   1.677  16.483  0.4491  0.1478  0.7311
  789MPD2    C511633   0.077   1.619  16.397  0.3411 -0.2041 -0.4607
  789MPD2     H11634   4.719   1.456  16.728  1.0651 -0.5745 -0.1902
  789MPD2    H111635   4.673   1.770  16.445  2.8467  2.3154  3.5666
  789MPD2    H211636   0.201   1.458  16.355 -1.3629  0.6087 -0.5404
  789MPD2    H311637   0.107   1.670  16.306  0.6299 -0.4181 -0.4860
  789MPD2     N11638   4.579   1.696  16.675  0.1807  0.1174  0.1147
  789MPD2    H511639   4.542   1.778  16.627 -0.9154 -0.8649 -0.7257
  789MPD2    N111640   0.126   1.305  16.588  0.0484 -0.1487  0.6092
  789MPD2    H711641   0.097   1.276  16.681 -1.8298 -0.7886 -0.1749
  790MPD2     C11642   0.361   3.710  13.597 -0.2286  0.0701  0.1281
  790MPD2    C111643   0.472   3.632  13.573  0.3238  0.6491 -0.1374
  790MPD2    C211644   0.496   3.601  13.440  0.3938  0.0156  0.7573
  790MPD2    C311645   0.420   3.653  13.334  0.4676  0.2579  0.1019
  790MPD2    C411646   0.315   3.738  13.366  0.7306  0.5936 -0.3115
  790MPD2    C511647   0.296   3.772  13.493 -0.4186  0.2304 -0.2281
  790MPD2     H11648   0.573   3.531  13.409 -0.2775  0.0781 -1.1141
  790MPD2    H111649   0.246   3.785  13.297  0.9267 -1.0865 -1.6570
  790MPD2    H211650   0.332   3.734  13.699  0.9091 -2.5276  1.0627
  790MPD2    H311651   0.211   3.838  13.502  0.9202  1.9459 -0.1885
  790MPD2     N11652   0.438   3.590  13.207  0.1568  0.4276 -0.5585
  790MPD2    H511653   0.504   3.514  13.196  3.2432  2.8998  0.9236
  790MPD2    N111654   0.548   3.583  13.679  0.1058  0.2013 -0.0243
  790MPD2    H711655   0.518   3.599  13.775  1.7231  0.4794  0.4472
  791MPD2     C11656   4.642   3.620  12.654  0.4380 -0.0845 -0.0881
  791MPD2    C111657   4.713   3.501  12.646  0.5390  0.0966 -0.1846
  791MPD2    C211658   4.651   3.388  12.592 -0.3785 -0.5545 -0.0770
  791MPD2    C311659   4.525   3.396  12.536 -0.4827 -0.9204 -0.5755
  791MPD2    C411660   4.462   3.518  12.531  0.2574  0.3477  0.4108
  791MPD2    C511661   4.524   3.625  12.590 -0.2057  0.2367 -0.0321
  791MPD2     H11662   4.706   3.296  12.581  0.5377 -0.4079  3.3871
  791MPD2    H111663   4.362   3.528  12.489  0.4294 -0.8236 -0.2748
  791MPD2    H211664   4.685   3.713  12.687  1.2578 -0.2888 -0.5846
  791MPD2    H311665   4.468   3.717  12.580  0.4645  0.8196  1.5903
  791MPD2     N11666   4.465   3.273  12.493 -0.1631 -0.1448  0.1251
  791MPD2    H511667   4.516   3.185  12.498 -0.1074 -0.0541  1.1481
  791MPD2    N111668   0.119   3.501  12.707  0.8596 -0.1261 -0.5398
  791MPD2    H711669   0.150   3.583  12.759 -1.7114  0.3521  0.2480
  792MPD2     C11670   1.776   3.421  10.804 -0.7177  0.9041  0.1057
  792MPD2    C111671   1.657   3.458  10.762  0.1248 -0.8118  0.1299
  792MPD2    C211672   1.603   3.409  10.641 -0.3735 -0.2924 -0.0564
  792MPD2    C311673   1.676   3.326  10.566 -0.9640 -0.2687  0.1138
  792MPD2    C411674   1.803   3.294  10.604 -0.7751  0.4003  0.6882
  792MPD2    C511675   1.851   3.338  10.726  0.2889 -0.0157  0.2308
  792MPD2     H11676   1.501   3.433  10.611 -0.3796  2.4566  2.1750
  792MPD2    H111677   1.868   3.236  10.540 -1.1896  0.5470  0.1345
  792MPD2    H211678   1.828   3.447  10.895 -1.4914 -0.0152  0.8148
  792MPD2    H311679   1.952   3.308  10.753  0.4343 -0.2282 -0.5690
  792MPD2     N11680   1.625   3.272  10.444 -0.2181 -0.5182  0.0950
  792MPD2    H511681   1.687   3.205  10.399 -0.2870 -0.7561  0.3546
  792MPD2    N111682   1.590   3.540  10.848  0.1014  0.6031 -0.2243
  792MPD2    H711683   1.634   3.566  10.936  2.9106 -0.9436 -1.1809
  793MPD2     C11684   0.634   3.106  10.034 -0.6047  0.0919 -0.7809
  793MPD2    C111685   0.731   3.174   9.968  0.1700  0.0540  0.1309
  793MPD2    C211686   0.854   3.176  10.028  0.8822 -0.8484 -0.4568
  793MPD2    C311687   0.884   3.117  10.149 -0.0960 -0.7796 -0.3592
  793MPD2    C411688   0.784   3.044  10.210  0.1537 -0.3789  0.2636
  793MPD2    C511689   0.663   3.036  10.146  0.0088  0.5267 -0.3767
  793MPD2     H11690   0.935   3.221   9.971 -0.3273  1.0402 -0.6880
  793MPD2    H111691   0.805   2.987  10.300 -0.1724  2.7446  2.2906
  793MPD2    H211692   0.537   3.095   9.987 -0.8301  0.5272 -0.4184
  793MPD2    H311693   0.584   2.978  10.192  0.5977  0.0605  0.0487
  793MPD2     N11694   1.009   3.113  10.202  0.1863  0.1075  0.6056
  793MPD2    H511695   1.027   3.050  10.280  0.3472 -0.9498 -0.2888
  793MPD2    N111696   0.714   3.244   9.848 -0.1462 -0.2658  0.0819
  793MPD2    H711697   0.805   3.281   9.822  0.8081 -1.9742  0.9925
  794MPD2     C11698   1.113   2.140   0.448  0.5346 -0.7884 -0.0761
  794MPD2    C111699   0.981   2.173   0.472 -0.0846  0.1373  0.4104
  794MPD2    C211700   0.902   2.190   0.362  0.6337  1.2388  0.0715
  794MPD2    C311701   0.948   2.176   0.234  0.1674 -0.2053  0.4110
  794MPD2    C411702   1.081   2.149   0.214  0.2216  0.0849  0.1969
  794MPD2    C511703   1.162   2.130   0.320  0.0709  0.0588 -0.3128
  794MPD2     H11704   0.800   2.222   0.384  0.0520 -0.3098 -0.3364
  794MPD2    H111705   1.115   2.137   0.111 -0.1772 -0.5326  0.1417
  794MPD2    H211706   1.189   2.124   0.524  0.1894  0.4344  0.5337
  794MPD2    H311707   1.266   2.101   0.306 -0.0849 -1.4203  1.4957
  794MPD2     N11708   0.875   2.191   0.115 -0.4806  0.2661 -0.4840
  794MPD2    H511709   0.925   2.197   0.027  1.4684 -5.1163  0.2452
  794MPD2    N111710   0.926   2.177   0.601 -0.2912  0.2002 -0.5934
  794MPD2    H711711   0.833   2.217   0.612 -0.7378 -0.5948 -1.4929
  795MPD2     C11712   2.990   0.254  13.364 -0.7129 -0.2428 -0.2762
  795MPD2    C111713   2.972   0.204  13.494  0.5168 -0.3258  0.0561
  795MPD2    C211714   3.086   0.159  13.563 -0.3741 -0.4619  0.3135
  795MPD2    C311715   3.213   0.158  13.516  0.1597 -0.2824 -0.0853
  795MPD2    C411716   3.227   0.216  13.392 -0.0745  0.1330 -0.2124
  795MPD2    C511717   3.117   0.265  13.324  0.4409 -0.5811  0.5256
  795MPD2     H11718   3.064   0.130  13.665  0.6840  1.0804  0.9784
  795MPD2    H111719   3.320   0.242  13.342 -0.7109  1.0283 -0.9294
  795MPD2    H211720   2.920   0.309  13.302  1.0123  1.6957 -0.5214
  795MPD2    H311721   3.138   0.320  13.233  0.0888 -0.5614  0.4573
  795MPD2     N11722   3.322   0.105  13.594  0.2838  0.0128 -0.1704
  795MPD2    H511723   3.307   0.074  13.689  0.0468  2.2905  0.5431
  795MPD2    N111724   2.846   0.196  13.556  0.0075  0.3360 -0.2561
  795MPD2    H711725   2.845   0.196  13.657 -0.7267  0.1229 -0.2616
  796MPD2     C11726   3.264   1.643  15.907  0.3500  0.0487  0.1077
  796MPD2    C111727   3.261   1.718  16.024 -0.0646 -0.6676 -0.0826
  796MPD2    C211728   3.187   1.839  16.021 -0.7340  0.7080 -0.3662
  796MPD2    C311729   3.099   1.869  15.921  0.0860  0.4186 -0.3056
  796MPD2    C411730   3.102   1.791  15.800  0.2179 -0.1598 -0.4048
  796MPD2    C511731   3.192   1.685  15.801 -0.1606 -0.1621  0.5689
  796MPD2     H11732   3.202   1.917  16.095  1.4833 -2.6679  2.7594
  796MPD2    H111733   3.049   1.804  15.707 -3.2408  1.5492  1.7951
  796MPD2    H211734   3.316   1.548  15.897  2.8842  1.5827 -1.4135
  796MPD2    H311735   3.200   1.616  15.718  0.5356  1.9450 -1.1225
  796MPD2     N11736   3.029   1.988  15.930 -0.0345  0.7925 -0.1734
  796MPD2    H511737   3.053   2.046  16.010  0.8463  2.3552 -1.5718
  796MPD2    N111738   3.341   1.670  16.126  0.3966 -0.2036  0.7033
  796MPD2    H711739   3.354   1.570  16.122 -1.6795 -0.4587  0.2762
  797MPD2     C11740   0.076   0.866  17.279 -0.0192 -0.8102 -0.1931
  797MPD2    C111741   4.679   0.863  17.340 -0.2902 -0.6901 -0.2657
  797MPD2    C211742   4.583   0.963  17.329  0.0502  0.0228 -0.0923
  797MPD2    C311743   4.608   1.072  17.248 -0.2540  0.6979 -0.6394
  797MPD2    C411744   0.002   1.072  17.177  0.2105 -0.4151 -0.6877
  797MPD2    C511745   0.089   0.969  17.190 -0.2282 -0.3670  0.6614
  797MPD2     H11746   4.480   0.964  17.363 -0.2227 -0.5812 -0.8955
  797MPD2    H111747   0.033   1.148  17.106  1.0173 -1.5539 -1.5556
  797MPD2    H211748   0.142   0.781  17.282 -1.4698 -1.8705  1.8379
  797MPD2    H311749   0.170   0.970  17.118 -1.9933  0.6809 -1.3270
  797MPD2     N11750   4.513   1.178  17.221  0.2841 -0.2391 -0.3490
  797MPD2    H511751   4.534   1.248  17.152  3.2799 -1.9245 -1.1689
  797MPD2    N111752   4.619   0.749  17.406 -0.2777  0.5757  0.0847
  797MPD2    H711753   4.521   0.760  17.431 -0.2574 -0.6916  0.7196
  798MPD2     C11754   3.912   0.868  17.251  0.2933  0.6011  0.6502
  798MPD2    C111755   4.021   0.918  17.311  0.2196  0.0388 -0.2555
  798MPD2    C211756   4.106   0.846  17.384 -0.0570 -0.4085 -0.1607
  798MPD2    C311757   4.092   0.707  17.387 -0.0274 -0.3449 -0.5399
  798MPD2    C411758   3.987   0.650  17.316  0.7950  0.3176 -0.9988
  798MPD2    C511759   3.893   0.731  17.251 -0.7246  0.3095 -0.3899
  798MPD2     H11760   4.185   0.899  17.436  0.7647 -0.8595 -0.9526
  798MPD2    H111761   3.963   0.544  17.323 -1.2728  0.6822 -2.4887
  798MPD2    H211762   3.846   0.933  17.194  0.9535 -0.4584 -1.3224
  798MPD2    H311763   3.809   0.681  17.205 -0.0068 -0.7642 -0.5489
  798MPD2     N11764   4.199   0.635  17.450  0.8155  0.5663  0.1524
  798MPD2    H511765   4.272   0.693  17.489  0.6828 -0.4636  1.8929
  798MPD2    N111766   4.057   1.056  17.304 -0.5223  0.1972  0.2403
  798MPD2    H711767   4.154   1.074  17.328 -0.0546  0.1950 -1.6043
  799MPD2     C11768   2.962   2.718  14.658 -0.0915 -0.2949 -0.3246
  799MPD2    C111769   2.835   2.709  14.714  0.2975 -0.3847  0.0092
  799MPD2    C211770   2.753   2.818  14.714  0.1919 -0.3426 -0.0682
  799MPD2    C311771   2.794   2.941  14.650 -0.9183  0.3716  0.2959
  799MPD2    C411772   2.916   2.941  14.587 -0.3073 -0.0676 -0.1023
  799MPD2    C511773   2.998   2.833  14.596 -0.1914 -0.1169 -0.2686
  799MPD2     H11774   2.662   2.807  14.771  0.0797 -1.2579 -0.4134
  799MPD2    H111775   2.947   3.032  14.537 -0.5155 -0.3913 -0.8182
  799MPD2    H211776   3.037   2.641  14.663  1.0240  0.6783 -2.0494
  799MPD2    H311777   3.105   2.835  14.578 -0.3504  1.1482 -1.0317
  799MPD2     N11778   2.717   3.056  14.633  0.5051 -0.4000  0.0632
  799MPD2    H511779   2.742   3.115  14.555  0.5094  1.0181  1.1368
  799MPD2    N111780   2.785   2.601  14.791  0.7068  0.3298 -0.5650
  799MPD2    H711781   2.690   2.614  14.823  0.2887  1.5240 -2.3201
  800MPD2     C11782   2.941   4.287  14.538 -0.7998  0.7249  0.3937
  800MPD2    C111783   2.967   4.258  14.408 -0.8867 -0.2977  0.1096
  800MPD2    C211784   2.970   4.124  14.368  0.2609  0.0907 -0.1034
  800MPD2    C311785   2.933   4.016  14.451 -0.0178 -0.3035  0.2235
  800MPD2    C411786   2.895   4.055  14.573 -0.1810 -0.4774 -0.3714
  800MPD2    C511787   2.889   4.188  14.620  0.2745  0.5370 -0.3359
  800MPD2     H11788   2.998   4.107  14.265  0.8126 -0.7751  0.1861
  800MPD2    H111789   2.861   3.988  14.651 -0.4128 -0.5537 -0.5398
  800MPD2    H211790   2.927   4.389  14.570 -0.7945  0.4637  1.2358
  800MPD2    H311791   2.868   4.208  14.724  0.1601 -4.0022  0.5036
  800MPD2     N11792   2.916   3.879  14.428 -0.2674 -0.2493 -0.4832
  800MPD2    H511793   2.888   3.821  14.507 -0.1820  0.9118  0.4103
  800MPD2    N111794   3.013   4.367  14.328 -0.6088  0.9628 -0.0360
  800MPD2    H711795   3.019   4.455  14.378 -0.1945  0.4771  0.7587
  801MPD2     C11796   2.829   0.301  14.411  0.0714 -0.2028  0.7537
  801MPD2    C111797   2.951   0.247  14.461  0.5375  0.2438  0.0638
  801MPD2    C211798   2.991   0.273  14.591 -0.3154  0.6457 -0.1281
  801MPD2    C311799   2.903   0.338  14.677 -0.1111 -0.4866 -0.4029
  801MPD2    C411800   2.787   0.389  14.626 -0.0963  0.8732  0.1572
  801MPD2    C511801   2.755   0.376  14.492 -0.2814 -0.3667  0.8261
  801MPD2     H11802   3.078   0.222  14.631 -2.1807 -1.1692  1.6005
  801MPD2    H111803   2.716   0.441  14.689 -0.6528 -1.4005  1.3889
  801MPD2    H211804   2.805   0.288  14.306 -0.4006 -0.9690  0.9594
  801MPD2    H311805   2.665   0.428  14.460  1.3137  1.4393 -0.7056
  801MPD2     N11806   2.911   0.337  14.812  0.0329  0.3303 -0.3083
  801MPD2    H511807   2.829   0.367  14.864 -0.9527 -0.6458 -1.3111
  801MPD2    N111808   3.037   0.164  14.381 -0.3287  0.1311  0.5174
  801MPD2    H711809   3.126   0.141  14.425 -0.1654  0.7137  0.4977
  802MPD2     C11810   2.649   0.131   0.398  0.0208 -0.1322 -0.7355
  802MPD2    C111811   2.531   0.072   0.372  0.5604 -0.7212  0.3233
  802MPD2    C211812   2.533   4.664   0.327 -0.7944 -0.5984  0.2618
  802MPD2    C311813   2.653   4.592   0.320  0.3204 -0.0302  0.4070
  802MPD2    C411814   2.768   4.652   0.357  0.0716 -0.1285 -0.2680
  802MPD2    C511815   2.765   0.055   0.400 -0.5668 -0.1047  0.0881
  802MPD2     H11816   2.439   4.620   0.293 -0.5249 -0.6209 -0.4328
  802MPD2    H111817   2.866   4.606   0.348 -0.0682 -1.0038  2.7010
  802MPD2    H211818   2.650   0.231   0.440 -0.0008 -0.7885  0.8179
  802MPD2    H311819   2.857   0.104   0.429 -0.3081 -0.0833 -0.7581
  802MPD2     N11820   2.647   4.460   0.270  0.1267 -0.1894 -0.1240
  802MPD2    H511821   2.553   4.434   0.241 -0.8704  0.6742  2.2821
  802MPD2    N111822   2.406   0.137   0.381  0.5567 -0.2462 -0.7715
  802MPD2    H711823   2.322   0.081   0.367 -0.0317  0.7387 -1.2122
  803MPD2     C11824   3.373   3.551  11.602 -0.3113 -0.0316 -0.4311
  803MPD2    C111825   3.462   3.487  11.689 -0.2822 -0.4130  0.1717
  803MPD2    C211826   3.420   3.390  11.781  0.5329  0.5559  0.1396
  803MPD2    C311827   3.289   3.364  11.786 -1.2908  0.2846 -0.7069
  803MPD2    C411828   3.191   3.429  11.717 -0.2879  0.0607 -0.3474
  803MPD2    C511829   3.237   3.521  11.623 -0.2186 -0.0441 -0.4137
  803MPD2     H11830   3.488   3.338  11.846 -0.3845  0.3373  0.9259
  803MPD2    H111831   3.085   3.405  11.719 -0.6717  1.9761  2.8349
  803MPD2    H211832   3.394   3.617  11.519 -0.0836 -1.2424 -1.3322
  803MPD2    H311833   3.165   3.571  11.558 -2.0729  1.4766  2.8166
  803MPD2     N11834   3.243   3.257  11.867 -0.2164 -0.3974 -0.5908
  803MPD2    H511835   3.144   3.251  11.883  0.1490 -1.0635  1.3610
  803MPD2    N111836   3.596   3.511  11.699 -0.5848 -0.1518  0.6095
  803MPD2    H711837   3.633   3.477  11.787 -0.5954 -1.2873  0.1737
  804MPD2     C11838   2.731   3.873  17.326 -0.2683 -0.1810  0.1290
  804MPD2    C111839   2.856   3.884  17.392  0.6294  0.6065 -0.2389
  804MPD2    C211840   2.906   4.009  17.431 -0.1027 -0.6278 -0.7916
  804MPD2    C311841   2.849   4.121  17.376  0.2637  0.3280  0.0504
  804MPD2    C411842   2.734   4.105  17.297  0.1717 -0.0812  0.7199
  804MPD2    C511843   2.679   3.985  17.278 -0.1341 -0.6386  0.6822
  804MPD2     H11844   2.987   4.034  17.498 -1.1692  1.5492 -0.3102
  804MPD2    H111845   2.682   4.190  17.253  0.7354  0.3659  0.9202
  804MPD2    H211846   2.685   3.776  17.311 -1.5578  0.3364  0.7276
  804MPD2    H311847   2.584   3.975  17.226  0.5585  0.6553 -0.8380
  804MPD2     N11848   2.907   4.251  17.402 -0.0696 -0.4475 -0.0310
  804MPD2    H511849   2.989   4.253  17.461  0.1826  1.2113 -0.4220
  804MPD2    N111850   2.927   3.766  17.425  0.4427 -0.5274  0.3300
  804MPD2    H711851   3.010   3.778  17.482  1.4365  1.0321 -1.4459
  805MPD2     C11852   2.412   3.069  15.711 -0.0569 -0.0884 -0.0685
  805MPD2    C111853   2.529   3.114  15.668 -0.6987  0.3247  0.3782
  805MPD2    C211854   2.638   3.153  15.749 -0.2649 -0.1864 -0.3222
  805MPD2    C311855   2.616   3.154  15.883  0.1292  0.2510  0.0723
  805MPD2    C411856   2.487   3.130  15.926 -0.1475 -0.5823 -0.3420
  805MPD2    C511857   2.391   3.095  15.841 -0.2869  0.6870 -0.7277
  805MPD2     H11858   2.731   3.191  15.709  0.0330  0.0483  0.5950
  805MPD2    H111859   2.465   3.134  16.032  1.8494 -0.3502  0.0685
  805MPD2    H211860   2.333   3.040  15.642  0.6909  1.2715 -1.5020
  805MPD2    H311861   2.295   3.069  15.884  0.6731 -1.2643  0.2207
  805MPD2     N11862   2.713   3.209  15.965  0.0816 -0.3539 -0.1072
  805MPD2    H511863   2.791   3.257  15.923  0.9410  0.0915  1.9848
  805MPD2    N111864   2.553   3.121  15.534  0.4306 -0.2900  0.0804
  805MPD2    H711865   2.639   3.174  15.517  0.4435 -1.2964 -3.0252
  806MPD2     C11866   2.667   0.987   0.552 -0.3715 -0.5891  0.4346
  806MPD2    C111867   2.732   1.081   0.624 -0.2502  0.1011 -1.0282
  806MPD2    C211868   2.826   1.157   0.554 -0.1053  1.0460 -0.1653
  806MPD2    C311869   2.834   1.150   0.415 -0.3442 -0.6387 -0.0644
  806MPD2    C411870   2.743   1.072   0.345  0.5777  0.2057 -0.3426
  806MPD2    C511871   2.670   0.984   0.419  0.0786  0.4376 -0.3960
  806MPD2     H11872   2.891   1.220   0.615 -0.5222  0.0587  1.3116
  806MPD2    H111873   2.737   1.055   0.238 -1.1517  0.5945 -0.3068
  806MPD2    H211874   2.602   0.920   0.608 -1.4718  0.6615  0.6621
  806MPD2    H311875   2.609   0.910   0.369 -2.5493  2.8377 -0.7124
  806MPD2     N11876   2.938   1.222   0.351 -0.7835 -0.3366  0.0530
  806MPD2    H511877   2.996   1.282   0.409  2.1721 -1.8948 -1.2395
  806MPD2    N111878   2.731   1.066   0.760  0.0963 -0.3145 -0.1308
  806MPD2    H711879   2.688   0.978   0.790 -2.1205  1.2554  1.3394
  807MPD2     C11880   2.420   0.626   1.301 -0.6228  0.3763  0.2092
  807MPD2    C111881   2.557   0.635   1.331 -0.4644 -0.6160 -0.3001
  807MPD2    C211882   2.612   0.536   1.415 -0.4170  0.7729  0.2630
  807MPD2    C311883   2.534   0.444   1.479  0.1913  0.2851 -0.4109
  807MPD2    C411884   2.397   0.444   1.460 -0.2738  0.4874  0.4708
  807MPD2    C511885   2.348   0.523   1.361  0.1209  0.2359  0.1010
  807MPD2     H11886   2.719   0.545   1.432 -0.9134  0.9605  3.2111
  807MPD2    H111887   2.322   0.380   1.505  1.8560 -2.6627 -0.4202
  807MPD2    H211888   2.365   0.690   1.233 -1.1000  0.0673  0.3039
  807MPD2    H311889   2.243   0.513   1.336 -0.0528  2.3464 -0.0189
  807MPD2     N11890   2.595   0.371   1.577 -0.0730  0.6757 -0.0571
  807MPD2    H511891   2.695   0.383   1.589 -0.0868 -1.4737  2.1697
  807MPD2    N111892   2.644   0.725   1.270 -0.0573 -0.2560  0.0309
  807MPD2    H711893   2.742   0.710   1.293  0.0702  0.1708 -0.2490
  808MPD2     C11894   3.338   3.023  10.123 -0.4283 -0.1179  0.2444
  808MPD2    C111895   3.354   3.119  10.027 -0.0904 -0.1656 -0.2728
  808MPD2    C211896   3.459   3.208  10.036  0.5566  0.4128 -0.2205
  808MPD2    C311897   3.541   3.206  10.150  0.8876  0.4110 -0.2408
  808MPD2    C411898   3.522   3.119  10.247 -0.2316  0.4665  0.0740
  808MPD2    C511899   3.421   3.034  10.236  0.3755  0.3714 -0.1922
  808MPD2     H11900   3.473   3.286   9.961 -0.1039  0.6288 -0.1159
  808MPD2    H111901   3.590   3.109  10.331 -1.0409  0.2735  0.7019
  808MPD2    H211902   3.261   2.947  10.125 -1.1774  0.6457  0.3642
  808MPD2    H311903   3.409   2.974  10.326  2.6511  2.5977  1.6327
  808MPD2     N11904   3.644   3.301  10.176 -0.1135 -0.0087 -0.1017
  808MPD2    H511905   3.682   3.306  10.270  0.7905 -1.8425 -0.3703
  808MPD2    N111906   3.269   3.132   9.917 -0.2945 -0.1257 -0.4377
  808MPD2    H711907   3.280   3.214   9.858  0.0023 -0.4898 -0.8845
  809MPD2     C11908   4.388   3.470   9.507 -0.0756 -0.6745  0.1510
  809MPD2    C111909   4.415   3.563   9.607 -0.5896 -0.3913 -0.0828
  809MPD2    C211910   4.326   3.584   9.710 -0.9105 -0.3725  0.1333
  809MPD2    C311911   4.211   3.502   9.723 -0.8981  0.2207  0.6313
  809MPD2    C411912   4.191   3.405   9.624  0.1632  0.0200  0.0454
  809MPD2    C511913   4.274   3.402   9.520 -0.1501  0.1570  0.4700
  809MPD2     H11914   4.351   3.660   9.784  1.0232 -3.6250  2.8178
  809MPD2    H111915   4.108   3.336   9.634 -0.1621  0.3057 -0.7087
  809MPD2    H211916   4.441   3.460   9.414  0.0206 -0.7063  0.2095
  809MPD2    H311917   4.255   3.332   9.439  0.9426  0.2534  0.1267
  809MPD2     N11918   4.118   3.498   9.834 -0.5744  0.0725  0.4487
  809MPD2    H511919   4.044   3.429   9.832  1.4866 -2.1927  2.5172
  809MPD2    N111920   4.532   3.643   9.606 -0.3363 -0.0241 -0.3631
  809MPD2    H711921   4.560   3.700   9.685  0.3927 -0.4641 -0.2988
  810MPD2     C11922   3.117   2.842  10.353  0.3539 -0.1613  0.1736
  810MPD2    C111923   2.999   2.902  10.321 -0.1693  0.4832  0.4129
  810MPD2    C211924   2.960   3.016  10.379  0.1692 -0.8436  0.1085
  810MPD2    C311925   3.042   3.074  10.479  0.4102 -0.3635 -0.3029
  810MPD2    C411926   3.157   3.012  10.504  0.3990  0.3031  0.5135
  810MPD2    C511927   3.193   2.893  10.453  0.1005 -0.0064  0.4011
  810MPD2     H11928   2.873   3.069  10.342 -0.0686 -1.9987 -0.9592
  810MPD2    H111929   3.218   3.053  10.584  0.8487 -2.3182  1.5070
  810MPD2    H211930   3.143   2.749  10.304  0.5996 -0.3228  0.6149
  810MPD2    H311931   3.289   2.848  10.476 -0.9167 -2.3778  0.0769
  810MPD2     N11932   3.020   3.203  10.530  0.5299 -0.1844 -0.2405
  810MPD2    H511933   3.094   3.249  10.581  3.1001 -2.4048 -1.9895
  810MPD2    N111934   2.915   2.859  10.221 -0.4852  0.3863  0.1780
  810MPD2    H711935   2.838   2.920  10.196 -0.1284  0.0154 -1.8420
  811MPD2     C11936   2.329   3.084   9.689 -0.0319  0.0019 -0.4258
  811MPD2    C111937   2.452   3.107   9.748 -0.0747 -0.3230 -0.0104
  811MPD2    C211938   2.503   3.235   9.745  0.1005 -0.4565  0.8478
  811MPD2    C311939   2.432   3.335   9.686 -0.1600  0.3308 -0.0151
  811MPD2    C411940   2.314   3.306   9.619 -0.1540  0.0204 -0.0853
  811MPD2    C511941   2.258   3.181   9.626  0.0356  0.1029  0.0237
  811MPD2     H11942   2.595   3.263   9.795  1.4429  1.8550 -2.9674
  811MPD2    H111943   2.254   3.378   9.564  0.4811  0.3612 -0.3362
  811MPD2    H211944   2.278   2.989   9.699  1.9291 -0.7864  2.0012
  811MPD2    H311945   2.161   3.159   9.583 -0.8018  2.2781  0.8354
  811MPD2     N11946   2.486   3.464   9.679  0.2228  0.1569  0.6452
  811MPD2    H511947   2.581   3.476   9.714  0.7988  1.7936 -1.4911
  811MPD2    N111948   2.514   2.993   9.807  0.2931 -0.1043 -0.1968
  811MPD2    H711949   2.472   2.904   9.783  0.3078  0.1768 -1.2491
  812MPD2     C11950   1.657   3.452  12.428 -0.1601  1.1474  1.0761
  812MPD2    C111951   1.547   3.488  12.507  0.5442  0.3212  0.1303
  812MPD2    C211952   1.547   3.450  12.638 -0.1473  0.5279  0.2900
  812MPD2    C311953   1.643   3.364  12.681  0.8319 -0.0475 -0.6131
  812MPD2    C411954   1.751   3.325  12.600  0.1173 -0.1965 -0.2926
  812MPD2    C511955   1.756   3.369  12.474 -0.1155 -0.4873 -0.0572
  812MPD2     H11956   1.469   3.475  12.709  0.5260 -0.6980  1.4838
  812MPD2    H111957   1.833   3.261  12.631 -0.0409 -0.6338 -0.7696
  812MPD2    H211958   1.654   3.477  12.323  4.3598 -0.6231  0.5495
  812MPD2    H311959   1.844   3.344  12.417 -1.7525  0.5375 -3.0313
  812MPD2     N11960   1.632   3.316  12.820 -0.0852  0.5569 -0.0931
  812MPD2    H511961   1.551   3.352  12.870  1.4382  1.0757  1.9849
  812MPD2    N111962   1.453   3.572  12.449 -0.0587  0.0998 -0.0988
  812MPD2    H711963   1.452   3.579  12.347  0.8808  1.0926 -0.0319
  813MPD2     C11964   0.638   0.503  12.560  0.1483 -0.6603 -0.4173
  813MPD2    C111965   0.621   0.623  12.623  0.3160  0.6656  0.2768
  813MPD2    C211966   0.518   0.655  12.713 -0.0682 -0.2219  0.1532
  813MPD2    C311967   0.425   0.556  12.743  0.4548  0.1316  0.2860
  813MPD2    C411968   0.437   0.435  12.680  1.1304  0.4753 -0.6323
  813MPD2    C511969   0.545   0.409  12.592  0.6507 -0.0562 -0.7615
  813MPD2     H11970   0.514   0.748  12.768  1.4598 -0.3776  0.5526
  813MPD2    H111971   0.359   0.361  12.698  2.7637 -1.1787 -0.3757
  813MPD2    H211972   0.725   0.486  12.497  1.2810 -2.2643  1.5618
  813MPD2    H311973   0.554   0.307  12.555 -1.2562 -0.0974 -1.1167
  813MPD2     N11974   0.323   0.592  12.836  0.0414 -0.3867  0.2783
  813MPD2    H511975   0.322   0.687  12.870  2.0482 -0.1949 -0.1593
  813MPD2    N111976   0.731   0.713  12.609  0.4252 -0.3143  0.4960
  813MPD2    H711977   0.813   0.665  12.572 -0.5718 -0.1284 -1.9194
  814MPD2     C11978   1.492   2.281  11.973 -0.2329  0.1622  0.0834
  814MPD2    C111979   1.475   2.281  11.837 -0.3594  0.5167  0.5168
  814MPD2    C211980   1.497   2.396  11.759 -0.3990  0.7666 -0.1608
  814MPD2    C311981   1.540   2.512  11.815  0.1128  0.0727 -0.2756
  814MPD2    C411982   1.547   2.514  11.956 -0.1003  0.2889  0.7223
  814MPD2    C511983   1.521   2.402  12.032  0.0744  0.9060  0.1701
  814MPD2     H11984   1.495   2.385  11.651  0.6235  1.6056 -0.2547
  814MPD2    H111985   1.551   2.612  12.001  0.3207  0.3069  0.6424
  814MPD2    H211986   1.464   2.199  12.038  2.1703  0.3801  1.3823
  814MPD2    H311987   1.523   2.404  12.141  0.2549 -2.6275  0.2092
  814MPD2     N11988   1.576   2.632  11.743 -0.0263 -0.3346 -0.3190
  814MPD2    H511989   1.612   2.711  11.795  0.0283 -0.2895 -0.4254
  814MPD2    N111990   1.401   2.174  11.768 -0.2906 -0.1466 -0.4193
  814MPD2    H711991   1.415   2.169  11.668  1.6596 -1.5884 -0.0918
  815MPD2     C11992   1.681   0.696  11.787  0.0195  0.2493  0.1722
  815MPD2    C111993   1.688   0.557  11.794  0.0844 -0.6157  0.6500
  815MPD2    C211994   1.582   0.478  11.843  0.2238 -0.2205 -0.5762
  815MPD2    C311995   1.472   0.537  11.905  0.0172 -0.4207  0.3782
  815MPD2    C411996   1.468   0.672  11.904 -0.2750  0.2316 -0.6783
  815MPD2    C511997   1.566   0.749  11.839  0.0159  0.2877  0.2464
  815MPD2     H11998   1.568   0.374  11.816 -1.1999  0.1409 -1.2393
  815MPD2    H111999   1.378   0.727  11.930 -0.2788 -0.7990  1.5102
  815MPD2    H212000   1.759   0.754  11.739  0.5395 -0.6198 -0.0316
  815MPD2    H312001   1.550   0.856  11.853 -0.3263  0.1752  0.6982
  815MPD2     N12002   1.375   0.463  11.977  0.0587  0.0232 -0.6401
  815MPD2    H512003   1.388   0.362  11.979  2.1505  0.3176  0.7556
  815MPD2    N112004   1.792   0.494  11.732  0.0082 -0.4035 -0.3994
  815MPD2    H712005   1.851   0.555  11.675  0.2119  0.5414  0.8327
  816MPD2     C12006   2.076   3.632  17.608  0.1123  0.4410  0.2307
  816MPD2    C112007   1.999   3.648  17.494 -0.3099  0.0647  0.7231
  816MPD2    C212008   2.062   3.626  17.378 -0.0506 -0.0336 -0.2759
  816MPD2    C312009   2.201   3.615  17.363  0.5124 -0.0795  0.3650
  816MPD2    C412010   2.279   3.615  17.479  0.2036 -0.1155 -0.5048
  816MPD2    C512011   2.214   3.607  17.602  0.9511 -0.1740  0.2342
  816MPD2     H12012   2.002   3.618  17.288  0.7626  0.9640 -0.9111
  816MPD2    H112013   2.387   3.607  17.475  0.1613 -0.0599 -1.7723
  816MPD2    H212014   2.029   3.633   0.008  3.4152 -2.3434  1.8642
  816MPD2    H312015   2.274   3.599  17.693 -1.0524 -0.6308  1.5087
  816MPD2     N12016   2.242   3.598  17.226  0.5842  0.1736 -0.1794
  816MPD2    H512017   2.175   3.603  17.151 -1.8128 -0.5013  1.9027
  816MPD2    N112018   1.863   3.663  17.507  0.3075 -0.6317 -0.2892
  816MPD2    H712019   1.829   3.666  17.602  1.1403 -0.7836  0.0102
  817MPD2     C12020   1.323   0.803   9.555  0.3293  0.0342  0.1943
  817MPD2    C112021   1.276   0.714   9.465 -0.0388  0.2009  0.1971
  817MPD2    C212022   1.184   0.762   9.381 -0.1763 -0.3324 -0.1508
  817MPD2    C312023   1.118   0.883   9.387  0.4150 -0.3060  0.4162
  817MPD2    C412024   1.155   0.965   9.487 -0.3918  0.5673  0.0050
  817MPD2    C512025   1.265   0.923   9.567 -0.9538 -0.8036  0.2094
  817MPD2     H12026   1.161   0.696   9.298 -2.1429 -3.8734  3.2027
  817MPD2    H112027   1.116   1.062   9.513 -0.5618  0.3940  0.4006
  817MPD2    H212028   1.407   0.778   9.620  0.7232 -0.2724 -0.4309
  817MPD2    H312029   1.298   0.995   9.641  0.6317  0.6101 -1.8927
  817MPD2     N12030   1.003   0.904   9.302 -0.0844 -0.6202 -0.8460
  817MPD2    H512031   0.976   0.828   9.240 -3.4419 -1.8379  2.0893
  817MPD2    N112032   1.322   0.583   9.443  0.3927  0.1670  0.5302
  817MPD2    H712033   1.287   0.526   9.366  0.3867 -0.9698  1.3781
  818MPD2     C12034   0.490   0.932   9.860 -0.1456 -0.9450 -0.3425
  818MPD2    C112035   0.353   0.902   9.880 -0.1552  0.0420  0.3735
  818MPD2    C212036   0.306   0.772   9.836 -0.1384  0.1792 -0.4243
  818MPD2    C312037   0.394   0.680   9.795 -0.1576  0.6621 -0.3220
  818MPD2    C412038   0.526   0.711   9.769 -0.7592 -0.5808  0.3078
  818MPD2    C512039   0.572   0.833   9.814  0.3691 -0.0784 -0.0343
  818MPD2     H12040   0.200   0.750   9.848 -0.3132  1.1680 -0.1617
  818MPD2    H112041   0.597   0.636   9.736  2.4461  1.1662  3.1411
  818MPD2    H212042   0.522   1.031   9.890  0.6272 -1.5324  0.7451
  818MPD2    H312043   0.673   0.868   9.795  0.2885  0.5665  0.7189
  818MPD2     N12044   0.357   0.546   9.760  0.3079  1.2995 -0.6250
  818MPD2    H512045   0.439   0.493   9.733 -0.5156 -0.6611  0.6933
  818MPD2    N112046   0.269   0.978   9.961 -0.7972  0.9663 -0.4905
  818MPD2    H712047   0.173   0.952   9.942  0.2502 -3.2279  0.0532
  819MPD2     C12048   3.196   2.661  15.997 -0.4833  0.0375 -0.2668
  819MPD2    C112049   3.268   2.566  15.929 -0.0028 -0.1228 -0.7090
  819MPD2    C212050   3.395   2.534  15.971 -0.5085 -0.2414  0.3088
  819MPD2    C312051   3.464   2.604  16.069 -0.5366 -0.0600 -0.8385
  819MPD2    C412052   3.385   2.690  16.147  0.1909 -0.2227  0.0432
  819MPD2    C512053   3.254   2.719  16.102  0.9099 -1.0836  0.3813
  819MPD2     H12054   3.456   2.460  15.921  0.6177 -0.4119  1.9346
  819MPD2    H112055   3.414   2.729  16.243  0.5579  2.1880 -1.0502
  819MPD2    H212056   3.095   2.686  15.969  0.3867  2.2318 -1.4242
  819MPD2    H312057   3.199   2.791  16.161  1.8625  0.2264 -0.3300
  819MPD2     N12058   3.594   2.574  16.098 -0.4607 -0.4620 -0.2364
  819MPD2    H512059   3.635   2.502  16.040 -1.0322 -0.1856 -0.9783
  819MPD2    N112060   3.212   2.496  15.824  0.0958 -0.3909 -0.3566
  819MPD2    H712061   3.145   2.547  15.768  2.5788  0.4057 -2.5811
  820MPD2     C12062   2.508   2.515  15.144  1.1200 -0.4941  0.5915
  820MPD2    C112063   2.622   2.583  15.186 -0.5943  0.9801 -0.0207
  820MPD2    C212064   2.720   2.513  15.260 -0.0882 -0.2915 -0.4781
  820MPD2    C312065   2.699   2.388  15.301  0.6248  0.5805 -0.4782
  820MPD2    C412066   2.586   2.318  15.263 -0.2419  0.0031  0.1275
  820MPD2    C512067   2.491   2.388  15.188  0.3932 -0.9682 -0.6169
  820MPD2     H12068   2.815   2.561  15.277 -0.2682  0.4195 -1.4236
  820MPD2    H112069   2.560   2.216  15.290 -0.2040  0.3384  1.4411
  820MPD2    H212070   2.433   2.553  15.077  2.0132  2.1097  1.0911
  820MPD2    H312071   2.405   2.333  15.151  0.4528 -1.2808 -0.3017
  820MPD2     N12072   2.802   2.325  15.385  0.1885  0.0408 -0.3074
  820MPD2    H512073   2.784   2.228  15.408  0.9562 -0.0217  0.0449
  820MPD2    N112074   2.628   2.718  15.150 -0.6586 -0.0168 -0.3276
  820MPD2    H712075   2.551   2.752  15.093  1.8814  1.7395 -2.6681
  821MPD2     C12076   3.167   3.645  13.610  0.1315 -0.1171 -0.6408
  821MPD2    C112077   3.266   3.659  13.707  0.6046 -0.2582  1.0163
  821MPD2    C212078   3.396   3.637  13.666  0.3333 -0.6265  0.3246
  821MPD2    C312079   3.425   3.581  13.540  0.4450  0.0579  0.3483
  821MPD2    C412080   3.323   3.576  13.444 -0.5760  0.4756  0.5985
  821MPD2    C512081   3.197   3.586  13.492 -0.1088 -0.5604  0.2524
  821MPD2     H12082   3.473   3.647  13.742  1.7608 -1.5752 -0.9941
  821MPD2    H112083   3.331   3.561  13.337 -0.6106 -0.5914  0.7475
  821MPD2    H212084   3.065   3.674  13.635  0.5479  0.7478  0.0584
  821MPD2    H312085   3.109   3.577  13.428 -0.8508 -1.0823  1.3396
  821MPD2     N12086   3.553   3.551  13.499 -0.6535 -0.2956 -0.1989
  821MPD2    H512087   3.560   3.542  13.398 -3.5100  0.6387 -0.4698
  821MPD2    N112088   3.243   3.729  13.831  0.5705  1.2755  0.0311
  821MPD2    H712089   3.330   3.736  13.884 -0.5574 -2.0361  2.3458
  822MPD2     C12090   3.749   3.956  15.913  0.2566  0.4695 -0.2023
  822MPD2    C112091   3.753   3.903  16.031  0.3431  0.0001 -0.3066
  822MPD2    C212092   3.663   3.955  16.132 -0.6271  0.2258 -0.4998
  822MPD2    C312093   3.583   4.064  16.104 -0.1663 -0.2886  0.6776
  822MPD2    C412094   3.570   4.106  15.974  0.1905  0.0538  0.1041
  822MPD2    C512095   3.659   4.051  15.886 -0.3647  0.8298 -0.0009
  822MPD2     H12096   3.660   3.911  16.231 -0.2730 -2.0136 -1.4660
  822MPD2    H112097   3.498   4.183  15.950 -0.6327 -0.9979 -0.7979
  822MPD2    H212098   3.822   3.941  15.834  0.1546 -0.9011 -0.0398
  822MPD2    H312099   3.661   4.090  15.785  0.8283 -0.4645 -0.4730
  822MPD2     N12100   3.503   4.111  16.211 -0.3909 -0.1045  0.3909
  822MPD2    H512101   3.501   4.068  16.303 -1.7515 -2.3587 -0.7102
  822MPD2    N112102   3.846   3.801  16.063 -0.4077  0.5804 -0.4612
  822MPD2    H712103   3.860   3.784  16.162  1.4059  3.2843 -0.2401
  823MPD2     C12104   2.994   4.022  16.911 -1.2955 -0.7269  0.3670
  823MPD2    C112105   3.100   3.992  16.826 -0.4249  0.1809  0.3344
  823MPD2    C212106   3.188   3.890  16.858  0.3312 -0.9637  0.1340
  823MPD2    C312107   3.191   3.838  16.985 -0.1574  0.6819  0.3831
  823MPD2    C412108   3.090   3.870  17.071 -0.3879  0.2202  0.3524
  823MPD2    C512109   2.992   3.960  17.036 -0.2670  0.8320 -0.0933
  823MPD2     H12110   3.274   3.875  16.794  0.5441 -0.6904  0.3600
  823MPD2    H112111   3.093   3.829  17.171  3.4412 -0.6368 -0.1085
  823MPD2    H212112   2.929   4.105  16.888 -0.1835  0.2857  0.9272
  823MPD2    H312113   2.920   3.993  17.111  1.4301  0.8254  1.5493
  823MPD2     N12114   3.289   3.741  17.025 -0.1747 -0.3231 -0.1254
  823MPD2    H512115   3.270   3.680  17.104 -1.7927  0.9113  0.4566
  823MPD2    N112116   3.123   4.072  16.714  0.3449 -0.3489 -0.0357
  823MPD2    H712117   3.074   4.161  16.716  1.4082  0.2482 -0.6837
  824MPD2     C12118   4.179   3.002  15.832  0.2541 -0.0631  0.4574
  824MPD2    C112119   4.262   3.112  15.831  0.1374  0.1648  0.5679
  824MPD2    C212120   4.393   3.095  15.788 -0.5138  0.0694  0.0687
  824MPD2    C312121   4.442   2.972  15.737  0.0026 -0.1464 -0.1487
  824MPD2    C412122   4.352   2.862  15.733 -0.9260  0.3506  0.0123
  824MPD2    C512123   4.224   2.883  15.778  0.2383  0.0863  0.1207
  824MPD2     H12124   4.461   3.179  15.792 -0.8380  0.3242  0.2054
  824MPD2    H112125   4.385   2.767  15.692 -0.1200  0.8251 -0.4350
  824MPD2    H212126   4.083   3.002  15.884  0.9336  1.9951  1.6948
  824MPD2    H312127   4.163   2.794  15.783 -2.0304  1.7658  1.8658
  824MPD2     N12128   4.564   2.967  15.667  0.3372  0.2106  0.0444
  824MPD2    H512129   4.626   3.047  15.677  2.7356 -1.3696 -2.1907
  824MPD2    N112130   4.221   3.240  15.885  0.3609  0.6255  0.3946
  824MPD2    H712131   4.299   3.302  15.905  0.9454 -0.0928  0.3448
  825MPD2     C12132   0.497   3.237  15.145 -0.5776  0.6263  0.0166
  825MPD2    C112133   0.381   3.263  15.210  0.5758  0.2073 -0.0190
  825MPD2    C212134   0.313   3.386  15.188  0.2060  0.5509 -0.3889
  825MPD2    C312135   0.352   3.474  15.087 -0.5151 -0.1618 -0.7554
  825MPD2    C412136   0.468   3.442  15.020 -0.1791 -0.4878  0.0883
  825MPD2    C512137   0.538   3.324  15.045  0.5788 -0.2413 -1.1545
  825MPD2     H12138   0.223   3.405  15.245  1.6605  3.3255  0.9727
  825MPD2    H112139   0.512   3.505  14.943 -2.2702  1.6920  0.6653
  825MPD2    H212140   0.560   3.152  15.168 -1.2274  0.0579 -0.3191
  825MPD2    H312141   0.627   3.303  14.987  0.1537 -0.1275 -1.8433
  825MPD2     N12142   0.294   3.599  15.062 -0.6569 -0.0137 -0.5790
  825MPD2    H512143   0.349   3.653  14.997  0.9654  1.0732  1.7215
  825MPD2    N112144   0.331   3.155  15.287 -0.5482  0.5428  0.5337
  825MPD2    H712145   0.397   3.078  15.296  0.4011  1.5293  2.0316
  826MPD2     C12146   4.465   3.289  14.086  0.2643  0.6696 -0.0552
  826MPD2    C112147   4.387   3.287  13.974 -0.1304  0.4683 -0.1167
  826MPD2    C212148   4.253   3.326  13.987  0.3178  0.0917 -0.1427
  826MPD2    C312149   4.201   3.366  14.110 -0.7069 -0.1134 -0.1315
  826MPD2    C412150   4.279   3.350  14.222 -0.2043 -0.3368 -0.0206
  826MPD2    C512151   4.408   3.312  14.211 -0.3593  0.0596  0.2201
  826MPD2     H12152   4.191   3.334  13.898  2.2117 -0.0507 -1.4639
  826MPD2    H112153   4.246   3.371  14.323  0.7765 -3.3069  0.9132
  826MPD2    H212154   4.570   3.262  14.086 -0.1025 -0.7912 -2.1522
  826MPD2    H312155   4.466   3.288  14.300 -0.0839 -0.5993 -0.1304
  826MPD2     N12156   4.073   3.431  14.125 -0.6769  0.4023  0.5614
  826MPD2    H512157   4.043   3.457  14.218  0.4145  2.2376  0.4096
  826MPD2    N112158   4.448   3.264  13.849  0.4873 -0.3059  0.5954
  826MPD2    H712159   4.548   3.248  13.843  0.5451  1.3830 -2.8486
  827MPD2     C12160   0.623   3.892  10.322 -0.0504 -1.1207  0.6768
  827MPD2    C112161   0.560   3.893  10.446  0.1341  0.0853 -0.1247
  827MPD2    C212162   0.439   3.831  10.462  0.1158  0.2032 -0.2413
  827MPD2    C312163   0.380   3.765  10.348 -1.2400  0.3106  0.1085
  827MPD2    C412164   0.438   3.769  10.222 -0.1327 -0.1229  0.0271
  827MPD2    C512165   0.561   3.836  10.214  0.0063 -0.2378  0.1587
  827MPD2     H12166   0.385   3.831  10.557  1.2717 -0.3649  0.4132
  827MPD2    H112167   0.391   3.728  10.133  1.1648 -0.8068 -0.3441
  827MPD2    H212168   0.727   3.916  10.303 -0.0938 -1.4061  0.0896
  827MPD2    H312169   0.611   3.838  10.117 -1.2001  2.4390 -0.4300
  827MPD2     N12170   0.264   3.689  10.373 -0.4179  0.1797 -0.4078
  827MPD2    H512171   0.222   3.699  10.465 -1.8016 -3.0237 -0.6929
  827MPD2    N112172   0.634   3.959  10.550 -0.2949 -0.9825 -0.6272
  827MPD2    H712173   0.728   3.990  10.527  0.2695 -3.0804 -1.0794
  828MPD2     C12174   3.604   4.177  12.674  0.1101 -0.6993 -0.8616
  828MPD2    C112175   3.613   4.214  12.545  0.2097  0.0898 -0.2217
  828MPD2    C212176   3.726   4.170  12.476 -0.0781  0.3302 -0.1149
  828MPD2    C312177   3.816   4.081  12.521 -0.1082  0.1655 -0.8393
  828MPD2    C412178   3.799   4.043  12.651  0.0637 -0.6055 -0.0123
  828MPD2    C512179   3.701   4.093  12.728 -0.1691  0.7319  0.2559
  828MPD2     H12180   3.732   4.202  12.372  3.2413 -3.2547 -1.0613
  828MPD2    H112181   3.858   3.962  12.692  0.0919 -0.3233  0.5005
  828MPD2    H212182   3.527   4.213  12.740 -0.0334 -1.5938 -0.5341
  828MPD2    H312183   3.692   4.060  12.831 -1.5971 -2.3660 -0.8649
  828MPD2     N12184   3.921   4.023  12.453  0.1808  0.3992 -0.8191
  828MPD2    H512185   3.976   3.955  12.504 -2.4426 -0.9223  0.2463
  828MPD2    N112186   3.515   4.283  12.474 -0.0556  0.5648  0.7297
  828MPD2    H712187   3.539   4.298  12.376  1.0768 -2.7464  0.5104
  829MPD2     C12188   3.476   4.258  11.637 -0.0128  0.0599 -0.2191
  829MPD2    C112189   3.372   4.351  11.659  0.4994 -0.1969  0.0292
  829MPD2    C212190   3.339   4.389  11.788 -0.5410 -0.5013 -0.0349
  829MPD2    C312191   3.391   4.316  11.897 -0.5169  0.9865 -0.2027
  829MPD2    C412192   3.478   4.215  11.870 -0.6293 -0.1646  0.2487
  829MPD2    C512193   3.524   4.182  11.743  0.0594  0.7321  0.3762
  829MPD2     H12194   3.270   4.472  11.796  0.7326  0.5050  0.6708
  829MPD2    H112195   3.515   4.152  11.950 -0.1820 -1.5086 -1.0314
  829MPD2    H212196   3.510   4.227  11.539 -0.2908 -1.7435  0.2444
  829MPD2    H312197   3.597   4.102  11.737  1.6347  2.0779  1.4329
  829MPD2     N12198   3.351   4.344  12.029  0.4184 -0.4789  0.2852
  829MPD2    H512199   3.388   4.283  12.101  0.7465  0.3049  0.7795
  829MPD2    N112200   3.314   4.405  11.543  0.3071  0.3157  1.0966
  829MPD2    H712201   3.343   4.365  11.454 -3.6785  1.1209 -0.5757
  830MPD2     C12202   4.366   2.348  15.857 -0.2733  0.5887  0.4238
  830MPD2    C112203   4.244   2.408  15.832  0.0104 -0.0547  0.1504
  830MPD2    C212204   4.219   2.474  15.719 -0.1187 -0.1508  0.3583
  830MPD2    C312205   4.318   2.498  15.628 -0.2743 -0.3636  0.2816
  830MPD2    C412206   4.443   2.449  15.663  0.4812 -0.1506 -0.1945
  830MPD2    C512207   4.464   2.371  15.768 -0.2646  0.2180 -0.6415
  830MPD2     H12208   4.120   2.516  15.707  0.0397 -0.0449 -0.6061
  830MPD2    H112209   4.527   2.477  15.601  0.2565  2.1707  0.5490
  830MPD2    H212210   4.380   2.292  15.948  0.1957 -0.0474 -0.0408
  830MPD2    H312211   4.567   2.344  15.789 -0.8577 -0.6154  1.2183
  830MPD2     N12212   4.302   2.583  15.517 -0.0123 -0.0765 -0.0546
  830MPD2    H512213   4.387   2.618  15.475  0.0512 -0.3841 -0.1868
  830MPD2    N112214   4.150   2.387  15.941  0.2720  0.3612  0.4515
  830MPD2    H712215   4.185   2.337  16.023  2.0403 -0.2842 -0.6744
  831MPD2     C12216   3.734   4.146  16.604  0.6179 -0.2642 -0.4726
  831MPD2    C112217   3.773   4.046  16.511  0.4219  0.6515  0.2171
  831MPD2    C212218   3.693   3.940  16.501  0.0415 -0.3260  0.6453
  831MPD2    C312219   3.591   3.914  16.591  0.0841  0.5856  0.5456
  831MPD2    C412220   3.562   4.015  16.682 -0.7797 -0.3182 -0.0683
  831MPD2    C512221   3.627   4.132  16.683  0.2050  0.3354 -0.5167
  831MPD2     H12222   3.713   3.861  16.429 -1.5674  0.1648 -0.3410
  831MPD2    H112223   3.476   4.003  16.747 -1.2440  0.0359 -0.6192
  831MPD2    H212224   3.786   4.241  16.604  1.3493 -0.6731  0.2735
  831MPD2    H312225   3.610   4.206  16.760  2.5893 -0.6015  0.9113
  831MPD2     N12226   3.515   3.797  16.584  0.4614  0.2856 -0.0386
  831MPD2    H512227   3.453   3.774  16.661 -0.5079  0.1079 -0.8590
  831MPD2    N112228   3.879   4.064  16.413  0.2040 -1.1541  0.4435
  831MPD2    H712229   3.933   4.150  16.414  0.3610 -1.2739  2.1287
  832MPD2     C12230   2.049   4.446  17.602 -0.0196  0.0426  0.2794
  832MPD2    C112231   2.028   4.581  17.606 -0.1973 -0.5753 -0.3314
  832MPD2    C212232   1.906   4.627  17.562 -1.1159  0.1028 -0.1211
  832MPD2    C312233   1.797   4.538  17.532  0.4776 -0.2514  0.5979
  832MPD2    C412234   1.819   4.404  17.537  0.1230 -0.8095  0.4207
  832MPD2    C512235   1.953   4.359  17.555  0.0989 -0.5257 -0.1037
  832MPD2     H12236   1.893   0.010  17.573  1.5676  0.5494 -1.1577
  832MPD2    H112237   1.740   4.337  17.505 -0.4550  0.7889 -1.5509
  832MPD2    H212238   2.151   4.407  17.609  0.2232  0.4499 -0.9701
  832MPD2    H312239   1.981   4.258  17.527  0.8353 -0.1847 -0.5719
  832MPD2     N12240   1.664   4.577  17.498  0.0721  0.4145 -0.6130
  832MPD2    H512241   1.597   4.505  17.471  0.2623 -0.8718  2.3353
  832MPD2    N112242   2.141   4.654  17.639  0.2438 -0.0093 -0.0056
  832MPD2    H712243   2.224   4.599  17.657 -0.3979 -1.0238 -0.2007
  833MPD2     C12244   4.470   1.484  12.584  0.6250  0.5974  0.6967
  833MPD2    C112245   4.507   1.585  12.503  1.0227 -0.2897 -0.4322
  833MPD2    C212246   4.614   1.561  12.413 -0.4497  0.5225 -0.1477
  833MPD2    C312247   4.695   1.447  12.422 -0.5377 -1.0638  0.3318
  833MPD2    C412248   4.655   1.350  12.517 -0.0754 -0.6697 -0.1620
  833MPD2    C512249   4.539   1.362  12.587  0.0224  0.1049  0.0682
  833MPD2     H12250   4.645   1.637  12.342 -4.3995  0.3224 -2.0563
  833MPD2    H112251   4.708   1.257  12.535 -1.1900 -1.2074  0.3382
  833MPD2    H212252   4.376   1.494  12.638 -0.4056 -1.8932 -0.6381
  833MPD2    H312253   4.511   1.289  12.662  0.0136 -0.6742 -0.7021
  833MPD2     N12254   0.093   1.428  12.348  0.1891  0.0720 -0.4008
  833MPD2    H512255   0.151   1.348  12.370 -1.5357 -0.9455  0.4624
  833MPD2    N112256   4.446   1.710  12.520 -0.3866  0.0689 -0.5932
  833MPD2    H712257   4.368   1.730  12.581 -0.6286  0.4306 -1.0175
  834MPD2     C12258   4.580   0.961  11.568 -1.0749  0.2553  0.5913
  834MPD2    C112259   4.548   1.096  11.553  0.6348 -0.2927 -0.3481
  834MPD2    C212260   4.617   1.190  11.637 -0.3751  0.1205 -0.5272
  834MPD2    C312261   4.714   1.144  11.725 -0.5104  0.1946  0.1584
  834MPD2    C412262   0.021   1.010  11.739  0.4190  0.3804  0.2640
  834MPD2    C512263   4.671   0.920  11.658  0.3330 -0.0445 -0.9099
  834MPD2     H12264   4.600   1.297  11.633 -1.1159  0.0595  0.8877
  834MPD2    H112265   0.091   0.959  11.804 -1.0905 -0.7215  1.0320
  834MPD2    H212266   4.551   0.882  11.499 -0.4707  0.8555 -0.3588
  834MPD2    H312267   4.690   0.814  11.672 -0.0180  0.1374  0.9431
  834MPD2     N12268   0.040   1.247  11.808 -0.2805 -0.1867  0.5852
  834MPD2    H512269   0.021   1.346  11.791 -0.5331 -0.8035 -2.6597
  834MPD2    N112270   4.486   1.143  11.438 -0.5115 -0.3946 -0.3035
  834MPD2    H712271   4.459   1.072  11.370  2.5723  1.5566 -3.6016
  835MPD2     C12272   4.524   4.202  11.330  0.6912  0.2027  0.2547
  835MPD2    C112273   4.421   4.255  11.397  0.2658  0.2199 -0.6186
  835MPD2    C212274   4.424   4.243  11.537  0.0236  0.1491 -0.1711
  835MPD2    C312275   4.527   4.185  11.609 -0.3432 -0.3332  0.2396
  835MPD2    C412276   4.630   4.134  11.541 -0.3496  0.2301  0.7511
  835MPD2    C512277   4.625   4.147  11.402  0.0627 -0.2382 -0.6112
  835MPD2     H12278   4.342   4.298  11.582  0.1534 -1.6472  2.2687
  835MPD2    H112279   4.718   4.086  11.582 -0.2159 -0.4295 -0.3268
  835MPD2    H212280   4.525   4.200  11.221  0.2918 -3.3277  0.3086
  835MPD2    H312281   4.695   4.094  11.338  0.0148  2.2256 -2.7134
  835MPD2     N12282   4.536   4.166  11.748  0.9149  0.2478 -0.6468
  835MPD2    H512283   4.621   4.129  11.789 -0.7517 -2.9076 -0.0218
  835MPD2    N112284   4.311   4.319  11.336  0.3818 -0.5858 -0.5176
  835MPD2    H712285   4.237   4.355  11.395  0.6301 -1.7123  0.4865
  836MPD2     C12286   3.962   4.435  12.136  0.1276  0.1872 -0.1592
  836MPD2    C112287   4.059   4.406  12.231 -0.3029  0.0426 -0.1976
  836MPD2    C212288   4.024   4.424  12.365  0.0254 -0.8232 -0.2260
  836MPD2    C312289   3.902   4.473  12.408  0.2717  0.1521 -0.1252
  836MPD2    C412290   3.812   4.493  12.309 -0.0676  0.0848  0.0927
  836MPD2    C512291   3.838   4.468  12.175  0.7735 -0.1074 -0.4120
  836MPD2     H12292   4.097   4.399  12.442 -1.3106 -2.1342  0.6357
  836MPD2    H112293   3.710   4.516  12.339 -0.8170 -0.0246 -2.4374
  836MPD2    H212294   3.970   4.413  12.031 -0.4228 -0.8460  0.0099
  836MPD2    H312295   3.754   4.470  12.107 -0.9615 -1.9123  1.6709
  836MPD2     N12296   3.864   4.499  12.543  0.3312 -0.3323 -0.4419
  836MPD2    H512297   3.771   4.541  12.547  0.0285 -0.8195 -1.9960
  836MPD2    N112298   4.180   4.362  12.184 -0.1592 -0.7392 -0.1362
  836MPD2    H712299   4.202   4.376  12.086  1.7665 -0.4686  0.3380
  837MPD2     C12300   2.750   4.036  10.132  0.4583  0.6822  0.5614
  837MPD2    C112301   2.727   4.096  10.010  0.5402  0.2824  0.2694
  837MPD2    C212302   2.724   4.232  10.000  1.2966 -0.6799  0.4928
  837MPD2    C312303   2.728   4.311  10.116  0.2018 -0.0486  0.3053
  837MPD2    C412304   2.759   4.255  10.236 -0.0268  0.2998  0.2529
  837MPD2    C512305   2.779   4.115  10.239  0.0801  0.7000  0.1350
  837MPD2     H12306   2.723   4.277   9.901 -0.1732 -0.2008  0.7274
  837MPD2    H112307   2.773   4.315  10.326  2.8885  2.5056 -1.6749
  837MPD2    H212308   2.769   3.930  10.144  3.4451  1.0930 -0.6495
  837MPD2    H312309   2.803   4.061  10.330 -1.6608 -0.7298 -0.2571
  837MPD2     N12310   2.711   4.448  10.102 -0.5608 -0.2100 -0.2486
  837MPD2    H512311   2.694   4.468  10.004 -0.8829 -0.9917 -0.3437
  837MPD2    N112312   2.720   4.019   9.894 -0.2889  0.0284  0.3278
  837MPD2    H712313   2.704   4.077   9.812  2.1999  2.3365  1.4769
  838MPD2     C12314   1.146   2.959  11.369 -0.7661  0.3710  0.3457
  838MPD2    C112315   1.133   2.835  11.422 -0.3207 -0.1950  0.5127
  838MPD2    C212316   1.072   2.823  11.544 -0.9754  0.6347 -0.0459
  838MPD2    C312317   1.018   2.926  11.621 -0.1572 -0.7414  0.1469
  838MPD2    C412318   1.031   3.047  11.563 -0.6951  0.1785 -0.4933
  838MPD2    C512319   1.084   3.065  11.434 -0.5283 -0.5213  0.9591
  838MPD2     H12320   1.069   2.722  11.583  0.6916 -0.1507 -1.9203
  838MPD2    H112321   1.003   3.140  11.610  0.1345 -0.3428  1.0160
  838MPD2    H212322   1.181   2.965  11.266 -3.8554 -1.2507 -0.7961
  838MPD2    H312323   1.080   3.167  11.399 -0.3010 -0.1595  1.9753
  838MPD2     N12324   0.969   2.894  11.749  0.8885  0.2772  0.8993
  838MPD2    H512325   0.985   2.797  11.773  0.5781 -0.2840 -1.1658
  838MPD2    N112326   1.183   2.714  11.366  0.4674 -0.1034  0.2382
  838MPD2    H712327   1.170   2.633  11.426  0.5283 -0.7168 -0.5812
  839MPD2     C12328   0.907   2.066  11.684 -0.6603  0.3801 -0.2671
  839MPD2    C112329   0.921   2.013  11.562  0.1890 -0.3959 -0.3492
  839MPD2    C212330   1.009   2.071  11.471  0.3496 -0.3167  0.7119
  839MPD2    C312331   1.082   2.182  11.507  0.3556  0.1882 -0.7351
  839MPD2    C412332   1.058   2.235  11.631 -0.7518 -0.3074  0.2666
  839MPD2    C512333   0.973   2.176  11.723 -0.2640 -0.0793 -0.4243
  839MPD2     H12334   1.022   2.011  11.382 -0.2342 -2.1230  1.8488
  839MPD2    H112335   1.108   2.326  11.661 -0.3851 -0.1415 -0.8294
  839MPD2    H212336   0.856   2.007  11.759 -1.7479  1.8659  0.1877
  839MPD2    H312337   0.962   2.221  11.821 -0.2439  0.2319 -0.5666
  839MPD2     N12338   1.165   2.252  11.419  0.1201  0.4492  0.3798
  839MPD2    H512339   1.206   2.339  11.451  0.6941  0.6850 -1.0059
  839MPD2    N112340   0.851   1.894  11.529 -0.3759  0.4078  0.5310
  839MPD2    H712341   0.872   1.854  11.438 -0.1998 -2.7608  1.9569
  840MPD2     C12342   0.991   4.469  10.417  0.1967  0.1405 -0.1219
  840MPD2    C112343   0.995   4.468  10.558  0.0205 -0.9342 -0.3341
  840MPD2    C212344   1.079   4.566  10.616  0.1852  0.3038  0.1287
  840MPD2    C312345   1.158   4.655  10.540  0.0963  0.2163 -0.6744
  840MPD2    C412346   1.141   4.650  10.402 -0.7160 -0.2242 -0.0713
  840MPD2    C512347   1.061   4.559  10.345  0.1356 -0.5278 -0.3639
  840MPD2     H12348   1.078   4.585  10.723  2.3391 -3.3333  0.7558
  840MPD2    H112349   1.186   4.714  10.327 -2.5123 -0.9155 -1.7328
  840MPD2    H212350   0.931   4.396  10.366 -2.0207  1.7448  0.1820
  840MPD2    H312351   1.040   4.563  10.239  0.5373 -0.5476 -0.4443
  840MPD2     N12352   1.250   0.027  10.584 -0.8595  0.1734  0.3358
  840MPD2    H512353   1.285   0.087  10.510  0.4094 -0.2562  0.5898
  840MPD2    N112354   0.918   4.372  10.624  0.4092 -0.6823  0.7149
  840MPD2    H712355   0.863   4.310  10.565 -0.3848 -1.4068  2.2168
  841MPD2     C12356   0.400   4.623  15.063  0.0345 -0.0636 -0.1221
  841MPD2    C112357   0.476   4.566  14.961  0.2504 -0.4333 -0.3323
  841MPD2    C212358   0.571   4.653  14.899 -0.1312  0.2009  0.0414
  841MPD2    C312359   0.604   0.054  14.940  0.0158  0.0315  0.1446
  841MPD2    C412360   0.521   0.107  15.039 -0.1745  0.3653 -0.3133
  841MPD2    C512361   0.425   0.032  15.094  0.1918 -0.3387  0.3151
  841MPD2     H12362   0.617   4.619  14.807 -1.6595 -0.9842 -0.2718
  841MPD2    H112363   0.540   0.195  15.099 -1.0253  0.8058 -0.6877
  841MPD2    H212364   0.328   4.572  15.127 -0.8646 -0.8704 -1.7685
  841MPD2    H312365   0.371   0.065  15.182 -0.4809  0.8028 -0.5342
  841MPD2     N12366   0.712   0.125  14.880 -0.1659  0.6407 -0.0771
  841MPD2    H512367   0.748   0.065  14.807 -0.4751 -2.1705  2.0600
  841MPD2    N112368   0.482   4.435  14.926  0.0960  0.2076 -0.2936
  841MPD2    H712369   0.544   4.407  14.851 -0.6681  0.9799 -1.2088
  842MPD2     C12370   0.705   0.102  16.537 -0.2825 -0.2736  0.5295
  842MPD2    C112371   0.762   0.221  16.572 -0.0300 -0.1443 -0.7735
  842MPD2    C212372   0.810   0.237  16.703  0.7695 -0.2968  0.3566
  842MPD2    C312373   0.812   0.136  16.798  0.3106  0.1578 -0.5125
  842MPD2    C412374   0.768   0.014  16.753 -0.2782  0.0362  0.0602
  842MPD2    C512375   0.709   4.719  16.627 -0.2649 -0.0915  0.5523
  842MPD2     H12376   0.868   0.327  16.721 -0.9368  0.4050  2.3422
  842MPD2    H112377   0.756   4.657  16.823 -0.4176  0.9512  1.0900
  842MPD2    H212378   0.647   0.086  16.446  1.3718 -0.2542 -0.5313
  842MPD2    H312379   0.657   4.627  16.604  2.0241 -1.0051 -0.9530
  842MPD2     N12380   0.842   0.139  16.937 -0.0332 -0.2545  0.1101
  842MPD2    H512381   0.838   0.049  16.984 -1.9679  0.0633  0.5463
  842MPD2    N112382   0.776   0.319  16.473 -0.6749 -0.3681  0.1309
  842MPD2    H712383   0.742   0.297  16.380  1.2231  1.8705 -1.1004
  843MPD2     C12384   3.702   4.241   0.153 -0.2977 -0.3999  0.1783
  843MPD2    C112385   3.808   4.237   0.244 -0.0822  0.6278 -0.1806
  843MPD2    C212386   3.897   4.341   0.238  0.3232 -0.0962  0.2397
  843MPD2    C312387   3.889   4.452   0.158  0.5254 -0.2766 -0.7181
  843MPD2    C412388   3.799   4.441   0.053  0.1544  0.0092  0.0432
  843MPD2    C512389   3.700   4.344   0.062 -0.4561 -0.8075 -0.0058
  843MPD2     H12390   3.978   4.339   0.310 -0.9758 -2.2103  1.6377
  843MPD2    H112391   3.786   4.513  17.671 -0.8085 -0.5749 -0.3367
  843MPD2    H212392   3.632   4.159   0.153 -2.1388  1.1891 -1.8737
  843MPD2    H312393   3.622   4.347  17.685  0.7501  1.3400 -1.1833
  843MPD2     N12394   3.979   4.555   0.168  0.5618 -0.2087 -0.5641
  843MPD2    H512395   3.993   4.598   0.077 -2.6420  0.0500 -0.9351
  843MPD2    N112396   3.808   4.130   0.336 -0.5640 -0.9663  0.1943
  843MPD2    H712397   3.740   4.056   0.326 -1.2471 -0.5756  1.9721
  844MPD2     C12398   1.451   4.113  16.557  1.0788 -0.0506 -0.4084
  844MPD2    C112399   1.590   4.091  16.585  0.2588  0.0251  0.0340
  844MPD2    C212400   1.630   4.092  16.718 -0.5213  0.1759  0.5165
  844MPD2    C312401   1.538   4.117  16.822 -0.2198  0.0368 -0.1212
  844MPD2    C412402   1.411   4.156  16.789 -0.2020 -0.0614  1.1046
  844MPD2    C512403   1.371   4.151  16.662  0.3373 -0.3735  0.2631
  844MPD2     H12404   1.733   4.072  16.743 -0.3088  1.2367  0.5031
  844MPD2    H112405   1.340   4.178  16.867  0.8756 -0.7192  2.2713
  844MPD2    H212406   1.409   4.091  16.460  1.6939 -1.0189 -0.4546
  844MPD2    H312407   1.268   4.182  16.647  1.1977  2.1772 -0.4206
  844MPD2     N12408   1.570   4.126  16.963  0.6245 -0.1318 -0.4988
  844MPD2    H512409   1.493   4.158  17.022  1.0299 -0.0530 -0.0141
  844MPD2    N112410   1.688   4.085  16.485  0.3423 -0.7172  0.1931
  844MPD2    H712411   1.783   4.073  16.519  1.0707 -0.6374 -1.8377
  845MPD2     C12412   1.610   0.311  16.920  0.1005  0.5154 -1.2639
  845MPD2    C112413   1.739   0.299  16.978 -0.2982  0.2647  0.5384
  845MPD2    C212414   1.761   0.175  17.039 -0.0756 -0.2746 -0.1336
  845MPD2    C312415   1.677   0.062  17.025 -0.2535 -0.1336  0.4029
  845MPD2    C412416   1.564   0.080  16.949  0.2584  0.3861 -0.0379
  845MPD2    C512417   1.528   0.206  16.909  0.0175  0.3904 -0.3516
  845MPD2     H12418   1.844   0.157  17.106  1.2622 -0.0983 -1.7167
  845MPD2    H112419   1.493   0.003  16.921  3.0819 -2.2592  0.1029
  845MPD2    H212420   1.579   0.406  16.876 -0.2654  0.9175 -0.1220
  845MPD2    H312421   1.439   0.201  16.848 -1.4307 -1.5809  1.9340
  845MPD2     N12422   1.714   4.666  17.088  0.3622  0.4266  0.4221
  845MPD2    H512423   1.802   4.676  17.137  0.7083  0.5385 -0.2345
  845MPD2    N112424   1.821   0.409  16.997  0.4590  0.5537 -0.1616
  845MPD2    H712425   1.784   0.502  16.979 -1.0041 -0.2339 -1.2488
  846MPD2     C12426   3.968   1.691  13.970 -0.0108 -0.1096 -0.0818
  846MPD2    C112427   3.851   1.768  13.971 -0.6151 -0.2004 -0.2700
  846MPD2    C212428   3.771   1.780  14.082 -0.8955 -0.5922 -0.2257
  846MPD2    C312429   3.809   1.720  14.202 -0.1296 -0.0718  0.3654
  846MPD2    C412430   3.929   1.652  14.206 -0.1176 -0.1743  0.7731
  846MPD2    C512431   4.008   1.645  14.091  0.0567 -0.1275  0.4545
  846MPD2     H12432   3.679   1.838  14.071  0.2814  1.0161 -1.5986
  846MPD2    H112433   3.973   1.611  14.297 -1.6447  0.6351  1.8636
  846MPD2    H212434   4.023   1.669  13.879  1.7571 -0.0282  0.9586
  846MPD2    H312435   4.103   1.592  14.099  0.4255  0.7079  1.4844
  846MPD2     N12436   3.724   1.735  14.316  0.4228  0.1934  0.7600
  846MPD2    H512437   3.639   1.789  14.298  1.8106  2.6401  1.4913
  846MPD2    N112438   3.822   1.840  13.855 -0.7354 -0.1796  0.2927
  846MPD2    H712439   3.757   1.915  13.875 -0.4982 -0.1680  1.0499
  847MPD2     C12440   4.292   2.580  14.370  0.2955 -0.2718 -0.2410
  847MPD2    C112441   4.334   2.643  14.488  0.0842 -0.3155  0.6818
  847MPD2    C212442   4.382   2.572  14.592  0.0409 -0.8063  0.2456
  847MPD2    C312443   4.380   2.433  14.580 -0.9143 -0.4617  0.2776
  847MPD2    C412444   4.346   2.363  14.464  0.2352 -0.5182  0.2945
  847MPD2    C512445   4.310   2.447  14.351  0.4440 -0.4052  0.0715
  847MPD2     H12446   4.422   2.613  14.684 -1.1009  0.3627  0.2217
  847MPD2    H112447   4.371   2.258  14.463  0.7613 -0.3965  0.8574
  847MPD2    H212448   4.268   2.643  14.286  1.7208  2.3864  1.3554
  847MPD2    H312449   4.303   2.402  14.252  0.8659 -0.6983  0.1776
  847MPD2     N12450   4.425   2.365  14.693  0.5480  0.4536 -0.3678
  847MPD2    H512451   4.471   2.423  14.764 -0.0814  0.0730  0.3524
  847MPD2    N112452   4.337   2.784  14.511 -0.1050  0.3836  0.1604
  847MPD2    H712453   4.373   2.807  14.603  0.9413 -1.8036  0.3047
  848MPD2     C12454   1.185   0.400  17.022 -0.7682 -0.3932 -0.5608
  848MPD2    C112455   1.301   0.400  17.094 -0.4319 -0.5772  0.3903
  848MPD2    C212456   1.391   0.510  17.080  0.2773 -0.3989 -0.5074
  848MPD2    C312457   1.361   0.609  16.980  0.0206 -0.6444 -0.8940
  848MPD2    C412458   1.243   0.604  16.909  0.2565 -0.0139 -0.2702
  848MPD2    C512459   1.155   0.507  16.941 -0.2317  0.0112  0.3951
  848MPD2     H12460   1.484   0.505  17.137  0.8798  1.5657 -1.3287
  848MPD2    H112461   1.221   0.677  16.832  2.6916  0.7718 -0.2171
  848MPD2    H212462   1.117   0.316  17.017 -1.2807 -0.1179  2.1086
  848MPD2    H312463   1.063   0.505  16.884 -1.3647  0.2260  2.2168
  848MPD2     N12464   1.453   0.717  16.942 -0.5551  0.1442 -1.0298
  848MPD2    H512465   1.425   0.774  16.863 -0.7937  1.5081  0.0396
  848MPD2    N112466   1.337   0.292  17.174  0.1230  0.6801 -0.0471
  848MPD2    H712467   1.427   0.304  17.219 -0.0767  1.2054  0.2157
  849MPD2     C12468   1.632   0.353  14.051 -0.2945 -0.2252  0.7799
  849MPD2    C112469   1.576   0.473  14.018  0.3735  0.0393 -0.5328
  849MPD2    C212470   1.639   0.589  14.050  0.2075  0.2668  0.0722
  849MPD2    C312471   1.761   0.587  14.119 -0.7687 -0.3251 -0.1876
  849MPD2    C412472   1.815   0.468  14.156 -0.5930 -0.1653 -0.1481
  849MPD2    C512473   1.751   0.357  14.109 -0.1981  0.2775 -0.6382
  849MPD2     H12474   1.595   0.684  14.023 -0.3919  0.6958  2.5159
  849MPD2    H112475   1.909   0.466  14.210 -0.6704  2.1953  0.0840
  849MPD2    H212476   1.589   0.254  14.036  0.5485 -0.1456 -1.9954
  849MPD2    H312477   1.803   0.262  14.106 -0.8199 -0.0452 -1.1916
  849MPD2     N12478   1.818   0.714  14.128 -0.1454 -0.1133 -0.0533
  849MPD2    H512479   1.777   0.795  14.084  0.2383  0.2539  0.2667
  849MPD2    N112480   1.447   0.476  13.966  0.4287 -0.0993 -0.5025
  849MPD2    H712481   1.414   0.388  13.926  1.4885 -0.2533 -1.0395
  850MPD2     C12482   3.816   3.637  14.803  0.0250 -0.1618 -0.0621
  850MPD2    C112483   3.811   3.552  14.911 -0.6658 -0.5780  0.7539
  850MPD2    C212484   3.924   3.486  14.949  0.5845 -0.1410 -0.0895
  850MPD2    C312485   4.046   3.515  14.889  0.5094 -0.6619 -0.0186
  850MPD2    C412486   4.053   3.604  14.783  0.0465  0.5923 -1.0138
  850MPD2    C512487   3.934   3.670  14.751 -0.8783  0.7532 -0.5042
  850MPD2     H12488   3.925   3.422  15.036  0.3740 -3.1853 -2.3148
  850MPD2    H112489   4.143   3.624  14.726  1.5407 -1.9982  0.4016
  850MPD2    H212490   3.725   3.682  14.766 -0.0319 -0.4514 -0.2732
  850MPD2    H312491   3.920   3.721  14.657  1.1109 -1.7793 -2.1570
  850MPD2     N12492   4.170   3.480  14.936 -0.2490  0.1695 -0.0385
  850MPD2    H512493   4.252   3.522  14.893 -0.9443  0.3386 -1.2097
  850MPD2    N112494   3.701   3.535  14.990  0.4721 -0.2451  0.0702
  850MPD2    H712495   3.709   3.450  15.045 -1.0548 -1.5256 -1.6637
  851MPD2     C12496   4.017   3.415  15.538  0.9807 -0.4977  0.3712
  851MPD2    C112497   3.953   3.363  15.425  0.1916  0.7814 -0.4789
  851MPD2    C212498   4.003   3.249  15.360 -0.0260 -0.1020  0.3246
  851MPD2    C312499   4.121   3.191  15.400 -0.7267 -0.1124  0.8184
  851MPD2    C412500   4.183   3.242  15.512  0.7066 -0.3693 -0.2279
  851MPD2    C512501   4.131   3.356  15.576 -0.3392 -0.6979  0.3550
  851MPD2     H12502   3.950   3.201  15.278 -0.4110 -0.2475  0.6614
  851MPD2    H112503   4.272   3.211  15.566  1.6937 -0.2378 -1.7853
  851MPD2    H212504   3.984   3.505  15.589  2.5170  1.1312 -1.4824
  851MPD2    H312505   4.180   3.389  15.667 -1.7991  0.4774  0.7197
  851MPD2     N12506   4.173   3.078  15.330 -0.6150  0.2383  0.1288
  851MPD2    H512507   4.111   3.039  15.259  0.4212 -1.6484  0.2537
  851MPD2    N112508   3.837   3.427  15.391 -0.1366 -0.8567 -0.0196
  851MPD2    H712509   3.801   3.503  15.449 -1.6813 -0.6482 -1.2343
  852MPD2     C12510   3.252   0.471  10.077 -0.2227 -0.0746 -0.1784
  852MPD2    C112511   3.312   0.557  10.175  0.0933 -0.6543  0.1328
  852MPD2    C212512   3.320   0.693  10.147 -0.0766 -0.4231 -0.5446
  852MPD2    C312513   3.283   0.748  10.029 -0.0929 -0.3283 -0.2349
  852MPD2    C412514   3.245   0.664   9.930  0.9510 -0.5565  0.4334
  852MPD2    C512515   3.231   0.526   9.953 -0.5661 -0.4578  0.4300
  852MPD2     H12516   3.352   0.765  10.222 -0.4207  0.2265 -1.0198
  852MPD2    H112517   3.224   0.696   9.829  0.2040 -0.9851  0.4568
  852MPD2    H212518   3.233   0.368  10.102 -1.1949 -0.3439 -2.0383
  852MPD2    H312519   3.191   0.453   9.885 -1.3284 -0.2868  0.6932
  852MPD2     N12520   3.295   0.892  10.009  0.1701 -0.0220 -0.3634
  852MPD2    H512521   3.335   0.945  10.086 -1.3283  0.5978  0.0026
  852MPD2    N112522   3.371   0.515  10.292 -0.2300  0.0461  0.0904
  852MPD2    H712523   3.393   0.583  10.364  0.3736 -0.5922  0.5177
  853MPD2     C12524   0.962   1.479  12.249 -0.6021  0.1794  0.4135
  853MPD2    C112525   0.852   1.408  12.305  0.4192 -0.6381  0.5216
  853MPD2    C212526   0.789   1.323  12.210  0.1802 -0.2329  0.4904
  853MPD2    C312527   0.844   1.295  12.082 -0.5365 -0.2201 -0.0510
  853MPD2    C412528   0.960   1.356  12.042  0.1061 -0.2736  0.2628
  853MPD2    C512529   1.016   1.450  12.129 -0.1073 -0.4179  0.1162
  853MPD2     H12530   0.696   1.278  12.243  0.0596  0.1354  0.6614
  853MPD2    H112531   1.005   1.344  11.944 -1.3648  0.2876 -0.4760
  853MPD2    H212532   1.019   1.547  12.311 -0.0301  1.7316 -1.8086
  853MPD2    H312533   1.101   1.507  12.093 -0.2899  0.0015  0.3494
  853MPD2     N12534   0.786   1.212  11.995  0.3821 -0.3559 -0.2567
  853MPD2    H512535   0.842   1.195  11.912  0.6081  0.5315 -0.2862
  853MPD2    N112536   0.807   1.436  12.441 -0.4449 -0.3477  0.3968
  853MPD2    H712537   0.858   1.502  12.498 -0.6199  1.2178 -1.2603
  854MPD2     C12538   1.807   0.906  12.845 -0.0643  0.3699  0.1774
  854MPD2    C112539   1.922   0.985  12.868  0.4162  0.5716 -0.4657
  854MPD2    C212540   2.010   0.938  12.959  0.4770  0.3222  1.3077
  854MPD2    C312541   2.000   0.805  13.002  0.2157 -0.0842 -0.6006
  854MPD2    C412542   1.896   0.728  12.957 -0.6812  0.3798  0.3793
  854MPD2    C512543   1.793   0.775  12.890 -0.0075  0.1119  0.2955
  854MPD2     H12544   2.104   0.987  12.983  0.3717  0.4675  1.4262
  854MPD2    H112545   1.888   0.624  12.985 -0.2863  0.5100  0.9842
  854MPD2    H212546   1.726   0.931  12.778  0.9756 -0.9372 -1.5645
  854MPD2    H312547   1.710   0.712  12.860 -0.5435  1.8920 -1.9643
  854MPD2     N12548   2.101   0.738  13.077 -0.1991  1.2714  0.5994
  854MPD2    H512549   2.090   0.638  13.091  3.4404  1.1884  2.8841
  854MPD2    N112550   1.952   1.095  12.784  0.3995  0.2459  0.0347
  854MPD2    H712551   1.873   1.126  12.728  2.2860  0.5548 -2.4625
  855MPD2     C12552   2.963   0.595  13.749  0.2614 -0.3251  0.0015
  855MPD2    C112553   2.844   0.648  13.763 -0.7067  0.4333  0.0236
  855MPD2    C212554   2.755   0.661  13.657 -0.1132 -0.2745  0.5068
  855MPD2    C312555   2.785   0.607  13.531 -0.4781  0.6562 -0.1581
  855MPD2    C412556   2.915   0.541  13.517  0.1422  0.8149  0.9154
  855MPD2    C512557   3.001   0.541  13.624 -0.5542 -0.2289  0.2385
  855MPD2     H12558   2.669   0.723  13.680 -1.2720 -1.9391  0.6561
  855MPD2    H112559   2.942   0.510  13.417  0.2132  1.2411  0.8046
  855MPD2    H212560   3.034   0.573  13.828  2.7967  1.9136 -1.6326
  855MPD2    H312561   3.091   0.481  13.621 -1.1312 -1.0440 -0.4257
  855MPD2     N12562   2.694   0.597  13.422  0.4728  0.8097 -0.0269
  855MPD2    H512563   2.732   0.566  13.334  1.5264 -0.5463  0.9036
  855MPD2    N112564   2.809   0.707  13.889 -0.4288 -0.0609  0.3662
  855MPD2    H712565   2.719   0.754  13.885 -0.8841 -0.8627  1.1957
  856MPD2     C12566   0.344   1.738  14.503  0.1358  0.9605 -0.3708
  856MPD2    C112567   0.404   1.843  14.432 -0.6562  0.6518  0.4581
  856MPD2    C212568   0.317   1.919  14.355 -0.2464 -0.3914  0.2915
  856MPD2    C312569   0.176   1.906  14.363 -0.1255  0.3633  0.0767
  856MPD2    C412570   0.135   1.806  14.443 -0.6741  0.0442 -0.5419
  856MPD2    C512571   0.216   1.719  14.512  0.4382 -0.2417  0.0260
  856MPD2     H12572   0.362   2.010  14.317 -1.4633  0.8696  1.8965
  856MPD2    H112573   0.029   1.805  14.465  0.1408 -1.0839  3.3522
  856MPD2    H212574   0.402   1.664  14.557  0.0255  1.2496  0.1514
  856MPD2    H312575   0.176   1.641  14.576  1.1663 -0.4979  0.1564
  856MPD2     N12576   0.080   1.989  14.307 -0.0301 -0.4569 -0.2380
  856MPD2    H512577   4.709   1.970  14.337  0.0662 -1.1310 -0.3727
  856MPD2    N112578   0.545   1.876  14.422  0.2417 -0.4061 -0.6628
  856MPD2    H712579   0.567   1.958  14.365 -0.8706 -0.2900 -0.9166
  857MPD2     C12580   1.145   3.929  13.521  0.3508  0.3161  0.0541
  857MPD2    C112581   1.284   3.928  13.497  0.3257 -0.2622 -0.1074
  857MPD2    C212582   1.358   4.029  13.555 -0.1526 -0.5643  0.1758
  857MPD2    C312583   1.296   4.130  13.630  0.3368 -0.2205  0.8506
  857MPD2    C412584   1.163   4.129  13.654  0.4306  0.2969  0.3557
  857MPD2    C512585   1.088   4.033  13.595  0.0600 -0.7696  0.6486
  857MPD2     H12586   1.464   4.040  13.536  0.1484  1.3610  2.9643
  857MPD2    H112587   1.118   4.203  13.719  0.2618 -0.0401  0.6204
  857MPD2    H212588   1.077   3.859  13.473  0.1276 -1.2750  2.7274
  857MPD2    H312589   0.981   4.047  13.604  0.0656  0.3854 -1.0363
  857MPD2     N12590   1.386   4.229  13.680  0.4253 -0.1216 -0.0870
  857MPD2    H512591   1.482   4.201  13.664  0.5258  0.7295 -0.9150
  857MPD2    N112592   1.337   3.842  13.406  0.3902 -0.5362  0.8815
  857MPD2    H712593   1.278   3.761  13.386 -2.3490  1.8784 -0.7267
  858MPD2     C12594   1.758   2.978  16.758 -0.0384  0.5462 -0.1767
  858MPD2    C112595   1.896   2.984  16.738  1.0636 -0.2369  0.5931
  858MPD2    C212596   1.965   3.056  16.830 -0.1992 -0.3650 -0.1641
  858MPD2    C312597   1.901   3.105  16.943  0.4035  0.1396  0.1736
  858MPD2    C412598   1.766   3.090  16.968 -0.2207 -0.2244  0.1303
  858MPD2    C512599   1.698   3.026  16.877  0.5359  0.3517  0.0162
  858MPD2     H12600   2.062   3.090  16.797 -0.3743  0.8611  0.5801
  858MPD2    H112601   1.716   3.144  17.048  0.9546 -0.5092  1.0555
  858MPD2    H212602   1.691   2.929  16.688  0.9687  1.9543 -2.0957
  858MPD2    H312603   1.591   3.010  16.880  0.7456 -0.7324  1.1435
  858MPD2     N12604   1.978   3.166  17.046  1.2434 -0.1149  0.5260
  858MPD2    H512605   1.926   3.203  17.125  0.3395 -1.6280  0.6607
  858MPD2    N112606   1.949   2.924  16.622 -0.1652  0.3258 -0.2058
  858MPD2    H712607   1.884   2.878  16.560 -0.3826 -0.5142  0.6409
  859MPD2     C12608   0.555   0.196  15.473 -0.1450 -0.3226  0.0682
  859MPD2    C112609   0.664   0.186  15.389  0.0649 -0.1999  0.3024
  859MPD2    C212610   0.696   0.066  15.335 -0.6790  0.3394 -0.4633
  859MPD2    C312611   0.623   4.677  15.375 -0.6068  0.0152  0.1858
  859MPD2    C412612   0.523   4.691  15.470 -0.0241 -0.7015  0.2143
  859MPD2    C512613   0.481   0.090  15.505 -0.1591  0.0920  0.0665
  859MPD2     H12614   0.762   0.059  15.249  0.3794  0.7610  0.3102
  859MPD2    H112615   0.453   4.616  15.503 -0.4091  0.8283  2.9101
  859MPD2    H212616   0.528   0.293  15.513  1.8204  0.0906  0.3838
  859MPD2    H312617   0.414   0.088  15.590 -0.1080 -2.3076  0.0460
  859MPD2     N12618   0.647   4.548  15.326  0.7350  0.1520  0.6815
  859MPD2    H512619   0.576   4.478  15.345  0.5420  0.5505  1.4333
  859MPD2    N112620   0.729   0.304  15.343  0.4781  0.3528  0.1278
  859MPD2    H712621   0.695   0.396  15.371 -3.0444 -0.9402  0.1394
  860MPD2     C12622   3.278   1.026  11.770  0.4138 -0.1577  0.1120
  860MPD2    C112623   3.278   1.092  11.893 -0.6246 -0.5290 -0.4494
  860MPD2    C212624   3.171   1.068  11.980  0.5374 -0.3781 -0.4194
  860MPD2    C312625   3.067   0.986  11.942  0.7838 -0.5180 -0.0822
  860MPD2    C412626   3.070   0.924  11.821 -0.8202  0.0692  0.2816
  860MPD2    C512627   3.178   0.939  11.737  0.7659 -0.1825 -0.0209
  860MPD2     H12628   3.171   1.111  12.080  1.3720 -1.9346  0.2628
  860MPD2    H112629   2.986   0.868  11.781 -0.2108 -0.9702  0.4636
  860MPD2    H212630   3.362   1.042  11.704 -0.8628 -0.4930 -1.6050
  860MPD2    H312631   3.185   0.882  11.645 -0.4849  0.4528 -0.5148
  860MPD2     N12632   2.961   0.967  12.041 -0.0118 -0.3982  0.4970
  860MPD2    H512633   2.969   1.030  12.120  0.5656 -1.6155  1.4272
  860MPD2    N112634   3.391   1.154  11.953 -0.1697  0.1705  0.4307
  860MPD2    H712635   3.380   1.190  12.047  0.8572  1.3774  0.0917
  861MPD2     C12636   1.999   3.763  10.970 -0.4191  0.1997 -0.5314
  861MPD2    C112637   1.997   3.884  11.033  0.7000 -0.5993 -0.7044
  861MPD2    C212638   1.943   3.995  10.968 -1.1369  0.2912 -0.0955
  861MPD2    C312639   1.871   3.976  10.854 -0.0737 -0.1458  0.8184
  861MPD2    C412640   1.866   3.848  10.798 -0.0499 -0.4012 -0.1299
  861MPD2    C512641   1.939   3.743  10.849 -0.7995 -0.7332 -0.5405
  861MPD2     H12642   1.947   4.086  11.026  2.8520 -0.6423  1.0889
  861MPD2    H112643   1.809   3.826  10.709  2.3688  2.9617 -2.5119
  861MPD2    H212644   2.054   3.677  11.007  0.6389  0.8986 -0.4935
  861MPD2    H312645   1.931   3.641  10.814 -2.2154 -1.2702  1.3720
  861MPD2     N12646   1.797   4.080  10.792 -0.5202 -0.4972 -0.3845
  861MPD2    H512647   1.758   4.062  10.701 -3.6258  1.5832  0.5561
  861MPD2    N112648   2.077   3.908  11.147 -0.1332  0.7019  0.3852
  861MPD2    H712649   2.094   4.007  11.163  2.0583  0.3472  0.2072
  862MPD2     C12650   1.648   4.377  10.135 -0.3915  0.1709  0.2444
  862MPD2    C112651   1.634   4.286  10.239  0.0097  0.3482 -0.0916
  862MPD2    C212652   1.602   4.159  10.213  0.0554 -0.1209  0.5032
  862MPD2    C312653   1.585   4.115  10.084 -0.0828 -0.1412  0.0721
  862MPD2    C412654   1.612   4.202   9.979  0.1949  0.4589 -0.4026
  862MPD2    C512655   1.644   4.329  10.001 -0.0021 -0.2162 -0.0594
  862MPD2     H12656   1.587   4.092  10.297 -2.6211 -1.6184 -1.1871
  862MPD2    H112657   1.606   4.170   9.875 -2.4849  1.6574 -0.6113
  862MPD2    H212658   1.681   4.478  10.153 -0.4058  0.2285 -0.0460
  862MPD2    H312659   1.653   4.400   9.919 -1.2116 -1.9951 -1.7574
  862MPD2     N12660   1.548   3.985  10.043 -0.1771  0.1247 -0.3272
  862MPD2    H512661   1.537   3.980   9.942  0.2609 -0.2624 -0.3548
  862MPD2    N112662   1.658   4.314  10.374 -0.2313  0.2883  0.0669
  862MPD2    H712663   1.645   4.246  10.448 -0.1004 -0.3171 -0.4609
  863MPD2     C12664   0.280   1.638  17.225  0.1263 -0.3790 -0.1903
  863MPD2    C112665   0.375   1.605  17.133  0.3949 -0.1132 -0.2843
  863MPD2    C212666   0.497   1.551  17.178  0.4393 -0.2489  0.2469
  863MPD2    C312667   0.518   1.536  17.315  0.7134 -0.4910  0.1072
  863MPD2    C412668   0.416   1.572  17.398 -0.3731 -1.1189 -0.5334
  863MPD2    C512669   0.299   1.622  17.352 -0.3820  1.0378  0.1681
  863MPD2     H12670   0.572   1.529  17.102  0.7791  0.7384  0.3037
  863MPD2    H112671   0.434   1.552  17.503  1.9141 -1.9020 -1.0565
  863MPD2    H212672   0.179   1.663  17.194  0.2741 -0.1125 -0.4557
  863MPD2    H312673   0.207   1.628  17.410  0.7744 -1.5992  2.2965
  863MPD2     N12674   0.632   1.473  17.373 -0.2720  0.3356 -1.0281
  863MPD2    H512675   0.633   1.452  17.472  0.7076 -2.1451 -1.5656
  863MPD2    N112676   0.337   1.608  16.995  0.3545 -0.3143  0.0616
  863MPD2    H712677   0.247   1.651  16.976  1.0316  0.7256 -0.8383
  864MPD2     C12678   1.249   3.009  17.166 -0.1097 -0.1297 -0.2969
  864MPD2    C112679   1.195   2.983  17.040 -0.3275 -0.0593 -0.2557
  864MPD2    C212680   1.243   3.056  16.932 -0.2431  0.1210  0.0209
  864MPD2    C312681   1.344   3.141  16.946  0.3675 -0.2739 -0.3484
  864MPD2    C412682   1.400   3.169  17.076 -0.5984  0.1242  0.5384
  864MPD2    C512683   1.347   3.098  17.182  0.1449  0.4777  0.4900
  864MPD2     H12684   1.198   3.047  16.834 -0.2553  0.7494 -0.0361
  864MPD2    H112685   1.480   3.239  17.094  0.3385 -0.6651 -0.5931
  864MPD2    H212686   1.231   2.952  17.257  0.7743  0.1466  0.0566
  864MPD2    H312687   1.382   3.122  17.282  1.0069  1.7164 -0.0976
  864MPD2     N12688   1.387   3.215  16.829 -0.0491  0.4431 -0.5824
  864MPD2    H512689   1.343   3.197  16.739  1.4875 -0.1408 -1.2175
  864MPD2    N112690   1.099   2.884  17.040 -0.1126  0.2685  0.4261
  864MPD2    H712691   1.080   2.828  17.123 -0.2030  0.7903  0.7630
  865MPD2     C12692   1.175   3.432  15.895  0.4640 -0.7828 -0.0141
  865MPD2    C112693   1.141   3.346  15.998  0.5583  1.2377 -0.4032
  865MPD2    C212694   1.203   3.359  16.125  1.4545  0.1632 -0.3960
  865MPD2    C312695   1.293   3.464  16.148  0.8821 -0.3995 -0.5480
  865MPD2    C412696   1.316   3.554  16.046  0.2309 -0.4549 -0.0226
  865MPD2    C512697   1.252   3.544  15.922 -0.2779  0.1131  0.3672
  865MPD2     H12698   1.192   3.276  16.194  1.3953  0.2147 -0.3426
  865MPD2    H112699   1.382   3.638  16.066  0.6241 -0.5303 -1.0167
  865MPD2    H212700   1.136   3.418  15.795 -1.8997 -0.4417  0.8612
  865MPD2    H312701   1.299   3.606  15.847 -2.0920  3.4970  2.0208
  865MPD2     N12702   1.377   3.475  16.261 -0.5270 -0.2100 -0.0215
  865MPD2    H512703   1.460   3.533  16.258  0.0381 -0.9675  0.8479
  865MPD2    N112704   1.084   3.226  15.959  1.0179 -0.4398 -0.1665
  865MPD2    H712705   1.084   3.215  15.859 -0.8993  0.2654 -0.2403
  866MPD2     C12706   2.738   4.391  11.370 -0.1173  0.0030  0.2442
  866MPD2    C112707   2.695   4.377  11.237 -0.3949  0.3811 -0.4693
  866MPD2    C212708   2.578   4.443  11.195 -0.1996 -0.3007 -0.0713
  866MPD2    C312709   2.498   4.508  11.288  0.4176 -0.8110 -0.5748
  866MPD2    C412710   2.544   4.516  11.421  0.1325  0.0769  0.7319
  866MPD2    C512711   2.663   4.461  11.459 -0.4097 -0.6264 -0.1172
  866MPD2     H12712   2.545   4.424  11.093 -2.6565 -1.4760  0.9532
  866MPD2    H112713   2.492   4.574  11.496 -0.8969 -1.4589  1.2020
  866MPD2    H212714   2.816   4.325  11.406  1.7963  0.6784 -2.6084
  866MPD2    H312715   2.707   4.482  11.556  0.4017 -0.1070 -0.5990
  866MPD2     N12716   2.376   4.565  11.255  0.4763 -0.2242  0.1787
  866MPD2    H512717   2.319   4.596  11.333  1.0914  0.8663  0.1909
  866MPD2    N112718   2.785   4.319  11.148  0.1762 -0.2931 -0.8189
  866MPD2    H712719   2.871   4.280  11.186 -0.1245 -0.2159 -0.0481
  867MPD2     C12720   0.545   2.606  17.119 -0.3842  0.4192 -0.0720
  867MPD2    C112721   0.541   2.609  17.253 -0.0576 -0.3626  0.4538
  867MPD2    C212722   0.504   2.718  17.320  0.4128  0.2141  0.1396
  867MPD2    C312723   0.493   2.836  17.244 -0.2656  0.7154  0.1721
  867MPD2    C412724   0.497   2.836  17.105 -0.2728 -0.4066  0.0919
  867MPD2    C512725   0.516   2.715  17.046  0.3974 -0.0836 -0.4597
  867MPD2     H12726   0.483   2.729  17.426  1.8588 -1.0964  0.5623
  867MPD2    H112727   0.468   2.921  17.045  1.2662  0.7607  0.9932
  867MPD2    H212728   0.570   2.512  17.072 -2.0494 -0.0781  0.0331
  867MPD2    H312729   0.511   2.710  16.938  0.9281 -0.7345 -0.4599
  867MPD2     N12730   0.460   2.960  17.302  0.3345 -0.0323 -0.0190
  867MPD2    H512731   0.435   3.030  17.232  0.5762 -0.2473 -0.3239
  867MPD2    N112732   0.552   2.489  17.317 -0.1807 -0.4722 -0.1923
  867MPD2    H712733   0.558   2.409  17.254 -0.9476  0.0932 -0.9819
  868MPD2     C12734   1.596   1.891  12.917 -0.3623  0.2074 -0.0830
  868MPD2    C112735   1.689   1.988  12.953 -0.4591 -0.0172 -0.3972
  868MPD2    C212736   1.639   2.104  13.009  0.1033  0.5804  0.0069
  868MPD2    C312737   1.504   2.125  13.013  0.2904  1.0312  0.1530
  868MPD2    C412738   1.414   2.038  12.956 -0.0078 -0.2785 -0.3191
  868MPD2    C512739   1.458   1.913  12.914 -0.4306  0.4541 -0.4608
  868MPD2     H12740   1.710   2.179  13.041 -0.4769  0.7003  1.0384
  868MPD2    H112741   1.308   2.064  12.953 -0.2937 -1.2269  1.6123
  868MPD2    H212742   1.633   1.794  12.885 -1.3468 -0.4855  0.8610
  868MPD2    H312743   1.392   1.842  12.866  0.8216 -0.0095 -1.5177
  868MPD2     N12744   1.465   2.231  13.098 -0.0230 -0.2748  0.1649
  868MPD2    H512745   1.542   2.286  13.135  0.6458 -1.0871 -0.0102
  868MPD2    N112746   1.831   1.964  12.940 -0.3183  0.2625 -0.3279
  868MPD2    H712747   1.857   1.868  12.922 -0.4360  0.0567  0.6058
  869MPD2     C12748   4.147   3.920   2.333 -0.6156  0.8178  0.0580
  869MPD2    C112749   4.179   3.827   2.236 -0.1471 -0.0455 -0.6359
  869MPD2    C212750   4.122   3.837   2.116  0.2212  0.0972  1.1973
  869MPD2    C312751   4.051   3.956   2.084  0.4224 -0.4149 -0.3627
  869MPD2    C412752   4.025   4.047   2.179 -0.7290 -0.1287 -0.3057
  869MPD2    C512753   4.067   4.027   2.308  0.2606  0.5034 -0.7415
  869MPD2     H12754   4.164   3.772   2.039  0.3242  1.4286  0.1379
  869MPD2    H112755   3.967   4.133   2.150 -1.2011 -0.5948 -0.7218
  869MPD2    H212756   4.183   3.915   2.435  0.8990 -2.1355 -0.6233
  869MPD2    H312757   4.054   4.103   2.385 -2.2826 -1.1651  0.5077
  869MPD2     N12758   4.005   3.998   1.959 -0.4913 -0.2645  0.4415
  869MPD2    H512759   3.978   4.096   1.953 -2.0554 -0.7354 -0.1907
  869MPD2    N112760   4.271   3.729   2.275 -0.1688  0.2848 -0.3525
  869MPD2    H712761   4.317   3.736   2.366 -0.4191 -0.3299 -0.1785
  870MPD2     C12762   3.142   2.314   1.860  0.2010 -0.7086  0.1842
  870MPD2    C112763   3.229   2.394   1.784  0.1819  0.4780  0.8689
  870MPD2    C212764   3.210   2.531   1.772 -0.0565 -0.0788  0.3215
  870MPD2    C312765   3.100   2.592   1.833  0.5028 -0.5792  0.4475
  870MPD2    C412766   3.028   2.517   1.921 -0.5736 -1.1408 -0.0030
  870MPD2    C512767   3.051   2.382   1.935  0.1814 -0.1753 -0.3106
  870MPD2     H12768   3.266   2.596   1.706  0.3263 -0.3570  0.3717
  870MPD2    H112769   2.943   2.548   1.981  1.8485  1.3145  2.1265
  870MPD2    H212770   3.171   2.217   1.898  1.9365 -0.4451 -0.4690
  870MPD2    H312771   2.992   2.325   2.006  2.2217 -0.4021  1.2085
  870MPD2     N12772   3.083   2.732   1.814 -0.0114  0.4047  0.3932
  870MPD2    H512773   3.135   2.789   1.748  2.6288  0.6933  2.7225
  870MPD2    N112774   3.336   2.325   1.725 -0.0278 -0.1129  0.5561
  870MPD2    H712775   3.342   2.224   1.739 -1.1164 -0.2189  0.2366
  871MPD2     C12776   3.828   3.565  16.530  0.6685  1.0172 -0.7465
  871MPD2    C112777   3.819   3.465  16.622  0.2395  0.2066 -0.5672
  871MPD2    C212778   3.873   3.337  16.593 -0.6972  0.1867  0.6376
  871MPD2    C312779   3.922   3.302  16.475  0.2076 -0.2790 -0.0742
  871MPD2    C412780   3.927   3.402  16.379  0.1751  1.0567 -0.1252
  871MPD2    C512781   3.885   3.528  16.410  0.2159 -0.3214 -0.2984
  871MPD2     H12782   3.878   3.263  16.672  2.3248 -0.2286  0.0667
  871MPD2    H112783   3.961   3.391  16.276 -1.9253 -0.1688 -0.6871
  871MPD2    H212784   3.806   3.669  16.552  1.1346  0.9065  0.2243
  871MPD2    H312785   3.903   3.596  16.327 -0.4534 -0.4657 -0.5626
  871MPD2     N12786   3.968   3.170  16.455 -0.5903  0.0954 -0.0955
  871MPD2    H512787   3.957   3.109  16.536 -0.2857  0.6528  0.3621
  871MPD2    N112788   3.763   3.494  16.748  0.2602 -0.2725  0.6169
  871MPD2    H712789   3.742   3.593  16.759  2.5175  0.4035 -1.3078
  872MPD2     C12790   0.025   1.049  14.312  0.0523 -0.1105  0.7138
  872MPD2    C112791   4.690   1.177  14.305 -0.1073  0.0857 -0.5425
  872MPD2    C212792   4.562   1.199  14.364  0.5453  0.1381  0.6551
  872MPD2    C312793   4.500   1.094  14.436  0.0935 -0.3143  0.0837
  872MPD2    C412794   4.555   0.970  14.434 -0.4915 -0.2827 -0.5399
  872MPD2    C512795   4.676   0.952  14.365 -0.7681 -0.1013 -0.6311
  872MPD2     H12796   4.524   1.299  14.380  0.2090 -0.0874  1.2857
  872MPD2    H112797   4.512   0.889  14.492  0.2266 -0.1734  0.1574
  872MPD2    H212798   0.119   1.018  14.266 -0.2729  1.0897 -0.7463
  872MPD2    H312799   4.714   0.851  14.374 -0.0029  0.0695 -2.0473
  872MPD2     N12800   4.383   1.104  14.512 -0.2065  0.0994 -0.1826
  872MPD2    H512801   4.359   1.017  14.557  0.4970  0.9233  1.8037
  872MPD2    N112802   0.030   1.294  14.243 -0.3748  0.4836  0.2105
  872MPD2    H712803   4.718   1.388  14.251 -2.0818 -0.0924 -0.8196
  873MPD2     C12804   1.639   0.324   1.279  0.2431 -0.0315 -0.0476
  873MPD2    C112805   1.673   0.201   1.338 -0.4102  0.0904  0.3909
  873MPD2    C212806   1.627   0.082   1.280  1.0215  0.0198  0.0962
  873MPD2    C312807   1.558   0.082   1.161  0.1900 -0.5233 -0.2082
  873MPD2    C412808   1.531   0.201   1.102  0.6457 -0.1121  0.7431
  873MPD2    C512809   1.570   0.317   1.167 -0.2323 -0.0325  0.3028
  873MPD2     H12810   1.637   4.719   1.343 -1.8851 -0.4387 -0.0766
  873MPD2    H112811   1.472   0.201   1.011  2.9444  2.7620 -0.7457
  873MPD2    H212812   1.665   0.423   1.316  0.3375 -0.5525  1.3007
  873MPD2    H312813   1.546   0.406   1.110  0.6598  0.2053  0.2950
  873MPD2     N12814   1.496   4.686   1.107  0.7236  0.2054  0.1862
  873MPD2    H512815   1.437   4.696   1.025  1.9553 -0.9192 -0.8459
  873MPD2    N112816   1.736   0.197   1.465 -0.6943 -0.1671 -0.7947
  873MPD2    H712817   1.750   0.282   1.519 -2.0406  0.6421 -1.7276
  874MPD2     C12818   1.299   0.924  16.167  0.4563  0.0313 -0.0051
  874MPD2    C112819   1.254   0.860  16.280  0.0032  0.5134  0.3106
  874MPD2    C212820   1.302   0.894  16.405 -0.2961 -0.4801 -0.2027
  874MPD2    C312821   1.410   0.984  16.416  0.3594  1.1159 -0.2531
  874MPD2    C412822   1.454   1.051  16.303 -0.4372  0.5683  0.2172
  874MPD2    C512823   1.396   1.020  16.178  0.5586  0.2973  0.0569
  874MPD2     H12824   1.260   0.840  16.489  0.1850 -0.2870  0.1614
  874MPD2    H112825   1.531   1.127  16.306 -0.3054  0.3651  1.9939
  874MPD2    H212826   1.266   0.898  16.068  1.7852  2.4438 -1.0936
  874MPD2    H312827   1.429   1.054  16.081 -0.7301  2.5376  0.4015
  874MPD2     N12828   1.476   0.991  16.544  0.6145 -0.3778 -0.0088
  874MPD2    H512829   1.429   0.954  16.626 -0.2211 -0.0289 -0.3257
  874MPD2    N112830   1.136   0.777  16.278 -0.1124 -0.0405  0.4622
  874MPD2    H712831   1.121   0.734  16.368  0.5234 -2.6131 -0.6557
  875MPD2     C12832   2.478   4.274  14.645 -0.0508  0.3966  0.2649
  875MPD2    C112833   2.359   4.258  14.725 -0.1826 -0.3482 -0.3154
  875MPD2    C212834   2.349   4.302  14.853 -0.6803  1.1222  0.4403
  875MPD2    C312835   2.459   4.356  14.923 -0.1050 -0.0966 -0.0611
  875MPD2    C412836   2.577   4.362  14.848 -0.4149  0.2342 -0.0384
  875MPD2    C512837   2.588   4.334  14.711 -1.1017  0.3111 -0.2860
  875MPD2     H12838   2.254   4.274  14.898 -1.9306  1.7903 -1.7941
  875MPD2    H112839   2.666   4.410  14.888 -0.0101  0.3882 -1.1339
  875MPD2    H212840   2.477   4.256  14.538 -0.3346  1.5229  0.0780
  875MPD2    H312841   2.677   4.341  14.650 -0.5013  0.1203  0.5669
  875MPD2     N12842   2.443   4.402  15.057  0.7766 -0.0050  0.5429
  875MPD2    H512843   2.527   4.435  15.103  0.9511  0.5827 -0.1824
  875MPD2    N112844   2.238   4.202  14.674 -0.5558 -0.0131 -0.3878
  875MPD2    H712845   2.158   4.181  14.733  0.4891  0.4885  1.1882
  876MPD2     C12846   0.704   0.472  15.970 -0.3472 -0.4858 -0.9485
  876MPD2    C112847   0.840   0.470  15.955  0.4944 -0.3583 -0.0666
  876MPD2    C212848   0.904   0.369  16.019 -0.2816  0.5505 -0.5205
  876MPD2    C312849   0.842   0.266  16.089 -0.1330  0.2884  0.3834
  876MPD2    C412850   0.706   0.270  16.100  0.3583 -0.3723  0.0567
  876MPD2    C512851   0.636   0.377  16.045  0.0126  0.7761  0.1725
  876MPD2     H12852   1.011   0.356  16.016 -0.4210 -0.6213 -0.1976
  876MPD2    H112853   0.650   0.209  16.170  0.7715 -1.4788 -0.5860
  876MPD2    H212854   0.643   0.545  15.917 -0.2664  2.3389  2.7624
  876MPD2    H312855   0.528   0.381  16.053  0.3172  0.7460  4.3948
  876MPD2     N12856   0.913   0.163  16.155 -0.5739  0.1131 -0.5338
  876MPD2    H512857   1.014   0.175  16.155 -0.5674  0.0352  0.6412
  876MPD2    N112858   0.914   0.566  15.873  0.4143 -0.1373 -0.3453
  876MPD2    H712859   0.863   0.634  15.818 -0.8748 -1.4533 -0.7743
  877MPD2     C12860   0.897   1.069  15.295  0.1647 -0.1143 -0.4797
  877MPD2    C112861   1.016   1.092  15.350 -0.8750  0.2189  0.1136
  877MPD2    C212862   1.101   1.182  15.285 -0.3729  0.1454 -0.1402
  877MPD2    C312863   1.062   1.246  15.166  0.3486  0.1961 -0.8069
  877MPD2    C412864   0.939   1.233  15.123 -0.2986 -0.4322  0.1785
  877MPD2    C512865   0.858   1.143  15.182 -0.3699  0.4331  0.0415
  877MPD2     H12866   1.198   1.193  15.330  0.6702 -1.9486 -1.8663
  877MPD2    H112867   0.891   1.297  15.050  2.2456 -1.0568 -2.0195
  877MPD2    H212868   0.833   0.989  15.330  1.0552  0.1589  1.7708
  877MPD2    H312869   0.753   1.132  15.155 -0.3576  0.1069  0.1185
  877MPD2     N12870   1.152   1.330  15.092  0.3881 -0.9483 -0.2463
  877MPD2    H512871   1.118   1.393  15.021  0.9764 -2.4838 -1.9050
  877MPD2    N112872   1.071   1.025  15.462  0.4871  0.4781 -0.1340
  877MPD2    H712873   1.162   1.052  15.497  0.5935  1.6933 -1.3603
  878MPD2     C12874   1.152   0.466  13.000  0.3336  0.2619 -0.8650
  878MPD2    C112875   1.126   0.595  13.046 -0.0411 -0.2357  0.1652
  878MPD2    C212876   1.128   0.622  13.182  0.2726  0.1017  0.4141
  878MPD2    C312877   1.163   0.520  13.268 -0.8101 -0.2467  0.3839
  878MPD2    C412878   1.201   0.396  13.227 -0.9000  0.1902  0.4371
  878MPD2    C512879   1.189   0.369  13.094 -0.1632  0.4362 -0.0854
  878MPD2     H12880   1.116   0.721  13.226  0.6410 -0.5086  1.9024
  878MPD2    H112881   1.206   0.311  13.294 -1.3364 -2.5050 -2.9649
  878MPD2    H212882   1.124   0.434  12.900  1.7392 -3.0122 -0.2236
  878MPD2    H312883   1.190   0.267  13.059 -0.3855  0.2121  0.5574
  878MPD2     N12884   1.169   0.561  13.404 -0.1948  0.1292 -0.0462
  878MPD2    H512885   1.122   0.651  13.414 -2.2532 -1.1045  1.4723
  878MPD2    N112886   1.090   0.684  12.947 -0.1031 -0.3617  0.3014
  878MPD2    H712887   1.081   0.655  12.850  0.5139  0.1025  0.1046
  879MPD2     C12888   2.199   1.474  17.368  0.1602  0.6627 -0.3286
  879MPD2    C112889   2.133   1.422  17.480  0.6531 -0.0272  0.3831
  879MPD2    C212890   2.041   1.324  17.452  0.5168 -0.3419  0.2667
  879MPD2    C312891   2.005   1.297  17.321 -0.6341  0.6531  0.3103
  879MPD2    C412892   2.069   1.360  17.214 -0.6830 -0.4727 -0.0047
  879MPD2    C512893   2.166   1.446  17.240  0.8133 -0.1006 -0.0824
  879MPD2     H12894   1.998   1.266  17.533  0.5294 -2.2761 -1.1086
  879MPD2    H112895   2.044   1.344  17.110 -1.2730 -0.5611  0.1493
  879MPD2    H212896   2.291   1.530  17.377 -0.7332  2.2111 -0.7345
  879MPD2    H312897   2.227   1.474  17.154  1.0467 -0.4855 -0.0397
  879MPD2     N12898   1.899   1.202  17.275  0.0334  0.2743  0.5346
  879MPD2    H512899   1.883   1.197  17.175 -1.1765 -0.0380  0.7389
  879MPD2    N112900   2.175   1.474  17.604 -0.1186 -0.0157 -0.7124
  879MPD2    H712901   2.252   1.540  17.604 -0.5981  0.5382  0.4631
  880MPD2     C12902   3.429   2.604   0.373  0.5390  0.0915 -0.0981
  880MPD2    C112903   3.420   2.623   0.512  0.6531 -0.7409 -0.6838
  880MPD2    C212904   3.462   2.512   0.589 -0.7146  0.0668  0.1550
  880MPD2    C312905   3.486   2.388   0.532  0.2366  0.2275  0.3063
  880MPD2    C412906   3.471   2.371   0.394  0.6808  0.4402  0.2719
  880MPD2    C512907   3.450   2.482   0.315  0.0547  0.0060 -0.2887
  880MPD2     H12908   3.476   2.516   0.696  1.9123 -0.5373 -0.1727
  880MPD2    H112909   3.481   2.281   0.334  2.2270 -0.7862  2.3796
  880MPD2    H212910   3.414   2.686   0.303 -1.9044 -0.6635 -0.4747
  880MPD2    H312911   3.443   2.464   0.208  2.5316  1.2654 -0.6531
  880MPD2     N12912   3.521   2.273   0.613 -0.2372 -0.1788 -0.3144
  880MPD2    H512913   3.540   2.290   0.712 -1.1582 -1.1089  0.0206
  880MPD2    N112914   3.380   2.750   0.564 -0.1223  0.2936 -0.0191
  880MPD2    H712915   3.348   2.818   0.497 -0.0611  1.7249  1.3917
  881MPD2     C12916   3.114   3.640   0.299  0.1727  0.2024 -0.4965
  881MPD2    C112917   3.093   3.516   0.242 -0.0828 -0.0069  0.2023
  881MPD2    C212918   3.088   3.402   0.323 -0.0910 -0.5577  0.1947
  881MPD2    C312919   3.111   3.417   0.462 -0.0843  0.2642 -0.8820
  881MPD2    C412920   3.117   3.545   0.518  0.8124 -0.4953 -0.5157
  881MPD2    C512921   3.109   3.653   0.436 -0.2554  0.3041 -0.2706
  881MPD2     H12922   3.082   3.302   0.284  1.5109  0.2803 -2.1788
  881MPD2    H112923   3.119   3.567   0.624  0.4560 -0.9932 -0.4088
  881MPD2    H212924   3.103   3.728   0.236  1.0778 -1.0406 -2.3511
  881MPD2    H312925   3.112   3.756   0.470  0.5887  0.0965  0.2944
  881MPD2     N12926   3.147   3.311   0.547  0.7697 -0.1024 -0.6627
  881MPD2    H512927   3.176   3.349   0.637  0.1758  0.8675 -0.8803
  881MPD2    N112928   3.094   3.520   0.104 -0.3059 -0.1505 -0.5042
  881MPD2    H712929   3.083   3.607   0.053  0.9178 -1.3335 -2.7721
  882MPD2     C12930   1.457   1.321  14.502 -0.4318 -0.1998 -0.9225
  882MPD2    C112931   1.361   1.405  14.553 -0.3904 -0.5840 -0.2590
  882MPD2    C212932   1.236   1.414  14.490  0.4696  0.2460 -0.2696
  882MPD2    C312933   1.197   1.328  14.394  0.1416 -0.2523  0.4668
  882MPD2    C412934   1.283   1.232  14.355  0.3118  0.1705 -0.7589
  882MPD2    C512935   1.418   1.234  14.401  0.2309 -0.1822 -0.1247
  882MPD2     H12936   1.156   1.469  14.539  0.6837  0.8412 -0.5924
  882MPD2    H112937   1.251   1.161  14.280  1.6540 -0.6004 -0.5863
  882MPD2    H212938   1.561   1.319  14.534 -0.4664  0.8062 -0.7556
  882MPD2    H312939   1.480   1.147  14.377  2.2883  1.9491 -2.5531
  882MPD2     N12940   1.059   1.315  14.349 -0.0026  0.3129  0.0793
  882MPD2    H512941   1.036   1.231  14.295 -5.0591  0.2025  2.3201
  882MPD2    N112942   1.393   1.487  14.663 -0.0757 -0.6679  0.3325
  882MPD2    H712943   1.491   1.476  14.686  0.5834  3.3610 -0.4899
  883MPD2     C12944   3.107   1.210  16.493 -0.0253  0.2930  0.0286
  883MPD2    C112945   3.177   1.285  16.403  0.5199  0.7278  0.5481
  883MPD2    C212946   3.318   1.290  16.408  0.3142 -0.0978 -0.5171
  883MPD2    C312947   3.386   1.229  16.511 -0.4182 -0.4741  0.3084
  883MPD2    C412948   3.313   1.170  16.614 -0.3701 -0.3515 -1.0379
  883MPD2    C512949   3.173   1.155  16.605 -0.5247  0.6858 -0.2287
  883MPD2     H12950   3.377   1.331  16.327  0.7474  0.3473  0.0248
  883MPD2    H112951   3.353   1.136  16.709 -0.0282  1.4395 -0.5405
  883MPD2    H212952   3.003   1.187  16.476 -0.2797  1.0971  0.4566
  883MPD2    H312953   3.115   1.110  16.684  0.3964  0.2588  0.1944
  883MPD2     N12954   3.533   1.231  16.511  0.3137 -0.5277  0.0121
  883MPD2    H512955   3.578   1.279  16.434 -2.7784 -0.4135 -1.7313
  883MPD2    N112956   3.110   1.361  16.301 -0.2104  0.3465  0.0625
  883MPD2    H712957   3.169   1.409  16.234  0.9051 -0.0066  0.7978
  884MPD2     C12958   0.600   1.783  15.654  1.4226 -0.5555  0.3107
  884MPD2    C112959   0.604   1.883  15.560  0.5436  0.5213 -0.5237
  884MPD2    C212960   0.486   1.955  15.539  0.3034  0.0424  0.2990
  884MPD2    C312961   0.363   1.912  15.584 -0.5005  1.1410  0.5202
  884MPD2    C412962   0.363   1.799  15.671  0.4632  0.2389  0.3965
  884MPD2    C512963   0.482   1.748  15.710 -0.4052  0.1395 -0.3912
  884MPD2     H12964   0.483   2.045  15.478  1.6412  0.0413  0.2227
  884MPD2    H112965   0.270   1.765  15.715 -1.3595  1.5523 -2.4241
  884MPD2    H212966   0.688   1.727  15.684  1.3145 -0.0252  1.6477
  884MPD2    H312967   0.485   1.672  15.787  0.5454  2.0492  1.4409
  884MPD2     N12968   0.242   1.981  15.543  0.9602  0.2164 -0.2873
  884MPD2    H512969   0.261   2.054  15.475 -1.1627  0.7236 -0.3350
  884MPD2    N112970   0.722   1.915  15.487 -0.1386 -0.0725  0.6034
  884MPD2    H712971   0.727   2.004  15.439 -3.0685 -0.4430 -0.3724
  885MPD2     C12972   3.243   0.992   0.167 -0.6374  0.1184  0.0040
  885MPD2    C112973   3.378   0.994   0.136 -0.0018 -0.1904  0.1550
  885MPD2    C212974   3.416   1.052   0.016 -0.5413 -0.5406  0.2387
  885MPD2    C312975   3.321   1.104  17.632  0.4459 -0.5461 -0.3447
  885MPD2    C412976   3.189   1.085  17.653  1.2315  0.0570 -0.5694
  885MPD2    C512977   3.152   1.027   0.072  0.0544 -0.0995 -0.7755
  885MPD2     H12978   3.516   1.072  17.676 -0.4766 -1.3635 -0.0204
  885MPD2    H112979   3.103   1.121  17.597  0.6046 -1.9304 -0.8684
  885MPD2    H212980   3.212   0.952   0.262  0.0309  0.2305  0.2723
  885MPD2    H312981   3.048   1.009   0.096  0.4491 -1.6607 -0.2397
  885MPD2     N12982   3.370   1.178  17.523 -0.1544  0.0628  0.0920
  885MPD2    H512983   3.471   1.179  17.518 -0.1113  1.1758  1.3666
  885MPD2    N112984   3.466   0.946   0.236 -0.1025 -0.2576 -0.1220
  885MPD2    H712985   3.432   0.909   0.324 -1.2970 -0.4978 -0.6916
  886MPD2     C12986   4.602   0.726  15.810 -0.8314 -0.5421 -0.2187
  886MPD2    C112987   4.580   0.658  15.690  0.4042 -0.0682  0.0273
  886MPD2    C212988   4.557   0.735  15.575  0.4483  0.1548 -0.4079
  886MPD2    C312989   4.587   0.873  15.576  0.3612 -0.3871  0.4958
  886MPD2    C412990   4.607   0.933  15.700  0.0026 -0.2852 -0.2186
  886MPD2    C512991   4.601   0.858  15.815 -0.0187 -0.5579  0.0077
  886MPD2     H12992   4.541   0.680  15.482 -1.2914 -0.6847  0.3869
  886MPD2    H112993   4.633   1.039  15.702 -3.0185  0.4213  1.1585
  886MPD2    H212994   4.613   0.670  15.902 -1.2343 -0.1029  0.0954
  886MPD2    H312995   4.615   0.912  15.908  4.4621 -0.7840 -0.5342
  886MPD2     N12996   4.603   0.947  15.461  0.5867 -0.2347  0.4950
  886MPD2    H512997   4.630   1.044  15.478  1.9645  0.1368 -3.6519
  886MPD2    N112998   4.591   0.519  15.676  0.0571  0.0984 -0.5799
  886MPD2    H712999   4.567   0.494  15.581 -1.6817 -0.0785 -0.0965
  887MPD2     C13000   0.340   0.364  15.286  0.6747 -0.5079 -0.3591
  887MPD2    C113001   0.275   0.410  15.403 -0.2080  0.4518 -0.0204
  887MPD2    C213002   0.299   0.539  15.450  0.1237  0.5592 -0.5883
  887MPD2    C313003   0.389   0.624  15.393 -0.2938 -0.2510 -0.1878
  887MPD2    C413004   0.443   0.579  15.273 -0.5589  0.4855 -0.0971
  887MPD2    C513005   0.412   0.460  15.219 -0.8540  0.3540 -0.2017
  887MPD2     H13006   0.256   0.576  15.542  0.3944 -1.2322  0.2366
  887MPD2    H113007   0.529   0.633  15.234 -0.2220 -0.5266 -0.7512
  887MPD2    H213008   0.323   0.263  15.251  1.6745 -0.1876 -1.7501
  887MPD2    H313009   0.464   0.438  15.126  1.0322  2.1524  0.4139
  887MPD2     N13010   0.412   0.745  15.456  0.5437  0.4075  0.4079
  887MPD2    H513011   0.350   0.762  15.535  0.2674 -1.8745  0.6715
  887MPD2    N113012   0.187   0.331  15.483 -0.0845  0.6923 -0.5476
  887MPD2    H713013   0.164   0.366  15.576 -1.5118  1.2730 -1.1286
  888MPD2     C13014   2.457   0.788  15.597  0.0890 -0.1142 -0.0942
  888MPD2    C113015   2.481   0.891  15.691  0.9296  1.1518  0.5792
  888MPD2    C213016   2.547   1.000  15.644 -0.0472 -0.1179 -0.5776
  888MPD2    C313017   2.586   1.013  15.514  0.9974  0.0529 -0.0245
  888MPD2    C413018   2.578   0.901  15.429  0.7470  0.0155 -0.1203
  888MPD2    C513019   2.523   0.787  15.477  0.6740  0.8804 -0.2081
  888MPD2     H13020   2.565   1.078  15.717 -1.5201  0.4230 -0.7969
  888MPD2    H113021   2.632   0.898  15.335  1.9374 -1.3676  0.6158
  888MPD2    H213022   2.405   0.694  15.613  0.6589 -0.2686  0.8251
  888MPD2    H313023   2.511   0.703  15.410 -1.8522  0.5478  0.6615
  888MPD2     N13024   2.620   1.136  15.463 -0.1089  0.4296 -1.0131
  888MPD2    H513025   2.599   1.219  15.518 -0.9140 -0.1956 -0.3923
  888MPD2    N113026   2.427   0.889  15.824  0.2700  0.3244  0.3230
  888MPD2    H713027   2.444   0.972  15.880  1.1786  0.6752 -0.4800
  889MPD2     C13028   1.562   4.621  13.159 -0.3851 -0.8543  0.3198
  889MPD2    C113029   1.523   4.697  13.269 -0.2783 -0.3966  0.2115
  889MPD2    C213030   1.515   0.110  13.255  0.4586  0.1460 -0.0474
  889MPD2    C313031   1.544   0.176  13.129 -0.4538  0.0017  0.3304
  889MPD2    C413032   1.565   0.101  13.014  0.2082 -0.4174 -0.0799
  889MPD2    C513033   1.574   4.688  13.030 -0.6009  0.1862  0.3483
  889MPD2     H13034   1.500   0.169  13.344  2.2388  0.4493  0.0590
  889MPD2    H113035   1.575   0.145  12.916  1.3409  1.9263  1.0656
  889MPD2    H213036   1.585   4.516  13.152 -0.5226 -0.9305  1.1107
  889MPD2    H313037   1.607   4.628  12.945  0.6828 -1.0412  1.7106
  889MPD2     N13038   1.537   0.318  13.130 -0.0095 -0.0293  0.2698
  889MPD2    H513039   1.537   0.359  13.223 -2.4048  1.0547 -0.2076
  889MPD2    N113040   1.537   4.632  13.401 -0.4096 -0.1653  0.4120
  889MPD2    H713041   1.580   4.540  13.405  0.0690  0.0108 -0.6307
  890MPD2     C13042   1.505   1.930  14.878  0.0143  0.4965  0.1438
  890MPD2    C113043   1.630   1.890  14.923 -1.0740 -0.2852 -0.4352
  890MPD2    C213044   1.646   1.818  15.048 -0.7637 -0.4693 -0.4741
  890MPD2    C313045   1.530   1.783  15.119  0.5561  0.4070  0.6010
  890MPD2    C413046   1.412   1.833  15.081  0.7382 -0.6315 -0.0148
  890MPD2    C513047   1.403   1.909  14.963 -0.0075 -0.1110 -0.2994
  890MPD2     H13048   1.740   1.781  15.087 -0.7824 -0.3983 -0.3620
  890MPD2    H113049   1.321   1.826  15.139 -0.9586  1.3524 -2.3909
  890MPD2    H213050   1.486   1.987  14.788  1.0564 -0.0744 -0.4291
  890MPD2    H313051   1.306   1.949  14.937  0.7345  0.9024 -1.5058
  890MPD2     N13052   1.555   1.705  15.236  0.3868 -0.3617  0.4871
  890MPD2    H513053   1.650   1.673  15.251  0.1715 -1.7308 -1.0931
  890MPD2    N113054   1.744   1.936  14.852 -0.3691 -0.6913 -0.1824
  890MPD2    H713055   1.736   1.995  14.770  0.3176 -0.5640 -0.1530
  891MPD2     C13056   3.837   0.362  16.714 -0.5087 -0.0469  0.2982
  891MPD2    C113057   3.757   0.280  16.784  0.9323  0.1207 -0.2298
  891MPD2    C213058   3.808   0.187  16.877  0.3694 -0.1030 -0.0774
  891MPD2    C313059   3.944   0.173  16.895  0.2897 -0.0943 -0.0205
  891MPD2    C413060   4.026   0.261  16.825  1.2254  0.5338  0.2863
  891MPD2    C513061   3.969   0.357  16.743 -0.6428 -0.0232 -0.0744
  891MPD2     H13062   3.749   0.124  16.943 -1.7081 -0.8619 -2.6492
  891MPD2    H113063   4.130   0.257  16.854  1.5519  0.7299 -0.8431
  891MPD2    H213064   3.805   0.435  16.641 -1.2059 -0.0596  0.5893
  891MPD2    H313065   4.039   0.429  16.701 -3.0756  1.8059 -1.0130
  891MPD2     N13066   3.989   0.074  16.982  0.1604 -0.1968 -0.5705
  891MPD2    H513067   3.917   0.019  17.027  0.6387 -0.5883 -0.2718
  891MPD2    N113068   3.615   0.285  16.758 -0.8233 -0.2378  0.3937
  891MPD2    H713069   3.590   0.363  16.697  0.1528 -0.3182 -0.0955
  892MPD2     C13070   0.413   1.328  15.061 -0.4440  0.0408 -0.0765
  892MPD2    C113071   0.329   1.340  14.955 -0.3525  0.2743  0.2754
  892MPD2    C213072   0.381   1.353  14.824  0.0436  0.0078 -0.1476
  892MPD2    C313073   0.519   1.345  14.807  0.3117 -0.1068  0.7032
  892MPD2    C413074   0.599   1.326  14.915  0.5288 -0.5050  0.5183
  892MPD2    C513075   0.546   1.327  15.037 -0.3099 -0.1529  0.2627
  892MPD2     H13076   0.311   1.349  14.741  2.4815  0.3213 -2.2272
  892MPD2    H113077   0.706   1.310  14.900  0.3199  0.9235 -2.4229
  892MPD2    H213078   0.375   1.316  15.162 -0.9878 -1.5063 -0.4644
  892MPD2    H313079   0.604   1.318  15.128 -1.3611 -1.1269  0.8423
  892MPD2     N13080   0.577   1.325  14.685 -0.9947  0.2117 -0.3626
  892MPD2    H513081   0.678   1.325  14.687 -0.9898  0.7678 -0.4987
  892MPD2    N113082   0.187   1.346  14.967  0.2994 -0.3726 -1.2450
  892MPD2    H713083   0.142   1.370  14.879  0.6925 -0.6811 -1.5314
  893MPD2     C13084   3.912   2.202   1.884 -0.0320  0.2379 -0.1164
  893MPD2    C113085   3.784   2.255   1.910 -0.7825 -0.2926 -0.0397
  893MPD2    C213086   3.674   2.171   1.890 -0.2523 -0.2779  0.0917
  893MPD2    C313087   3.687   2.040   1.843 -0.0373 -0.8180  0.8612
  893MPD2    C413088   3.819   1.992   1.821  0.0205  0.3060  0.2988
  893MPD2    C513089   3.931   2.071   1.843  0.5533 -0.6330  0.1444
  893MPD2     H13090   3.579   2.205   1.929  1.2561 -0.3052  3.8403
  893MPD2    H113091   3.828   1.889   1.790  0.6345  0.5475 -0.3288
  893MPD2    H213092   3.995   2.271   1.897  2.0940 -2.3533  0.0337
  893MPD2    H313093   4.029   2.035   1.816  1.6249  1.7504  0.8316
  893MPD2     N13094   3.585   1.949   1.814 -0.0539  0.5598  0.0217
  893MPD2    H513095   3.609   1.855   1.784  0.7328  0.9577 -0.6023
  893MPD2    N113096   3.771   2.388   1.957  0.1011  0.7439  0.1098
  893MPD2    H713097   3.859   2.437   1.972  0.0999  1.3202 -1.7420
  894MPD2     C13098   0.655   1.569   1.304 -0.0251  0.4797  0.2852
  894MPD2    C113099   0.741   1.532   1.402  0.2887  0.5700 -0.4635
  894MPD2    C213100   0.829   1.626   1.455  0.4790  0.9286 -0.0461
  894MPD2    C313101   0.823   1.758   1.412  0.5017 -0.2197  0.3908
  894MPD2    C413102   0.738   1.789   1.302  0.5573 -0.4542 -0.6989
  894MPD2    C513103   0.654   1.691   1.257 -0.2134 -0.0989 -0.6744
  894MPD2     H13104   0.897   1.605   1.537  0.1983  0.2995  0.0257
  894MPD2    H113105   0.721   1.888   1.261 -1.0407 -0.2492  0.4724
  894MPD2    H213106   0.576   1.500   1.277 -1.2601  0.3770  4.1327
  894MPD2    H313107   0.586   1.706   1.174 -0.2598  1.1840 -0.3920
  894MPD2     N13108   0.908   1.854   1.475  0.0503  0.0478  0.3856
  894MPD2    H513109   0.968   1.834   1.555 -2.3424 -0.5650  2.0227
  894MPD2    N113110   0.740   1.401   1.458  0.0153  0.2813  0.2049
  894MPD2    H713111   0.827   1.378   1.506 -0.7481  0.1320  1.5048
  895MPD2     C13112   4.433   1.139  13.954 -0.0259 -0.3696 -0.0289
  895MPD2    C113113   4.334   1.125  13.858 -0.4989 -0.4204 -0.0167
  895MPD2    C213114   4.338   1.034  13.762 -0.4410  0.1709 -0.2181
  895MPD2    C313115   4.451   0.956  13.753 -0.5313  0.1353  0.1125
  895MPD2    C413116   4.560   0.983  13.840  0.2662 -0.0679 -0.0722
  895MPD2    C513117   4.544   1.076  13.939  0.3744  1.1087 -0.3535
  895MPD2     H13118   4.246   1.021  13.705  0.5669  2.2110 -2.3056
  895MPD2    H113119   4.653   0.928  13.831 -0.2379 -0.8926 -0.2200
  895MPD2    H213120   4.424   1.203  14.041 -2.7521 -0.5182 -0.1890
  895MPD2    H313121   4.619   1.085  14.016  0.9562 -2.1577 -0.5719
  895MPD2     N13122   4.451   0.851  13.656 -0.0675 -0.7597  0.4880
  895MPD2    H513123   4.371   0.840  13.595  1.0229  0.5817 -1.2000
  895MPD2    N113124   4.226   1.213  13.862  0.2252 -0.3340 -0.0656
  895MPD2    H713125   4.144   1.188  13.808 -0.3844  0.8757  0.2984
  896MPD2     C13126   2.595   1.336   1.183  0.5289 -0.0608  0.3435
  896MPD2    C113127   2.512   1.438   1.142  0.4985  0.2428 -0.1649
  896MPD2    C213128   2.389   1.444   1.196  0.4993  0.1072 -0.1998
  896MPD2    C313129   2.339   1.349   1.272  0.1963 -0.2146 -0.1589
  896MPD2    C413130   2.422   1.245   1.312 -0.0103 -0.1224  0.4666
  896MPD2    C513131   2.548   1.240   1.266  0.8268 -0.1763  0.6258
  896MPD2     H13132   2.328   1.532   1.178  2.2316  1.4739  0.6118
  896MPD2    H113133   2.393   1.170   1.385 -0.2998  1.6623  2.1818
  896MPD2    H213134   2.689   1.319   1.131 -0.7127 -0.2723 -1.8369
  896MPD2    H313135   2.618   1.167   1.303 -0.4615 -1.6363  0.1703
  896MPD2     N13136   2.204   1.357   1.313 -0.2673 -0.0018 -0.6178
  896MPD2    H513137   2.148   1.438   1.287  0.6675  1.2283  1.1729
  896MPD2    N113138   2.573   1.543   1.071 -0.1592  0.0971  0.3399
  896MPD2    H713139   2.673   1.542   1.052 -0.0655 -0.9872  0.8815
  897MPD2     C13140   2.630   4.157  10.583 -0.0727 -0.2577 -0.3442
  897MPD2    C113141   2.712   4.269  10.600 -1.0830  0.3121 -0.4836
  897MPD2    C213142   2.658   4.390  10.608  0.6134  0.2729 -0.6728
  897MPD2    C313143   2.523   4.408  10.595  0.8069  0.4316 -0.8119
  897MPD2    C413144   2.442   4.300  10.564  0.3348 -0.2673  0.4195
  897MPD2    C513145   2.496   4.176  10.578 -0.5800 -0.5066  0.2283
  897MPD2     H13146   2.712   4.476  10.644  0.7295 -0.0985  0.0392
  897MPD2    H113147   2.334   4.300  10.554  0.2823  0.7829  0.9041
  897MPD2    H213148   2.672   4.057  10.584 -0.3919 -0.3860  0.4082
  897MPD2    H313149   2.433   4.090  10.556  1.0319 -2.0833  1.7339
  897MPD2     N13150   2.466   4.530  10.623  0.9148 -0.4911  0.3294
  897MPD2    H513151   2.510   4.586  10.696 -0.1919  1.0653 -0.1893
  897MPD2    N113152   2.853   4.253  10.594 -0.5104  0.1575  0.4126
  897MPD2    H713153   2.892   4.170  10.550 -0.2708 -0.5868  2.0245
  898MPD2     C13154   4.718   0.446   0.195  0.3038 -0.3798 -0.2385
  898MPD2    C113155   0.126   0.482   0.153 -0.1368  0.2862  0.1535
  898MPD2    C213156   0.148   0.600   0.082  0.0531  0.2863 -0.0645
  898MPD2    C313157   0.049   0.695   0.073 -0.0938 -0.7351  0.0663
  898MPD2    C413158   4.647   0.665   0.120 -0.5712 -1.0515 -0.6792
  898MPD2    C513159   4.623   0.545   0.177  0.2354 -0.1050 -0.2078
  898MPD2     H13160   0.248   0.624   0.046 -0.1793  0.0631 -0.8690
  898MPD2    H113161   4.560   0.730   0.114 -0.0185 -0.2170  0.5185
  898MPD2    H213162   4.696   0.350   0.240 -3.1983  0.2829 -0.5634
  898MPD2    H313163   4.523   0.529   0.214  0.0291 -1.5554 -1.4262
  898MPD2     N13164   0.077   0.821   0.013  0.2744  0.1218  0.0478
  898MPD2    H513165   0.178   0.830   0.003  0.1554 -0.5415 -1.8322
  898MPD2    N113166   0.237   0.399   0.171 -0.2232 -0.1703  0.0560
  898MPD2    H713167   0.320   0.416   0.115 -0.8032  0.3506 -0.6394
  899MPD2     C13168   1.007   1.631   0.318  0.2937 -0.1961  0.4282
  899MPD2    C113169   0.926   1.544   0.251  0.3203  0.4780 -0.1988
  899MPD2    C213170   0.810   1.504   0.315 -0.5148 -0.7714  0.0158
  899MPD2    C313171   0.774   1.536   0.436  0.0867  0.9489 -0.6444
  899MPD2    C413172   0.855   1.630   0.503  0.1715 -0.7174 -0.1216
  899MPD2    C513173   0.971   1.679   0.440  0.2398 -0.9304  0.9113
  899MPD2     H13174   0.741   1.438   0.264 -1.4043  0.1792 -0.0221
  899MPD2    H113175   0.819   1.662   0.600  1.5968 -1.8638  0.7799
  899MPD2    H213176   1.093   1.678   0.272  0.1788  1.6390  2.0727
  899MPD2    H313177   1.026   1.761   0.485 -2.3856  0.3716  1.7315
  899MPD2     N13178   0.653   1.481   0.499  0.2112 -0.5249  0.0820
  899MPD2    H513179   0.636   1.515   0.594  2.3426  1.7244 -0.3219
  899MPD2    N113180   0.969   1.508   0.117 -0.1674 -0.3167 -0.5416
  899MPD2    H713181   1.056   1.549   0.085  0.9424 -1.6648  0.7572
  900MPD2     C13182   0.574   3.506  12.526 -0.9593  0.1253  0.3035
  900MPD2    C113183   0.538   3.392  12.461 -1.4278 -0.4090  0.1113
  900MPD2    C213184   0.419   3.381  12.397 -0.1009  0.8176  0.4405
  900MPD2    C313185   0.342   3.485  12.387 -0.7316 -0.1369  0.0578
  900MPD2    C413186   0.365   3.605  12.454 -0.0816  0.2263  0.3166
  900MPD2    C513187   0.487   3.616  12.517 -0.7932 -0.2186 -0.5049
  900MPD2     H13188   0.399   3.286  12.349  1.0452  0.7213  0.1682
  900MPD2    H113189   0.310   3.698  12.453 -1.2155 -0.4334  0.9383
  900MPD2    H213190   0.669   3.516  12.577 -0.9104  1.5874 -0.0860
  900MPD2    H313191   0.509   3.707  12.572 -0.9650 -0.1166 -0.6034
  900MPD2     N13192   0.224   3.457  12.313 -0.1481  0.2982 -0.6010
  900MPD2    H513193   0.208   3.361  12.283  1.2104  0.7543 -2.8074
  900MPD2    N113194   0.638   3.288  12.464  0.4247  0.5228 -0.3792
  900MPD2    H713195   0.723   3.316  12.511 -0.7060 -0.8315  2.5005
  901MPD2     C13196   1.120   2.534  12.968  0.1622 -0.0464 -0.0738
  901MPD2    C113197   1.139   2.496  12.837 -0.6063  0.1465  0.4817
  901MPD2    C213198   1.127   2.597  12.742 -0.1017 -0.1361 -0.1990
  901MPD2    C313199   1.070   2.719  12.782 -0.7878  0.4448 -0.3347
  901MPD2    C413200   1.048   2.746  12.915  0.4645 -0.2358 -0.0596
  901MPD2    C513201   1.082   2.654  13.010  0.0270  0.2294  0.2181
  901MPD2     H13202   1.153   2.582  12.638  0.1451  0.0540 -0.1651
  901MPD2    H113203   1.015   2.844  12.946  1.3748  0.6135 -1.7979
  901MPD2    H213204   1.138   2.473  13.056 -0.9853 -0.1586  0.0803
  901MPD2    H313205   1.059   2.677  13.113  2.0321 -1.1278  0.9592
  901MPD2     N13206   1.037   2.804  12.674  0.8719  0.0479 -0.2215
  901MPD2    H513207   1.057   2.768  12.582 -0.4101 -0.7539 -0.1879
  901MPD2    N113208   1.170   2.361  12.809  0.0276 -0.1280  0.5960
  901MPD2    H713209   1.171   2.296  12.888  0.4458 -1.5219 -0.5410
  902MPD2     C13210   4.598   1.178  12.965  0.6665  0.6110  0.5015
  902MPD2    C113211   4.474   1.127  12.944 -0.2197 -0.4333 -0.6013
  902MPD2    C213212   4.460   1.016  12.862 -0.5107 -0.0682  0.1450
  902MPD2    C313213   4.568   0.953  12.810 -0.6594  0.0320 -0.2394
  902MPD2    C413214   4.701   1.003  12.839 -0.0176 -0.8230  0.6750
  902MPD2    C513215   4.716   1.114  12.917 -0.1739  0.0220 -0.4139
  902MPD2     H13216   4.365   0.966  12.846 -0.7288  0.8238 -1.3368
  902MPD2    H113217   0.065   0.953  12.802  1.7810  1.5537  1.7648
  902MPD2    H213218   4.626   1.264  13.024  0.0686  2.1619 -1.4517
  902MPD2    H313219   0.089   1.151  12.946  0.1494 -1.0692 -0.1065
  902MPD2     N13220   4.538   0.842  12.726  0.0024  0.0486  0.2376
  902MPD2    H513221   4.440   0.833  12.702  0.1640 -0.0587 -0.3998
  902MPD2    N113222   4.360   1.192  13.002 -0.3309 -0.3090  0.4774
  902MPD2    H713223   4.365   1.285  13.042  3.0391 -0.2583 -0.0671
  903MPD2     C13224   4.394   0.989  11.916 -1.2596 -0.5561 -0.4499
  903MPD2    C113225   4.354   0.989  12.048  0.6555 -0.5548 -0.7467
  903MPD2    C213226   4.242   1.057  12.079  0.1750  0.4056  1.0550
  903MPD2    C313227   4.178   1.133  11.992 -0.3593  0.0249  0.9561
  903MPD2    C413228   4.223   1.141  11.861 -0.2635 -0.0323  0.0178
  903MPD2    C513229   4.323   1.055  11.827  0.0756 -0.0536 -0.1376
  903MPD2     H13230   4.202   1.059  12.180 -0.4232  1.0577  0.8066
  903MPD2    H113231   4.175   1.198  11.782  1.3639 -0.3910 -1.2332
  903MPD2    H213232   4.477   0.928  11.882  0.7276  0.7885  1.9171
  903MPD2    H313233   4.343   1.048  11.720  1.3864  3.6468 -0.1359
  903MPD2     N13234   4.059   1.193  12.038 -0.2819 -0.0648  0.8587
  903MPD2    H513235   4.023   1.181  12.132 -3.2880  2.6682  0.0365
  903MPD2    N113236   4.432   0.906  12.125 -0.8174 -0.3188  0.0544
  903MPD2    H713237   4.510   0.854  12.087  0.1319  0.4045  0.9829
  904MPD2     C13238   4.024   0.447  13.794 -0.7502  0.1441 -0.4667
  904MPD2    C113239   4.011   0.343  13.887  0.2657  0.5100  0.0677
  904MPD2    C213240   4.130   0.291  13.947 -0.2226  0.4354  0.1943
  904MPD2    C313241   4.247   0.353  13.926 -0.6949 -0.8890  0.3018
  904MPD2    C413242   4.262   0.467  13.846 -0.6182  0.6381  0.0929
  904MPD2    C513243   4.146   0.509  13.783  0.7167  0.1370 -0.2641
  904MPD2     H13244   4.133   0.210  14.019 -1.7516  1.0323  0.9220
  904MPD2    H113245   4.352   0.525  13.830  0.9804 -1.0863  2.9729
  904MPD2    H213246   3.941   0.478  13.732 -1.7967 -2.1244 -0.1975
  904MPD2    H313247   4.158   0.581  13.703  1.0230  1.5391  1.0560
  904MPD2     N13248   4.357   0.308  13.998  0.5426  0.2659  1.1515
  904MPD2    H513249   4.347   0.221  14.048  3.3244 -1.1727 -0.8088
  904MPD2    N113250   3.895   0.265  13.909 -0.3986  0.2435 -0.3528
  904MPD2    H713251   3.905   0.173  13.949 -1.0602  0.6790  0.7965
  905MPD2     C13252   3.754   0.390  13.299 -0.1660  0.0881  0.5902
  905MPD2    C113253   3.800   0.484  13.393 -0.0717  0.1195  0.0510
  905MPD2    C213254   3.933   0.530  13.386  0.4510 -0.3624 -0.3004
  905MPD2    C313255   4.024   0.472  13.296  0.2355 -0.8511 -0.8255
  905MPD2    C413256   3.969   0.383  13.206  0.3187  0.0529  0.3600
  905MPD2    C513257   3.835   0.342  13.206 -0.5326 -0.3052 -0.4783
  905MPD2     H13258   3.983   0.581  13.468 -0.6279  0.6969 -0.3072
  905MPD2    H113259   4.033   0.336  13.133  0.8543  0.2901  0.6734
  905MPD2    H213260   3.652   0.356  13.286 -1.3690  4.2992 -0.7002
  905MPD2    H313261   3.813   0.268  13.130  1.2929 -2.1696  0.7955
  905MPD2     N13262   4.163   0.496  13.305  0.1644 -0.0881  0.0434
  905MPD2    H513263   4.221   0.425  13.260  1.7374  1.7210 -0.7851
  905MPD2    N113264   3.715   0.523  13.494  0.7850  0.7218  0.3810
  905MPD2    H713265   3.634   0.467  13.516 -0.3922  1.5760 -1.7295
  906MPD2     C13266   1.520   0.467  11.287 -0.0001  0.8553  0.3212
  906MPD2    C113267   1.459   0.352  11.244 -0.6219  0.0338 -0.0382
  906MPD2    C213268   1.388   0.280  11.342  0.2379  0.3972 -0.1598
  906MPD2    C313269   1.381   0.317  11.471  0.0999 -0.3548 -0.3022
  906MPD2    C413270   1.462   0.417  11.517  0.4124  0.3375 -0.7037
  906MPD2    C513271   1.526   0.497  11.427  0.3389 -0.4430  0.1910
  906MPD2     H13272   1.343   0.189  11.304  1.1035 -0.5899  1.1719
  906MPD2    H113273   1.464   0.439  11.623  1.5693 -0.1784 -0.6134
  906MPD2    H213274   1.572   0.535  11.220 -0.7313  2.4262  1.3441
  906MPD2    H313275   1.576   0.585  11.467  1.0292 -1.6485  1.9459
  906MPD2     N13276   1.291   0.251  11.559 -0.5675 -0.0221  0.6361
  906MPD2    H513277   1.294   0.285  11.654  0.1161  0.5562  0.4137
  906MPD2    N113278   1.463   0.297  11.109  0.5350  0.5600 -0.1100
  906MPD2    H713279   1.410   0.212  11.089  1.0730  0.2365 -0.1600
  907MPD2     C13280   0.083   4.209  15.591 -1.1263  0.7346 -1.2004
  907MPD2    C113281   0.145   4.089  15.561  0.3479  0.8488  0.2719
  907MPD2    C213282   0.217   4.020  15.650 -0.0059  0.4073  0.7436
  907MPD2    C313283   0.235   4.058  15.783 -0.3780 -0.1082 -0.3910
  907MPD2    C413284   0.168   4.172  15.818  0.5196 -0.0368  0.0197
  907MPD2    C513285   0.097   4.251  15.723  0.2613 -0.5096  0.4075
  907MPD2     H13286   0.260   3.930  15.609  1.3534  1.5054 -0.2837
  907MPD2    H113287   0.176   4.214  15.918  1.4649 -0.0880 -0.0385
  907MPD2    H213288   0.024   4.273  15.526  0.2583  2.3315 -0.8954
  907MPD2    H313289   0.052   4.340  15.766 -1.8430 -1.5616  0.4123
  907MPD2     N13290   0.303   3.972  15.868 -0.7728 -0.5383  0.2743
  907MPD2    H513291   0.353   3.894  15.828  0.4098  0.3122  0.1046
  907MPD2    N113292   0.133   4.033  15.431  0.2628  0.7359 -0.1586
  907MPD2    H713293   0.178   3.942  15.423 -2.6398 -0.9060  1.8948
  908MPD2     C13294   3.047   4.158   9.789  0.5374  0.2114  0.9997
  908MPD2    C113295   3.058   4.052   9.877 -0.7499  0.3970  0.4502
  908MPD2    C213296   3.083   4.076  10.012  0.5240  0.1314  0.5436
  908MPD2    C313297   3.101   4.205  10.057 -0.7100  0.4758 -0.2849
  908MPD2    C413298   3.068   4.308   9.968 -0.3970  0.8862 -0.8016
  908MPD2    C513299   3.044   4.283   9.842  0.1127 -0.1137 -0.1911
  908MPD2     H13300   3.112   3.993  10.076  0.9930 -1.6066 -1.9441
  908MPD2    H113301   3.070   4.411  10.002 -1.1549  0.5767  0.1473
  908MPD2    H213302   3.043   4.153   9.681 -0.1270  0.5939  1.0057
  908MPD2    H313303   3.024   4.365   9.774 -1.1812  0.3311  0.7446
  908MPD2     N13304   3.145   4.220  10.191 -0.5734  0.6709  0.4060
  908MPD2    H513305   3.154   4.136  10.247 -1.9208  0.5976  0.4976
  908MPD2    N113306   3.078   3.918   9.832 -0.2526 -0.3292 -0.6255
  908MPD2    H713307   3.107   3.851   9.902  0.8069  2.4602  1.5923
  909MPD2     C13308   2.879   2.856  12.034  0.0082  0.3555 -0.8734
  909MPD2    C113309   2.868   2.962  11.957  0.1002  0.0802 -0.6968
  909MPD2    C213310   2.765   3.050  11.993  0.0366  0.0649  0.0037
  909MPD2    C313311   2.696   3.031  12.108 -0.3888 -0.3282  0.3060
  909MPD2    C413312   2.707   2.917  12.186  0.3043  0.5223 -0.4862
  909MPD2    C513313   2.806   2.830  12.145  0.0217  0.2406 -0.4182
  909MPD2     H13314   2.750   3.139  11.932  2.6840 -0.1528 -0.9709
  909MPD2    H113315   2.665   2.901  12.285  1.6005  3.2771  0.4963
  909MPD2    H213316   2.951   2.779  12.009 -0.0654  0.8340 -2.5324
  909MPD2    H313317   2.838   2.740  12.196 -0.4304  0.3002 -0.0242
  909MPD2     N13318   2.612   3.142  12.147  0.6547  0.1401 -0.0412
  909MPD2    H513319   2.619   3.221  12.084 -0.3201  1.0904  1.0453
  909MPD2    N113320   2.936   2.985  11.839 -0.0338 -0.2702 -0.4442
  909MPD2    H713321   2.897   3.036  11.761  0.4859  1.8979  0.6995
  910MPD2     C13322   4.486   4.565  15.941  0.4668 -0.3540 -0.4633
  910MPD2    C113323   4.505   4.467  15.841 -0.0571  0.0172  0.3946
  910MPD2    C213324   4.496   4.503  15.706  0.6173 -0.4596 -0.3052
  910MPD2    C313325   4.463   4.634  15.672 -0.1656  0.4000  0.7398
  910MPD2    C413326   4.435   0.000  15.772  0.2310 -0.2444  0.5914
  910MPD2    C513327   4.440   4.690  15.904 -0.1059 -0.4191  0.0670
  910MPD2     H13328   4.511   4.421  15.636 -3.3328 -2.4318  1.1232
  910MPD2    H113329   4.395   0.099  15.751  2.4531  0.4074 -0.5932
  910MPD2    H213330   4.499   4.554  16.048  0.4064 -1.4930 -0.5712
  910MPD2    H313331   4.429   0.047  15.976  0.1719  0.8231 -1.3057
  910MPD2     N13332   4.448   4.676  15.536  0.0458  0.2931 -0.2263
  910MPD2    H513333   4.409   0.045  15.524 -2.0019 -0.2348  2.3139
  910MPD2    N113334   4.544   4.334  15.880  0.6119 -0.0854  0.3261
  910MPD2    H713335   4.577   4.270  15.808 -2.1724 -1.4320  0.2520
  911MPD2     C13336   2.004   4.279  16.868  0.3709  0.4041  0.6629
  911MPD2    C113337   2.110   4.359  16.893 -0.1746  0.5816 -0.1090
  911MPD2    C213338   2.103   4.498  16.877 -0.0634 -0.0470 -0.0290
  911MPD2    C313339   1.980   4.551  16.830 -0.5703  0.1411 -0.3131
  911MPD2    C413340   1.869   4.471  16.816  0.0797 -0.5541  0.4436
  911MPD2    C513341   1.881   4.331  16.826 -0.1131 -0.4410  0.3466
  911MPD2     H13342   2.195   4.553  16.881  0.7634 -1.3081 -2.0651
  911MPD2    H113343   1.775   4.509  16.778  2.3855  4.1750 -0.5700
  911MPD2    H213344   2.006   4.171  16.878  1.8513  0.6665  3.2534
  911MPD2    H313345   1.792   4.270  16.813  1.9888 -3.2829 -0.5993
  911MPD2     N13346   1.961   4.680  16.791 -0.2941  0.6321  0.3485
  911MPD2    H513347   1.877   4.696  16.736 -1.2683 -0.6662  1.4580
  911MPD2    N113348   2.235   4.298  16.921 -0.4306 -0.0428 -0.0421
  911MPD2    H713349   2.236   4.196  16.915  1.9319 -0.0134  0.0012
  912MPD2     C13350   1.998   0.154  16.124  0.0462  0.3219 -0.2828
  912MPD2    C113351   1.922   0.112  16.228  0.1823 -0.3333  0.6710
  912MPD2    C213352   1.881   4.703  16.228  0.5614  0.1795 -0.1397
  912MPD2    C313353   1.904   4.626  16.114  0.8140 -0.0840  0.4113
  912MPD2    C413354   1.974   4.672  16.003 -0.1101 -0.1038 -0.1708
  912MPD2    C513355   2.008   0.075  16.016  0.1607 -0.0813  0.4230
  912MPD2     H13356   1.815   4.656  16.300  0.2330  0.5682 -0.1849
  912MPD2    H113357   1.985   4.616  15.911 -0.9034 -1.2457  0.4344
  912MPD2    H213358   2.036   0.256  16.116  0.4542  0.2610  0.9426
  912MPD2    H313359   2.054   0.117  15.927 -1.4009 -1.0364 -0.8512
  912MPD2     N13360   1.875   4.486  16.128  0.1266 -0.0987 -0.0925
  912MPD2    H513361   1.833   4.468  16.218  0.5245 -0.3788  0.0378
  912MPD2    N113362   1.915   0.191  16.347 -0.6052  0.2608  0.1266
  912MPD2    H713363   1.981   0.267  16.338 -0.1096 -0.1342  0.4068
  913MPD2     C13364   2.734   1.102  10.353  0.2690  0.2500 -0.5506
  913MPD2    C113365   2.636   1.146  10.265  0.6476 -0.4940  0.0446
  913MPD2    C213366   2.614   1.283  10.231  0.5407 -0.4917  0.7925
  913MPD2    C313367   2.699   1.376  10.290 -0.3023  0.1890 -0.2082
  913MPD2    C413368   2.798   1.338  10.374  0.1193 -0.0884  0.6405
  913MPD2    C513369   2.817   1.203  10.403 -0.5617  0.3904  0.2378
  913MPD2     H13370   2.528   1.313  10.173  1.2426  0.2568  0.1300
  913MPD2    H113371   2.865   1.412  10.416 -2.0063  1.4944  1.2035
  913MPD2    H213372   2.748   0.997  10.378  0.4317 -0.0164 -1.7631
  913MPD2    H313373   2.902   1.173  10.463 -0.7637 -1.8855 -0.6166
  913MPD2     N13374   2.700   1.509  10.240  0.1082  0.5739 -0.6139
  913MPD2    H513375   2.771   1.571  10.278  1.2735 -1.2533  0.2160
  913MPD2    N113376   2.552   1.040  10.211 -0.0035 -0.4685  0.1882
  913MPD2    H713377   2.573   0.946  10.243  0.3127 -1.3326 -2.5089
  914MPD2     C13378   0.737   2.255  12.049 -0.0863 -0.3887 -1.0630
  914MPD2    C113379   0.827   2.343  12.108  0.5651 -0.0535  0.1437
  914MPD2    C213380   0.921   2.298  12.204  0.2521  1.1676 -0.5975
  914MPD2    C313381   0.922   2.172  12.247 -0.0578 -0.0702  0.0809
  914MPD2    C413382   0.821   2.088  12.189  0.1401  0.7441  0.2301
  914MPD2    C513383   0.741   2.128  12.090 -0.1685  0.8561  0.1281
  914MPD2     H13384   0.984   2.368  12.257  1.1526  0.2600 -0.4740
  914MPD2    H113385   0.802   1.983  12.213 -3.1410  1.5359  1.0280
  914MPD2    H213386   0.677   2.278  11.962  0.8780  2.2588 -1.0160
  914MPD2    H313387   0.672   2.057  12.047  0.2938 -0.3073  1.3125
  914MPD2     N13388   1.018   2.128  12.343 -0.2198  0.1407 -0.1174
  914MPD2    H513389   1.076   2.194  12.394 -1.8047  0.4841  1.2547
  914MPD2    N113390   0.794   2.473  12.079  0.2772 -0.0592 -0.3568
  914MPD2    H713391   0.732   2.488  12.000 -0.8553 -2.4521  0.0866
  915MPD2     C13392   3.841   2.098  15.904 -0.0702 -0.1532  0.2875
  915MPD2    C113393   3.733   2.136  15.833  0.7694 -0.3029  0.0930
  915MPD2    C213394   3.619   2.185  15.900  0.1722 -0.3226 -0.2062
  915MPD2    C313395   3.611   2.192  16.043  0.7216 -0.6634 -0.4214
  915MPD2    C413396   3.722   2.150  16.110 -0.1596 -0.0204 -0.3384
  915MPD2    C513397   3.829   2.099  16.039 -0.5707 -0.2847 -0.0724
  915MPD2     H13398   3.533   2.203  15.836  0.5976  2.4041  0.0041
  915MPD2    H113399   3.717   2.145  16.218 -0.6993 -0.8412 -0.4032
  915MPD2    H213400   3.937   2.065  15.867  0.6408  2.1016  0.1261
  915MPD2    H313401   3.918   2.072  16.095 -0.7102  0.0041  0.2947
  915MPD2     N13402   3.486   2.230  16.107  0.0730 -0.1305 -0.2490
  915MPD2    H513403   3.403   2.243  16.049  0.3355  1.9138 -0.1623
  915MPD2    N113404   3.735   2.135  15.691  0.2499 -0.2626  0.3032
  915MPD2    H713405   3.821   2.088  15.663 -0.6320 -1.0312 -1.0743
  916MPD2     C13406   1.528   0.132  16.059 -0.2675  0.1728  0.4607
  916MPD2    C113407   1.473   0.006  16.076  0.5116  0.4559  0.4089
  916MPD2    C213408   1.541   4.623  16.016  0.8554 -0.0189 -0.7098
  916MPD2    C313409   1.641   4.644  15.916  0.7570 -0.4245  0.3091
  916MPD2    C413410   1.668   0.049  15.883  0.4839 -0.9313  0.1772
  916MPD2    C513411   1.623   0.153  15.961  0.0000 -0.3377  0.4082
  916MPD2     H13412   1.505   4.521  16.026 -1.1281  0.7244 -0.2952
  916MPD2    H113413   1.738   0.082  15.806  0.5462 -0.8039  0.2898
  916MPD2    H213414   1.501   0.227  16.105 -0.2411  0.1038  0.6190
  916MPD2    H313415   1.647   0.256  15.940 -0.1581  0.1775  2.8322
  916MPD2     N13416   1.678   4.532  15.835  0.3693 -0.7881  0.2504
  916MPD2    H513417   1.652   4.441  15.872 -0.4025 -0.2816  0.9481
  916MPD2    N113418   1.366   4.722  16.165 -0.6337  0.1057 -0.0760
  916MPD2    H713419   1.321   0.087  16.185 -0.2215  0.7657 -2.0563
  917MPD2     C13420   1.937   2.293  10.471 -0.7571 -0.4517  0.0854
  917MPD2    C113421   2.008   2.378  10.558  0.9336 -0.0130 -0.1821
  917MPD2    C213422   2.084   2.481  10.500  0.4400  0.5393 -0.4041
  917MPD2    C313423   2.087   2.512  10.367  0.0984  0.3589 -0.1854
  917MPD2    C413424   2.004   2.434  10.286 -0.9323 -0.1382  0.0422
  917MPD2    C513425   1.937   2.324  10.337  0.1982  0.1744 -0.2474
  917MPD2     H13426   2.141   2.547  10.565 -0.3163  0.8311 -0.0293
  917MPD2    H113427   1.985   2.461  10.183 -0.0984 -1.9148 -0.5735
  917MPD2    H213428   1.881   2.212  10.515 -2.1781  0.4068 -0.1546
  917MPD2    H313429   1.877   2.261  10.272  2.1143 -2.5212  0.5838
  917MPD2     N13430   2.168   2.618  10.316 -0.4973 -0.0324  0.7306
  917MPD2    H513431   2.232   2.660  10.382 -0.0360  0.7657 -0.2263
  917MPD2    N113432   2.013   2.340  10.694  0.3797  0.3577 -0.3360
  917MPD2    H713433   1.972   2.250  10.717  4.3432 -1.8778 -1.9334
  918MPD2     C13434   2.274   2.613  11.725 -0.2706  0.3926  0.6038
  918MPD2    C113435   2.297   2.473  11.722 -0.5166 -0.0596  0.0264
  918MPD2    C213436   2.283   2.406  11.603  0.9374 -0.1031 -0.4087
  918MPD2    C313437   2.242   2.478  11.495 -0.3665 -0.1236  0.7284
  918MPD2    C413438   2.230   2.612  11.496 -0.1150 -0.2346 -0.1065
  918MPD2    C513439   2.235   2.683  11.613 -0.0349  0.7096 -0.0145
  918MPD2     H13440   2.298   2.299  11.589 -1.3840 -0.4752 -0.1579
  918MPD2    H113441   2.189   2.658  11.406 -0.8886 -1.6404 -0.4658
  918MPD2    H213442   2.262   2.662  11.821 -0.9504 -0.4357  0.9396
  918MPD2    H313443   2.217   2.789  11.618 -3.7176  0.0658  0.5437
  918MPD2     N13444   2.215   2.402  11.376  0.7742  0.3654 -0.7045
  918MPD2    H513445   2.216   2.301  11.389 -0.3025  0.4451 -0.0501
  918MPD2    N113446   2.349   2.398  11.832 -0.4126 -0.0919 -0.8010
  918MPD2    H713447   2.390   2.308  11.810 -2.4340 -1.0155 -0.7440
  919MPD2     C13448   2.727   1.595  11.473 -0.4901  1.0366 -0.1599
  919MPD2    C113449   2.680   1.467  11.449  0.0479  0.0192 -0.3120
  919MPD2    C213450   2.701   1.402  11.330 -0.3054 -0.2581  0.0342
  919MPD2    C313451   2.777   1.463  11.235 -0.5534  0.6217  0.2964
  919MPD2    C413452   2.830   1.593  11.260 -0.2211 -0.1454 -0.4287
  919MPD2    C513453   2.801   1.659  11.376  0.0780 -0.2584 -0.0933
  919MPD2     H13454   2.658   1.303  11.319 -1.3724 -0.0084  1.8739
  919MPD2    H113455   2.907   1.643  11.202  1.4100  0.9301  2.6472
  919MPD2    H213456   2.725   1.634  11.574  1.2425 -1.6114  0.9075
  919MPD2    H313457   2.857   1.748  11.402 -1.2259  1.2078 -2.2613
  919MPD2     N13458   2.805   1.404  11.109  0.2370  0.2992  0.0811
  919MPD2    H513459   2.820   1.453  11.022  2.1526 -0.9001 -0.2728
  919MPD2    N113460   2.605   1.386  11.548 -0.1961 -0.0557  0.0245
  919MPD2    H713461   2.577   1.292  11.521 -1.5653 -0.4838  2.8935
  920MPD2     C13462   2.260   1.598  10.295 -0.4598 -0.0305 -1.8575
  920MPD2    C113463   2.257   1.463  10.297 -0.4393 -0.0568  0.1099
  920MPD2    C213464   2.333   1.397  10.391  0.2683 -0.3623  0.4596
  920MPD2    C313465   2.415   1.461  10.477  0.3940  0.1966 -0.0334
  920MPD2    C413466   2.426   1.597  10.474  0.1231 -0.6406  0.0719
  920MPD2    C513467   2.343   1.661  10.386  0.0200  0.5850 -0.0550
  920MPD2     H13468   2.322   1.289  10.394  0.5783 -0.3059  3.4680
  920MPD2    H113469   2.498   1.650  10.536  0.9019 -0.9426 -0.5854
  920MPD2    H213470   2.190   1.661  10.240 -1.6143 -0.1379 -0.5006
  920MPD2    H313471   2.346   1.769  10.398  1.8155  0.4430  0.6978
  920MPD2     N13472   2.482   1.383  10.579  0.0893  0.3362 -0.0195
  920MPD2    H513473   2.479   1.282  10.569  0.9167  0.3815 -0.7335
  920MPD2    N113474   2.163   1.384  10.221 -0.1399 -0.3733 -0.1003
  920MPD2    H713475   2.150   1.288  10.253 -0.1058 -0.1609  0.5514
  921MPD2     C13476   2.681   0.262  16.930 -0.0774  0.1114  0.3332
  921MPD2    C113477   2.797   0.181  16.933 -0.2986  0.2325 -0.5466
  921MPD2    C213478   2.784   0.046  16.971  0.5847  0.2331  0.3157
  921MPD2    C313479   2.660   4.719  17.004  0.3349  0.0273 -0.0983
  921MPD2    C413480   2.549   0.081  17.006 -0.0444  0.6442  0.4592
  921MPD2    C513481   2.561   0.211  16.969 -0.5423 -0.4458 -0.1985
  921MPD2     H13482   2.869   4.704  16.980  0.1476 -0.1312  1.7553
  921MPD2    H113483   2.450   0.044  17.033 -0.2526 -0.1269 -1.3836
  921MPD2    H213484   2.690   0.365  16.900  0.5633 -0.9537 -3.0826
  921MPD2    H313485   2.486   0.289  16.969 -1.3979 -1.2856  0.3125
  921MPD2     N13486   2.641   4.575  17.020  0.1623 -0.0480 -0.2945
  921MPD2    H513487   2.543   4.552  17.036  0.0394  1.4426  1.0755
  921MPD2    N113488   2.922   0.235  16.886  0.4513 -0.1424  0.3023
  921MPD2    H713489   2.923   0.332  16.856 -0.6901 -0.6114 -1.3093
  922MPD2     C13490   4.220   2.059   0.060  0.0062  0.2627  0.9182
  922MPD2    C113491   4.298   2.147  17.684 -0.0288  1.2569  0.1964
  922MPD2    C213492   4.237   2.225  17.586  0.6476 -0.3590 -0.4232
  922MPD2    C313493   4.101   2.229  17.575 -0.2326  0.9235 -0.2864
  922MPD2    C413494   4.024   2.149  17.659 -0.4211 -0.0523  0.5911
  922MPD2    C513495   4.084   2.060   0.050 -0.5497  0.4458  0.5395
  922MPD2     H13496   4.292   2.293  17.522 -0.0689 -0.5495 -1.2292
  922MPD2    H113497   3.916   2.154  17.654 -0.4797 -1.3752  0.4832
  922MPD2    H213498   4.258   1.984   0.128 -0.1830 -0.8596 -0.2199
  922MPD2    H313499   4.031   1.997   0.121 -1.3061 -0.6515 -0.9876
  922MPD2     N13500   4.043   2.317  17.474  0.1471  0.2529 -0.7881
  922MPD2    H513501   4.106   2.367  17.412 -0.5741  4.1819  1.6525
  922MPD2    N113502   4.441   2.150  17.690 -0.8115  0.1635 -0.3217
  922MPD2    H713503   4.488   2.218  17.632 -1.0125 -2.9718 -4.1409
  923MPD2     C13504   1.052   4.124   9.306  0.3012  0.1284  0.1682
  923MPD2    C113505   1.031   4.253   9.341  0.6632 -0.1052  0.0961
  923MPD2    C213506   1.082   4.295   9.458 -0.2282 -0.1632  0.1017
  923MPD2    C313507   1.155   4.212   9.544 -0.0994  0.4476  0.1814
  923MPD2    C413508   1.175   4.078   9.506  0.7037  0.3194  0.4934
  923MPD2    C513509   1.127   4.035   9.385 -0.1349  0.0113 -0.6767
  923MPD2     H13510   1.050   4.394   9.491  1.8925  1.3669 -2.4694
  923MPD2    H113511   1.231   4.007   9.566  2.1853  0.7597 -0.3544
  923MPD2    H213512   1.018   4.089   9.209  0.0285 -0.6412  0.5432
  923MPD2    H313513   1.155   3.933   9.361  0.3445 -0.0481  0.1238
  923MPD2     N13514   1.217   4.256   9.670 -0.1045  0.2371 -0.4584
  923MPD2    H513515   1.250   4.189   9.738 -1.5086 -1.9787 -1.9469
  923MPD2    N113516   0.936   4.324   9.265  0.1634 -0.8732 -0.4531
  923MPD2    H713517   0.904   4.278   9.181 -1.1967 -1.2575  0.2763
  924MPD2     C13518   0.942   3.428  16.289 -0.5243  0.4705 -0.0718
  924MPD2    C113519   0.864   3.450  16.176  0.8410 -0.6829 -0.0393
  924MPD2    C213520   0.837   3.578  16.134 -0.0152 -0.1622  0.0328
  924MPD2    C313521   0.888   3.687  16.206  0.5693 -0.1971 -0.1451
  924MPD2    C413522   0.965   3.669  16.319 -0.1490  0.3233 -0.4113
  924MPD2    C513523   0.991   3.540  16.368 -0.1015  0.4776 -0.3597
  924MPD2     H13524   0.778   3.588  16.043  1.8840  1.6898 -0.9799
  924MPD2    H113525   1.004   3.757  16.370 -1.4062  0.9313 -0.4895
  924MPD2    H213526   0.993   3.333  16.299 -1.8336 -0.2457 -0.1389
  924MPD2    H313527   1.056   3.525  16.454  0.2421  2.2098 -0.3117
  924MPD2     N13528   0.835   3.819  16.182  0.5214  0.0745 -0.0838
  924MPD2    H513529   0.856   3.893  16.248  0.3041 -0.4655  0.5913
  924MPD2    N113530   0.824   3.338  16.099 -0.6353  0.0150 -0.3066
  924MPD2    H713531   0.844   3.247  16.140  1.3218  1.6789  2.4394
  925MPD2     C13532   4.202   0.885  15.216  0.1373  0.8785 -0.1675
  925MPD2    C113533   4.079   0.932  15.159 -0.3093 -0.2328 -0.2089
  925MPD2    C213534   3.964   0.940  15.240 -0.0663  0.0154 -0.4738
  925MPD2    C313535   3.963   0.892  15.370  0.2296 -0.3559 -0.4323
  925MPD2    C413536   4.084   0.853  15.419 -0.1893 -0.1002  0.8070
  925MPD2    C513537   4.197   0.845  15.348 -1.0846 -0.7001  0.0781
  925MPD2     H13538   3.878   0.981  15.189 -1.1262 -0.8867  0.5913
  925MPD2    H113539   4.093   0.835  15.525 -1.5341 -2.2416  0.5583
  925MPD2    H213540   4.292   0.882  15.155  1.5482  0.7207  1.9223
  925MPD2    H313541   4.290   0.804  15.388 -0.7067 -0.9297 -1.0169
  925MPD2     N13542   3.850   0.874  15.450  0.2066 -0.4927 -0.4870
  925MPD2    H513543   3.865   0.840  15.545  1.0757 -1.2179 -0.8917
  925MPD2    N113544   4.064   0.976  15.023  0.1074  0.2595 -0.2621
  925MPD2    H713545   3.975   1.018  15.001 -1.3944 -2.5175  0.4560
  926MPD2     C13546   2.782   4.323  14.096 -0.1724 -0.1306 -0.5188
  926MPD2    C113547   2.708   4.419  14.033  0.1562 -0.7419 -0.5880
  926MPD2    C213548   2.729   4.453  13.898  0.7601  0.2173  0.2576
  926MPD2    C313549   2.825   4.389  13.824 -0.2591 -0.1696 -0.0418
  926MPD2    C413550   2.893   4.284  13.883  0.0350  0.3350 -0.2457
  926MPD2    C513551   2.872   4.254  14.014  1.1699  0.1300 -0.3485
  926MPD2     H13552   2.668   4.534  13.860 -2.6349 -1.6920  1.7120
  926MPD2    H113553   2.968   4.223  13.835 -1.3688 -0.8533 -0.9464
  926MPD2    H213554   2.762   4.297  14.199 -0.4966 -0.3747 -0.6456
  926MPD2    H313555   2.933   4.174  14.055 -0.4917 -0.0978  1.6826
  926MPD2     N13556   2.853   4.432  13.694  0.7121  0.0415 -1.0541
  926MPD2    H513557   2.926   4.385  13.641  1.0295  1.2657 -1.6902
  926MPD2    N113558   2.587   4.469  14.093 -0.3275  0.3777  0.4981
  926MPD2    H713559   2.535   4.534  14.034  1.4064  1.8619  0.6285
  927MPD2     C13560   2.112   0.915   0.676 -0.2565  0.1154  0.8218
  927MPD2    C113561   2.199   0.824   0.613 -0.5449  0.5844  0.0846
  927MPD2    C213562   2.278   0.871   0.510  0.6538 -0.1827  0.0356
  927MPD2    C313563   2.268   1.002   0.462 -0.4135  0.3200 -0.4603
  927MPD2    C413564   2.182   1.091   0.537 -0.2706 -0.7152  0.2324
  927MPD2    C513565   2.103   1.045   0.638 -0.9004 -0.6171 -0.3416
  927MPD2     H13566   2.349   0.809   0.456  1.8195  0.8042  0.4127
  927MPD2    H113567   2.173   1.196   0.512 -1.0448 -1.1407 -1.3124
  927MPD2    H213568   2.052   0.877   0.758 -0.3651 -0.7956  0.3087
  927MPD2    H313569   2.044   1.119   0.690  0.8035  0.2183  0.3954
  927MPD2     N13570   2.365   1.049   0.368 -0.0664  0.3889  0.5340
  927MPD2    H513571   2.417   0.982   0.312 -0.1119  2.4514 -1.9972
  927MPD2    N113572   2.206   0.698   0.674 -0.4314  0.1117 -0.3807
  927MPD2    H713573   2.144   0.685   0.754  0.1910 -2.8227 -0.3890
  928MPD2     C13574   0.516   3.893   0.976 -0.7971  0.0694 -0.3534
  928MPD2    C113575   0.576   4.002   1.040  0.4859  0.0304 -0.5532
  928MPD2    C213576   0.641   4.096   0.964 -0.1389 -0.2898 -0.1904
  928MPD2    C313577   0.652   4.082   0.831  0.1675  0.0156  0.6180
  928MPD2    C413578   0.592   3.972   0.771  0.1343 -0.3094  0.0525
  928MPD2    C513579   0.525   3.883   0.839 -0.2773  0.0889  0.4000
  928MPD2     H13580   0.687   4.178   1.018  0.0061 -0.4099 -0.1331
  928MPD2    H113581   0.596   3.953   0.664 -2.5049  1.7168 -0.3970
  928MPD2    H213582   0.466   3.811   1.025  0.1854 -1.4616 -1.9206
  928MPD2    H313583   0.476   3.804   0.783 -1.5237  0.2850  1.2140
  928MPD2     N13584   0.717   4.171   0.746  0.5296 -0.0379  0.3009
  928MPD2    H513585   0.693   4.166   0.647 -0.2422  1.6393  0.4094
  928MPD2    N113586   0.575   4.012   1.186  0.3223 -0.0209 -0.1364
  928MPD2    H713587   0.511   3.947   1.231  1.6304 -2.0880 -1.2411
  929MPD2     C13588   0.903   0.119  10.163 -0.1586  0.6647  0.3795
  929MPD2    C113589   0.786   0.059  10.209 -0.3887 -0.1895 -0.8231
  929MPD2    C213590   0.675   0.055  10.126  0.4789  0.1386  0.4822
  929MPD2    C313591   0.671   0.122  10.006 -0.0738 -0.1958 -0.0054
  929MPD2    C413592   0.781   0.185   9.965  0.3107 -0.9191  0.4137
  929MPD2    C513593   0.890   0.186  10.051 -0.0425  0.6181  0.0565
  929MPD2     H13594   0.577   0.016  10.149 -0.5657  1.0104 -2.5755
  929MPD2    H113595   0.792   0.233   9.868  0.0250  1.2956  1.4754
  929MPD2    H213596   0.986   0.123  10.233  1.2747  1.7007 -1.3830
  929MPD2    H313597   0.978   0.240  10.019 -0.1739  1.0153  0.3642
  929MPD2     N13598   0.561   0.137   9.913  0.2965 -0.0903 -0.6129
  929MPD2    H513599   0.578   0.186   9.826  2.0402 -0.9972 -0.7844
  929MPD2    N113600   0.782   0.010  10.343  1.0443  0.8213 -0.0091
  929MPD2    H713601   0.860   0.046  10.396  2.5929 -0.9001 -1.1138
  930MPD2     C13602   2.898   2.569  14.368  0.7475 -0.8437  0.4093
  930MPD2    C113603   2.782   2.632  14.321 -0.3935 -0.3917  0.6289
  930MPD2    C213604   2.656   2.572  14.346  0.2804 -0.0733  0.0527
  930MPD2    C313605   2.654   2.451  14.411 -0.3764 -0.0887 -0.9248
  930MPD2    C413606   2.767   2.393  14.458  0.2215 -0.0546 -0.4304
  930MPD2    C513607   2.889   2.448  14.434  0.1890 -0.2569 -0.1597
  930MPD2     H13608   2.571   2.628  14.308  0.3478  0.5124  0.7731
  930MPD2    H113609   2.766   2.290  14.491 -0.0796  0.2531  0.5183
  930MPD2    H213610   2.999   2.608  14.361 -0.2490  1.3179 -1.9949
  930MPD2    H313611   2.984   2.404  14.463 -0.6859 -1.7443  0.4544
  930MPD2     N13612   2.540   2.372  14.423  0.5657 -0.4926 -0.0482
  930MPD2    H513613   2.544   2.278  14.461  1.4587 -1.2465 -1.9965
  930MPD2    N113614   2.803   2.757  14.259  0.3398  0.6132 -0.3459
  930MPD2    H713615   2.898   2.794  14.263  0.9033 -0.7194 -1.3475
  931MPD2     C13616   2.859   0.475   0.980 -0.8934  0.2092  0.5519
  931MPD2    C113617   2.752   0.415   1.037 -0.0532 -0.1932  0.0950
  931MPD2    C213618   2.766   0.326   1.144 -0.0140 -0.6737  0.1594
  931MPD2    C313619   2.892   0.291   1.183  1.2294  0.4054  0.6035
  931MPD2    C413620   2.996   0.348   1.116  0.0687 -0.1463 -0.4930
  931MPD2    C513621   2.985   0.440   1.018  0.4934  0.4871  0.1092
  931MPD2     H13622   2.680   0.274   1.185 -3.5882  4.0968 -1.1836
  931MPD2    H113623   3.099   0.327   1.143 -0.2177 -0.1023  0.6644
  931MPD2    H213624   2.849   0.541   0.895 -2.0251 -0.0375  0.4932
  931MPD2    H313625   3.068   0.489   0.968  0.0462  1.6734  0.5110
  931MPD2     N13626   2.919   0.198   1.287 -0.2764 -0.1208  0.0102
  931MPD2    H513627   3.018   0.185   1.308 -0.3020 -0.8292 -0.3192
  931MPD2    N113628   2.633   0.443   0.970 -0.0119  0.9259  0.7681
  931MPD2    H713629   2.636   0.520   0.904  0.4948  0.0407 -0.2605
  932MPD2     C13630   3.984   0.844  11.022  0.0156 -0.3997 -0.1664
  932MPD2    C113631   4.075   0.863  11.126 -0.5289  0.5424  0.3942
  932MPD2    C213632   4.092   0.756  11.205  0.2952 -0.4620 -0.6218
  932MPD2    C313633   4.019   0.635  11.197  0.6290 -0.3218 -0.0595
  932MPD2    C413634   3.920   0.626  11.096  0.1461  0.1698 -0.4412
  932MPD2    C513635   3.908   0.732  11.010  0.1819 -0.4887  0.2394
  932MPD2     H13636   4.149   0.772  11.296  1.9708 -1.1464 -1.5692
  932MPD2    H113637   3.863   0.537  11.073  0.1918 -0.5864  2.4462
  932MPD2    H213638   3.966   0.928  10.955  0.7642 -1.2630 -1.4497
  932MPD2    H313639   3.829   0.725  10.936 -1.1686  1.3295  1.4877
  932MPD2     N13640   4.034   0.532  11.284  0.1439  0.0405  0.1522
  932MPD2    H513641   3.990   0.445  11.257 -1.4496  1.0266 -0.4148
  932MPD2    N113642   4.163   0.978  11.140  0.3027  1.3311 -0.3436
  932MPD2    H713643   4.236   0.963  11.209 -2.4018 -0.9923  2.0373
  933MPD2     C13644   0.116   4.137   1.885 -0.4645  0.1948 -0.4440
  933MPD2    C113645   0.146   4.179   1.761  0.8513 -0.1026  0.5538
  933MPD2    C213646   0.074   4.276   1.698 -0.4244  1.1398 -0.0788
  933MPD2    C313647   4.695   4.337   1.768  0.4367  0.3089  0.4751
  933MPD2    C413648   4.661   4.292   1.895  0.9503  0.6346 -0.8524
  933MPD2    C513649   0.017   4.192   1.951  0.0217 -0.4142  0.9654
  933MPD2     H13650   0.102   4.304   1.597 -1.0043 -1.0031 -0.8428
  933MPD2    H113651   4.583   4.344   1.950  0.0842  0.6802 -2.1260
  933MPD2    H213652   0.178   4.066   1.938 -2.9972 -1.9720 -0.3480
  933MPD2    H313653   0.013   4.173   2.058 -1.4290  0.4854  1.0693
  933MPD2     N13654   4.635   4.447   1.702  0.1540  1.2316 -0.3863
  933MPD2    H513655   4.674   4.462   1.610  0.7392 -0.8574 -0.4784
  933MPD2    N113656   0.267   4.129   1.707 -0.5950 -0.3175  0.1412
  933MPD2    H713657   0.327   4.086   1.776  0.0522  1.0801  0.4519
  934MPD2     C13658   2.367   1.386   1.668 -0.0599 -0.0266 -0.5128
  934MPD2    C113659   2.345   1.251   1.670  0.2127 -0.0955  0.0848
  934MPD2    C213660   2.208   1.214   1.683 -0.5223  0.1028 -0.1193
  934MPD2    C313661   2.112   1.311   1.710 -0.2433  0.1967  0.1460
  934MPD2    C413662   2.137   1.445   1.720  0.6664 -0.2336 -0.2417
  934MPD2    C513663   2.267   1.482   1.692 -0.3611  0.8074 -0.3943
  934MPD2     H13664   2.180   1.110   1.673 -1.1631  0.1904  0.7116
  934MPD2    H113665   2.063   1.521   1.740  0.8144 -0.0846 -0.2602
  934MPD2    H213666   2.465   1.432   1.660  1.4611 -3.1187 -0.0849
  934MPD2    H313667   2.299   1.586   1.696  1.7637  0.1194  0.3663
  934MPD2     N13668   1.978   1.286   1.718  0.2598 -0.2368  0.2926
  934MPD2    H513669   1.912   1.363   1.721  3.8401  2.8204  0.0676
  934MPD2    N113670   2.443   1.154   1.636  0.2455  0.0803 -0.4307
  934MPD2    H713671   2.409   1.064   1.604  0.6354 -0.2697  0.1538
  935MPD2     C13672   1.396   0.506   1.472 -0.2671  0.0146  0.7826
  935MPD2    C113673   1.349   0.628   1.426 -0.0795 -0.4114  0.3199
  935MPD2    C213674   1.374   0.743   1.493  0.4802  0.0944  0.4855
  935MPD2    C313675   1.468   0.739   1.589 -0.0121 -0.3376 -0.0876
  935MPD2    C413676   1.516   0.619   1.635  0.1597  0.1900  0.1835
  935MPD2    C513677   1.468   0.505   1.583 -0.2230  0.0239 -0.1153
  935MPD2     H13678   1.339   0.839   1.457  1.0132  0.0135 -0.2278
  935MPD2    H113679   1.588   0.626   1.716 -3.0663  0.5135  3.0454
  935MPD2    H213680   1.363   0.419   1.417 -0.0126 -0.5516  1.5282
  935MPD2    H313681   1.497   0.410   1.626  0.2438 -0.9657 -2.6324
  935MPD2     N13682   1.519   0.863   1.644 -0.7394  0.0231 -0.0758
  935MPD2    H513683   1.592   0.841   1.712 -0.4834  2.6486  0.4836
  935MPD2    N113684   1.262   0.643   1.314  0.4714  0.5350 -0.2297
  935MPD2    H713685   1.235   0.739   1.292 -0.0546 -0.1016 -2.3696
  936MPD2     C13686   4.535   4.533  12.932  0.2008  0.1034  0.7676
  936MPD2    C113687   4.622   4.432  12.973 -1.3628 -0.4195 -0.2428
  936MPD2    C213688   4.719   4.400  12.879 -0.2202  0.3082  0.5240
  936MPD2    C313689   0.007   4.462  12.760 -0.1252  0.3865 -0.7807
  936MPD2    C413690   4.652   4.566  12.726  0.1454  0.7426 -0.1146
  936MPD2    C513691   4.557   4.604  12.809  0.1171  0.3289  0.1391
  936MPD2     H13692   0.071   4.325  12.896  0.3151  0.4836 -1.0909
  936MPD2    H113693   4.646   4.610  12.627 -0.4616 -0.0292 -0.4237
  936MPD2    H213694   4.448   4.568  12.987  1.1619  0.1910  2.2254
  936MPD2    H313695   4.492   4.688  12.785 -1.4647 -1.0589 -0.3604
  936MPD2     N13696   0.110   4.415  12.678  0.0028  1.0585  0.0215
  936MPD2    H513697   0.155   4.333  12.718  0.1198 -0.6137 -3.6232
  936MPD2    N113698   4.618   4.367  13.105  0.0542  0.3948 -0.6905
  936MPD2    H713699   4.676   4.287  13.127  0.8301  1.1301 -0.0700
  937MPD2     C13700   2.610   0.691  11.723  0.4134 -0.0581 -0.1543
  937MPD2    C113701   2.667   0.806  11.668  0.0681  0.2042 -0.0896
  937MPD2    C213702   2.766   0.794  11.566 -0.2078  0.2709  0.5544
  937MPD2    C313703   2.802   0.672  11.521  0.2902  0.0475  0.5390
  937MPD2    C413704   2.745   0.559  11.569  0.3275  0.0535 -0.3155
  937MPD2    C513705   2.645   0.574  11.665 -0.9259 -0.0575 -0.0406
  937MPD2     H13706   2.813   0.883  11.525  1.3467 -0.6344  0.3858
  937MPD2    H113707   2.776   0.458  11.548  0.9954 -0.2842  2.2379
  937MPD2    H213708   2.534   0.688  11.800  1.2967  0.3981  0.7320
  937MPD2    H313709   2.601   0.481  11.698 -1.9008  0.7002  0.7783
  937MPD2     N13710   2.915   0.666  11.428 -0.1306  0.1884  0.1666
  937MPD2    H513711   2.958   0.750  11.391 -0.5880 -0.0176 -0.8515
  937MPD2    N113712   2.655   0.935  11.736  0.7599  0.7719 -0.1265
  937MPD2    H713713   2.706   1.018  11.706  1.2553  1.4777  2.6546
  938MPD2     C13714   0.254   1.193   1.034 -0.1018 -0.2977  0.4417
  938MPD2    C113715   0.374   1.134   1.070  0.2823 -0.0631 -0.4137
  938MPD2    C213716   0.372   1.016   1.134  0.0628 -0.9731  0.3825
  938MPD2    C313717   0.249   0.956   1.165  0.1950 -0.6027 -0.2729
  938MPD2    C413718   0.130   1.023   1.150  0.4090  0.6271  0.2493
  938MPD2    C513719   0.139   1.137   1.073  0.4384 -0.7309  0.4908
  938MPD2     H13720   0.467   0.969   1.158  0.8022  1.3092  1.8940
  938MPD2    H113721   0.036   0.980   1.183  1.6863 -2.5178 -0.1995
  938MPD2    H213722   0.258   1.294   0.996 -0.8847 -0.2254  0.5539
  938MPD2    H313723   0.043   1.189   1.078 -0.6842 -2.7817  0.0552
  938MPD2     N13724   0.236   0.833   1.233  0.3339 -0.3450 -0.0034
  938MPD2    H513725   0.143   0.803   1.259  0.8583 -1.7474  0.2342
  938MPD2    N113726   0.486   1.214   1.047 -0.4422  0.5476 -0.2826
  938MPD2    H713727   0.478   1.310   1.015  0.7440 -0.1775 -2.7411
  939MPD2     C13728   3.032   2.707   1.102  0.1161  0.4241  0.6788
  939MPD2    C113729   2.953   2.822   1.090  0.2577 -0.0207 -0.0952
  939MPD2    C213730   2.929   2.885   0.970 -0.6813 -0.2051 -0.1791
  939MPD2    C313731   2.974   2.821   0.859  0.0766  0.5381  0.6140
  939MPD2    C413732   3.044   2.707   0.867 -0.2629  0.3856 -0.2534
  939MPD2    C513733   3.081   2.649   0.990 -0.2008  0.5010  0.0958
  939MPD2     H13734   2.883   2.982   0.962 -1.3603 -0.4636  0.5399
  939MPD2    H113735   3.072   2.652   0.778 -2.1606  0.2184 -0.7467
  939MPD2    H213736   3.056   2.660   1.197 -0.2538 -0.9333  0.0953
  939MPD2    H313737   3.149   2.565   1.002 -1.4269 -0.7190 -1.3997
  939MPD2     N13738   2.933   2.888   0.739 -0.5618 -0.0305 -0.4305
  939MPD2    H513739   2.881   2.973   0.757  0.1708  0.3818 -0.2499
  939MPD2    N113740   2.905   2.873   1.211  0.0506  0.6469  0.3353
  939MPD2    H713741   2.937   2.828   1.296 -2.3575  0.3756  1.1054
  940MPD2     C13742   0.768   4.297  13.554 -0.7232  0.0005 -0.6156
  940MPD2    C113743   0.732   4.168  13.517 -0.1314 -0.5695  0.2212
  940MPD2    C213744   0.801   4.104  13.411  0.3747 -0.2528 -0.1149
  940MPD2    C313745   0.912   4.160  13.350  0.4439  0.3588  0.2930
  940MPD2    C413746   0.945   4.293  13.380 -0.0659 -0.4737 -0.2595
  940MPD2    C513747   0.876   4.353  13.482  0.1315  0.0070  0.2412
  940MPD2     H13748   0.770   4.003  13.384 -0.9930  0.3935 -0.9834
  940MPD2    H113749   1.025   4.350  13.334 -0.7867 -0.4937 -1.5421
  940MPD2    H213750   0.722   4.342  13.641  3.4768  0.3125  1.4641
  940MPD2    H313751   0.912   4.453  13.503 -1.5670  0.9483 -1.2985
  940MPD2     N13752   0.970   4.095  13.238 -0.4627 -0.1534  0.1993
  940MPD2    H513753   1.043   4.143  13.186 -0.0292 -0.2544  0.7139
  940MPD2    N113754   0.618   4.097  13.580 -0.0576 -0.0326 -0.0565
  940MPD2    H713755   0.612   3.999  13.556 -0.2875 -0.3521  1.3307
  941MPD2     C13756   3.982   2.950   9.783 -0.2108 -0.4622 -1.2262
  941MPD2    C113757   4.051   2.904   9.895 -0.0694  0.7790 -0.1784
  941MPD2    C213758   4.037   2.771   9.925  0.4626  0.6723  0.0736
  941MPD2    C313759   3.965   2.683   9.843 -0.4104 -0.8862  0.6026
  941MPD2    C413760   3.895   2.735   9.735  0.1226  0.8249 -0.2801
  941MPD2    C513761   3.908   2.869   9.701  0.1007 -0.3673 -0.3162
  941MPD2     H13762   4.092   2.727  10.008 -2.0017 -3.3146 -0.4121
  941MPD2    H113763   3.835   2.674   9.669 -2.1037 -1.8269  4.2205
  941MPD2    H213764   3.996   3.053   9.752  0.5955 -0.6650 -1.5143
  941MPD2    H313765   3.862   2.902   9.609 -0.3504  0.1671  0.1016
  941MPD2     N13766   3.965   2.543   9.859  0.0714  0.6181 -0.1875
  941MPD2    H513767   3.900   2.488   9.803  1.1750  0.7559 -1.5829
  941MPD2    N113768   4.135   2.995   9.974 -0.6093  0.0187  0.8274
  941MPD2    H713769   4.189   2.951  10.048 -1.0444 -2.1996 -0.1692
  942MPD2     C13770   4.674   4.652   9.600 -0.1265  0.6913 -0.8304
  942MPD2    C113771   4.699   4.543   9.681  0.5984  1.0184 -0.0739
  942MPD2    C213772   0.080   4.462   9.646 -0.1587  0.4851 -0.6677
  942MPD2    C313773   0.153   4.480   9.531  0.1806 -0.3457  0.5291
  942MPD2    C413774   0.123   4.587   9.449 -0.4126 -0.0664 -0.4062
  942MPD2    C513775   0.028   4.675   9.493 -0.8952 -0.3882  0.8835
  942MPD2     H13776   0.096   4.380   9.716  0.7935  1.2327 -0.0091
  942MPD2    H113777   0.176   4.596   9.355 -0.7104  2.6455 -0.3244
  942MPD2    H213778   4.590   4.717   9.620  0.9900  0.8791  3.2876
  942MPD2    H313779   4.711   0.021   9.421  0.0075 -0.4706  0.2875
  942MPD2     N13780   0.268   4.396   9.510  0.1748  0.1899  0.1153
  942MPD2    H513781   0.292   4.336   9.588 -0.2816  0.4381  0.4452
  942MPD2    N113782   4.623   4.509   9.786 -0.0412 -0.3447 -0.1924
  942MPD2    H713783   4.645   4.425   9.839 -1.6742 -1.1730 -0.8198
  943MPD2     C13784   3.748   2.888  10.261 -0.2660  0.8061 -0.4906
  943MPD2    C113785   3.636   2.811  10.237  0.6369 -0.1157 -0.6495
  943MPD2    C213786   3.590   2.792  10.106  0.0170 -0.6960 -0.2849
  943MPD2    C313787   3.653   2.866  10.008 -0.0350 -0.4447 -0.3409
  943MPD2    C413788   3.751   2.954  10.038  0.3819 -0.6140 -0.7451
  943MPD2    C513789   3.806   2.959  10.163  0.5241  0.0645 -0.3610
  943MPD2     H13790   3.517   2.719  10.075 -1.2509  0.4479  0.0167
  943MPD2    H113791   3.800   3.011   9.960  0.5344  1.5219  0.9167
  943MPD2    H213792   3.796   2.893  10.359  1.1574 -1.1540 -1.0939
  943MPD2    H313793   3.877   3.036  10.192 -1.6025  0.8222  2.7497
  943MPD2     N13794   3.612   2.871   9.870  0.1458 -0.2063 -0.0541
  943MPD2    H513795   3.652   2.943   9.811  2.0329 -1.8615 -0.7906
  943MPD2    N113796   3.581   2.743  10.345 -0.3079 -0.8165 -0.1092
  943MPD2    H713797   3.638   2.742  10.429 -0.1660 -2.9626 -0.2463
  944MPD2     C13798   3.518   1.556  11.055  0.2965 -0.3123  0.4176
  944MPD2    C113799   3.389   1.599  11.049  0.2880  0.2960 -0.0566
  944MPD2    C213800   3.305   1.580  11.152 -0.2511 -0.1005 -0.4444
  944MPD2    C313801   3.341   1.506  11.262  0.3764  0.3843  0.1971
  944MPD2    C413802   3.473   1.458  11.269  0.1488  0.3142 -0.4983
  944MPD2    C513803   3.561   1.486  11.167 -0.0505 -0.9480 -0.1042
  944MPD2     H13804   3.202   1.613  11.151  0.2009  1.2868 -1.6334
  944MPD2    H113805   3.513   1.399  11.350 -2.4100  0.6351  0.9806
  944MPD2    H213806   3.593   1.573  10.978 -0.8691  3.0437  0.0113
  944MPD2    H313807   3.665   1.454  11.168  0.3225  0.2602 -1.0273
  944MPD2     N13808   3.254   1.497  11.371 -0.4447 -0.0080  0.2933
  944MPD2    H513809   3.183   1.569  11.367 -2.2792 -1.8572 -0.0198
  944MPD2    N113810   3.353   1.669  10.929 -0.3670 -0.0219 -0.2117
  944MPD2    H713811   3.425   1.694  10.862 -0.8993  1.0734 -0.3747
    1TCq1    O113812   0.632   3.017  14.218  0.5727  0.1269 -0.0985
    1TCq1    C113813   0.684   2.936  14.134 -0.2045  0.5677  0.2176
    1TCq1    O213814   0.638   2.825  14.110  0.3153 -0.4681  0.0328
    1TCq1    C213815   0.818   2.984  14.098  0.1738  0.3068 -0.1739
    1TCq1    C313816   0.871   2.936  13.981  0.3683 -0.9676  0.1643
    1TCq1    C413817   1.000   2.967  13.950  0.1485  0.5310  0.2254
    1TCq1    C513818   1.068   3.061  14.016 -0.2739 -0.3530 -0.0228
    1TCq1    C613819   1.019   3.109  14.130  0.3035 -0.1151  0.7845
    1TCq1    C713820   0.886   3.076  14.174  0.0579 -0.2442 -0.3109
    1TCq1    C813821   1.099   3.199  14.218  0.0642 -0.3546  0.0750
    1TCq1    O413822   1.031   3.265  14.292 -0.3512 -0.6875 -0.0155
    1TCq1    C913823   1.073   2.885  13.857 -0.2837 -0.2060 -0.4836
    1TCq1    O513824   1.009   2.845  13.753 -0.3490  0.0448  0.0821
    1TCq1    O613825   1.193   2.868  13.884 -0.2438  0.3995  0.2979
    1TCq1    H113826   0.661   3.110  14.224 -0.1601  0.4422 -1.3865
    1TCq1    H213827   0.817   2.864  13.921 -1.1678 -2.0031  2.7472
    1TCq1    H313828   1.171   3.074  13.985 -0.5598  1.4247 -0.2262
    1TCq1    H413829   0.849   3.105  14.271  3.2662  1.4530  0.4176
    2MPD2     C13830   1.513   3.349  14.490  0.5696 -0.1703 -0.0283
    2MPD2    C113831   1.390   3.407  14.469  0.5978 -0.2921 -0.2703
    2MPD2    C213832   1.298   3.349  14.387 -0.1605 -0.5761  0.3142
    2MPD2    C313833   1.323   3.236  14.311  0.2788  0.3165  0.1193
    2MPD2    C413834   1.450   3.180  14.330  0.0770 -0.0365 -0.3050
    2MPD2    C513835   1.540   3.235  14.417  0.0774 -0.6026  0.2481
    2MPD2     H13836   1.204   3.401  14.372  0.2897  0.4109  0.9522
    2MPD2    H113837   1.469   3.089  14.274 -2.5436  1.6721 -4.0111
    2MPD2    H213838   1.584   3.371  14.569  0.2612  0.9897 -0.0748
    2MPD2    H313839   1.638   3.192  14.433  0.8675  1.6753  1.5598
    2MPD2     N13840   1.236   3.180  14.215 -0.3608 -0.3757 -0.2593
    2MPD2    H513841   1.284   3.105  14.166  1.6494  1.8361 -1.6868
    2MPD2    N113842   1.364   3.533  14.532  0.0694 -0.3641 -0.9061
    2MPD2    H713843   1.441   3.577  14.582  0.4139 -0.6107 -1.2182
    3TMC2    C113844   1.258   3.741  14.587 -0.4606 -0.2647  0.0301
    3TMC2    C213845   1.379   3.789  14.631 -0.0711 -0.2136  1.4300
    3TMC2    C313846   1.402   3.926  14.646 -0.2278  0.3295  0.7631
    3TMC2    C413847   1.158   3.823  14.565  0.0025  0.3081 -0.3385
    3TMC2    C513848   1.178   3.954  14.583  0.0963  0.2236  0.1167
    3TMC2    C613849   1.300   4.008  14.625  0.1468 -0.4236  0.1561
    3TMC2     C13850   1.249   3.607  14.522 -1.0124 -0.3950  0.0705
    3TMC2     O13851   1.141   3.580  14.469 -0.0603  0.4489  0.3972
    3TMC2     H13852   1.450   3.713  14.660  0.5370  0.0294  0.5495
    3TMC2    H113853   1.066   3.787  14.520 -0.3680  1.5968 -0.5966
    3TMC2    H213854   1.308   4.115  14.643  0.0717 -0.6233  1.3426
    3TMC2    C713855   1.061   4.040  14.558 -0.4515  0.4773  0.3188
    3TMC2    C813856   1.523   3.977  14.708  0.7396 -0.5148 -0.4076
    3TMC2    O113857   0.951   4.006  14.594 -0.1696 -0.2013  0.3935
    3TMC2    O213858   1.524   4.069  14.786 -0.0945  0.6037 -0.6386
    3TMC2    O513859   1.635   3.925  14.651 -0.3013 -0.5512  0.0251
    3TMC2    H513860   1.614   3.850  14.592  0.6444  0.5186 -1.6966
    4MPD2     C13861   0.839   0.293  13.492 -1.1083  0.5662  0.0707
    4MPD2    C113862   0.811   0.169  13.542 -0.3902 -0.0466  0.6374
    4MPD2    C213863   0.847   0.145  13.673  0.1891 -0.3638  1.0827
    4MPD2    C313864   0.897   0.242  13.757 -0.7940 -0.6104 -0.4020
    4MPD2    C413865   0.895   0.373  13.712  0.2706  0.0126 -0.3647
    4MPD2    C513866   0.882   0.393  13.577 -0.1276  0.2326  0.1842
    4MPD2     H13867   0.836   0.042  13.707  2.1896 -0.6822  0.7747
    4MPD2    H113868   0.927   0.456  13.774  0.2605  0.5920 -1.1411
    4MPD2    H213869   0.815   0.307  13.387  0.1731  1.0660 -0.1514
    4MPD2    H313870   0.887   0.492  13.533 -0.3914 -0.3849 -1.2375
    4MPD2     N13871   0.947   0.193  13.880 -0.2494  0.4038  0.2231
    4MPD2    H513872   0.947   0.093  13.896  1.4221  0.0038 -2.2249
    4MPD2    N113873   0.764   0.066  13.451 -0.0964  0.7079  0.0219
    4MPD2    H713874   0.756   0.098  13.354 -0.9964 -1.2194 -0.5306
    5TCq2    C113875   0.992   0.280  13.981 -0.5594  0.3711 -0.3850
    5TCq2    O213876   0.994   0.401  13.981  0.3447  0.0589 -0.3725
    5TCq2    C213877   1.069   0.224  14.091  0.2716 -0.1587 -0.6151
    5TCq2    C313878   1.161   0.304  14.152 -0.1511  0.3660 -0.4024
    5TCq2    C413879   1.246   0.250  14.249 -0.2822 -0.0252  0.1737
    5TCq2    C513880   1.235   0.121  14.283  0.3145 -0.5604  0.2489
    5TCq2    C613881   1.141   0.044  14.222 -0.1562  0.4889  0.1332
    5TCq2    C713882   1.051   0.089  14.130 -0.0098  0.3436 -0.1110
    5TCq2    C813883   1.142   4.629  14.258 -0.5176  0.5811  0.2483
    5TCq2    O413884   1.250   4.576  14.287  0.2323  0.1901  0.0326
    5TCq2    C913885   1.363   0.327  14.300  0.0001 -0.1916  0.5816
    5TCq2    O513886   1.347   0.453  14.310 -0.6157  0.6591 -0.4082
    5TCq2    O613887   1.445   0.263  14.368  1.1189  0.1726 -0.1611
    5TCq2    H213888   1.178   0.409  14.128  1.8636  0.6939  2.4990
    5TCq2    H313889   1.308   0.076  14.349  1.2693  0.7225  0.0662
    5TCq2    H413890   0.982   0.024  14.078 -1.3281  0.4264  1.5207
    6MPD1     C13891   4.165   0.455  12.333 -0.0754  0.5444  0.5567
    6MPD1    C113892   4.180   0.534  12.449 -0.0815  0.2341 -0.3162
    6MPD1    C213893   4.260   0.487  12.551  0.1298 -1.2534 -0.1567
    6MPD1    C313894   4.354   0.385  12.528  0.3497 -0.5860  0.1589
    6MPD1    C413895   4.348   0.325  12.397  0.6873  0.7528 -1.0433
    6MPD1    C513896   4.251   0.356  12.309 -0.4241 -0.5067  0.4064
    6MPD1     H13897   4.262   0.542  12.644  0.6593  0.9121 -1.4449
    6MPD1    H113898   4.422   0.250  12.370 -0.8963 -1.4238  0.6777
    6MPD1    H213899   4.101   0.483  12.250  0.6137 -0.1186 -0.1951
    6MPD1    H313900   4.252   0.320  12.207 -0.6063  2.7415 -0.7390
    6MPD1     N13901   4.461   0.346  12.612  0.0643  0.2298  0.5931
    6MPD1    H513902   4.525   0.279  12.569 -0.9721 -0.2076 -0.2658
    6MPD1    N113903   4.078   0.625  12.484  0.0023  0.4191  0.7704
    6MPD1    H613904   4.028   0.657  12.402  0.3287 -0.5612  0.1830
    6MPD1    H713905   4.112   0.699  12.544 -0.2650 -1.6368  3.4503
    7MPD2     C13906   4.685   0.012  13.375 -0.4542 -0.2320 -0.3557
    7MPD2    C113907   0.058   0.019  13.277 -0.1826 -0.1764 -0.1421
    7MPD2    C213908   0.168   4.660  13.284  0.5557  0.8981 -0.3938
    7MPD2    C313909   0.190   4.575  13.391  0.4203 -0.0873 -0.0524
    7MPD2    C413910   0.099   4.588  13.499  0.2038 -0.2031 -0.1174
    7MPD2    C513911   4.712   4.669  13.494  0.1553  0.4096 -0.1059
    7MPD2     H13912   0.236   4.669  13.200  1.6435  0.2006  0.4174
    7MPD2    H113913   0.117   4.537  13.593 -1.1890 -4.2307 -2.0563
    7MPD2    H213914   4.596   0.074  13.373  0.8858  1.6232 -3.4987
    7MPD2    H313915   4.652   4.680  13.584  0.2468 -0.9353  0.1153
    7MPD2     N13916   0.310   4.490  13.397  0.8410  0.0572  0.4783
    7MPD2    H513917   0.343   4.470  13.491  0.8374 -2.0935  0.0193
    7MPD2    N113918   0.037   0.089  13.158  0.1508 -0.8632 -0.0458
    7MPD2    H713919   0.124   0.101  13.108  1.3707 -0.6464  2.1219
    8TMC3    C113920   0.524   4.431  13.312  0.4208 -0.0833 -0.1044
    8TMC3    C213921   0.561   4.521  13.410  0.1740  0.8096  0.2686
    8TMC3    C313922   0.676   4.589  13.380  0.1012  0.6358  0.0787
    8TMC3    C413923   0.592   4.424  13.193 -0.0431  0.8413  0.7604
    8TMC3    C513924   0.700   4.500  13.166 -0.1097  0.3440  0.1431
    8TMC3    C613925   0.743   4.597  13.258 -0.6992 -0.0509  0.1467
    8TMC3     C13926   0.382   4.462  13.284 -0.3799 -0.8700  0.1095
    8TMC3     O13927   0.364   4.482  13.163  0.2980 -0.9469 -0.2517
    8TMC3     H13928   0.524   4.523  13.512 -0.5751  0.0168  0.0094
    8TMC3    H113929   0.566   4.352  13.117  0.4577 -1.3994  2.7020
    8TMC3    H213930   0.838   4.647  13.241 -0.8696 -0.0846 -0.9172
    8TMC3    C713931   0.707   4.539  13.029 -1.1351 -0.0052 -0.3958
    8TMC3    C813932   0.734   4.663  13.489  0.0571  0.5666  0.1555
    8TMC3    O113933   0.812   4.589  12.992  0.0550 -0.3011 -0.4362
    8TMC3    O213934   0.718   4.611  13.602 -0.1818 -0.4324 -0.1719
    9TMC3    C113935   4.595   0.332  12.803 -0.2065 -0.4918  0.1139
    9TMC3    C213936   4.686   0.277  12.719 -0.6899 -0.6237  0.2067
    9TMC3    C313937   0.038   0.180  12.769  0.3053  0.0517  0.5895
    9TMC3    C413938   4.570   0.290  12.927 -0.1362  0.6096  0.7907
    9TMC3    C513939   4.650   0.189  12.979  0.3414  0.4822  0.1143
    9TMC3    C613940   0.017   0.138  12.897  0.4702 -0.4129  0.2178
    9TMC3     C13941   4.483   0.399  12.739 -0.2429  0.0055  0.1289
    9TMC3     O13942   4.398   0.456  12.811  0.6722 -0.3792  0.0909
    9TMC3     H13943   4.697   0.317  12.619 -1.1252  0.4553  0.5835
    9TMC3    H113944   4.493   0.338  12.985 -0.5688 -0.6185  1.2197
    9TMC3    H213945   0.072   0.052  12.931  0.9086  0.1191  0.8539
    9TMC3    C713946   4.650   0.164  13.120 -0.4097 -0.4944 -0.1830
    9TMC3    C813947   0.158   0.149  12.703  0.8915  0.1083  0.4278
    9TMC3    O113948   4.546   0.196  13.178 -0.2434  0.1486  0.4019
    9TMC3    O213949   0.175   0.201  12.595  0.5143  0.3902 -0.0362
   10MPD2     C13950   0.627   4.678  12.773  0.1192 -0.8156 -0.1081
   10MPD2    C113951   0.537   4.623  12.865 -0.4935  0.0889  0.3136
   10MPD2    C213952   0.405   4.640  12.839  0.3376 -0.0981  0.4279
   10MPD2    C313953   0.361   0.004  12.748 -0.5353  0.3852  0.3819
   10MPD2    C413954   0.447   0.047  12.649 -0.5258  0.1078 -0.2564
   10MPD2    C513955   0.580   0.026  12.665 -0.6751  0.5381  0.4183
   10MPD2     H13956   0.332   4.596  12.906  1.8124  0.1567  2.2012
   10MPD2    H113957   0.416   0.109  12.565 -0.0175  0.5197 -0.1433
   10MPD2    H213958   0.732   4.654  12.778 -0.3729 -3.1115 -0.7344
   10MPD2    H313959   0.653   0.062  12.594  0.4768 -0.2932  1.1647
   10MPD2     N13960   0.232   0.055  12.775 -0.4264  0.5685 -0.0841
   10MPD2    H513961   0.192   0.035  12.866 -0.1198 -1.6526 -0.4362
   10MPD2    N113962   0.580   4.548  12.980 -0.9816 -0.6378 -0.1865
   10MPD2    H713963   0.505   4.527  13.046  0.4973 -4.4277  0.2972
   11MPD2     C13964   0.867   4.225  14.428 -0.1235 -0.2128  0.6150
   11MPD2    C113965   0.998   4.250  14.440  0.0411  0.8351  0.0598
   11MPD2    C213966   1.046   4.366  14.386  0.0263  0.3531  0.6399
   11MPD2    C313967   0.967   4.454  14.308  1.0685 -0.1345 -0.1690
   11MPD2    C413968   0.832   4.422  14.293  0.0835 -0.3807  0.1039
   11MPD2    C513969   0.786   4.304  14.347 -0.1187 -0.1367  0.5114
   11MPD2     H13970   1.148   4.400  14.403  0.7831 -0.7687 -1.4890
   11MPD2    H113971   0.765   4.481  14.233 -1.4964 -1.7218  0.5509
   11MPD2    H213972   0.822   4.132  14.463 -0.5756  0.2851  1.3517
   11MPD2    H313973   0.686   4.269  14.326  0.8959 -1.6663 -1.7970
   11MPD2     N13974   1.010   4.579  14.258 -0.2442 -0.7250  0.0765
   11MPD2    H513975   0.936   4.633  14.216 -0.8521 -1.0073  0.7800
   11MPD2    N113976   1.093   4.161  14.495 -0.5653  0.2114  0.2367
   11MPD2    H713977   1.192   4.181  14.479 -0.6385  0.5909  0.2564
    1MPD1     C13978   4.533   4.006   0.040 -0.7848 -1.2026  0.1821
    1MPD1    C113979   4.455   4.056  17.639  0.2176  0.3849 -0.2580
    1MPD1    C213980   4.497   4.175  17.583 -0.7158 -0.4321  1.2675
    1MPD1    C313981   4.596   4.255  17.638 -0.1050  0.2873  0.6762
    1MPD1    C413982   4.660   4.212   0.055 -0.1793 -0.4131 -0.2638
    1MPD1    C513983   4.638   4.083   0.091  1.0475  0.2335  0.2226
    1MPD1     H13984   4.449   4.209  17.492  1.1662 -0.7449  0.1542
    1MPD1    H113985   0.004   4.269   0.117 -1.0654 -0.5185  0.8062
    1MPD1    H213986   4.530   3.904   0.076  1.7571 -0.6324  2.0069
    1MPD1    H313987   4.686   4.048   0.182  0.8052 -3.2876 -1.0118
    1MPD1     N13988   4.631   4.375  17.561 -0.3566  0.5476  0.1320
    1MPD1    H513989   4.569   4.396  17.483  2.0082  0.0394 -1.8707
    1MPD1    N113990   4.360   3.972  17.576 -0.1119 -0.6000 -0.0596
    1MPD1    H613991   4.299   4.015  17.507 -0.4219 -1.6215 -0.4159
    1MPD1    H713992   4.320   3.900  17.636  0.1182  0.0993  0.9243
    2MPD1     C13993   0.520   4.454  16.797 -0.3553 -0.1114 -0.3013
    2MPD1    C113994   0.418   4.539  16.761  0.6548  0.0940 -0.2892
    2MPD1    C213995   0.331   4.576  16.865  0.1533  0.1721  0.1056
    2MPD1    C313996   0.370   4.560  16.998 -0.0486  1.1210 -0.1534
    2MPD1    C413997   0.484   4.490  17.032  0.9041  1.2009  0.5603
    2MPD1    C513998   0.554   4.428  16.933 -0.8350 -0.0742  0.0878
    2MPD1     H13999   0.235   4.612  16.832  0.2952  0.8746  0.4683
    2MPD1    H114000   0.502   4.471  17.137 -5.2092 -0.6990  1.2444
    2MPD1    H214001   0.581   4.416  16.716 -1.9083 -0.1157 -1.4484
    2MPD1    H314002   0.630   4.357  16.962 -0.0691  0.6608 -0.1235
    2MPD1     N14003   0.284   4.608  17.103 -0.1017  0.0287  0.5220
    2MPD1    H514004   0.194   4.642  17.072 -0.7300 -0.2968  2.0406
    2MPD1    N114005   0.380   4.546  16.626  0.4172  0.0103  0.3280
    2MPD1    H614006   0.465   4.545  16.571  1.2185 -0.2540  1.5652
    2MPD1    H714007   0.313   4.618  16.599 -1.4665 -1.8906 -0.0756
    3TMC3    C114008   0.177   4.635  17.316  0.3934 -0.4790 -0.0548
    3TMC3    C214009   0.081   4.714  17.259  0.3011  0.2142  0.3008
    3TMC3    C314010   4.677   4.705  17.308 -0.2767 -0.2444  0.0535
    3TMC3    C414011   0.162   4.563  17.424  0.6919  0.3901 -0.1628
    3TMC3    C514012   0.035   4.552  17.475 -0.5269  0.1058  0.5072
    3TMC3    C614013   4.650   4.620  17.417 -0.2076  0.5069  0.1456
    3TMC3     C14014   0.289   4.585  17.244  0.3874 -0.1130  0.4620
    3TMC3     O14015   0.366   4.510  17.303 -0.1616 -0.9079 -0.0236
    3TMC3     H14016   0.107   0.030  17.162 -1.5593  0.3807 -0.1260
    3TMC3    H114017   0.241   4.507  17.473  0.2984 -0.6632 -0.7334
    3TMC3    H214018   4.550   4.609  17.458 -1.1624 -0.6043 -2.4614
    3TMC3    C714019   0.019   4.455  17.579  0.1236 -0.4690  0.2636
    3TMC3    C814020   4.577   0.080  17.264 -0.6688  0.0959 -0.4425
    3TMC3    O114021   0.117   4.435  17.649  0.6683  0.6270  0.3345
    3TMC3    O214022   4.467   0.054  17.304 -0.2890  0.5031  0.0491
    4MPD1     C14023   4.360   0.470  17.004 -0.4405 -0.0013  0.1154
    4MPD1    C114024   4.493   0.494  17.000 -0.1208 -0.1936  0.4650
    4MPD1    C214025   4.571   0.394  17.061 -0.8885 -0.0725 -0.5863
    4MPD1    C314026   4.523   0.283  17.131 -0.0629  0.7261 -0.1724
    4MPD1    C414027   4.385   0.273  17.130  0.0263 -0.3453  0.1743
    4MPD1    C514028   4.305   0.365  17.071 -0.5101 -0.0059  0.4848
    4MPD1     H14029   4.678   0.414  17.057 -0.8151 -0.2873  0.3040
    4MPD1    H114030   4.342   0.185  17.176  0.3123 -1.1409 -1.0544
    4MPD1    H214031   4.292   0.540  16.958 -0.8599  0.0280  0.7718
    4MPD1    H314032   4.197   0.357  17.075 -0.4017 -0.6280  1.9464
    4MPD1     N14033   4.617   0.191  17.184 -0.0530 -0.3502  0.6482
    4MPD1    H514034   4.713   0.214  17.163  0.0633 -0.3941  1.1288
    4MPD1    N114035   4.547   0.596  16.923  0.0179 -0.2008 -0.4407
    4MPD1    H614036   4.643   0.619  16.948  0.2496 -0.9656 -0.6174
    4MPD1    H714037   4.497   0.684  16.928  0.6184  0.2737 -2.9112
    1TCq1    O114038   4.681   0.552  11.755 -0.2005 -0.1763 -0.0127
    1TCq1    C114039   4.557   0.554  11.696 -0.2060  0.7578 -0.8612
    1TCq1    O214040   4.474   0.642  11.717 -0.1964 -0.0084  0.1382
    1TCq1    C214041   4.565   0.486  11.573 -0.3481 -0.0395  0.1825
    1TCq1    C314042   4.627   0.364  11.569 -0.2702  0.1192 -0.7075
    1TCq1    C414043   4.627   0.292  11.453 -0.2516 -0.2004  0.0123
    1TCq1    C514044   4.557   0.344  11.343  0.4829 -0.5954  0.3622
    1TCq1    C614045   4.509   0.471  11.350  0.0673  0.0648  0.6462
    1TCq1    C714046   4.508   0.548  11.462 -0.0269  0.1751  0.1599
    1TCq1    C814047   4.451   0.542  11.240 -0.0015  0.2557 -0.3926
    1TCq1    O414048   4.481   0.661  11.226 -0.7409 -0.5169 -0.3380
    1TCq1    C914049   4.641   0.153  11.449  0.8439 -0.2673 -0.4347
    1TCq1    O514050   4.610   0.098  11.558 -0.5994  0.1323  0.4072
    1TCq1    O614051   4.640   0.099  11.335  0.5163 -0.5617 -0.2014
    1TCq1    H114052   0.017   0.482  11.722 -2.3892 -1.2358 -1.8005
    1TCq1    H214053   4.656   0.317  11.662 -0.7600  4.1760  1.5022
    1TCq1    H314054   4.550   0.296  11.245  1.0046  2.5501 -1.2108
    1TCq1    H414055   4.483   0.653  11.469 -0.5407  0.0511  0.1624
    2MPD1     C14056   4.167   0.552  10.807 -0.3766  0.5318  0.1248
    2MPD1    C114057   4.174   0.427  10.858  0.0047  0.7236 -0.0188
    2MPD1    C214058   4.249   0.403  10.973  0.1923 -0.3285 -0.2838
    2MPD1    C314059   4.307   0.505  11.042  0.4207  0.4005  1.0017
    2MPD1    C414060   4.294   0.633  10.991  0.1674  0.1215 -0.7097
    2MPD1    C514061   4.233   0.655  10.867  0.3838  0.6749  0.1241
    2MPD1     H14062   4.265   0.301  11.004  1.0379  0.4390  1.7754
    2MPD1    H114063   4.348   0.717  11.033  0.3306 -0.2785 -0.1223
    2MPD1    H214064   4.108   0.583  10.721  1.0524  1.3270 -0.5766
    2MPD1    H314065   4.227   0.757  10.829  1.8254  0.9451  0.6245
    2MPD1     N14066   4.373   0.464  11.158 -0.3578 -0.0556  0.2329
    2MPD1    H514067   4.361   0.367  11.185  1.5715 -0.5257 -0.6237
    2MPD1    N114068   4.109   0.324  10.789 -0.0327  0.8072 -0.0954
    2MPD1    H614069   4.132   0.231  10.822  1.4134  1.4325  0.6638
    2MPD1    H714070   4.145   0.340  10.695  1.5655 -0.6770  0.2775
    1TCq1    O114071   0.471   2.740  10.030 -0.1925 -0.3800 -0.4312
    1TCq1    C114072   0.591   2.720   9.967 -0.9470  0.3223  0.5687
    1TCq1    O214073   0.692   2.717  10.033  0.2440  0.0211  0.1877
    1TCq1    C214074   0.577   2.792   9.841  0.9387  0.6726  0.4911
    1TCq1    C314075   0.494   2.733   9.757  0.5557  0.2738  0.2278
    1TCq1    C414076   0.504   2.769   9.626  0.1656  0.1605 -0.0699
    1TCq1    C514077   0.579   2.873   9.589  0.1409 -0.1255  0.0324
    1TCq1    C614078   0.677   2.914   9.675 -0.2585  1.0597  1.1557
    1TCq1    C714079   0.674   2.874   9.805 -0.7329 -0.1271  0.4572
    1TCq1    C814080   0.789   2.987   9.621  0.4317  0.4232 -0.0026
    1TCq1    O414081   0.778   3.026   9.504 -0.3400 -0.8044 -0.2676
    1TCq1    C914082   0.378   2.733   9.559  0.5073  0.2233 -0.8154
    1TCq1    O514083   0.369   2.772   9.438 -0.0888 -0.3797  0.2105
    1TCq1    O614084   0.294   2.661   9.619 -0.4361  0.6505  0.3068
    1TCq1    H114085   0.415   2.795   9.971  0.0567  0.3051 -0.0225
    1TCq1    H214086   0.440   2.645   9.790  2.4265 -0.8758  0.2653
    1TCq1    H314087   0.570   2.909   9.487 -1.6069 -1.5800 -0.3345
    1TCq1    H414088   0.737   2.909   9.885  0.7667  0.6019 -1.0367
    2MPD1     C14089   1.218   3.263   9.687 -0.2203 -0.3095  0.0482
    2MPD1    C114090   1.202   3.172   9.789  0.5407 -0.3047  0.4285
    2MPD1    C214091   1.104   3.075   9.785  0.6564  0.1613  0.1785
    2MPD1    C314092   1.013   3.076   9.685 -0.1249  0.3493 -0.0431
    2MPD1    C414093   1.028   3.165   9.580  0.5253  0.8508  0.3645
    2MPD1    C514094   1.133   3.248   9.579  0.4261  0.0935 -0.0694
    2MPD1     H14095   1.096   3.007   9.869  0.0325  0.7004  0.5643
    2MPD1    H114096   0.962   3.158   9.494  1.8302  1.2589 -0.6612
    2MPD1    H214097   1.300   3.333   9.698 -0.1420 -0.4127  0.1336
    2MPD1    H314098   1.148   3.323   9.503 -0.9118  1.0005  0.5769
    2MPD1     N14099   0.901   2.994   9.705  0.2015  0.2222  0.2603
    2MPD1    H514100   0.902   2.934   9.787  0.6104  0.0801  0.1518
    2MPD1    N114101   1.273   3.186   9.910 -0.1067  0.3446  0.2598
    2MPD1    H614102   1.282   3.101   9.964  0.3874 -0.3629 -0.9275
    2MPD1    H714103   1.362   3.235   9.897 -1.3913  1.7684 -3.2453
    1MPD1     C14104   1.618   4.672  12.243  0.2945  0.3787 -0.1774
    1MPD1    C114105   1.694   4.701  12.128  0.0967  0.1473  0.5259
    1MPD1    C214106   1.724   0.107  12.104  0.2594  0.2237  0.0894
    1MPD1    C314107   1.656   0.211  12.168  0.1681 -0.0321  0.2649
    1MPD1    C414108   1.555   0.183  12.254 -0.0290  1.0610  0.0437
    1MPD1    C514109   1.547   0.054  12.299 -0.5252  0.2458  0.2197
    1MPD1     H14110   1.801   0.124  12.029  1.6551 -0.3689  1.3706
    1MPD1    H114111   1.492   0.254  12.306  0.4774  3.7621 -3.0768
    1MPD1    H214112   1.600   4.574  12.287 -0.3648  0.2922 -0.6376
    1MPD1    H314113   1.479   0.021  12.378  0.0473  1.5275  1.2368
    1MPD1     N14114   1.695   0.346  12.140  0.0680 -0.2002 -0.1087
    1MPD1    H514115   1.760   0.363  12.065 -0.2477 -0.0688 -0.3506
    1MPD1    N114116   1.784   4.600  12.074 -0.4934  0.2477 -0.5147
    1MPD1    H614117   1.820   4.618  11.981 -1.8420 -0.1064 -1.1164
    1MPD1    H714118   1.746   4.506  12.084  0.5863 -0.0413  0.9461
    2MPD1     C14119   1.118   0.657  11.697  0.3699 -0.3683  0.1911
    2MPD1    C114120   1.082   0.565  11.600 -0.6744 -0.5343  0.1187
    2MPD1    C214121   1.135   0.574  11.473 -0.3861  0.2201  0.2218
    2MPD1    C314122   1.217   0.677  11.436 -0.0971 -0.1187 -0.0514
    2MPD1    C414123   1.253   0.769  11.534  0.2878  0.1320  0.3313
    2MPD1    C514124   1.210   0.757  11.661  0.3229  0.3973  0.1404
    2MPD1     H14125   1.107   0.498  11.400  1.2673  1.7372 -2.0075
    2MPD1    H114126   1.313   0.857  11.511  0.0647  0.3262  0.5002
    2MPD1    H214127   1.083   0.653  11.799 -1.2461  0.1962 -0.3427
    2MPD1    H314128   1.248   0.834  11.727  2.2399 -2.0719  1.8738
    2MPD1     N14129   1.261   0.708  11.306 -0.0419 -0.2606  0.1582
    2MPD1    H514130   1.297   0.802  11.297 -0.1915 -0.2527 -0.3279
    2MPD1    N114131   0.999   0.454  11.636  0.1725  0.3240  0.1252
    2MPD1    H614132   0.940   0.465  11.719 -0.5954  1.4838 -0.5662
    2MPD1    H714133   0.935   0.441  11.557  2.8757 -3.9169 -1.3532
    3MPD1     C14134   1.105   0.364  10.343  0.4841  0.2367  1.1499
    3MPD1    C114135   1.038   0.353  10.460 -0.5735  0.0222 -0.7246
    3MPD1    C214136   1.089   0.393  10.583  0.5152 -0.2597  0.3512
    3MPD1    C314137   1.198   0.480  10.583  0.3426  0.0269  0.5608
    3MPD1    C414138   1.271   0.492  10.461  0.2194 -0.2763  0.6914
    3MPD1    C514139   1.228   0.422  10.348 -0.2407 -0.0188  0.4329
    3MPD1     H14140   1.033   0.384  10.675  0.5691 -2.4949  0.1674
    3MPD1    H114141   1.368   0.539  10.451 -0.2273  1.0456  2.4589
    3MPD1    H214142   1.071   0.343  10.241 -2.2053  2.6540  1.5549
    3MPD1    H314143   1.287   0.432  10.258  0.0142 -0.0911  0.5911
    3MPD1     N14144   1.244   0.543  10.705  0.4718 -0.6815  0.1116
    3MPD1    H514145   1.186   0.542  10.788  2.6896  0.0359  1.6875
    3MPD1    N114146   0.923   0.264  10.466  0.1203  0.3350 -0.1581
    3MPD1    H614147   0.853   0.289  10.397 -0.1439  1.9337  0.6849
    3MPD1    H714148   0.890   0.253  10.562 -0.6793  1.1377 -0.3461
    4MPD2     C14149   1.667   1.171  12.016 -0.5664 -0.0987  0.5193
    4MPD2    C114150   1.775   1.086  12.011  0.1299  0.3640  0.2074
    4MPD2    C214151   1.875   1.118  11.916  0.4447  0.6716  0.0443
    4MPD2    C314152   1.878   1.235  11.840  0.3137 -0.3328  0.0220
    4MPD2    C414153   1.774   1.323  11.853  0.2802  0.0617  0.1082
    4MPD2    C514154   1.681   1.291  11.943  0.0520  0.7556  0.1111
    4MPD2     H14155   1.958   1.053  11.890 -0.0409 -1.1220  2.8515
    4MPD2    H114156   1.775   1.424  11.813  0.4915 -0.3216 -0.8445
    4MPD2    H214157   1.584   1.153  12.085 -1.4341 -0.4392 -0.6149
    4MPD2    H314158   1.614   1.372  11.969  0.4513  1.2744 -0.4734
    4MPD2     N14159   1.989   1.261  11.750 -0.6727  0.0091 -0.4256
    4MPD2    H514160   2.058   1.186  11.749 -0.7904 -0.1062  0.0870
    4MPD2    N114161   1.792   0.970  12.085  0.7026  0.4808 -0.3694
    4MPD2    H714162   1.885   0.932  12.075 -0.4727 -2.3714 -0.3613
    5TMC3    C114163   1.755   0.801  12.242  0.4174 -0.6819 -0.2536
    5TMC3    C214164   1.670   0.695  12.220 -1.1866  0.0415  0.2291
    5TMC3    C314165   1.710   0.575  12.166  0.3109  0.4836 -0.0831
    5TMC3    C414166   1.882   0.784  12.216 -0.3349  0.4835  0.1076
    5TMC3    C514167   1.917   0.676  12.149  0.4179  0.2088 -0.9736
    5TMC3    C614168   1.838   0.571  12.118  0.0032  0.2748 -0.0614
    5TMC3     C14169   1.703   0.915  12.170 -0.4376  0.0819 -0.5201
    5TMC3     O14170   1.591   0.946  12.191  0.2891  0.2401  0.5662
    5TMC3     H14171   1.568   0.702  12.255 -1.6145 -0.9964 -0.8500
    5TMC3    H114172   1.950   0.865  12.239  1.9179 -1.8846  1.7487
    5TMC3    H214173   1.870   0.489  12.055  1.9345  0.1126  1.1362
    5TMC3    C714174   2.021   0.709  12.049 -0.6009  0.4280 -0.0741
    5TMC3    C814175   1.642   0.458  12.207  0.4812  0.8141 -0.1307
    5TMC3    O114176   2.051   0.828  12.055 -0.5021  0.3410 -0.4136
    5TMC3    O214177   1.546   0.466  12.279  0.0868 -0.5997  0.3133
    6TMC3    C114178   1.316   0.703  11.079 -0.4346  0.2704 -0.6010
    6TMC3    C214179   1.301   0.644  10.955  0.2418  0.4175  1.1421
    6TMC3    C314180   1.382   0.679  10.851 -0.3958  0.1490  1.1026
    6TMC3    C414181   1.416   0.795  11.099 -0.6828  0.1306  0.1305
    6TMC3    C514182   1.498   0.823  10.998  0.0616  0.1080  0.4114
    6TMC3    C614183   1.481   0.768  10.868 -0.5585 -0.2887  0.1167
    6TMC3     C14184   1.263   0.630  11.197  0.5909  0.1901  0.7783
    6TMC3     O14185   1.221   0.519  11.182 -0.3958 -0.4788  0.0049
    6TMC3     H14186   1.212   0.583  10.942  0.3307  0.0634  2.2369
    6TMC3    H114187   1.431   0.837  11.198 -1.3614  0.7733 -0.0388
    6TMC3    H214188   1.552   0.790  10.789 -0.2206  0.0777  0.5260
    6TMC3    C714189   1.614   0.903  11.027 -0.1151  0.0971 -0.5161
    6TMC3    C814190   1.359   0.619  10.719 -0.5653  0.7694 -0.2611
    6TMC3    O114191   1.622   0.913  11.150  0.0837  0.0942 -0.2572
    6TMC3    O214192   1.442   0.644  10.636 -0.3417 -0.2159 -0.4881
    7MPD2     C14193   2.306   0.661  11.637 -0.4555  0.0963  0.1747
    7MPD2    C114194   2.243   0.768  11.694 -0.1476 -0.1665  0.0312
    7MPD2    C214195   2.169   0.755  11.809 -0.1275  0.4786 -0.0556
    7MPD2    C314196   2.160   0.627  11.868 -0.6949 -1.3767  1.3595
    7MPD2    C414197   2.234   0.520  11.826  0.2015  0.3946 -0.4284
    7MPD2    C514198   2.304   0.538  11.706 -0.0743  0.0895 -0.2051
    7MPD2     H14199   2.108   0.838  11.841  1.6585  2.0285 -0.6079
    7MPD2    H114200   2.229   0.427  11.881 -0.6524  1.2582  0.9541
    7MPD2    H214201   2.347   0.668  11.537 -1.7713 -0.1350 -0.3742
    7MPD2    H314202   2.364   0.459  11.663 -1.2878 -2.0405  1.9390
    7MPD2     N14203   2.077   0.607  11.979 -0.2166 -0.4092 -0.0751
    7MPD2    H514204   2.068   0.515  12.021  1.4032 -0.6263 -0.2124
    7MPD2    N114205   2.250   0.891  11.626  0.2486 -0.4592 -0.0775
    7MPD2    H714206   2.312   0.893  11.546 -1.2331 -0.6336 -1.2402
    8TMC3    C114207   2.214   1.113  11.566  0.4543  1.0569 -0.9952
    8TMC3    C214208   2.165   1.084  11.444 -0.9517  0.1408  0.2624
    8TMC3    C314209   2.097   1.188  11.376  0.3117  0.0443 -0.3064
    8TMC3    C414210   2.185   1.231  11.625  0.0433  0.5746  0.1916
    8TMC3    C514211   2.102   1.325  11.564  0.3640  0.2080 -0.0464
    8TMC3    C614212   2.061   1.303  11.439  0.1075 -0.1631  0.0193
    8TMC3     C14213   2.212   1.010  11.664  0.3089  0.5833  0.5209
    8TMC3     O14214   2.157   1.056  11.763 -0.1164  0.3898 -0.2467
    8TMC3     H14215   2.158   0.981  11.410 -0.4102  0.4146 -0.6981
    8TMC3    H114216   2.235   1.254  11.719 -1.5326 -2.3424  1.7519
    8TMC3    H214217   1.992   1.372  11.393  3.3081  2.5189 -0.7613
    8TMC3    C714218   2.002   1.360  11.659 -0.0686 -0.2105  0.1871
    8TMC3    C814219   2.020   1.142  11.263  0.9704  0.2551 -0.3682
    8TMC3    O114220   1.918   1.442  11.625  0.7152 -0.2196 -0.4220
    8TMC3    O214221   2.031   1.026  11.232 -0.3576  0.3014  0.0066
    9MPD2     C14222   1.880   1.336  10.986  0.4587 -0.6284  0.3153
    9MPD2    C114223   1.901   1.225  11.065  0.1018  0.0121  0.3718
    9MPD2    C214224   1.820   1.115  11.048  0.2151 -0.2304  0.0543
    9MPD2    C314225   1.730   1.102  10.942  0.2424  0.4722  0.2428
    9MPD2    C414226   1.724   1.210  10.854 -0.1437 -0.1602 -0.3847
    9MPD2    C514227   1.783   1.329  10.885 -0.7175 -0.1463 -0.0502
    9MPD2     H14228   1.824   1.044  11.130  0.5772 -2.2657 -1.7270
    9MPD2    H114229   1.650   1.204  10.775  0.6950 -2.5505 -0.9793
    9MPD2    H214230   1.932   1.430  11.002  0.8752 -0.5766 -1.3894
    9MPD2    H314231   1.767   1.409  10.814  0.4380  1.2306  1.2616
    9MPD2     N14232   1.643   0.994  10.925  0.5821 -0.2746 -0.2923
    9MPD2    H514233   1.584   0.984  10.842 -0.2347 -0.2169  0.2784
    9MPD2    N114234   1.982   1.241  11.180 -0.4765 -0.0444 -0.4903
    9MPD2    H714235   2.027   1.328  11.206  2.4033 -1.2422 -1.4457
    1MPD1     C14236   1.898   3.633  16.349  0.9697  0.3694 -1.4414
    1MPD1    C114237   1.817   3.674  16.241  0.2134  0.0803 -0.4348
    1MPD1    C214238   1.689   3.720  16.275  0.0523  0.0504 -0.0701
    1MPD1    C314239   1.650   3.729  16.405  0.0083 -0.0455 -0.1353
    1MPD1    C414240   1.729   3.688  16.511 -1.7231 -0.0661 -0.1525
    1MPD1    C514241   1.852   3.642  16.476  0.4301  0.8035  0.8456
    1MPD1     H14242   1.623   3.750  16.195 -0.1000 -1.6319 -0.5754
    1MPD1    H114243   1.702   3.710  16.614 -2.5463  0.7772 -0.5412
    1MPD1    H214244   1.993   3.586  16.327  0.7765  0.0834 -1.6620
    1MPD1    H314245   1.915   3.616  16.561  0.9258  1.0280  0.5499
    1MPD1     N14246   1.522   3.792  16.439 -0.3113  0.6635  0.1826
    1MPD1    H514247   1.496   3.795  16.537  2.3112 -0.4880  0.9304
    1MPD1    N114248   1.855   3.640  16.109 -0.1817 -0.9648  1.0096
    1MPD1    H614249   1.809   3.695  16.037  2.5066 -2.1369 -1.5860
    1MPD1    H714250   1.952   3.634  16.078 -0.7104  0.9626 -0.9846
    2MPD1     C14251   0.839   4.457  16.017  0.3052 -1.1121 -0.4673
    2MPD1    C114252   0.975   4.453  16.009  0.2269 -0.0705  0.3832
    2MPD1    C214253   1.041   4.356  16.092 -0.8521 -0.5484 -0.2633
    2MPD1    C314254   0.981   4.265  16.179 -0.2829 -0.2715  0.0125
    2MPD1    C414255   0.846   4.275  16.178  0.1097 -0.1468 -0.1500
    2MPD1    C514256   0.779   4.364  16.097 -0.2447 -0.0327 -0.2810
    2MPD1     H14257   1.148   4.343  16.076 -1.3914 -2.2399 -2.5017
    2MPD1    H114258   0.787   4.223  16.252  0.8926 -1.3610 -0.3885
    2MPD1    H214259   0.777   4.523  15.958 -0.3043 -0.6082  0.7268
    2MPD1    H314260   0.671   4.363  16.095 -0.2489 -1.4631  1.3439
    2MPD1     N14261   1.059   4.167  16.251 -1.0219 -0.0098 -0.4639
    2MPD1    H514262   1.158   4.179  16.233 -0.8944 -0.8210 -0.3052
    2MPD1    N114263   1.042   4.548  15.933  0.2945 -0.0803  0.1438
    2MPD1    H614264   1.134   4.524  15.899  1.2299  0.5776  2.2119
    2MPD1    H714265   0.990   4.584  15.853 -0.2556  1.2717  1.0878
    3TCq2    C114266   1.006   4.072  16.338 -0.3097  0.1309  0.2502
    3TCq2    O214267   0.888   4.040  16.351 -0.7859 -0.6463 -0.2919
    3TCq2    C214268   1.112   3.993  16.401  0.4309  0.2940  0.9866
    3TCq2    C314269   1.063   3.940  16.519  0.3211 -0.6832  0.5791
    3TCq2    C414270   1.136   3.836  16.575  0.4269 -0.0302  0.0284
    3TCq2    C514271   1.251   3.797  16.517 -0.0044 -0.4739  0.8297
    3TCq2    C614272   1.297   3.869  16.414  0.1248  0.1174 -0.6425
    3TCq2    C714273   1.218   3.949  16.333  0.6227 -0.0670 -0.4643
    3TCq2    C814274   1.424   3.831  16.352 -0.4709  0.3299 -0.8925
    3TCq2    O414275   1.427   3.842  16.227 -0.2269  0.0798 -0.1507
    3TCq2    C914276   1.074   3.766  16.683  0.2217 -0.0757  0.4716
    3TCq2    O514277   1.127   3.659  16.715 -0.5543  0.1694 -0.2393
    3TCq2    O614278   0.964   3.810  16.724  0.3248 -0.0875 -0.5460
    3TCq2    H214279   0.973   3.980  16.564  1.2211  1.7184  0.2618
    3TCq2    H314280   1.315   3.721  16.561  0.9148 -1.3956 -2.1340
    3TCq2    H414281   1.253   3.984  16.237  0.8180  2.3349  0.4808
    1TCq1    O114282   4.180   3.488  13.028  0.3026 -0.0718  0.0815
    1TCq1    C114283   4.297   3.486  12.966 -0.2952 -0.2937  0.1199
    1TCq1    O214284   4.366   3.580  12.927 -0.2673  0.0081 -0.1954
    1TCq1    C214285   4.324   3.351  12.916 -0.2143 -0.1194 -1.0294
    1TCq1    C314286   4.229   3.252  12.892  0.8053  0.5290 -0.2164
    1TCq1    C414287   4.267   3.124  12.849 -0.1537 -0.0727  0.0002
    1TCq1    C514288   4.395   3.096  12.830 -0.7348  0.1990 -0.4206
    1TCq1    C614289   4.485   3.198  12.843 -0.6868 -0.0399 -0.0439
    1TCq1    C714290   4.455   3.324  12.890  1.0411 -1.1792  0.5289
    1TCq1    C814291   4.621   3.155  12.836 -0.2779 -0.5819  0.6883
    1TCq1    O414292   4.653   3.058  12.770  0.4285 -0.2466 -0.0879
    1TCq1    C914293   4.162   3.022  12.825  0.7845 -0.1584  0.0169
    1TCq1    O514294   4.197   2.907  12.793  0.3629 -0.2893  0.0634
    1TCq1    O614295   4.041   3.064  12.825 -0.2260  0.2465  0.7799
    1TCq1    H114296   4.156   3.395  13.045  0.7445  0.1331  1.8857
    1TCq1    H214297   4.125   3.271  12.915  1.0457  0.6563  0.7891
    1TCq1    H314298   4.426   2.993  12.815  0.0956  0.3683  0.0892
    1TCq1    H414299   4.530   3.401  12.903  0.1600 -0.3706  0.8747
    2MPD2     C14300   0.172   3.093  12.906  0.4399  0.4051  0.0733
    2MPD2    C114301   0.097   3.188  12.971 -0.3710  0.1351 -0.3438
    2MPD2    C214302   0.148   3.251  13.087  0.4831 -0.3537  0.1347
    2MPD2    C314303   0.268   3.210  13.143 -0.2721 -0.6208 -0.5426
    2MPD2    C414304   0.344   3.120  13.069  0.7089  0.1358 -0.1769
    2MPD2    C514305   0.297   3.067  12.951 -1.0244 -0.3834  0.5135
    2MPD2     H14306   0.083   3.318  13.142  1.3975  1.6975 -1.2539
    2MPD2    H114307   0.439   3.084  13.106 -0.6562 -1.5899  1.6667
    2MPD2    H214308   0.147   3.044  12.813  0.4497  0.5362  0.0016
    2MPD2    H314309   0.354   2.987  12.904  0.7843  0.9928  0.3668
    2MPD2     N14310   0.305   3.248  13.275  0.2667 -0.5746  0.7828
    2MPD2    H514311   0.247   3.316  13.323  2.2602  1.4242  0.3686
    2MPD2    N114312   4.687   3.221  12.940  0.0805  0.2430 -0.0917
    2MPD2    H714313   4.650   3.302  12.988 -1.3064 -0.4250 -0.0335
    3TCq1    O114314   0.476   3.107  13.935 -0.3590  0.0817 -0.0651
    3TCq1    C114315   0.463   3.054  13.805 -0.3301  0.0608 -0.1412
    3TCq1    O214316   0.501   2.942  13.773  0.1748  0.3006 -0.3896
    3TCq1    C214317   0.423   3.159  13.714  0.1352  0.0015  0.9431
    3TCq1    C314318   0.342   3.260  13.750  0.0205  0.8718  0.2452
    3TCq1    C414319   0.288   3.346  13.658 -0.2656 -0.1577  0.1692
    3TCq1    C514320   0.321   3.332  13.524  0.0066  0.5748 -0.4354
    3TCq1    C614321   0.400   3.226  13.488  0.2567 -0.0158  0.2011
    3TCq1    C714322   0.442   3.139  13.582  0.6247 -0.5530 -0.0480
    3TCq1    C814323   0.397   3.181  13.351  0.2903  0.4691  1.0321
    3TCq1    O414324   0.465   3.079  13.321 -0.6891 -0.8335  0.3623
    3TCq1    C914325   0.194   3.446  13.706 -0.0286 -0.7218  0.2323
    3TCq1    O514326   0.200   3.470  13.831  0.1007  0.3084  0.8358
    3TCq1    O614327   0.112   3.504  13.627 -0.9863  0.3656 -0.2987
    3TCq1    H114328   0.440   3.198  13.946 -0.1898  0.1411  0.0013
    3TCq1    H214329   0.316   3.264  13.855  1.1772 -2.1939  0.6522
    3TCq1    H314330   0.271   3.405  13.461 -2.6609 -1.3324 -0.5311
    3TCq1    H414331   0.490   3.045  13.558 -1.1378 -1.9701  1.9823
    1MPD2     C14332   3.990   4.672  14.935 -0.1520  0.0164 -0.2734
    1MPD2    C114333   3.870   4.609  14.956 -0.3248 -0.5944  0.0193
    1MPD2    C214334   3.871   4.476  14.993 -0.5317  0.4273  0.2316
    1MPD2    C314335   3.986   4.413  15.024 -0.2494  0.4380 -0.1370
    1MPD2    C414336   4.105   4.486  15.027 -0.3685  0.0112 -0.6235
    1MPD2    C514337   4.109   4.616  14.978  0.1491 -0.1494 -0.9694
    1MPD2     H14338   3.787   4.407  14.995 -0.6430  0.5439 -0.2879
    1MPD2    H114339   4.195   4.435  15.057 -0.5493 -0.7046 -1.3084
    1MPD2    H214340   3.994   0.046  14.890 -0.1916  0.8769  1.5877
    1MPD2    H314341   4.203   4.671  14.978  0.0893 -0.0441 -0.1488
    1MPD2     N14342   3.977   4.278  15.063 -0.0130  0.4595 -0.0636
    1MPD2    H514343   3.884   4.240  15.075  0.5853 -0.5376  1.5517
    1MPD2    N114344   3.746   4.675  14.933  0.6319 -0.2450 -0.1149
    1MPD2    H714345   3.759   0.041  14.888 -0.8952 -0.5890 -1.2701
    2TMC3    C114346   3.503   4.696  14.936  0.2526  0.4565  0.1362
    2TMC3    C214347   3.387   4.635  14.983 -0.3867  0.1945 -0.0016
    2TMC3    C314348   3.273   4.639  14.905  0.1541  0.3303  1.0036
    2TMC3    C414349   3.503   0.022  14.809  0.2455 -0.3714 -0.2239
    2TMC3    C514350   3.377   0.045  14.754 -0.0158 -0.0153  0.1107
    2TMC3    C614351   3.259   4.712  14.788  0.1942 -0.1298  0.1882
    2TMC3     C14352   3.622   4.628  14.980 -0.1194 -0.0051  0.3072
    2TMC3     O14353   3.598   4.517  15.031  0.3650  0.3075 -0.0963
    2TMC3     H14354   3.381   4.584  15.079  0.3894 -2.0177 -1.1503
    2TMC3    H114355   3.595   0.039  14.754  0.1225 -1.3346 -0.7323
    2TMC3    H214356   3.166   0.006  14.736  0.6646 -1.9085 -1.2391
    2TMC3    C714357   3.370   0.115  14.631  0.0884  0.3088 -0.3633
    2TMC3    C814358   3.231   4.510  14.882 -0.0851  0.0413  0.3100
    2TMC3    O114359   3.270   0.091  14.560  0.5475 -0.5214  0.2336
    2TMC3    O214360   3.145   4.495  14.795 -0.2110 -0.1797 -0.3161
    3TCq1    O114361   3.851   1.080  14.156  0.1153  0.5832  0.5713
    3TCq1    C114362   3.945   1.084  14.253 -0.1881  0.4977 -0.3689
    3TCq1    O214363   3.981   1.186  14.305  0.0867 -0.8776  0.2859
    3TCq1    C214364   3.944   0.964  14.324 -0.5354 -0.1031 -0.2919
    3TCq1    C314365   4.053   0.934  14.403 -0.0908  0.0489 -0.6383
    3TCq1    C414366   4.068   0.800  14.447 -0.3306 -0.2686 -0.7551
    3TCq1    C514367   3.971   0.711  14.425  0.1419 -0.0860 -0.7649
    3TCq1    C614368   3.852   0.748  14.363  0.1019  0.2911  0.1210
    3TCq1    C714369   3.844   0.874  14.309  0.3723  0.1022  0.7683
    3TCq1    C814370   3.756   0.654  14.318  0.6754 -0.4050 -0.1797
    3TCq1    O414371   3.681   0.689  14.230  0.0846 -0.1921 -0.0839
    3TCq1    C914372   4.194   0.763  14.507 -0.2811  0.3122 -0.2256
    3TCq1    O514373   4.280   0.852  14.540  0.0609 -0.1984  0.2644
    3TCq1    O614374   4.207   0.640  14.536 -0.0900 -0.3036 -0.8109
    3TCq1    H114375   3.833   0.989  14.124  0.6017  0.8251 -0.3969
    3TCq1    H214376   4.138   1.001  14.407  0.0987 -0.2993  0.8747
    3TCq1    H314377   3.987   0.609  14.458  0.5467  0.4328  0.6456
    3TCq1    H414378   3.752   0.908  14.262  1.1163  1.4197  0.2913
    4MPD2     C14379   3.519   0.468  14.295 -0.0131  0.6430  0.9680
    4MPD2    C114380   3.617   0.467  14.398 -0.1440  0.5124 -0.3891
    4MPD2    C214381   3.598   0.379  14.504  0.1028  0.5173 -0.1758
    4MPD2    C314382   3.490   0.285  14.502  0.1415  0.2228 -0.0810
    4MPD2    C414383   3.396   0.290  14.400  0.4378 -0.6284 -0.1468
    4MPD2    C514384   3.408   0.382  14.301  0.5705 -0.2514  0.0502
    4MPD2     H14385   3.656   0.387  14.595  0.5873 -0.7177 -0.3770
    4MPD2    H114386   3.306   0.230  14.392 -0.1511  0.2553 -0.1240
    4MPD2    H214387   3.538   0.513  14.198  3.1912 -2.1942  0.2234
    4MPD2    H314388   3.340   0.385  14.217  0.1680  1.1413  0.4198
    4MPD2     N14389   3.467   0.210  14.618 -0.4896 -0.2471 -0.0728
    4MPD2    H514390   3.531   0.225  14.696 -1.8134 -1.2740  1.2112
    4MPD2    N114391   3.728   0.551  14.407 -0.2683 -0.3783  0.7564
    4MPD2    H714392   3.792   0.539  14.484  1.1649  1.6955 -0.1253
    5TMC2    C114393   3.812   3.961  14.982  0.1487 -0.4824 -0.3471
    5TMC2    C214394   3.838   3.867  15.079  0.0738  0.4076  0.2017
    5TMC2    C314395   3.967   3.863  15.124 -0.5167  0.3736  0.1910
    5TMC2    C414396   3.913   4.051  14.943  0.3752 -0.1575 -0.2989
    5TMC2    C514397   4.031   4.057  15.017  0.3912 -0.5334  0.0065
    5TMC2    C614398   4.068   3.957  15.104  0.0402 -0.0537 -0.1389
    5TMC2     C14399   3.693   4.051  15.002 -0.2191  0.6432  0.5908
    5TMC2     O14400   3.722   4.160  15.046 -1.4345 -0.1612  0.0279
    5TMC2     H14401   3.769   3.792  15.114 -1.0500  2.3696  2.2062
    5TMC2    H114402   3.893   4.138  14.882  1.1240  0.4923  0.3770
    5TMC2    H214403   4.152   3.960  15.172  1.0959 -0.1365 -1.4380
    5TMC2    C714404   4.082   4.187  15.056 -0.0177  0.1913  0.2199
    5TMC2    C814405   4.006   3.762  15.219 -0.4032 -0.7156  0.0291
    5TMC2    O114406   4.203   4.203  15.052 -0.0625  0.4126  0.9997
    5TMC2    O214407   3.918   3.700  15.278 -0.0896 -0.1461 -0.0702
    5TMC2    O514408   4.105   3.714  15.145 -0.5125  0.2570  0.3535
    5TMC2    H514409   4.148   3.771  15.078 -0.1402 -0.1499  0.2527
    6MPD2     C14410   3.230   4.216  14.860 -0.3158 -0.3438  0.5036
    6MPD2    C114411   3.332   4.286  14.912  0.1227  0.4284 -0.9240
    6MPD2    C214412   3.440   4.216  14.947 -0.7721  0.3486 -0.2603
    6MPD2    C314413   3.447   4.072  14.945  0.8353 -0.3326 -0.1064
    6MPD2    C414414   3.333   4.003  14.898 -0.3526 -0.1533 -0.3872
    6MPD2    C514415   3.227   4.079  14.854 -0.2685 -0.3899  0.0466
    6MPD2     H14416   3.534   4.265  14.972 -2.5123  1.9508  3.1731
    6MPD2    H114417   3.316   3.898  14.881  0.8780 -0.2398 -1.0895
    6MPD2    H214418   3.136   4.258  14.827 -0.3507 -1.5168 -0.8966
    6MPD2    H314419   3.136   4.032  14.818 -1.7794  2.4995  0.0709
    6MPD2     N14420   3.565   3.993  14.973  0.0938  0.5853  0.0290
    6MPD2    H514421   3.571   3.892  14.962  1.0533  0.6274  0.1294
    6MPD2    N114422   3.326   4.423  14.928 -0.8841  0.1713 -0.2798
    6MPD2    H714423   3.414   4.461  14.962  0.6820 -2.2082 -1.7562
  945NH4     N114424   4.517   3.321   0.280 -0.1048  0.0060 -0.1917
  945NH4     H214425   4.527   3.251   0.203  2.3023  0.2000 -0.0342
  945NH4     H314426   4.429   3.376   0.269 -0.2140 -0.0581  0.3327
  945NH4     H414427   4.603   3.378   0.289 -1.1731  0.9537  4.0813
  945NH4     H514428   4.514   3.265   0.368  1.2079 -2.3592 -1.6705
  946SOD     NA14429   0.736   3.253  11.679 -0.4867  0.1997 -0.1199
  947SOD     NA14430   1.846   1.932   9.545  0.3346 -0.5175  0.6165
  948SOD     NA14431   1.983   2.337   9.228 -0.1186  0.4625 -0.4156
  949SOD     NA14432   1.995   1.935  17.529 -0.1988  0.1625  0.2472
  950SOD     NA14433   2.255   1.838   7.050 -0.0856  0.0589 -0.0030
  951SOD     NA14434   3.239   0.296   1.647  0.0438  0.0599 -0.1194
  952SOD     NA14435   0.845   3.870  15.524 -0.2534  0.1104  0.2320
  953SOD     NA14436   1.077   3.701  14.107  0.0370  0.1389 -0.2657
  954SOD     NA14437   4.384   3.754  11.741 -0.1105 -0.2830 -0.1930
  955SOD     NA14438   3.246   1.775  14.217  0.2981 -0.0836 -0.3798
  956SOD     NA14439   0.558   2.033  13.485 -0.1743  0.3816  0.2995
  957SOD     NA14440   4.526   4.649  11.470 -0.0747 -0.3841 -0.2691
  958SOD     NA14441   3.128   1.279   9.440  0.2547  0.0877  0.0791
  959SOD     NA14442   0.416   2.219  12.524 -0.4890 -0.3045  0.2205
  960SOD     NA14443   1.865   2.715  13.286  0.4744 -0.1475  0.7051
  961SOD     NA14444   4.225   0.417  14.471 -0.1074  0.1696  0.4514
  962SOD     NA14445   4.360   3.423   8.988 -0.0275 -0.0602  0.3111
  963SOD     NA14446   1.833   3.388   2.594 -0.1461 -0.2036  0.6860
  964SOD     NA14447   4.482   0.022  11.177 -0.7227  0.2818 -0.0713
  965SOD     NA14448   2.647   3.198  10.267  0.3666  0.1208  0.0885
  966SOD     NA14449   1.698   2.949  13.543  0.3320 -0.2310  0.4649
  967SOD     NA14450   2.590   2.859  12.644  0.4878 -0.3403  0.2258
  968SOD     NA14451   0.481   3.153   1.512 -0.0289 -0.6539 -0.3049
  969SOD     NA14452   0.120   3.021  12.227 -0.2874  0.2247 -0.1956
  970SOD     NA14453   0.853   2.820   1.872  0.1547  0.3909 -0.1201
  971SOD     NA14454   3.168   2.508  10.056  0.3291  0.0500 -0.1591
  972SOD     NA14455   0.746   3.356  14.647 -0.4409 -0.0628 -0.1855
  973SOD     NA14456   3.141   0.477  12.250  0.6877  0.2213  0.3833
  974SOD     NA14457   4.445   0.275  14.715  0.3935  0.0858 -0.0195
  975SOD     NA14458   3.718   2.077  10.556 -0.3119 -0.3773 -0.1934
  976SOD     NA14459   4.701   4.019  14.204 -0.6138 -0.4831 -0.1881
  977SOD     NA14460   0.030   3.545  13.938 -0.1595 -0.1587 -0.1549
  978SOD     NA14461   0.091   4.597  12.239 -0.7155 -0.4607  0.1546
  979SOD     NA14462   0.900   1.209  16.804 -0.3256  0.1858  0.2176
  980SOD     NA14463   0.731   4.141  15.660 -0.0400 -0.0357 -0.0734
  981SOD     NA14464   0.118   4.206   2.909  0.2522  0.1561 -0.0069
  982SOD     NA14465   3.612   2.100  10.857  0.5225 -0.0820 -0.0167
  983SOD     NA14466   0.909   0.191   0.429  0.0525 -0.0603  0.1111
  984SOD     NA14467   4.348   3.465   1.900  0.0810 -0.1363  0.0315
  985SOD     NA14468   2.410   2.345   2.189 -0.1810  0.2909 -0.0188
  986SOD     NA14469   2.647   2.659   8.960 -0.0715 -0.5804 -0.0388
  987SOD     NA14470   1.233   4.231  15.144  0.1937  0.1344 -0.0079
  988SOD     NA14471   0.280   0.483   2.618  0.3188  0.0624 -0.4340
  989SOD     NA14472   0.412   2.521   8.305  0.0435 -0.0645 -0.1803
  990SOD     NA14473   3.916   2.600  10.669 -0.1225  0.2028  0.9494
  991SOD     NA14474   4.366   2.411   6.996  0.0197 -0.6055  0.0135
  992SOD     NA14475   3.767   2.930  15.612  0.0255 -0.1647  0.5942
  993SOD     NA14476   4.324   4.215  15.248  0.1348  0.3807 -0.2113
  994SOD     NA14477   3.931   0.213  15.393  0.2827  0.5754  0.3704
  995SOD     NA14478   3.236   4.132   2.347 -0.2305 -0.1731  0.5739
  996SOD     NA14479   3.399   3.443  10.338  0.1577 -0.2200  0.5047
  997SOD     NA14480   0.209   2.485   9.723 -0.1527 -0.1384 -0.6549
  998SOD     NA14481   0.138   0.618  10.250 -0.2795 -0.6833  0.2006
  999SOD     NA14482   3.819   2.340  10.875 -0.4275  0.3693  0.0449
 1000SOD     NA14483   2.272   2.730  10.777 -0.2360  0.1531 -0.5033
 1001SOD     NA14484   1.447   0.219  14.575  0.5632 -0.4323 -0.1039
 1002SOD     NA14485   2.905   4.341   1.947 -0.2296  0.2418  0.4272
 1003SOD     NA14486   2.700   4.473   3.368  0.5596  0.3058  0.1151
 1004SOD     NA14487   1.958   1.833  15.238 -0.3574  0.1752  0.1089
 1005SOD     NA14488   1.344   3.789   1.200 -0.2200 -0.1031 -0.0376
 1006SOD     NA14489   4.428   3.475  11.635  0.0448  0.4643 -0.3243
 1007SOD     NA14490   0.836   0.206   6.293  0.0739 -0.2744  0.4082
 1008SOD     NA14491   3.189   3.481  12.660  0.3174  0.1326 -0.5797
 1009SOD     NA14492   0.392   0.906  12.300  0.3131 -0.3264 -0.3049
 1010SOD     NA14493   2.754   2.806   3.167  0.0180  0.0301 -0.2723
 1011SOL     OW14494   0.424   3.756   7.191 -0.2140 -0.4599 -0.3695
 1011SOL    HW114495   0.459   3.667   7.182  0.7800 -0.3088  1.9148
 1011SOL    HW214496   0.454   3.788   7.106  0.2373  0.4425  0.1316
 1012SOL     OW14497   0.176   0.283  17.422  0.0434  0.0121 -0.1999
 1012SOL    HW114498   0.208   0.362  17.466 -1.7135 -1.3048  3.3887
 1012SOL    HW214499   0.178   0.304  17.329  2.0575  0.2559 -0.1114
 1013SOL     OW14500   1.188   2.633   5.588  0.5714 -0.3137 -0.4834
 1013SOL    HW114501   1.099   2.607   5.564 -0.4041  3.1808 -0.6600
 1013SOL    HW214502   1.184   2.612   5.681 -1.2424 -0.4218 -0.5869
 1014SOL     OW14503   0.244   1.367   3.912  0.1046 -0.2451  0.3095
 1014SOL    HW114504   0.149   1.375   3.904  0.5372  1.8520 -2.5839
 1014SOL    HW214505   0.258   1.317   3.831 -1.4529  1.4286 -0.9750
 1015SOL     OW14506   0.021   0.718   3.392 -0.5047 -0.4676  0.3640
 1015SOL    HW114507   0.054   0.781   3.456  1.4428  1.4648 -2.5582
 1015SOL    HW214508   0.069   0.638   3.414  0.7862  0.3119  0.3753
 1016SOL     OW14509   2.776   2.921   6.506 -0.0221  0.3269 -0.4364
 1016SOL    HW114510   2.752   2.846   6.452 -0.6160 -0.2795  0.6678
 1016SOL    HW214511   2.750   2.997   6.453 -1.0263 -0.1676 -0.6641
 1017SOL     OW14512   4.014   1.973   3.373  0.4029  0.1681 -0.2771
 1017SOL    HW114513   4.022   1.879   3.360 -0.2866  0.0055  0.5263
 1017SOL    HW214514   3.976   1.994   3.287  3.4095 -0.9337 -1.8877
 1018SOL     OW14515   3.037   4.037   0.346  0.4167  0.0691 -0.9795
 1018SOL    HW114516   3.014   3.994   0.264  1.6029  1.9704 -2.3028
 1018SOL    HW214517   2.955   4.044   0.394  0.1592  0.4201 -1.4728
 1019SOL     OW14518   4.663   1.305   5.209 -0.4945 -0.3464 -0.6108
 1019SOL    HW114519   4.607   1.372   5.170 -0.8181 -0.9274 -1.1446
 1019SOL    HW214520   4.693   1.256   5.132 -2.6409 -3.5762  0.6288
 1020SOL     OW14521   3.914   0.147   8.441  0.5656  0.3884 -0.2420
 1020SOL    HW114522   3.980   0.127   8.375  0.8829 -1.5645  0.6634
 1020SOL    HW214523   3.876   0.059   8.449  0.1814  0.3998 -1.9783
 1021SOL     OW14524   2.709   0.318   4.152 -0.0985 -0.3057 -0.2022
 1021SOL    HW114525   2.688   0.225   4.165 -1.4512 -0.1341 -1.1495
 1021SOL    HW214526   2.666   0.349   4.232  1.5052  2.5419 -0.4518
 1022SOL     OW14527   0.503   2.052   6.661 -0.4565 -0.3179  0.0912
 1022SOL    HW114528   0.424   2.104   6.643 -1.0957  0.3284  4.7774
 1022SOL    HW214529   0.529   2.030   6.572 -0.4218  0.1255 -0.0091
 1023SOL     OW14530   3.222   3.383   2.384  0.5031 -0.2782  0.6399
 1023SOL    HW114531   3.239   3.429   2.467  2.1377  2.7656 -1.3719
 1023SOL    HW214532   3.259   3.439   2.315  1.6477 -0.0224  1.4604
 1024SOL     OW14533   1.138   3.479   5.188  0.2319  0.2846 -0.6302
 1024SOL    HW114534   1.162   3.498   5.279 -2.9526 -0.6242  0.3686
 1024SOL    HW214535   1.222   3.483   5.142  1.3872 -0.1334  1.4435
 1025SOL     OW14536   2.225   0.799  12.748  0.0958 -0.0045  0.2316
 1025SOL    HW114537   2.309   0.815  12.790  0.8680  2.6498 -2.3182
 1025SOL    HW214538   2.192   0.888  12.760 -0.5025 -0.2626  0.5167
 1026SOL     OW14539   1.302   0.052  16.554 -0.3453 -0.6500  0.1384
 1026SOL    HW114540   1.258   0.127  16.513 -0.9974 -0.3513  1.3962
 1026SOL    HW214541   1.288   0.075  16.646  0.7155 -0.7230  0.3121
 1027SOL     OW14542   2.389   3.359   2.578 -0.1321 -0.5540 -0.5409
 1027SOL    HW114543   2.437   3.431   2.537 -1.1187  1.2264  1.4034
 1027SOL    HW214544   2.399   3.299   2.504 -1.2773 -3.8657  1.9605
 1028SOL     OW14545   3.989   4.241   8.168  0.1177 -0.5351 -0.5002
 1028SOL    HW114546   3.907   4.205   8.133 -0.0694 -1.6709  1.1074
 1028SOL    HW214547   4.044   4.163   8.174 -0.4695 -1.0311 -1.6723
 1029SOL     OW14548   3.320   1.604   8.066  0.1677  0.1732 -0.0541
 1029SOL    HW114549   3.300   1.512   8.049 -0.9399 -0.0338  2.3447
 1029SOL    HW214550   3.351   1.631   7.980 -0.0798  0.2931 -0.1040
 1030SOL     OW14551   2.767   3.885   8.225 -0.0703 -0.4722  0.3625
 1030SOL    HW114552   2.811   3.867   8.308  2.0440  1.3709 -0.3577
 1030SOL    HW214553   2.726   3.970   8.245 -0.3008  0.1200 -2.5116
 1031SOL     OW14554   3.762   4.149   2.935  0.1301  0.4601  0.3814
 1031SOL    HW114555   3.747   4.188   3.020 -0.5242  2.0797 -0.4820
 1031SOL    HW214556   3.806   4.219   2.888 -0.8414 -0.4233 -1.8725
 1032SOL     OW14557   0.862   2.452   2.270 -0.6486  0.6321 -0.4032
 1032SOL    HW114558   0.834   2.385   2.333  0.1698  1.1405  0.5056
 1032SOL    HW214559   0.804   2.434   2.196  1.3995 -0.1012 -1.8356
 1033SOL     OW14560   2.411   2.637   4.234  0.3461  0.1276 -0.7820
 1033SOL    HW114561   2.393   2.675   4.148  1.0020  3.2819  0.5022
 1033SOL    HW214562   2.502   2.610   4.220  0.7493  0.9044  0.3513
 1034SOL     OW14563   2.184   2.713   4.669  0.1467 -0.2067 -0.1039
 1034SOL    HW114564   2.279   2.714   4.668  0.0998  2.4789 -2.6315
 1034SOL    HW214565   2.165   2.693   4.577 -1.0530 -0.8625  0.2803
 1035SOL     OW14566   4.205   4.367   4.305 -0.0355  0.4277  0.2200
 1035SOL    HW114567   4.273   4.417   4.260 -0.1037 -0.3596 -0.7564
 1035SOL    HW214568   4.157   4.431   4.357 -0.9069 -0.9946  1.1510
 1036SOL     OW14569   2.366   3.530   1.687  0.0547 -0.3266  0.2326
 1036SOL    HW114570   2.346   3.536   1.780 -1.7699 -1.0529 -0.0935
 1036SOL    HW214571   2.370   3.435   1.674  0.2648 -0.3004  0.1064
 1037SOL     OW14572   2.112   2.004   3.885 -0.6014 -0.2970 -0.0992
 1037SOL    HW114573   2.064   2.020   3.966  0.5403  1.5665  0.1837
 1037SOL    HW214574   2.161   1.924   3.907  1.1087  0.9074  0.4304
 1038SOL     OW14575   4.003   0.363  14.256 -0.3963  0.2032 -0.0450
 1038SOL    HW114576   3.941   0.300  14.220  1.1247 -1.4714  0.2493
 1038SOL    HW214577   4.047   0.301  14.315  0.9667  0.4223 -0.8164
 1039SOL     OW14578   2.640   2.581   1.379  0.2966 -0.4217 -0.3981
 1039SOL    HW114579   2.656   2.490   1.401 -0.5847 -0.9251 -1.7794
 1039SOL    HW214580   2.650   2.625   1.463  1.7056 -1.2797 -0.1255
 1040SOL     OW14581   3.299   4.121   0.283 -0.4523  0.4985 -0.3669
 1040SOL    HW114582   3.291   4.207   0.324  1.2403  0.3448  0.2549
 1040SOL    HW214583   3.205   4.104   0.272 -0.2527 -0.7696 -0.1565
 1041SOL     OW14584   2.615   1.832  14.399 -0.5044  0.0037  0.2951
 1041SOL    HW114585   2.538   1.814  14.345  0.5255  0.6712 -1.3985
 1041SOL    HW214586   2.682   1.799  14.338 -0.1131  0.0448  0.6984
 1042SOL     OW14587   4.403   0.905  11.266 -0.2071 -0.4253 -0.3653
 1042SOL    HW114588   4.446   0.914  11.182  1.9383  3.6346  1.1565
 1042SOL    HW214589   4.407   0.810  11.277 -1.2283 -0.6367 -1.9136
 1043SOL     OW14590   1.043   0.745  17.548  0.4458 -0.0969 -0.5488
 1043SOL    HW114591   0.953   0.733  17.578  0.8711 -2.7293 -0.3067
 1043SOL    HW214592   1.045   0.677  17.481  0.8075 -1.8178  1.2128
 1044SOL     OW14593   3.090   3.295   8.733 -0.1640 -0.0951  0.3399
 1044SOL    HW114594   3.114   3.230   8.667 -1.7021 -0.0907 -0.2202
 1044SOL    HW214595   3.171   3.341   8.755 -1.5824  1.8589  1.4374
 1045SOL     OW14596   2.124   1.659   4.300  0.5583 -0.7147 -0.3235
 1045SOL    HW114597   2.069   1.695   4.230  1.6995  0.6019 -0.5581
 1045SOL    HW214598   2.210   1.662   4.256 -0.0022 -0.1918 -1.3944
 1046SOL     OW14599   3.843   4.702  14.033 -0.5366  0.2932  0.3304
 1046SOL    HW114600   3.907   4.653  14.084  0.6707  1.6339  0.1063
 1046SOL    HW214601   3.823   0.040  14.103  0.9902 -1.3487  2.2207
 1047SOL     OW14602   3.120   1.692   2.118  0.2039  0.1363 -0.6528
 1047SOL    HW114603   3.130   1.715   2.210  0.1512  0.0045 -0.6131
 1047SOL    HW214604   3.209   1.677   2.089  0.2315  1.5420 -1.2845
 1048SOL     OW14605   0.281   3.713  14.265 -0.0186 -0.5018 -0.4888
 1048SOL    HW114606   0.281   3.665  14.182 -3.1015 -0.9589 -0.2235
 1048SOL    HW214607   0.371   3.716  14.296 -0.6044  2.3096  0.9716
 1049SOL     OW14608   2.866   3.270   5.726 -0.1013  0.4509  0.1769
 1049SOL    HW114609   2.840   3.268   5.634 -0.2628 -1.1957  0.2442
 1049SOL    HW214610   2.913   3.187   5.737 -0.0931  0.3027 -1.0037
 1050SOL     OW14611   0.366   2.992   1.371  0.0029  0.1235  0.4819
 1050SOL    HW114612   0.307   3.027   1.304 -1.0714 -0.5985  1.0629
 1050SOL    HW214613   0.339   2.901   1.372  2.6246 -0.6534  0.4459
 1051SOL     OW14614   3.343   3.272   6.416  0.0754  0.0892 -0.3972
 1051SOL    HW114615   3.285   3.283   6.341  0.4291 -0.2240 -0.7189
 1051SOL    HW214616   3.359   3.178   6.414 -0.3604  0.0424 -1.5130
 1052SOL     OW14617   0.458   2.033   7.852 -0.0381 -0.6034  0.1533
 1052SOL    HW114618   0.430   1.968   7.916 -0.2682 -1.4530 -0.8125
 1052SOL    HW214619   0.375   2.074   7.828  0.5092  0.1776 -0.3830
 1053SOL     OW14620   4.483   1.660   2.683  0.1274 -0.1071  0.5767
 1053SOL    HW114621   4.424   1.701   2.619 -0.9247  0.6123  2.0032
 1053SOL    HW214622   4.566   1.692   2.649 -0.2199 -0.9602 -1.0781
 1054SOL     OW14623   1.915   2.739   5.418  0.2224  0.3447  0.3185
 1054SOL    HW114624   2.010   2.750   5.424  0.0414  1.9534  0.1049
 1054SOL    HW214625   1.917   2.651   5.457  1.2816  0.2406  0.0304
 1055SOL     OW14626   0.563   0.422   4.452  0.4265  0.0001 -0.2279
 1055SOL    HW114627   0.606   0.425   4.537 -0.1612  0.4858  0.0511
 1055SOL    HW214628   0.579   0.329   4.437 -0.7508  0.0828 -2.0140
 1056SOL     OW14629   2.944   4.657   2.678 -0.1655 -0.3306 -0.0036
 1056SOL    HW114630   2.968   4.567   2.654  0.5168 -0.4071  0.9902
 1056SOL    HW214631   3.025   4.680   2.722  1.6329 -2.3275 -2.2527
 1057SOL     OW14632   1.455   0.915   8.311  0.2646 -0.1673  1.0745
 1057SOL    HW114633   1.540   0.939   8.348  0.2901 -3.1233  2.9707
 1057SOL    HW214634   1.481   0.833   8.268  0.9599  1.0679 -0.8611
 1058SOL     OW14635   2.954   1.978   6.851  0.4661 -0.0570 -0.1758
 1058SOL    HW114636   2.961   2.015   6.939  1.1621 -0.9299  0.1344
 1058SOL    HW214637   2.907   2.049   6.807 -1.5203 -1.1356  0.1651
 1059SOL     OW14638   1.048   1.914   6.998  0.3159  0.6227 -0.5355
 1059SOL    HW114639   1.129   1.949   7.037  1.0693 -2.1350  0.3687
 1059SOL    HW214640   1.011   1.853   7.061  1.0664 -0.1623 -0.8530
 1060SOL     OW14641   2.778   3.253   5.986  0.1559  0.2466  0.1371
 1060SOL    HW114642   2.774   3.343   6.018  1.6116  0.9964 -1.8282
 1060SOL    HW214643   2.767   3.274   5.893 -0.3027  1.6713  0.5135
 1061SOL     OW14644   3.272   4.607   0.896 -0.3050 -0.0379  0.3518
 1061SOL    HW114645   3.321   4.539   0.850 -0.3964 -1.6915  2.6790
 1061SOL    HW214646   3.338   4.665   0.933 -1.0272  1.6220 -1.0065
 1062SOL     OW14647   3.871   4.366   3.649 -0.0491 -0.4197 -0.2794
 1062SOL    HW114648   3.819   4.295   3.687 -1.1815  0.2549 -0.5508
 1062SOL    HW214649   3.959   4.343   3.678  0.4652  1.5232 -0.3293
 1063SOL     OW14650   3.640   1.404  13.394 -0.0448  0.2098  0.2504
 1063SOL    HW114651   3.706   1.390  13.462  1.2063 -2.9831 -1.6391
 1063SOL    HW214652   3.559   1.365  13.427  0.8840 -0.5669  1.5752
 1064SOL     OW14653   4.584   1.551   4.439 -0.2351 -0.3035  0.2328
 1064SOL    HW114654   4.571   1.465   4.479 -0.2486 -2.5496 -4.5665
 1064SOL    HW214655   4.612   1.521   4.353  0.0816 -0.2184  0.3057
 1065SOL     OW14656   1.995   1.173  13.160  0.3718  0.3330 -0.7426
 1065SOL    HW114657   1.906   1.210  13.157 -0.3354 -1.3473 -0.7720
 1065SOL    HW214658   2.023   1.195  13.071 -1.8922  1.1831 -1.2540
 1066SOL     OW14659   3.489   0.401   3.986  0.4184  0.4101 -0.0874
 1066SOL    HW114660   3.464   0.455   3.912  1.2473  1.9184  0.7272
 1066SOL    HW214661   3.411   0.401   4.041  0.9945 -0.4846  0.7373
 1067SOL     OW14662   4.713   0.478   1.990  0.0373  0.2373 -0.5038
 1067SOL    HW114663   0.000   0.490   1.896 -0.3891  0.6147 -0.5070
 1067SOL    HW214664   4.698   0.567   2.022 -0.9963 -0.6083  1.3820
 1068SOL     OW14665   0.116   4.101   8.061 -0.4382 -0.4132  0.9218
 1068SOL    HW114666   0.161   4.121   7.979 -0.0898 -0.3107  1.1376
 1068SOL    HW214667   0.143   4.011   8.074 -1.9534 -0.8982  0.7830
 1069SOL     OW14668   0.428   1.113   5.201  0.1166 -0.3560  0.1567
 1069SOL    HW114669   0.445   1.056   5.126 -0.5406 -2.3998  1.5848
 1069SOL    HW214670   0.471   1.193   5.171 -0.1840 -0.9447 -1.8261
 1070SOL     OW14671   2.048   2.214  13.585 -0.3762 -0.2414 -0.1873
 1070SOL    HW114672   2.080   2.139  13.535 -3.0302 -2.4000  1.3883
 1070SOL    HW214673   2.015   2.170  13.663 -1.0807  0.0382 -0.3347
 1071SOL     OW14674   4.105   3.682   7.335 -0.0274  0.2240 -0.5955
 1071SOL    HW114675   4.098   3.677   7.430  0.4225 -0.4540 -0.5913
 1071SOL    HW214676   4.030   3.637   7.296 -0.2542  1.0614 -1.1308
 1072SOL     OW14677   0.421   0.660   8.448 -0.2909  0.1617 -0.4179
 1072SOL    HW114678   0.488   0.648   8.516 -1.5372 -1.0658  0.6065
 1072SOL    HW214679   0.426   0.751   8.418 -1.3839  0.5806  0.7072
 1073SOL     OW14680   0.141   2.216  11.943  1.0298  0.8863  0.0865
 1073SOL    HW114681   0.080   2.169  11.999  0.9859  0.1668 -0.5644
 1073SOL    HW214682   0.077   2.267  11.894  0.5822 -0.0318 -0.2853
 1074SOL     OW14683   3.374   1.356   6.110 -0.1578  0.3323 -0.7300
 1074SOL    HW114684   3.323   1.411   6.050 -0.3874  0.6404 -0.2482
 1074SOL    HW214685   3.354   1.404   6.190  0.7821 -0.1280 -0.2204
 1075SOL     OW14686   0.670   3.512   3.408  0.2206 -0.7119  0.0287
 1075SOL    HW114687   0.637   3.435   3.361  0.7701  0.5346 -2.4231
 1075SOL    HW214688   0.761   3.485   3.418  0.2410 -1.0881 -1.0767
 1076SOL     OW14689   2.609   2.762   0.982 -0.2607 -0.1741 -0.1703
 1076SOL    HW114690   2.659   2.707   0.921  1.0479  0.5948  0.2042
 1076SOL    HW214691   2.633   2.710   1.058 -1.0832 -0.1104  0.1317
 1077SOL     OW14692   3.971   3.145   3.563  0.3849  0.2023 -0.1664
 1077SOL    HW114693   3.982   3.145   3.658 -0.8653  0.8603 -0.0230
 1077SOL    HW214694   3.882   3.176   3.550 -0.2527 -1.9292 -0.9271
 1078SOL     OW14695   1.238   0.396   6.142  0.0391  0.3196 -0.0742
 1078SOL    HW114696   1.284   0.371   6.222 -1.4957  2.1540  1.3796
 1078SOL    HW214697   1.208   0.311   6.109 -0.6940  0.8047 -0.6514
 1079SOL     OW14698   4.221   2.757   7.994  0.1682 -0.1127  0.6489
 1079SOL    HW114699   4.210   2.852   8.002  1.0723  0.0672 -0.3502
 1079SOL    HW214700   4.158   2.736   7.925  1.5981 -2.0246 -0.0540
 1080SOL     OW14701   1.466   3.048   6.771 -0.0683 -0.0645 -0.3122
 1080SOL    HW114702   1.496   2.965   6.808 -2.6722 -0.7101  0.3235
 1080SOL    HW214703   1.502   3.117   6.828 -0.6076  1.5003 -1.8510
 1081SOL     OW14704   1.078   3.788   3.165  0.3988 -0.5194 -0.1397
 1081SOL    HW114705   1.061   3.781   3.071 -1.9523  1.5959  0.1378
 1081SOL    HW214706   1.144   3.857   3.164 -0.7685  0.6470  2.6464
 1082SOL     OW14707   1.784   0.358   6.703  0.1843  0.1345 -0.5144
 1082SOL    HW114708   1.841   0.425   6.665 -0.0259 -0.7938 -2.4577
 1082SOL    HW214709   1.753   0.423   6.766  2.8451 -0.3433  1.3120
 1083SOL     OW14710   3.141   3.079   2.870  0.1392 -0.4330  0.4158
 1083SOL    HW114711   3.073   3.135   2.833  0.0949  0.3175  1.6293
 1083SOL    HW214712   3.118   2.994   2.833 -1.6011  0.7985 -1.3357
 1084SOL     OW14713   3.003   0.257   0.669  0.2097 -0.7083 -0.5297
 1084SOL    HW114714   3.052   0.194   0.614 -0.4125 -1.3517 -0.3473
 1084SOL    HW214715   3.016   0.218   0.756  0.9077  0.5138 -0.0944
 1085SOL     OW14716   4.683   4.484   5.620  0.7673 -0.4743 -0.2711
 1085SOL    HW114717   4.675   4.547   5.548 -0.0161 -0.2686 -0.0058
 1085SOL    HW214718   4.676   4.404   5.568 -1.3975 -0.1907 -0.4279
 1086SOL     OW14719   2.208   3.843   3.324 -0.4582 -0.4102 -0.2698
 1086SOL    HW114720   2.153   3.903   3.275  1.5405  0.8264 -0.9859
 1086SOL    HW214721   2.204   3.883   3.411 -0.7737 -2.8274  0.8346
 1087SOL     OW14722   2.710   2.710  12.764 -0.2606 -0.0882 -0.1938
 1087SOL    HW114723   2.802   2.723  12.788 -0.2717 -0.5335  0.0979
 1087SOL    HW214724   2.703   2.615  12.772  0.9858 -0.0132  1.9514
 1088SOL     OW14725   4.386   4.428  16.641  0.3506 -0.3982  1.1039
 1088SOL    HW114726   4.467   4.425  16.691 -0.6138  1.9809  2.8098
 1088SOL    HW214727   4.381   4.522  16.620  0.4390 -0.7196 -0.3532
 1089SOL     OW14728   3.504   2.260  13.003 -0.3797  0.0236  0.2171
 1089SOL    HW114729   3.426   2.313  13.013 -0.4868 -0.1964  0.5274
 1089SOL    HW214730   3.573   2.326  13.009  1.2431 -1.6511  0.2674
 1090SOL     OW14731   1.931   2.109   4.075  0.4043 -0.1697  0.8117
 1090SOL    HW114732   1.842   2.074   4.073  0.1307  0.6464 -1.5404
 1090SOL    HW214733   1.929   2.192   4.122 -1.2734  0.1464  0.1889
 1091SOL     OW14734   4.637   1.048   4.052 -0.0898 -0.0336 -0.5892
 1091SOL    HW114735   4.604   1.005   4.130 -1.1033  3.4434  0.8912
 1091SOL    HW214736   4.605   1.137   4.070  0.8287  0.0283  0.6986
 1092SOL     OW14737   4.289   1.282   5.536  0.2605 -0.2410  0.3646
 1092SOL    HW114738   4.358   1.227   5.574  0.8338 -0.9543 -1.6981
 1092SOL    HW214739   4.316   1.372   5.554 -0.3088 -0.0887  0.4571
 1093SOL     OW14740   1.381   1.629   2.907 -0.0787 -0.0612  0.1969
 1093SOL    HW114741   1.457   1.667   2.951  1.3820 -0.0053 -2.3327
 1093SOL    HW214742   1.432   1.577   2.844 -3.5471 -0.2518 -2.4385
 1094SOL     OW14743   1.940   1.537   7.611 -0.2926 -0.4007 -0.2413
 1094SOL    HW114744   1.973   1.604   7.672 -0.8787 -0.5895  0.2792
 1094SOL    HW214745   1.859   1.516   7.657 -0.7711  1.0115 -0.4473
 1095SOL     OW14746   2.424   1.281   4.810  0.4098  0.4462 -0.0670
 1095SOL    HW114747   2.421   1.281   4.714 -0.6554 -1.0336 -0.0246
 1095SOL    HW214748   2.343   1.324   4.838 -0.6615  0.0534 -2.5865
 1096SOL     OW14749   3.813   4.237  11.282 -0.3670 -0.0055 -0.8795
 1096SOL    HW114750   3.816   4.216  11.189 -0.0118 -2.4759 -0.3345
 1096SOL    HW214751   3.775   4.324  11.280  1.6959  0.9599  1.0457
 1097SOL     OW14752   3.921   0.297   4.157 -0.0247  0.6614  0.1378
 1097SOL    HW114753   3.895   0.241   4.084 -2.1599 -0.2723  1.6160
 1097SOL    HW214754   3.861   0.371   4.144 -0.6074  0.1636  0.0047
 1098SOL     OW14755   1.144   0.268  11.164 -0.0757  0.3796 -0.0046
 1098SOL    HW114756   1.168   0.360  11.175 -0.1386  0.1350  2.2506
 1098SOL    HW214757   1.146   0.245  11.257 -0.1698  0.0098 -0.0936
 1099SOL     OW14758   1.674   2.147   5.796  0.5880  0.4720 -0.1667
 1099SOL    HW114759   1.706   2.172   5.709 -0.8902  1.9965 -0.2751
 1099SOL    HW214760   1.595   2.201   5.807 -0.6147 -1.8490  2.6357
 1100SOL     OW14761   4.494   3.625   2.821 -0.5085  0.7307 -0.4268
 1100SOL    HW114762   4.507   3.708   2.867 -1.6352  1.3630 -1.2460
 1100SOL    HW214763   4.553   3.646   2.748 -0.2354 -0.1918 -0.4719
 1101SOL     OW14764   3.534   2.086   6.358  0.4756 -0.0677  0.4342
 1101SOL    HW114765   3.445   2.123   6.361 -0.4139 -2.4157  2.4819
 1101SOL    HW214766   3.554   2.066   6.450 -0.3906 -2.5010  0.0679
 1102SOL     OW14767   3.640   2.727   5.207  0.6174  0.2667 -0.0811
 1102SOL    HW114768   3.559   2.680   5.189  0.9280  0.5727 -2.2522
 1102SOL    HW214769   3.699   2.653   5.224  1.2109  0.3979 -1.6051
 1103SOL     OW14770   2.123   1.996   4.280  0.9576  0.1067  0.9201
 1103SOL    HW114771   2.039   1.987   4.235  0.4785  0.7827  1.6882
 1103SOL    HW214772   2.187   1.975   4.211 -1.3844 -1.1338 -0.8765
 1104SOL     OW14773   2.688   1.921  11.217 -0.3053 -0.3495  0.4681
 1104SOL    HW114774   2.672   1.865  11.141  2.0572 -1.9561  1.1407
 1104SOL    HW214775   2.773   1.962  11.197 -1.8099  0.9725 -3.1652
 1105SOL     OW14776   1.135   2.723  17.288  0.3473 -0.1117  0.0875
 1105SOL    HW114777   1.192   2.754  17.358  2.4848 -0.3313 -1.5640
 1105SOL    HW214778   1.143   2.629  17.300  0.4950 -0.0160  0.7305
 1106SOL     OW14779   4.258   4.316  16.246  0.0422  0.3041  0.1948
 1106SOL    HW114780   4.308   4.296  16.168  0.0603 -0.1105  0.3117
 1106SOL    HW214781   4.295   4.256  16.311 -1.4795 -1.6486 -0.7591
 1107SOL     OW14782   0.241   3.097  10.793 -0.1049 -0.0820 -0.4221
 1107SOL    HW114783   0.229   3.089  10.698  3.8483  0.4282 -0.9885
 1107SOL    HW214784   0.210   3.187  10.801  2.2330  0.6175  0.8993
 1108SOL     OW14785   1.263   3.463   6.404  0.3107 -0.1458  0.0702
 1108SOL    HW114786   1.179   3.419   6.414 -0.4573  1.5258  0.8871
 1108SOL    HW214787   1.316   3.391   6.439 -0.8132 -1.5474 -1.0913
 1109SOL     OW14788   4.091   1.868   8.185  0.8057  0.2741 -0.0928
 1109SOL    HW114789   4.007   1.823   8.187  1.2437 -0.4020  4.7090
 1109SOL    HW214790   4.060   1.954   8.156 -1.7805  0.1101  2.1647
 1110SOL     OW14791   3.510   1.290   8.787  0.3219  0.3245  0.2364
 1110SOL    HW114792   3.549   1.281   8.700 -3.1478 -2.4700 -1.0271
 1110SOL    HW214793   3.594   1.284   8.834  0.2101 -1.1831  0.2428
 1111SOL     OW14794   2.391   2.811   7.744  0.3070  0.0047  0.1955
 1111SOL    HW114795   2.396   2.791   7.838  2.6097  0.5295  0.1832
 1111SOL    HW214796   2.481   2.836   7.726  0.3103 -1.5353 -1.9775
 1112SOL     OW14797   2.250   3.244  11.480 -0.9113  0.3741  0.0782
 1112SOL    HW114798   2.159   3.221  11.464 -1.1326  1.3694 -0.0985
 1112SOL    HW214799   2.302   3.200  11.413 -0.2361  0.0320  0.8312
 1113SOL     OW14800   0.815   3.045   7.144 -0.3203  0.1824  0.6808
 1113SOL    HW114801   0.835   2.990   7.068  0.6131  1.6887 -0.1464
 1113SOL    HW214802   0.723   3.022   7.159  0.3738 -1.9665  1.6764
 1114SOL     OW14803   0.183   1.520   4.578  0.0347  0.2192  0.0607
 1114SOL    HW114804   0.196   1.449   4.514 -0.4044 -0.0525  0.2791
 1114SOL    HW214805   0.178   1.595   4.518 -0.2624  1.0506  1.1281
 1115SOL     OW14806   0.938   4.447   3.573  0.6099  0.3666  0.0043
 1115SOL    HW114807   0.890   4.425   3.493 -1.2257  2.5818  0.4946
 1115SOL    HW214808   0.969   4.533   3.546 -1.4610 -0.1882 -4.2253
 1116SOL     OW14809   1.055   2.610   2.167 -0.4599 -0.2421  0.0199
 1116SOL    HW114810   0.981   2.562   2.205  1.3833 -3.3370 -0.2470
 1116SOL    HW214811   1.017   2.695   2.147 -1.5346 -0.4645  1.1138
 1117SOL     OW14812   0.227   4.548   5.391  0.2025  0.3622  0.3711
 1117SOL    HW114813   0.274   4.592   5.320 -0.5450 -1.9350 -1.5427
 1117SOL    HW214814   0.256   4.458   5.377  0.5000  0.6692 -1.0272
 1118SOL     OW14815   3.274   2.534   8.739 -0.2866  0.0114 -0.3024
 1118SOL    HW114816   3.253   2.476   8.666  2.5651 -0.8814 -0.4258
 1118SOL    HW214817   3.320   2.476   8.800 -0.3283 -0.7534 -0.9945
 1119SOL     OW14818   2.143   2.307  17.249  0.7934  0.2116 -0.0731
 1119SOL    HW114819   2.187   2.337  17.170  0.8894 -3.1640 -1.2861
 1119SOL    HW214820   2.172   2.374  17.311  1.4738  0.3527 -0.5449
 1120SOL     OW14821   2.703   0.741  12.988 -0.4008 -0.3945  0.4780
 1120SOL    HW114822   2.794   0.755  12.961 -0.6219  0.2248  0.0826
 1120SOL    HW214823   2.713   0.661  13.041 -0.7532 -0.6277  0.1894
 1121SOL     OW14824   3.008   1.310   5.740  0.3828  0.7704 -0.4304
 1121SOL    HW114825   3.078   1.279   5.683  0.5655  1.4975 -0.6053
 1121SOL    HW214826   2.979   1.386   5.689 -0.0875  0.3146 -0.8275
 1122SOL     OW14827   4.135   1.795   4.864  0.4368  0.5073 -0.0790
 1122SOL    HW114828   4.100   1.792   4.775  1.3132 -2.1944 -0.3205
 1122SOL    HW214829   4.221   1.761   4.842  0.5452 -0.5713  1.9819
 1123SOL     OW14830   3.775   0.615   5.433  0.3099 -0.7614 -0.0514
 1123SOL    HW114831   3.856   0.663   5.414 -0.4599  0.2234 -0.8847
 1123SOL    HW214832   3.792   0.583   5.522 -0.9135  1.5360  1.0414
 1124SOL     OW14833   3.085   1.256   7.443  0.0416 -0.2097  0.7009
 1124SOL    HW114834   3.036   1.338   7.447 -0.6142 -0.6365  1.2405
 1124SOL    HW214835   3.012   1.198   7.421  0.4873 -0.0723 -1.1813
 1125SOL     OW14836   2.066   3.722   7.703 -0.5665  0.1987 -0.0445
 1125SOL    HW114837   1.972   3.742   7.706  0.1467  3.1845  2.3874
 1125SOL    HW214838   2.101   3.801   7.745  0.3321  0.4434 -1.2706
 1126SOL     OW14839   2.759   1.879   5.898 -0.1719  0.2536  1.1600
 1126SOL    HW114840   2.722   1.838   5.819  0.1406  2.3969 -0.1086
 1126SOL    HW214841   2.810   1.944   5.850 -0.8752  0.1361  0.2330
 1127SOL     OW14842   0.758   1.006   4.242  0.0106  0.0591 -0.1486
 1127SOL    HW114843   0.722   0.995   4.154 -1.0814 -1.2298  0.4598
 1127SOL    HW214844   0.697   0.950   4.291 -1.3148  2.0778  0.5116
 1128SOL     OW14845   3.537   1.711  17.045  0.2260  0.4191 -0.3011
 1128SOL    HW114846   3.539   1.621  17.015 -2.8432  0.2315  0.0011
 1128SOL    HW214847   3.573   1.708  17.134 -1.1976  0.8464  0.3018
 1129SOL     OW14848   3.939   2.627   4.652 -0.0984 -0.6003 -0.2467
 1129SOL    HW114849   3.914   2.578   4.573  2.8653 -0.6397 -1.1635
 1129SOL    HW214850   4.021   2.585   4.677  0.3585  1.1095  1.1155
 1130SOL     OW14851   2.011   0.124   8.959 -1.1002  0.3180 -0.1319
 1130SOL    HW114852   1.978   0.061   9.024 -1.5035  0.7681  0.0947
 1130SOL    HW214853   1.936   0.146   8.904 -0.0907 -0.0256 -1.6566
 1131SOL     OW14854   2.507   4.581  11.804  0.0336 -0.1501  0.1988
 1131SOL    HW114855   2.470   4.659  11.846 -2.0606  0.0018 -1.9195
 1131SOL    HW214856   2.442   4.531  11.755  1.2163  0.0746 -1.6113
 1132SOL     OW14857   4.405   1.447  13.127 -0.3486  0.2555 -0.4247
 1132SOL    HW114858   4.429   1.530  13.086  0.7942 -0.4622 -1.1999
 1132SOL    HW214859   4.449   1.456  13.212  0.6986  1.1743 -1.0752
 1133SOL     OW14860   3.370   4.179   2.538  0.1424 -0.5071  0.0284
 1133SOL    HW114861   3.413   4.131   2.610  1.4831  0.8357  0.1349
 1133SOL    HW214862   3.401   4.268   2.555  0.1171 -0.3144 -0.9720
 1134SOL     OW14863   0.227   2.163   1.881  0.2439 -0.3794  0.1897
 1134SOL    HW114864   0.253   2.251   1.908 -0.9001 -0.2425  0.8409
 1134SOL    HW214865   0.276   2.161   1.799  0.0005  1.2568  0.0079
 1135SOL     OW14866   3.139   1.299   8.924 -0.4909  0.1737  0.6748
 1135SOL    HW114867   3.166   1.269   9.011 -0.5219  0.8700  0.9266
 1135SOL    HW214868   3.192   1.242   8.868  0.5562  1.7735  0.0288
 1136SOL     OW14869   2.064   2.254   6.672 -0.1922  0.2255 -0.6338
 1136SOL    HW114870   2.100   2.167   6.651 -3.9385 -0.8205 -2.6909
 1136SOL    HW214871   2.136   2.317   6.672  1.9955 -2.2548 -3.0107
 1137SOL     OW14872   0.876   2.541  13.195 -0.1243  0.1950 -0.1861
 1137SOL    HW114873   0.891   2.501  13.110  2.9744  0.3711  0.2688
 1137SOL    HW214874   0.784   2.562  13.180  0.6268  1.7090 -2.6498
 1138SOL     OW14875   4.186   0.058  14.194  0.4086 -0.4249  0.1072
 1138SOL    HW114876   4.278   0.037  14.209  0.3075 -0.8584  0.1352
 1138SOL    HW214877   4.166   0.110  14.272  0.9899 -0.0536  0.0053
 1139SOL     OW14878   2.836   1.773  14.204 -0.7050 -0.2500 -0.2315
 1139SOL    HW114879   2.792   1.747  14.123  0.6589 -1.9725 -0.4376
 1139SOL    HW214880   2.889   1.848  14.179 -1.0770  0.0493 -0.1159
 1140SOL     OW14881   0.057   2.571  16.115  0.1540  0.4125  0.6561
 1140SOL    HW114882   0.152   2.583  16.120 -0.2272  4.4947 -2.1083
 1140SOL    HW214883   0.042   2.543  16.205  2.0093  2.1384  1.5114
 1141SOL     OW14884   4.434   3.879  12.748 -0.6978 -0.5073  0.3847
 1141SOL    HW114885   4.360   3.823  12.775 -0.0020 -1.7114 -0.1883
 1141SOL    HW214886   4.390   3.919  12.673  1.0800 -0.0817 -0.4145
 1142SOL     OW14887   4.411   1.601   8.474  0.2853  0.5461 -0.1966
 1142SOL    HW114888   4.416   1.640   8.561  0.6894  0.2630 -0.0904
 1142SOL    HW214889   4.493   1.552   8.481  1.4248  3.2448  5.2353
 1143SOL     OW14890   1.665   0.848   5.900  0.3799 -0.5332 -0.5229
 1143SOL    HW114891   1.726   0.815   5.966 -1.3551 -2.1499  0.2634
 1143SOL    HW214892   1.580   0.863   5.942 -0.2917 -0.7694 -1.8143
 1144SOL     OW14893   3.252   0.427   6.095  0.3193 -0.0193 -0.6919
 1144SOL    HW114894   3.232   0.423   6.002  3.2242 -0.2983 -1.3204
 1144SOL    HW214895   3.179   0.375   6.130  0.1925  0.5776 -0.0720
 1145SOL     OW14896   2.000   3.486   6.164 -0.7052  0.0229 -0.2808
 1145SOL    HW114897   1.979   3.578   6.181 -0.4262  0.2052 -0.9237
 1145SOL    HW214898   2.019   3.453   6.251  0.5293 -1.5522 -1.1377
 1146SOL     OW14899   3.453   4.539   7.069 -0.0190 -0.0148  0.0693
 1146SOL    HW114900   3.531   4.492   7.037 -0.1618  0.8995 -1.6356
 1146SOL    HW214901   3.466   4.550   7.163  1.0388 -2.0325  0.1863
 1147SOL     OW14902   4.217   2.363  11.299 -0.3325 -0.3939 -0.1091
 1147SOL    HW114903   4.284   2.400  11.241  1.0122 -0.8231  1.1832
 1147SOL    HW214904   4.206   2.275  11.263  1.2167 -0.9133  0.6773
 1148SOL     OW14905   3.897   3.527   5.840 -0.0766  0.2457  0.1971
 1148SOL    HW114906   3.929   3.606   5.795 -1.4077  1.3179  1.1329
 1148SOL    HW214907   3.924   3.549   5.929  1.2286  0.3219 -0.2150
 1149SOL     OW14908   1.044   1.305   9.558  0.1912  0.0405 -0.4279
 1149SOL    HW114909   0.977   1.369   9.581  0.2869 -0.0996  0.2305
 1149SOL    HW214910   0.996   1.246   9.499 -0.2175  0.7204 -0.7747
 1150SOL     OW14911   1.241   1.119  10.582 -0.4281  0.0646 -0.6193
 1150SOL    HW114912   1.177   1.190  10.595 -0.4962  0.0236 -0.7257
 1150SOL    HW214913   1.201   1.080  10.504  2.5227  1.3665 -2.7775
 1151SOL     OW14914   2.596   2.056   5.258 -0.5607  0.7802 -0.1121
 1151SOL    HW114915   2.589   2.006   5.177 -2.4603  0.1028  0.4728
 1151SOL    HW214916   2.517   2.110   5.249 -1.8892 -0.8475  1.8814
 1152SOL     OW14917   0.862   4.609   8.319  0.3321  0.4079  0.2613
 1152SOL    HW114918   0.891   4.593   8.230  0.3621  0.1013  0.3280
 1152SOL    HW214919   0.935   4.661   8.353  1.7895 -1.4869  0.0420
 1153SOL     OW14920   3.687   1.641  12.182  0.2438 -0.1039 -0.1651
 1153SOL    HW114921   3.737   1.706  12.132  0.6653 -2.6319 -3.0376
 1153SOL    HW214922   3.749   1.594  12.238 -1.1186  0.0180  1.4256
 1154SOL     OW14923   0.350   2.645  14.812 -0.0119 -0.6179 -0.4768
 1154SOL    HW114924   0.319   2.676  14.727 -1.3971  1.8524  0.9505
 1154SOL    HW214925   0.378   2.728  14.852  0.3950 -0.8498 -0.2763
 1155SOL     OW14926   3.201   3.259   7.034  0.4965  0.3765 -0.0471
 1155SOL    HW114927   3.253   3.198   6.982 -0.3589 -1.5749  1.3903
 1155SOL    HW214928   3.237   3.241   7.121  1.4620 -0.1524 -0.5588
 1156SOL     OW14929   2.483   4.442   0.863 -0.3321  0.1657  0.1156
 1156SOL    HW114930   2.470   4.520   0.917  0.0904  0.6356 -0.4659
 1156SOL    HW214931   2.529   4.474   0.785  2.1287 -1.2944  0.9718
 1157SOL     OW14932   4.641   3.601   3.320  0.0527  0.4227  0.0255
 1157SOL    HW114933   4.697   3.670   3.286  0.6751  0.3326  0.8697
 1157SOL    HW214934   4.560   3.649   3.341  0.6885  1.3106  0.4329
 1158SOL     OW14935   1.621   3.617   6.153  0.1576  0.6652  0.1090
 1158SOL    HW114936   1.700   3.672   6.151  0.8392 -0.3943 -2.3991
 1158SOL    HW214937   1.552   3.682   6.153 -1.1790 -0.7616 -0.5722
 1159SOL     OW14938   2.262   0.367   9.860 -0.3437  0.2775  0.0122
 1159SOL    HW114939   2.234   0.370   9.769 -2.7201  1.9554  0.7949
 1159SOL    HW214940   2.186   0.315   9.886  0.9967 -2.1458 -0.9083
 1160SOL     OW14941   0.802   2.957  10.551  0.0360 -0.0054 -0.1604
 1160SOL    HW114942   0.762   3.038  10.583  0.9233  0.5835 -0.5418
 1160SOL    HW214943   0.838   2.926  10.634 -1.2425 -0.1879  0.3277
 1161SOL     OW14944   0.653   3.801  11.810  0.2441 -0.1161  0.0565
 1161SOL    HW114945   0.724   3.746  11.776  0.2071 -0.1293  0.0002
 1161SOL    HW214946   0.573   3.767  11.771  1.4125 -0.4748 -2.0782
 1162SOL     OW14947   4.226   1.509  15.950  0.0387  0.2208 -0.1818
 1162SOL    HW114948   4.190   1.490  15.863 -0.2937 -0.1223  0.0290
 1162SOL    HW214949   4.190   1.430  15.990 -0.5161  1.3050  1.5080
 1163SOL     OW14950   2.394   3.028   8.723  0.0277 -0.3182  0.1253
 1163SOL    HW114951   2.484   3.001   8.743  0.5500 -0.7111 -2.7000
 1163SOL    HW214952   2.343   3.002   8.799 -2.4932  0.6125 -1.2363
 1164SOL     OW14953   2.187   0.205  10.218  0.3014  0.6749 -0.2373
 1164SOL    HW114954   2.132   0.189  10.294 -0.7530  1.6206 -0.8030
 1164SOL    HW214955   2.129   0.175  10.148 -0.3352 -0.1316  0.6308
 1165SOL     OW14956   3.446   3.905   9.652 -0.1050  0.2681 -0.0519
 1165SOL    HW114957   3.417   3.997   9.649  1.3535  0.6176 -2.7587
 1165SOL    HW214958   3.537   3.915   9.678 -0.1497  0.0115  0.2049
 1166SOL     OW14959   3.123   2.617  13.221 -0.4202  0.9105  0.2745
 1166SOL    HW114960   3.138   2.699  13.175 -0.6400  0.5225 -0.4867
 1166SOL    HW214961   3.112   2.664  13.304 -1.4508  0.0233  0.6397
 1167SOL     OW14962   3.448   2.744   8.627  0.2091 -0.5946 -0.5599
 1167SOL    HW114963   3.458   2.689   8.705 -2.1521 -0.9620 -0.5191
 1167SOL    HW214964   3.353   2.750   8.635  0.1689  0.7128 -2.1145
 1168SOL     OW14965   4.141   0.435   4.464  0.0156 -0.6454  0.0402
 1168SOL    HW114966   4.091   0.386   4.530  0.0963 -0.3776  0.3042
 1168SOL    HW214967   4.209   0.374   4.436  1.4904  0.1833  1.8218
 1169SOL     OW14968   2.094   3.210  15.774 -0.0601 -0.7993 -0.4588
 1169SOL    HW114969   2.101   3.154  15.696 -2.4066 -1.1746 -0.3997
 1169SOL    HW214970   2.127   3.152  15.842 -1.3613 -0.6363  0.3151
 1170SOL     OW14971   1.612   1.520   3.646 -0.1257  0.9385  0.8699
 1170SOL    HW114972   1.555   1.552   3.576 -0.1088 -1.6049 -0.3343
 1170SOL    HW214973   1.687   1.578   3.634  0.7194 -0.1411  0.9913
 1171SOL     OW14974   0.129   2.034  13.289 -0.2203  0.6110 -0.0114
 1171SOL    HW114975   0.142   1.976  13.363  1.2246 -1.7682 -2.1414
 1171SOL    HW214976   0.055   1.999  13.240 -0.2203 -0.4882  0.7710
 1172SOL     OW14977   3.198   2.589   9.692  0.2858 -0.3722  0.0573
 1172SOL    HW114978   3.218   2.628   9.777 -1.0509  3.2733 -1.2824
 1172SOL    HW214979   3.241   2.504   9.691 -1.3254 -1.1906 -0.3917
 1173SOL     OW14980   3.281   2.923   0.285  0.4744  0.1572 -0.3272
 1173SOL    HW114981   3.227   2.993   0.322 -0.6450  0.1573 -1.9720
 1173SOL    HW214982   3.296   2.945   0.194  0.9455 -2.0243 -0.7764
 1174SOL     OW14983   2.945   3.587   3.525 -0.4406  0.0685 -0.3327
 1174SOL    HW114984   3.027   3.632   3.506 -0.4002  0.0625 -0.1759
 1174SOL    HW214985   2.956   3.510   3.470 -0.7342 -0.2981  0.1241
 1175SOL     OW14986   0.006   1.598  13.727  0.1290 -0.6528  0.3351
 1175SOL    HW114987   4.691   1.524  13.775  0.5048 -1.2576 -0.2971
 1175SOL    HW214988   4.713   1.662  13.796  0.0933 -0.0565 -0.2286
 1176SOL     OW14989   2.405   3.431   7.860 -0.0624 -0.7476  0.0619
 1176SOL    HW114990   2.449   3.472   7.786 -3.4378  0.0647 -1.4408
 1176SOL    HW214991   2.464   3.441   7.935  0.1429  1.1493 -0.3487
 1177SOL     OW14992   3.736   3.393   8.519  0.2861  0.2246  0.2102
 1177SOL    HW114993   3.741   3.298   8.514  2.3903  0.4819 -2.3183
 1177SOL    HW214994   3.784   3.397   8.602  1.3243 -0.9351 -0.3477
 1178SOL     OW14995   1.159   1.861   7.393  0.4224  0.1216 -0.2092
 1178SOL    HW114996   1.119   1.777   7.370 -0.6982  0.0927  1.8775
 1178SOL    HW214997   1.239   1.838   7.440 -1.3309 -4.3823  0.5590
 1179SOL     OW14998   1.278   2.944   6.423 -0.4267 -0.3641  0.4345
 1179SOL    HW114999   1.362   2.915   6.458 -0.1695  0.0779  0.1794
 1179SOL    HW215000   1.244   3.012   6.481  0.6015  0.1937  0.3880
 1180SOL     OW15001   0.409   3.619   5.069 -0.5943  0.6748 -0.1963
 1180SOL    HW115002   0.362   3.538   5.048 -0.2534  0.7451 -1.2621
 1180SOL    HW215003   0.342   3.675   5.109 -0.1346  1.6356 -0.7559
 1181SOL     OW15004   3.106   3.972   6.883 -0.1218  0.1674 -0.0905
 1181SOL    HW115005   3.144   3.903   6.828 -0.0586  0.8328 -0.8832
 1181SOL    HW215006   3.040   4.015   6.829 -0.2402 -0.5827 -0.5444
 1182SOL     OW15007   2.620   0.079  14.159 -0.3428 -0.2610 -0.0097
 1182SOL    HW115008   2.621   0.065  14.065  1.7794  1.1007 -0.1876
 1182SOL    HW215009   2.714   0.072  14.176  0.0329  0.6257 -1.7351
 1183SOL     OW15010   0.251   2.740  11.530  0.8732  0.5015 -0.0408
 1183SOL    HW115011   0.204   2.682  11.469 -4.2698  2.2742  2.2232
 1183SOL    HW215012   0.208   2.730  11.615  1.0544 -2.2712 -0.2861
 1184SOL     OW15013   3.530   1.363   7.568  0.5330  0.0412 -0.0848
 1184SOL    HW115014   3.549   1.366   7.662 -3.6843 -2.7305  0.8673
 1184SOL    HW215015   3.622   1.360   7.541  0.2396 -0.6228 -1.0219
 1185SOL     OW15016   1.705   4.511   0.841  0.1141  0.5017 -0.2748
 1185SOL    HW115017   1.794   4.546   0.832  1.2678 -2.3571  0.2170
 1185SOL    HW215018   1.650   4.590   0.848  0.0399  0.2842  1.4728
 1186SOL     OW15019   4.406   2.167   6.460  0.3074 -0.0155  0.0554
 1186SOL    HW115020   4.414   2.092   6.401 -2.2912  0.5916 -1.0893
 1186SOL    HW215021   4.497   2.197   6.459  0.2272  0.3003  2.5763
 1187SOL     OW15022   3.476   0.003   1.034  0.5807 -0.6700  0.1068
 1187SOL    HW115023   3.527   0.050   0.967  1.2753 -2.4419 -0.6315
 1187SOL    HW215024   3.544   4.662   1.053  0.3755 -1.2119 -0.9506
 1188SOL     OW15025   0.284   0.236   7.169  0.1239 -0.2771 -0.6811
 1188SOL    HW115026   0.221   0.279   7.227  1.6767  0.2578  0.6139
 1188SOL    HW215027   0.230   0.189   7.105 -0.2365 -0.9613  0.1344
 1189SOL     OW15028   2.500   3.961   7.569 -0.4883 -0.5227 -0.1267
 1189SOL    HW115029   2.420   3.930   7.613 -0.0437 -2.2168 -0.5213
 1189SOL    HW215030   2.539   4.016   7.637 -0.7924  0.0544 -0.4174
 1190SOL     OW15031   2.328   0.403   5.980 -0.2905 -0.3298  0.3976
 1190SOL    HW115032   2.316   0.326   5.924  0.3090 -0.2018  0.0937
 1190SOL    HW215033   2.417   0.423   5.951  0.7919 -0.8805  3.3482
 1191SOL     OW15034   4.629   0.901   7.416  0.1383 -0.5246  0.6952
 1191SOL    HW115035   4.567   0.965   7.381  2.1854  0.5564 -0.8891
 1191SOL    HW215036   4.680   0.960   7.472  1.7229 -2.1723  0.9910
 1192SOL     OW15037   2.672   0.229   2.705  0.3025 -0.4632  0.4692
 1192SOL    HW115038   2.616   0.168   2.753 -0.9076  1.5023  1.5657
 1192SOL    HW215039   2.626   0.305   2.742  1.0307  0.2097  0.0050
 1193SOL     OW15040   3.126   4.675   3.535 -0.2995  0.6273 -0.0560
 1193SOL    HW115041   3.152   4.713   3.619 -4.9376  4.1051 -0.1696
 1193SOL    HW215042   3.155   4.584   3.538  0.4752  0.8809 -0.0096
 1194SOL     OW15043   2.106   3.347  11.197  0.6115  0.2157  0.1153
 1194SOL    HW115044   2.156   3.423  11.169 -0.4734  1.2139  0.8673
 1194SOL    HW215045   2.177   3.283  11.197  1.1996  0.8795 -1.0258
 1195SOL     OW15046   0.330   0.283   3.490  0.0001 -0.6705  0.1128
 1195SOL    HW115047   0.252   0.311   3.442 -0.7632 -1.6962  0.7377
 1195SOL    HW215048   0.307   0.309   3.579  2.3661 -0.0119  0.5270
 1196SOL     OW15049   0.984   3.739   7.721 -0.1431 -0.5726  0.1423
 1196SOL    HW115050   0.915   3.713   7.661  1.1232 -0.2437 -1.4593
 1196SOL    HW215051   0.941   3.761   7.803  0.7216  0.0071  0.4447
 1197SOL     OW15052   3.002   2.585   8.703 -0.0601  0.1109 -0.1312
 1197SOL    HW115053   2.942   2.640   8.752  0.5763  0.7867 -0.0965
 1197SOL    HW215054   3.086   2.607   8.744  0.3690  0.1373 -0.9996
 1198SOL     OW15055   3.399   2.963   3.918  0.0232 -0.1172 -0.2749
 1198SOL    HW115056   3.450   2.888   3.887 -0.3398 -0.3238 -0.3699
 1198SOL    HW215057   3.355   3.002   3.842 -2.3010 -0.8713  0.7085
 1199SOL     OW15058   0.397   1.818   7.996 -0.3999  0.1918 -0.3472
 1199SOL    HW115059   0.355   1.802   8.080  2.0220  1.0798  1.0317
 1199SOL    HW215060   0.454   1.742   7.985 -0.9547 -0.8509  3.9725
 1200SOL     OW15061   2.849   0.146   2.533 -0.3049 -0.4055  0.6050
 1200SOL    HW115062   2.873   0.068   2.583 -0.8619 -1.2547 -0.4474
 1200SOL    HW215063   2.790   0.172   2.604 -0.9795  0.2009 -0.1824
 1201SOL     OW15064   1.675   1.020   5.666  0.3636  0.5587 -0.0168
 1201SOL    HW115065   1.611   1.079   5.626 -0.4088 -0.0811  0.2831
 1201SOL    HW215066   1.652   1.026   5.758  0.7821  0.1961  0.1126
 1202SOL     OW15067   2.389   1.607   7.541 -0.0834  0.4062  0.3329
 1202SOL    HW115068   2.421   1.627   7.453  0.2831 -0.2378  0.3185
 1202SOL    HW215069   2.317   1.547   7.519 -0.1460  0.0281  1.5409
 1203SOL     OW15070   1.692   3.307   6.727  0.4467 -0.1512  0.5149
 1203SOL    HW115071   1.700   3.332   6.819  1.8643 -2.0038  0.8915
 1203SOL    HW215072   1.684   3.391   6.681  0.3707 -0.8035 -0.6720
 1204SOL     OW15073   0.654   3.149   3.017 -0.1874  0.0903  0.1612
 1204SOL    HW115074   0.582   3.146   2.954 -0.7811  1.2121  0.7797
 1204SOL    HW215075   0.694   3.234   2.997  1.1032  0.2733  3.4242
 1205SOL     OW15076   4.589   0.270   2.946 -0.2133 -0.0798  0.2982
 1205SOL    HW115077   4.553   0.286   2.859  0.4335  1.1705  0.2587
 1205SOL    HW215078   4.685   0.276   2.942 -0.2898  0.8208 -0.1523
 1206SOL     OW15079   3.000   0.150  13.007  0.8227 -0.4277  0.3494
 1206SOL    HW115080   2.931   0.205  13.043 -0.4215 -1.3269 -0.6672
 1206SOL    HW215081   3.053   0.225  12.981  0.4903 -0.1963  0.3456
 1207SOL     OW15082   4.697   0.446  10.610 -0.1248  0.3268 -0.5922
 1207SOL    HW115083   0.034   0.476  10.542 -0.3305 -1.0981 -1.4264
 1207SOL    HW215084   4.671   0.529  10.648  0.1283 -0.1221  0.5411
 1208SOL     OW15085   2.495   0.326   3.652 -0.3145 -0.2934  0.1895
 1208SOL    HW115086   2.527   0.345   3.740  0.6636 -2.0434  0.1998
 1208SOL    HW215087   2.440   0.401   3.630  0.1939  0.5897  1.9006
 1209SOL     OW15088   3.824   1.632   3.475  0.0794 -0.0364  0.4830
 1209SOL    HW115089   3.758   1.676   3.421  0.5555 -1.9303 -1.6421
 1209SOL    HW215090   3.903   1.631   3.420  1.6887  1.5689  2.7802
 1210SOL     OW15091   0.979   1.073  16.970 -0.1934  0.2891  0.6249
 1210SOL    HW115092   1.059   1.049  16.924 -0.8254  0.5495 -0.6195
 1210SOL    HW215093   0.926   0.994  16.962 -0.5879  0.5026  1.0947
 1211SOL     OW15094   2.503   0.855   2.264  0.0349 -0.0152 -0.4787
 1211SOL    HW115095   2.420   0.809   2.253 -0.1321 -0.2198  1.5596
 1211SOL    HW215096   2.551   0.781   2.301 -2.3690 -2.8967 -3.0963
 1212SOL     OW15097   3.852   3.814  16.753  0.2370  0.1068 -0.8659
 1212SOL    HW115098   3.816   3.890  16.708  0.0872  0.4115 -0.2293
 1212SOL    HW215099   3.938   3.806  16.711  0.5474 -0.0811 -0.2036
 1213SOL     OW15100   3.826   1.391  13.183 -0.4872 -0.2311 -0.0957
 1213SOL    HW115101   3.835   1.298  13.162  2.4440 -0.0134  0.0948
 1213SOL    HW215102   3.763   1.395  13.255 -0.2638 -1.6422  0.1714
 1214SOL     OW15103   4.549   1.391   4.100  0.5967  0.4304 -0.4135
 1214SOL    HW115104   4.513   1.325   4.160 -1.7335 -0.6025 -2.9148
 1214SOL    HW215105   4.499   1.465   4.134 -1.8051 -2.1427  1.6616
 1215SOL     OW15106   4.660   3.399   7.025 -0.2187 -0.3493  0.2274
 1215SOL    HW115107   4.619   3.348   7.094 -1.0040  1.5949  1.2066
 1215SOL    HW215108   4.680   3.479   7.073 -0.1045 -0.6970  0.7516
 1216SOL     OW15109   4.646   4.424   6.148  0.2516  0.0393  0.0295
 1216SOL    HW115110   4.691   4.505   6.174  1.6105 -0.3931 -0.9720
 1216SOL    HW215111   4.556   4.452   6.164 -0.3429 -2.2428  0.6295
 1217SOL     OW15112   2.527   0.772  16.753 -0.2267 -0.0340  0.1853
 1217SOL    HW115113   2.591   0.829  16.796 -2.2559  0.4231  2.6112
 1217SOL    HW215114   2.555   0.767  16.662  1.1013  1.4111  0.5165
 1218SOL     OW15115   2.400   3.257   3.607 -0.4735  0.5642  0.0123
 1218SOL    HW115116   2.342   3.260   3.683 -0.4552  0.4166  0.0318
 1218SOL    HW215117   2.340   3.303   3.549 -1.2146  1.2532  1.3187
 1219SOL     OW15118   4.451   3.071   4.408  0.7031 -0.3679  0.2613
 1219SOL    HW115119   4.510   3.144   4.429  0.0283 -0.1497  1.3856
 1219SOL    HW215120   4.426   3.037   4.494  1.7652  1.0025  1.1220
 1220SOL     OW15121   4.116   0.452   5.531  0.7359  0.4586  0.4856
 1220SOL    HW115122   4.032   0.419   5.563  1.3521  0.8193  2.4938
 1220SOL    HW215123   4.171   0.410   5.597  2.0532  1.5263  0.0643
 1221SOL     OW15124   0.505   3.737   9.093  0.1087  0.3570 -0.5450
 1221SOL    HW115125   0.506   3.669   9.160 -0.5279  2.1351  1.2885
 1221SOL    HW215126   0.590   3.779   9.108  0.7706 -0.0064 -3.3610
 1222SOL     OW15127   0.139   4.326   0.388  1.0619  0.2776 -0.2011
 1222SOL    HW115128   0.192   4.402   0.364  0.4080 -0.1741 -3.0694
 1222SOL    HW215129   0.068   4.371   0.435 -0.5942 -1.3445 -1.1791
 1223SOL     OW15130   1.467   0.355   4.091 -0.3269 -0.1951 -0.1185
 1223SOL    HW115131   1.463   0.261   4.106 -1.8056 -0.5382 -2.7595
 1223SOL    HW215132   1.458   0.386   4.181  1.4082  0.7359 -0.2549
 1224SOL     OW15133   3.178   2.315   7.790 -0.0557 -0.0390  0.4981
 1224SOL    HW115134   3.186   2.220   7.780 -2.5491  0.0650 -2.3113
 1224SOL    HW215135   3.085   2.321   7.812  0.5990  0.7950  3.0264
 1225SOL     OW15136   0.275   1.910   3.953 -0.3402 -0.3303  0.0887
 1225SOL    HW115137   0.228   1.834   3.918 -2.0298  1.7150 -2.0992
 1225SOL    HW215138   0.296   1.958   3.873 -2.4591 -0.5358 -0.5784
 1226SOL     OW15139   4.619   4.155   3.435  0.1208  0.0361 -0.1374
 1226SOL    HW115140   4.694   4.128   3.489 -1.2983 -0.2953  1.6916
 1226SOL    HW215141   4.562   4.078   3.442 -1.2181  0.9193 -1.3286
 1227SOL     OW15142   4.308   2.912   3.458 -0.2745 -0.5039 -0.7541
 1227SOL    HW115143   4.238   2.978   3.456  2.4119  2.3351 -1.0468
 1227SOL    HW215144   4.258   2.852   3.513 -0.2014 -0.4171 -0.5913
 1228SOL     OW15145   2.797   2.429   5.734  0.1974  0.1021 -0.0673
 1228SOL    HW115146   2.755   2.350   5.768 -1.6299  0.5723 -1.2266
 1228SOL    HW215147   2.729   2.461   5.675  0.7551 -1.1635 -1.4143
 1229SOL     OW15148   2.511   4.373   5.811 -0.2530 -0.3042 -0.5681
 1229SOL    HW115149   2.600   4.344   5.831 -0.1552 -0.3933 -1.1314
 1229SOL    HW215150   2.493   4.360   5.718  1.2241 -1.7835 -0.6532
 1230SOL     OW15151   2.528   0.598   4.127  0.1194  0.0005 -0.2929
 1230SOL    HW115152   2.560   0.522   4.078 -0.0157 -0.2029 -0.0621
 1230SOL    HW215153   2.594   0.666   4.115  0.1216  0.3157  1.5847
 1231SOL     OW15154   1.591   2.259   5.183  0.3339  0.4323 -0.3881
 1231SOL    HW115155   1.592   2.323   5.112  0.4160  1.7466  0.7948
 1231SOL    HW215156   1.685   2.244   5.193  0.0118 -1.1456  0.3850
 1232SOL     OW15157   1.022   4.704  11.213  0.3325 -0.1394  0.0472
 1232SOL    HW115158   1.061   0.063  11.183  0.0237  0.4266  1.2155
 1232SOL    HW215159   0.997   0.006  11.302  2.1326  0.6738  0.3351
 1233SOL     OW15160   1.626   4.014  17.373  0.2306 -0.2367  0.0424
 1233SOL    HW115161   1.720   3.998  17.382 -0.1370 -1.2586  2.0878
 1233SOL    HW215162   1.613   4.070  17.450  0.7318  0.6048 -0.4810
 1234SOL     OW15163   2.259   3.652  15.787  0.1672 -0.3944  0.5286
 1234SOL    HW115164   2.285   3.744  15.784 -1.6908  0.1100 -0.5060
 1234SOL    HW215165   2.211   3.646  15.869  0.0951 -0.6636  0.4676
 1235SOL     OW15166   2.591   3.104   6.406  0.5049 -0.1343 -0.1320
 1235SOL    HW115167   2.518   3.046   6.383  0.7334  1.0285 -3.9056
 1235SOL    HW215168   2.548   3.175   6.455  0.4871 -1.1467  1.3115
 1236SOL     OW15169   1.585   1.496   5.439 -0.3258 -0.5428  0.4228
 1236SOL    HW115170   1.546   1.579   5.411  1.7489 -0.0988 -1.1901
 1236SOL    HW215171   1.605   1.465   5.350 -0.0663  1.4220 -0.2080
 1237SOL     OW15172   0.101   0.413   7.392 -0.2840  0.0969 -0.3204
 1237SOL    HW115173   0.015   0.422   7.433 -0.3171  1.2751 -0.6551
 1237SOL    HW215174   0.144   0.348   7.447 -1.4054 -1.3579 -1.1724
 1238SOL     OW15175   1.111   0.894   6.829 -0.4142 -0.7834  0.0637
 1238SOL    HW115176   1.145   0.982   6.814 -0.6550 -0.5778  0.7446
 1238SOL    HW215177   1.063   0.907   6.910  0.0232 -1.3884  0.4126
 1239SOL     OW15178   4.712   3.769  13.614  0.0836  0.4205  0.1177
 1239SOL    HW115179   0.043   3.691  13.614 -0.3878  0.0730  1.4837
 1239SOL    HW215180   4.633   3.744  13.567  0.1628 -1.8550  1.1953
 1240SOL     OW15181   2.476   3.785   4.994 -0.5487 -0.7702  0.4652
 1240SOL    HW115182   2.515   3.781   5.081 -0.2305  0.4750  0.3840
 1240SOL    HW215183   2.475   3.700   4.950  2.1650 -1.2807  1.3696
 1241SOL     OW15184   4.619   3.431  11.246 -0.2236  0.1938  0.1090
 1241SOL    HW115185   4.579   3.347  11.269 -1.1991  0.2186 -1.5182
 1241SOL    HW215186   4.536   3.479  11.245 -2.0095 -2.9014 -0.1128
 1242SOL     OW15187   1.018   3.731  10.891 -0.3396 -0.3571 -0.4348
 1242SOL    HW115188   0.989   3.812  10.933 -1.9761 -1.7525  1.1448
 1242SOL    HW215189   1.082   3.766  10.829 -0.1786  2.2837  1.2126
 1243SOL     OW15190   4.274   2.345   2.522 -0.4241 -0.3547 -0.3292
 1243SOL    HW115191   4.237   2.416   2.469 -0.5206  0.3899  0.7497
 1243SOL    HW215192   4.202   2.335   2.584 -1.3073  0.5781 -1.1952
 1244SOL     OW15193   0.298   0.761  12.156  0.3902  0.3536 -0.2507
 1244SOL    HW115194   0.215   0.782  12.113  0.0530 -1.3257 -0.4366
 1244SOL    HW215195   0.317   0.680  12.108 -0.4860  1.0252 -1.7295
 1245SOL     OW15196   4.076   3.298   2.260 -0.0637 -0.4827  0.2277
 1245SOL    HW115197   4.025   3.346   2.324 -0.7690 -2.4721  1.1676
 1245SOL    HW215198   4.001   3.277   2.205 -0.5556 -1.7932  1.3949
 1246SOL     OW15199   0.564   3.247   4.934 -0.1360 -0.2053 -0.0326
 1246SOL    HW115200   0.577   3.153   4.920  0.8049 -0.3372  1.7156
 1246SOL    HW215201   0.607   3.263   5.018  0.9301  1.2834 -0.8593
 1247SOL     OW15202   1.008   0.621   7.620  0.2074 -0.2554 -0.1452
 1247SOL    HW115203   1.043   0.543   7.578 -0.3029 -0.0117 -1.0277
 1247SOL    HW215204   0.982   0.589   7.707  0.6557  0.4128  0.2423
 1248SOL     OW15205   1.532   1.208   2.561 -0.0931  0.3312  0.2613
 1248SOL    HW115206   1.602   1.251   2.512  0.1523 -0.5490 -0.1597
 1248SOL    HW215207   1.461   1.266   2.538 -1.8988 -1.9941 -0.0391
 1249SOL     OW15208   4.585   3.795   9.853 -0.1707  0.4468  0.1466
 1249SOL    HW115209   4.674   3.826   9.870  0.8006 -0.6805 -2.8137
 1249SOL    HW215210   4.564   3.736   9.925 -0.0947  0.0511 -0.1555
 1250SOL     OW15211   2.877   4.526   3.508  0.0500  0.5853 -0.1000
 1250SOL    HW115212   2.837   4.593   3.564 -0.3814 -1.0149  1.4875
 1250SOL    HW215213   2.970   4.532   3.529  0.3548  0.0252 -1.2721
 1251SOL     OW15214   2.857   0.601   2.501  0.0644 -0.2644  0.1387
 1251SOL    HW115215   2.875   0.670   2.437  0.4064  1.8705  2.5544
 1251SOL    HW215216   2.786   0.556   2.457 -0.1673  2.5867 -2.4069
 1252SOL     OW15217   0.498   1.843  11.892  0.0138 -0.5069  0.4729
 1252SOL    HW115218   0.590   1.857  11.870 -0.5499 -0.0476 -1.5381
 1252SOL    HW215219   0.462   1.859  11.805  1.7797  1.6708  0.1348
 1253SOL     OW15220   2.454   4.598   4.787 -0.1743 -0.4137  0.4689
 1253SOL    HW115221   2.419   4.667   4.843 -2.6158 -3.1508  2.3040
 1253SOL    HW215222   2.524   4.570   4.845  1.0268  1.7275  0.0174
 1254SOL     OW15223   1.669   1.893   8.445  0.0507 -0.2555 -0.0788
 1254SOL    HW115224   1.631   1.943   8.518 -1.3071 -2.7080  0.8840
 1254SOL    HW215225   1.662   1.959   8.376  0.2574 -0.9570 -0.7708
 1255SOL     OW15226   3.617   4.515   1.128 -0.0523  0.0486 -0.2132
 1255SOL    HW115227   3.710   4.515   1.150  0.0426  0.4149 -0.6269
 1255SOL    HW215228   3.604   4.448   1.061 -1.0032 -0.5402  0.5482
 1256SOL     OW15229   1.439   2.052   9.572 -0.2339 -0.4957 -0.9204
 1256SOL    HW115230   1.447   2.002   9.653 -1.3671  1.9796  0.7078
 1256SOL    HW215231   1.409   2.137   9.605 -0.1646 -1.2191  1.0046
 1257SOL     OW15232   3.069   0.570  13.176 -0.5234 -0.6855  0.2027
 1257SOL    HW115233   3.121   0.557  13.255  0.6839  1.4880 -0.2230
 1257SOL    HW215234   3.117   0.628  13.117  0.2490 -2.5962 -1.0559
 1258SOL     OW15235   1.034   3.360  15.005  0.7239  0.1988 -0.5766
 1258SOL    HW115236   1.063   3.446  15.033 -1.0809  0.8357 -0.6430
 1258SOL    HW215237   1.116   3.312  15.002 -0.2191 -1.4470 -0.2959
 1259SOL     OW15238   3.900   2.614  14.091 -0.1304 -0.4120 -0.1484
 1259SOL    HW115239   3.897   2.524  14.059 -0.3244 -0.5333  0.2167
 1259SOL    HW215240   3.908   2.613  14.186  1.3127  4.0724 -0.2115
 1260SOL     OW15241   3.322   3.879  10.706 -0.2952 -0.6153  0.1877
 1260SOL    HW115242   3.348   3.878  10.614 -0.2400  1.4804  0.1897
 1260SOL    HW215243   3.359   3.952  10.755 -0.0293  0.8548 -2.2277
 1261SOL     OW15244   4.562   3.098   3.892 -0.4161  0.2578 -0.1056
 1261SOL    HW115245   4.582   3.169   3.953  1.6002 -1.1518  0.8567
 1261SOL    HW215246   4.467   3.089   3.897 -0.2716 -0.2895  1.5845
 1262SOL     OW15247   4.059   0.834  13.617 -0.4451 -0.1770 -0.0867
 1262SOL    HW115248   4.108   0.780  13.555  0.7180  0.3572  0.3594
 1262SOL    HW215249   3.969   0.805  13.605 -0.5593  0.9221 -1.7894
 1263SOL     OW15250   1.981   3.179   1.592 -0.9612  0.2494 -0.1550
 1263SOL    HW115251   1.919   3.111   1.566  1.4103 -1.7906 -0.4222
 1263SOL    HW215252   2.011   3.210   1.506 -2.2520  0.7204 -0.4387
 1264SOL     OW15253   2.357   0.807   1.610  0.1596 -0.4814 -0.0697
 1264SOL    HW115254   2.309   0.729   1.583 -0.1036  0.0336 -1.0698
 1264SOL    HW215255   2.369   0.856   1.529 -3.2526  0.6532  0.1039
 1265SOL     OW15256   3.074   1.378   5.999 -1.0265  0.2369  0.2298
 1265SOL    HW115257   3.052   1.353   5.909 -0.6259  0.7870 -0.0165
 1265SOL    HW215258   3.080   1.471   5.979 -1.3786  1.0033  3.5880
 1266SOL     OW15259   3.453   1.774   0.152 -0.2737 -0.0573  0.0509
 1266SOL    HW115260   3.412   1.840   0.207  2.0530  1.9438 -0.6373
 1266SOL    HW215261   3.378   1.759   0.094 -1.1076  1.6874  0.6752
 1267SOL     OW15262   0.826   2.303   4.166 -0.2175  0.4788  0.3079
 1267SOL    HW115263   0.917   2.290   4.138  0.1559  0.2978  1.6239
 1267SOL    HW215264   0.818   2.398   4.165 -1.3811  0.3824 -0.2104
 1268SOL     OW15265   2.107   3.935  17.371  0.2854 -0.1032  0.2855
 1268SOL    HW115266   2.108   3.858  17.313 -1.3070 -0.3270  0.5482
 1268SOL    HW215267   2.188   3.977  17.344 -0.3110  2.0509  1.8146
 1269SOL     OW15268   3.209   1.171   4.704  0.5549  1.1461 -0.1810
 1269SOL    HW115269   3.234   1.139   4.617  0.2543 -2.3744  1.0237
 1269SOL    HW215270   3.197   1.085   4.744 -0.1972  1.4164  0.1680
 1270SOL     OW15271   1.302   4.087   4.005 -0.4593  0.7200 -0.1721
 1270SOL    HW115272   1.336   4.039   4.080  1.4017  0.3380 -1.2541
 1270SOL    HW215273   1.316   4.013   3.945 -1.3542 -0.1344  0.6717
 1271SOL     OW15274   4.724   4.473   6.877 -0.2510  0.2227  0.1585
 1271SOL    HW115275   4.710   4.545   6.815  0.7754 -0.3502 -0.7299
 1271SOL    HW215276   0.092   4.454   6.858 -0.5983  0.3262 -1.6123
 1272SOL     OW15277   1.488   2.445   7.804 -0.2722  0.0625  0.3906
 1272SOL    HW115278   1.432   2.510   7.848 -2.0277 -2.3403  1.6765
 1272SOL    HW215279   1.433   2.373   7.833 -1.1730  0.0447 -1.4272
 1273SOL     OW15280   4.195   2.832  17.281 -0.9092 -0.1269  0.6475
 1273SOL    HW115281   4.256   2.900  17.311 -1.7202  0.2881  1.3816
 1273SOL    HW215282   4.112   2.880  17.286 -0.5687  0.5931 -0.8679
 1274SOL     OW15283   2.299   0.869  12.104 -0.0996 -0.0930  0.3493
 1274SOL    HW115284   2.212   0.863  12.066  0.4420  2.1985 -1.2979
 1274SOL    HW215285   2.369   0.858  12.039 -0.1460  1.0919  0.1043
 1275SOL     OW15286   4.630   4.468   9.240 -0.7635 -0.4784  0.3044
 1275SOL    HW115287   4.561   4.442   9.301 -1.8219  1.5621 -0.0131
 1275SOL    HW215288   4.621   4.562   9.227  1.8262 -0.4060 -0.9285
 1276SOL     OW15289   0.315   4.542   4.382  0.2661  0.2318  0.1346
 1276SOL    HW115290   0.361   4.572   4.460  1.0157 -0.8189  0.0938
 1276SOL    HW215291   0.389   4.556   4.323 -0.7930  1.0047 -1.0010
 1277SOL     OW15292   1.291   1.785   9.176 -0.0209 -0.2977  0.5145
 1277SOL    HW115293   1.241   1.852   9.130 -1.7479 -0.8965  1.4991
 1277SOL    HW215294   1.327   1.834   9.250  0.0151  0.7894 -0.2218
 1278SOL     OW15295   4.611   2.271   5.244  0.0817 -0.0670  0.0039
 1278SOL    HW115296   4.677   2.230   5.188 -0.5605 -1.2459  0.1198
 1278SOL    HW215297   4.535   2.213   5.245 -1.1009  1.4955  1.0232
 1279SOL     OW15298   4.253   1.452  14.813  0.4243 -0.4006  0.3093
 1279SOL    HW115299   4.224   1.400  14.888 -1.5668 -1.0449 -0.9087
 1279SOL    HW215300   4.174   1.505  14.800  1.5495  0.5174 -2.9015
 1280SOL     OW15301   0.192   2.618   6.784 -0.1738  0.5362 -0.1071
 1280SOL    HW115302   0.198   2.620   6.688 -0.8736  1.9789 -0.1324
 1280SOL    HW215303   0.185   2.525   6.802  0.8577  0.2736 -1.0468
 1281SOL     OW15304   4.618   1.779   6.903  0.2234  0.2855  0.0118
 1281SOL    HW115305   4.617   1.811   6.993  0.3590  1.1412 -0.2892
 1281SOL    HW215306   4.711   1.779   6.878 -0.0759  1.5033 -1.1625
 1282SOL     OW15307   3.628   0.111   5.952  0.3082 -0.0294 -0.2694
 1282SOL    HW115308   3.719   0.141   5.946  0.1893  0.4685  0.3465
 1282SOL    HW215309   3.587   0.159   5.880 -0.7215  1.1425  1.0958
 1283SOL     OW15310   4.671   2.974   4.249 -0.2399 -0.2281  0.2000
 1283SOL    HW115311   0.006   2.948   4.319  0.0097  1.6164  0.6662
 1283SOL    HW215312   4.585   2.986   4.290 -0.3327  1.1572 -0.4091
 1284SOL     OW15313   3.290   2.323   3.959 -0.6220  0.3258 -1.0087
 1284SOL    HW115314   3.300   2.418   3.966 -0.3189  0.0345  2.7331
 1284SOL    HW215315   3.298   2.297   4.051  4.3540  2.1484 -0.9413
 1285SOL     OW15316   0.365   1.860   2.100 -0.6566 -0.1084  0.5380
 1285SOL    HW115317   0.311   1.933   2.129  2.9026  2.8951 -0.3857
 1285SOL    HW215318   0.330   1.843   2.013 -0.7221  0.6394  0.4214
 1286SOL     OW15319   0.974   3.294   6.293 -0.4147  0.4322 -0.4848
 1286SOL    HW115320   0.884   3.321   6.314 -0.3579  1.7722 -1.9700
 1286SOL    HW215321   0.958   3.262   6.204  0.5751  0.0597 -0.5238
 1287SOL     OW15322   2.730   3.092   4.288 -0.1990  0.1809 -0.8487
 1287SOL    HW115323   2.808   3.115   4.338 -0.7895 -0.4978  0.4021
 1287SOL    HW215324   2.691   3.050   4.364 -1.2518  1.3709 -0.7360
 1288SOL     OW15325   1.995   2.170  17.055  0.0651  0.5609  0.1570
 1288SOL    HW115326   2.049   2.117  16.996 -1.2373 -1.9955  1.2619
 1288SOL    HW215327   2.061   2.211  17.111 -0.4475  0.1004  1.0895
 1289SOL     OW15328   4.306   3.009   8.637  0.4051 -0.1440  0.3778
 1289SOL    HW115329   4.368   2.948   8.596 -0.2790 -0.0941 -0.7106
 1289SOL    HW215330   4.236   3.016   8.573  0.5824  1.2246  0.3348
 1290SOL     OW15331   3.004   4.310   1.325  0.1789 -0.2326 -0.0402
 1290SOL    HW115332   3.065   4.284   1.256  1.1646  0.5727  0.5222
 1290SOL    HW215333   2.977   4.394   1.289  0.4141 -1.5662 -3.2850
 1291SOL     OW15334   4.696   1.754  13.051  0.5930 -0.6581 -0.4816
 1291SOL    HW115335   4.634   1.739  12.980  2.7518 -0.2535 -2.4607
 1291SOL    HW215336   4.683   1.846  13.074 -0.8442 -1.3390  1.3471
 1292SOL     OW15337   3.642   4.276   1.319  0.1340  0.6789  0.3360
 1292SOL    HW115338   3.602   4.353   1.279 -3.1255 -0.7467  0.8419
 1292SOL    HW215339   3.606   4.269   1.407  2.5151  0.3949  1.2826
 1293SOL     OW15340   0.848   3.882   4.821  0.3438  0.6234  0.2188
 1293SOL    HW115341   0.898   3.963   4.818  1.8786 -0.2869  1.1684
 1293SOL    HW215342   0.765   3.915   4.855 -0.3970  0.3108 -1.3128
 1294SOL     OW15343   1.794   0.266   9.261  0.0289 -0.3276 -0.4804
 1294SOL    HW115344   1.813   0.195   9.323 -2.5144 -0.3333  0.3013
 1294SOL    HW215345   1.846   0.334   9.303  1.8118 -2.6480  1.1067
 1295SOL     OW15346   2.784   2.212   6.175 -0.1770 -0.0852 -0.5700
 1295SOL    HW115347   2.843   2.219   6.101  0.6490 -1.6758 -0.0496
 1295SOL    HW215348   2.818   2.131   6.214  0.7428  0.9362  0.7320
 1296SOL     OW15349   1.789   2.942   4.942 -0.0279 -0.7583 -0.1702
 1296SOL    HW115350   1.755   2.924   4.855 -1.3799 -0.1381  0.2278
 1296SOL    HW215351   1.880   2.968   4.927 -0.7342  0.8610 -1.6275
 1297SOL     OW15352   3.441   2.985   7.781  0.2829  0.4106  0.4254
 1297SOL    HW115353   3.443   3.007   7.874 -1.3520  1.3023  0.2347
 1297SOL    HW215354   3.501   3.051   7.744  0.0021  0.6859  0.4569
 1298SOL     OW15355   2.891   2.259   8.861  0.0429 -0.1909  0.0702
 1298SOL    HW115356   2.882   2.235   8.768  0.1791 -0.5185  0.1425
 1298SOL    HW215357   2.974   2.213   8.874 -1.2906 -1.7930  2.9448
 1299SOL     OW15358   2.514   3.071   4.979  0.1165 -0.1104  0.5771
 1299SOL    HW115359   2.604   3.103   4.972 -0.2624  0.6959 -0.7049
 1299SOL    HW215360   2.514   3.006   5.049  0.4037  0.8599  1.4682
 1300SOL     OW15361   4.278   2.921  16.876 -0.1067  0.2019  0.4555
 1300SOL    HW115362   4.220   2.995  16.860 -0.2274  0.0014 -0.0225
 1300SOL    HW215363   4.209   2.859  16.900  0.0940  0.6828  2.2794
 1301SOL     OW15364   0.186   4.199   6.673  0.3497  0.1985  0.7025
 1301SOL    HW115365   0.152   4.112   6.693 -2.6532  1.5469  1.3792
 1301SOL    HW215366   0.210   4.188   6.581 -0.4363  0.9031  0.4192
 1302SOL     OW15367   3.485   1.635   4.762  0.0081  0.1515  0.0817
 1302SOL    HW115368   3.449   1.556   4.722 -0.8809  0.1217  0.9533
 1302SOL    HW215369   3.411   1.695   4.760  1.1620  1.6102  1.3735
 1303SOL     OW15370   2.222   0.687  14.377  0.0740  0.2954 -0.2900
 1303SOL    HW115371   2.144   0.663  14.327  0.5737 -1.6327 -0.1533
 1303SOL    HW215372   2.273   0.607  14.364 -1.4316 -0.6086 -0.6738
 1304SOL     OW15373   3.184   2.621   5.331  0.0374 -0.1338  0.5786
 1304SOL    HW115374   3.268   2.632   5.286 -0.5989 -1.0967 -0.8456
 1304SOL    HW215375   3.122   2.617   5.259  0.5512 -2.2480  0.2464
 1305SOL     OW15376   1.535   2.193  13.400 -0.1763 -0.2339 -0.2804
 1305SOL    HW115377   1.485   2.111  13.393  0.8935 -0.7458 -1.8746
 1305SOL    HW215378   1.624   2.159  13.408  0.3943  1.2810 -0.1453
 1306SOL     OW15379   3.459   0.729  10.464 -0.3335  0.1630 -0.0170
 1306SOL    HW115380   3.541   0.756  10.423  0.4330 -0.6933  0.9424
 1306SOL    HW215381   3.448   0.806  10.519  1.0317  0.0984  0.3358
 1307SOL     OW15382   0.003   0.915   9.886 -0.3929 -0.1262  0.6016
 1307SOL    HW115383   4.644   0.928   9.933 -1.7116 -1.3292 -1.3795
 1307SOL    HW215384   4.703   0.889   9.797  1.3948  1.9591 -0.4702
 1308SOL     OW15385   1.261   1.939   7.143  0.1819  0.4593 -0.2993
 1308SOL    HW115386   1.243   1.896   7.226  1.3645  0.1741 -0.1866
 1308SOL    HW215387   1.332   1.888   7.104  0.2584  0.0051  0.4333
 1309SOL     OW15388   1.287   0.371  12.497 -0.0407  0.0299 -0.2328
 1309SOL    HW115389   1.358   0.318  12.533 -0.0697 -0.1281 -0.4095
 1309SOL    HW215390   1.242   0.302  12.448  2.2094 -2.0329  0.5937
 1310SOL     OW15391   0.678   2.995  16.805  0.1664  0.2172 -0.1752
 1310SOL    HW115392   0.626   3.075  16.795 -0.9636 -0.4976  0.0803
 1310SOL    HW215393   0.712   2.998  16.894  1.2914  0.0038 -0.5927
 1311SOL     OW15394   2.890   1.522   1.079  0.6861 -0.4570 -0.2411
 1311SOL    HW115395   2.977   1.511   1.040  0.3789 -0.5472 -0.8995
 1311SOL    HW215396   2.879   1.436   1.120 -0.6879 -1.4091 -2.6338
 1312SOL     OW15397   2.058   1.138   4.422  0.3708  0.4383  0.2168
 1312SOL    HW115398   2.010   1.060   4.395  1.4547 -0.1234 -0.0473
 1312SOL    HW215399   2.004   1.207   4.383  0.9459  0.6816 -0.1423
 1313SOL     OW15400   4.470   4.385   3.435  0.1973  0.2927  0.2884
 1313SOL    HW115401   4.530   4.311   3.425  0.5445  0.5047  0.8273
 1313SOL    HW215402   4.448   4.381   3.529 -2.5274  0.8971 -0.3214
 1314SOL     OW15403   4.563   3.894   7.860 -0.2945 -0.0438 -0.2489
 1314SOL    HW115404   4.569   3.936   7.946 -0.7325  0.7992 -0.6216
 1314SOL    HW215405   4.478   3.929   7.833 -0.3120 -0.2604 -0.4743
 1315SOL     OW15406   2.363   0.291   2.357  0.1728 -0.5955 -0.1435
 1315SOL    HW115407   2.342   0.274   2.265 -2.7380 -1.8712  0.7352
 1315SOL    HW215408   2.454   0.271   2.379 -0.1809 -2.0339  0.0465
 1316SOL     OW15409   4.479   4.236   7.650 -0.3477 -0.5197  0.6321
 1316SOL    HW115410   4.482   4.226   7.745 -1.2628  0.3547  0.7510
 1316SOL    HW215411   4.385   4.252   7.641 -0.2583 -0.2721  0.1093
 1317SOL     OW15412   4.608   2.510   4.473  0.2309  0.9064  0.2699
 1317SOL    HW115413   4.631   2.449   4.544 -1.1580  0.1754  0.1154
 1317SOL    HW215414   4.654   2.470   4.400  2.1723 -0.1672  2.0679
 1318SOL     OW15415   1.056   0.607   6.463 -0.0342 -0.4307  0.1896
 1318SOL    HW115416   1.022   0.649   6.542  1.4750  2.3232 -0.6005
 1318SOL    HW215417   1.130   0.665   6.444 -0.2495  0.6893  2.7858
 1319SOL     OW15418   1.663   2.579   5.997 -0.0141 -0.0427  0.6569
 1319SOL    HW115419   1.696   2.656   6.043 -0.7388  1.6033 -1.5689
 1319SOL    HW215420   1.738   2.520   6.011 -1.2122 -2.1135 -1.5281
 1320SOL     OW15421   3.387   0.749   4.719 -0.2705  1.0180 -0.1253
 1320SOL    HW115422   3.445   0.673   4.727 -1.3837  0.1802  0.0920
 1320SOL    HW215423   3.431   0.794   4.791  1.0443  0.9988 -0.9208
 1321SOL     OW15424   2.761   3.071  11.391 -0.4705  0.0295 -0.0136
 1321SOL    HW115425   2.737   2.979  11.401  2.0714 -0.6798 -0.5252
 1321SOL    HW215426   2.815   3.083  11.313 -0.1870 -0.0636  0.1701
 1322SOL     OW15427   4.245   2.831   4.138 -0.4181  0.0573 -0.3277
 1322SOL    HW115428   4.189   2.767   4.180 -0.2913  0.9596  1.2163
 1322SOL    HW215429   4.324   2.822   4.191 -0.9168  0.2859  0.4407
 1323SOL     OW15430   3.225   1.219   5.585 -0.1993 -0.8329  0.0251
 1323SOL    HW115431   3.262   1.137   5.620  0.5408 -1.1833 -1.5699
 1323SOL    HW215432   3.175   1.182   5.512  0.1699 -0.2905 -0.4982
 1324SOL     OW15433   3.147   1.809  11.368  0.4657 -0.1516  0.0834
 1324SOL    HW115434   3.097   1.878  11.412  0.4832 -1.8639  2.8158
 1324SOL    HW215435   3.118   1.829  11.279  1.1343 -1.6450 -0.4647
 1325SOL     OW15436   0.891   4.132   3.751  0.3920  0.2491 -0.2962
 1325SOL    HW115437   0.925   4.123   3.840  0.8259 -0.6620 -0.5486
 1325SOL    HW215438   0.971   4.164   3.709  0.1687 -0.1167 -0.9998
 1326SOL     OW15439   2.676   2.435   6.344  0.6941  0.1739 -0.1858
 1326SOL    HW115440   2.672   2.355   6.292 -0.1867 -0.5348  0.9784
 1326SOL    HW215441   2.754   2.417   6.395 -0.2527  0.4142  1.3512
 1327SOL     OW15442   1.373   3.691   3.326  0.0964 -0.5715 -0.5358
 1327SOL    HW115443   1.365   3.764   3.387  0.2208  0.7449 -2.0921
 1327SOL    HW215444   1.400   3.737   3.246 -1.0153 -0.1157 -0.6498
 1328SOL     OW15445   4.663   3.186   6.632 -0.6601 -0.6392  0.0597
 1328SOL    HW115446   4.661   3.279   6.652 -2.1016 -0.2044 -2.1826
 1328SOL    HW215447   4.637   3.138   6.710  0.9509  0.7471  1.4456
 1329SOL     OW15448   3.656   1.612   0.132  0.3705  0.2290  0.0121
 1329SOL    HW115449   3.584   1.674   0.140 -0.3218 -0.5720  0.0529
 1329SOL    HW215450   3.605   1.530   0.137 -4.0036  2.9003 -1.2113
 1330SOL     OW15451   3.984   3.868   8.334 -0.2086 -0.1950  0.1873
 1330SOL    HW115452   4.007   3.938   8.273 -1.5806  0.0325 -0.0679
 1330SOL    HW215453   3.990   3.789   8.280 -1.5333 -0.9818  1.1894
 1331SOL     OW15454   2.664   0.681   7.817 -0.1105 -0.1221 -0.1670
 1331SOL    HW115455   2.621   0.611   7.865  0.7510 -1.2403 -1.0456
 1331SOL    HW215456   2.619   0.751   7.864 -0.3440  0.6403 -1.5131
 1332SOL     OW15457   3.543   3.151   5.454 -0.1278  0.0119 -0.0685
 1332SOL    HW115458   3.499   3.090   5.395  0.1142 -0.1282 -0.1025
 1332SOL    HW215459   3.635   3.123   5.452  0.6152  2.2917  1.6445
 1333SOL     OW15460   4.038   1.735  15.964 -0.2324 -0.3334  0.3872
 1333SOL    HW115461   4.100   1.777  16.023  3.0537 -2.2335 -1.7416
 1333SOL    HW215462   4.087   1.658  15.936  0.1819 -0.3783  1.2275
 1334SOL     OW15463   1.933   4.005   6.026 -0.0034 -0.0897 -0.4354
 1334SOL    HW115464   1.953   4.091   6.062  0.7887 -0.1063 -0.8372
 1334SOL    HW215465   1.892   4.023   5.942 -3.2647  0.3864  1.2655
 1335SOL     OW15466   4.209   2.166   3.713 -0.5246 -0.5097 -0.2615
 1335SOL    HW115467   4.236   2.075   3.698  1.9966  0.1525  0.2521
 1335SOL    HW215468   4.207   2.191   3.621  1.8653 -1.8968 -0.6922
 1336SOL     OW15469   2.340   4.124   5.629 -0.0989 -1.0122  0.4281
 1336SOL    HW115470   2.429   4.102   5.602 -0.1727  1.7328 -1.9555
 1336SOL    HW215471   2.293   4.042   5.613 -0.1585 -1.2113  1.5650
 1337SOL     OW15472   1.523   1.504   7.067  0.1122  0.1710  0.0678
 1337SOL    HW115473   1.523   1.600   7.063 -1.1222  0.1355 -0.5676
 1337SOL    HW215474   1.538   1.475   6.977 -3.8054  0.3164 -0.6098
 1338SOL     OW15475   0.655   3.036   8.327 -0.0875  0.1511 -0.2671
 1338SOL    HW115476   0.730   3.096   8.323  1.0536 -1.1090  2.1585
 1338SOL    HW215477   0.591   3.081   8.273  0.3571 -0.8059 -1.5890
 1339SOL     OW15478   4.112   1.486   2.823 -0.4635 -0.1442  0.2760
 1339SOL    HW115479   4.126   1.424   2.752  3.5794 -0.0635  0.9807
 1339SOL    HW215480   4.016   1.485   2.824 -0.4719  0.6010  1.8040
 1340SOL     OW15481   3.870   2.697   2.987  0.1963 -0.3094 -0.4964
 1340SOL    HW115482   3.901   2.675   2.899  0.7458  0.9030 -0.6061
 1340SOL    HW215483   3.829   2.779   2.959  2.6773  0.6219 -1.3954
 1341SOL     OW15484   2.726   2.541  13.138  0.2112  0.5993  0.1827
 1341SOL    HW115485   2.694   2.551  13.227 -1.7808 -3.4337 -0.1169
 1341SOL    HW215486   2.817   2.516  13.152 -0.4887 -3.0344 -1.7732
 1342SOL     OW15487   0.117   2.613  10.237  0.1786  0.4981  0.1707
 1342SOL    HW115488   0.073   2.658  10.308 -1.3465 -0.7518  0.0227
 1342SOL    HW215489   0.176   2.553  10.282  1.0610  0.6945 -0.7114
 1343SOL     OW15490   3.962   1.007   8.041  0.2644 -0.2135  0.1846
 1343SOL    HW115491   3.948   0.936   7.979 -2.0923 -1.0812  1.7325
 1343SOL    HW215492   4.048   0.984   8.077  0.9602  0.4022 -1.0859
 1344SOL     OW15493   1.231   3.222   1.424  0.2574 -0.5098 -0.1704
 1344SOL    HW115494   1.222   3.160   1.352 -2.6591 -0.7996  0.4205
 1344SOL    HW215495   1.323   3.215   1.449  1.2381  0.0034 -3.6597
 1345SOL     OW15496   1.527   2.208   6.182 -0.2505 -0.5691 -0.0210
 1345SOL    HW115497   1.514   2.178   6.272  0.0047 -2.5512 -0.6538
 1345SOL    HW215498   1.527   2.304   6.184  2.9901 -0.5447 -0.9264
 1346SOL     OW15499   0.481   0.416  13.128 -0.0736 -0.2439 -0.1522
 1346SOL    HW115500   0.512   0.330  13.098 -0.5450 -1.2182  2.1517
 1346SOL    HW215501   0.514   0.484  13.069 -1.7424  2.9213  2.5617
 1347SOL     OW15502   4.411   1.071   7.280 -0.1935  0.2079 -0.3153
 1347SOL    HW115503   4.398   1.113   7.196 -1.3752  0.8978  0.2162
 1347SOL    HW215504   4.323   1.048   7.310  0.1921  1.0108  1.4234
 1348SOL     OW15505   2.193   0.184   2.852 -0.0991  0.3378 -0.2860
 1348SOL    HW115506   2.183   0.152   2.762 -0.6559  2.6205 -1.0440
 1348SOL    HW215507   2.139   0.119   2.896 -0.6196  0.3835 -0.8411
 1349SOL     OW15508   1.430   2.508   0.642  0.3118  0.0631  0.1283
 1349SOL    HW115509   1.344   2.470   0.662 -0.2428  1.3928  0.2791
 1349SOL    HW215510   1.465   2.437   0.587  0.0899  0.3143 -0.3330
 1350SOL     OW15511   3.331   0.613   1.960 -0.2052  0.1854  0.1320
 1350SOL    HW115512   3.371   0.684   2.010  0.2050 -0.9990  1.4782
 1350SOL    HW215513   3.258   0.651   1.911 -0.0513  0.8466  0.4176
 1351SOL     OW15514   3.346   2.288   3.429 -0.4583  0.2263 -0.4888
 1351SOL    HW115515   3.317   2.342   3.503  1.3325 -0.0747  0.4420
 1351SOL    HW215516   3.436   2.280   3.461 -1.3249  0.4533  2.0613
 1352SOL     OW15517   3.339   0.934   6.096  0.3713  0.1122  0.4216
 1352SOL    HW115518   3.349   0.989   6.018 -2.5642 -0.9746 -0.6983
 1352SOL    HW215519   3.317   1.002   6.159 -0.0121  0.4403 -0.0696
 1353SOL     OW15520   2.618   4.574  10.869  0.5722 -0.8214  0.6968
 1353SOL    HW115521   2.568   4.597  10.947 -2.1676 -0.9602 -1.0212
 1353SOL    HW215522   2.655   4.488  10.885 -0.2844 -1.9509 -3.3745
 1354SOL     OW15523   0.277   2.872   1.727  0.2596  0.5230  0.5829
 1354SOL    HW115524   0.215   2.891   1.657  0.8992  0.2846 -0.0424
 1354SOL    HW215525   0.341   2.942   1.718  0.4113 -0.0351 -2.5196
 1355SOL     OW15526   3.257   0.968  14.718  0.0238 -0.6851  0.9072
 1355SOL    HW115527   3.339   0.924  14.740  0.4006  0.2497  1.3695
 1355SOL    HW215528   3.287   1.010  14.637 -1.7294  0.3273  0.7881
 1356SOL     OW15529   1.203   1.526  10.792 -0.2037  0.8019 -0.1204
 1356SOL    HW115530   1.203   1.619  10.769  2.0156  1.1384  1.1766
 1356SOL    HW215531   1.294   1.502  10.772  0.0041  1.6335 -0.1741
 1357SOL     OW15532   0.104   2.853   2.406  0.1860  0.2270  0.6486
 1357SOL    HW115533   0.144   2.822   2.487  2.1569  1.6706  0.2396
 1357SOL    HW215534   0.024   2.801   2.415  0.2313  0.0604  0.0443
 1358SOL     OW15535   1.309   1.309   5.287 -0.1293  0.2658 -0.1118
 1358SOL    HW115536   1.274   1.226   5.254 -1.3474  0.0294  1.7745
 1358SOL    HW215537   1.404   1.297   5.277 -0.6727 -3.0584 -1.2282
 1359SOL     OW15538   1.291   0.928  17.562 -0.5130 -0.1901 -0.2393
 1359SOL    HW115539   1.346   0.920  17.640 -1.6363  0.8196  0.6673
 1359SOL    HW215540   1.275   0.837  17.538 -1.5500  0.0615 -0.5027
 1360SOL     OW15541   2.228   1.236   6.077  0.2083  0.1241  0.4248
 1360SOL    HW115542   2.251   1.181   6.003  0.2127 -0.5423  0.9213
 1360SOL    HW215543   2.296   1.216   6.142  0.0663 -0.9955  0.2237
 1361SOL     OW15544   2.415   4.610   3.967  0.5122 -0.2573 -0.3837
 1361SOL    HW115545   2.322   4.585   3.974  0.1221  1.6026  1.1164
 1361SOL    HW215546   2.422   4.664   4.046 -1.9397 -2.9428  1.6936
 1362SOL     OW15547   0.585   4.681  14.244  0.2400 -0.4523  0.2350
 1362SOL    HW115548   0.607   0.047  14.220  1.1398 -0.9279 -0.7117
 1362SOL    HW215549   0.519   4.671  14.175  1.3570  3.7608 -1.4120
 1363SOL     OW15550   2.810   4.240  12.722 -0.1332 -0.0487 -0.0423
 1363SOL    HW115551   2.723   4.270  12.695  0.0984  0.2825 -0.4106
 1363SOL    HW215552   2.863   4.273  12.650 -2.0442 -0.8489 -1.8031
 1364SOL     OW15553   4.165   2.897   2.688 -0.3608  0.0753  0.1144
 1364SOL    HW115554   4.218   2.976   2.697 -1.6513  0.8925  0.4916
 1364SOL    HW215555   4.208   2.852   2.615 -0.7786 -0.4796  0.2050
 1365SOL     OW15556   2.366   1.045   2.595 -0.1066  0.3412 -0.0262
 1365SOL    HW115557   2.434   0.979   2.606  0.6260  0.8723 -1.3443
 1365SOL    HW215558   2.415   1.102   2.536  0.8842 -0.2559  0.2171
 1366SOL     OW15559   2.625   0.292   2.411 -0.0146  0.1248 -0.1446
 1366SOL    HW115560   2.608   0.293   2.505  0.9784 -0.6993  0.0347
 1366SOL    HW215561   2.712   0.253   2.415 -0.6954 -1.4732 -1.0482
 1367SOL     OW15562   0.953   2.576  14.865 -0.1775 -0.1318 -0.1511
 1367SOL    HW115563   1.032   2.611  14.906 -1.1048  0.3118  1.2686
 1367SOL    HW215564   0.979   2.571  14.773 -1.4465  0.5236 -0.5512
 1368SOL     OW15565   2.695   1.608  14.005  0.0718 -0.2191  0.2801
 1368SOL    HW115566   2.656   1.615  13.919 -1.2017  1.1617  0.9838
 1368SOL    HW215567   2.686   1.519  14.039 -0.0575 -0.1234  0.4945
 1369SOL     OW15568   3.625   1.998   2.166  0.0160 -0.2125  0.1819
 1369SOL    HW115569   3.672   1.945   2.229  0.0001 -1.3109 -0.7310
 1369SOL    HW215570   3.666   1.953   2.092  0.6898  0.6440  0.0380
 1370SOL     OW15571   1.084   0.032   8.435 -0.4861 -0.1750  0.3152
 1370SOL    HW115572   1.141   0.037   8.358  1.4110  1.3767  1.8216
 1370SOL    HW215573   1.076   0.124   8.460  1.4444  0.6772 -2.2254
 1371SOL     OW15574   2.743   3.585  14.449 -0.4423  0.6005  0.2060
 1371SOL    HW115575   2.671   3.588  14.386  0.0331 -1.1504 -0.4245
 1371SOL    HW215576   2.814   3.616  14.392  0.9121 -1.4161  0.7935
 1372SOL     OW15577   2.181   4.271   5.839  0.2632  0.2884  0.0590
 1372SOL    HW115578   2.246   4.209   5.806  0.2074 -0.8739  2.1039
 1372SOL    HW215579   2.177   4.251   5.933  2.1358  1.0171  0.2804
 1373SOL     OW15580   1.745   0.550   7.199 -0.5904 -0.2749  0.7485
 1373SOL    HW115581   1.728   0.645   7.197 -0.6655 -0.2529  2.1769
 1373SOL    HW215582   1.659   0.518   7.173 -1.2891  1.6277  0.6706
 1374SOL     OW15583   4.580   0.682   4.862  0.2833 -0.4892  0.0711
 1374SOL    HW115584   4.662   0.643   4.893  1.0050  0.0575 -1.1493
 1374SOL    HW215585   4.546   0.610   4.809 -1.2214  1.1276 -1.1086
 1375SOL     OW15586   4.105   1.869   3.684 -0.1420  0.3416  0.2043
 1375SOL    HW115587   4.041   1.916   3.631 -0.6796  0.0776  0.6251
 1375SOL    HW215588   4.159   1.829   3.615 -0.6180 -1.1112  0.6678
 1376SOL     OW15589   0.631   2.883   1.947 -0.3973 -0.2092  0.4767
 1376SOL    HW115590   0.639   2.915   2.036  0.3268  0.9649 -0.0181
 1376SOL    HW215591   0.578   2.808   1.973 -0.1540 -0.6135 -0.1855
 1377SOL     OW15592   4.406   1.574   0.443 -0.1157 -0.7922 -0.0498
 1377SOL    HW115593   4.484   1.619   0.409 -0.9687 -0.7561 -1.9673
 1377SOL    HW215594   4.409   1.484   0.411  0.1417 -0.6747 -0.3690
 1378SOL     OW15595   2.230   4.489   5.544  0.0047 -0.1609  0.1506
 1378SOL    HW115596   2.211   4.448   5.459 -1.0668 -0.7741  0.6736
 1378SOL    HW215597   2.312   4.445   5.567  0.8274  0.4965 -1.6025
 1379SOL     OW15598   3.607   2.973  13.805 -0.0478  0.1579 -0.2073
 1379SOL    HW115599   3.629   2.921  13.883  0.5677 -0.4465 -0.7834
 1379SOL    HW215600   3.695   2.995  13.775 -0.0784 -2.5291 -2.3233
 1380SOL     OW15601   4.699   3.093   5.762 -0.6773 -0.4484 -0.3200
 1380SOL    HW115602   0.054   3.129   5.720  0.0319 -0.9954  0.5446
 1380SOL    HW215603   4.643   3.088   5.685 -1.0549 -2.4899  0.0921
 1381SOL     OW15604   3.452   1.226  15.189 -0.0096  0.5213  0.1399
 1381SOL    HW115605   3.363   1.230  15.155 -0.7452  0.7921  2.0886
 1381SOL    HW215606   3.485   1.149  15.143 -2.8582  0.6420 -2.0381
 1382SOL     OW15607   3.883   0.254   8.859 -0.0975 -0.0829 -0.5080
 1382SOL    HW115608   3.927   0.270   8.942 -2.5972  0.3002  0.7608
 1382SOL    HW215609   3.872   0.346   8.834  0.2418  0.4727  1.4158
 1383SOL     OW15610   2.222   3.333   3.905 -0.0547  0.2321  0.2356
 1383SOL    HW115611   2.174   3.385   3.969 -0.3380  1.3728 -0.8910
 1383SOL    HW215612   2.189   3.244   3.918  2.7638 -0.5967  1.5032
 1384SOL     OW15613   3.004   0.009   7.884  0.9249  0.4599  0.1097
 1384SOL    HW115614   2.919   4.693   7.865 -0.9369  3.3457  2.3148
 1384SOL    HW215615   3.028   4.707   7.973 -0.6258 -1.3142  0.0285
 1385SOL     OW15616   4.590   1.336   7.096  0.2997 -0.3783 -0.2808
 1385SOL    HW115617   4.508   1.371   7.130  0.7216 -0.3766  0.7111
 1385SOL    HW215618   4.563   1.259   7.045  0.7876  0.1042 -1.2840
 1386SOL     OW15619   3.584   0.158   0.836 -0.0513  0.7151 -0.7663
 1386SOL    HW115620   3.609   0.098   0.766 -2.0082  0.9663 -1.6814
 1386SOL    HW215621   3.567   0.231   0.777  1.9729  1.8690  0.0785
 1387SOL     OW15622   0.347   1.755   8.863  0.1457 -0.6592 -0.1935
 1387SOL    HW115623   0.274   1.697   8.884 -0.7558 -0.2722 -2.2689
 1387SOL    HW215624   0.352   1.814   8.938  0.6900 -1.6483  0.5362
 1388SOL     OW15625   3.334   4.082   1.438  0.0955 -0.8339 -0.4772
 1388SOL    HW115626   3.400   4.078   1.506 -0.0869  1.9038 -0.1493
 1388SOL    HW215627   3.379   4.129   1.368  1.9285  1.8153  2.5255
 1389SOL     OW15628   1.697   2.741   1.678  1.3598  0.2734  0.0748
 1389SOL    HW115629   1.629   2.705   1.621  0.2920  3.3589 -0.5950
 1389SOL    HW215630   1.772   2.686   1.654  0.5572 -0.7557 -0.0766
 1390SOL     OW15631   1.865   1.036  15.311 -0.1549 -0.5229  0.0320
 1390SOL    HW115632   1.925   0.994  15.372 -2.0882 -0.3691  2.0378
 1390SOL    HW215633   1.904   1.022  15.225  2.0990  0.6093  0.8817
 1391SOL     OW15634   2.263   0.263   5.750  0.8383  0.2374  0.3055
 1391SOL    HW115635   2.239   0.298   5.664 -1.7709  0.5111  1.1431
 1391SOL    HW215636   2.227   0.174   5.744 -2.4326  1.6198 -0.4712
 1392SOL     OW15637   1.798   1.456   4.776  0.1911 -0.6342 -0.4070
 1392SOL    HW115638   1.794   1.403   4.696 -1.0296  0.0043 -0.7555
 1392SOL    HW215639   1.826   1.542   4.745 -2.0815  0.3060  0.2172
 1393SOL     OW15640   3.512   3.752   2.337  0.4603 -0.3298 -0.7146
 1393SOL    HW115641   3.560   3.809   2.397  1.4725 -1.9930  0.0400
 1393SOL    HW215642   3.582   3.754   2.272  0.4168  1.4859 -0.7111
 1394SOL     OW15643   3.621   0.608   8.708 -0.3816 -0.2530  0.0532
 1394SOL    HW115644   3.681   0.550   8.755  1.5277  1.1498 -0.6397
 1394SOL    HW215645   3.679   0.673   8.667 -0.5150 -1.9906 -2.8211
 1395SOL     OW15646   4.601   0.218   6.205 -0.1838 -0.3864  0.3878
 1395SOL    HW115647   4.641   0.231   6.291  0.0276  1.5511 -0.0037
 1395SOL    HW215648   4.668   0.241   6.140  0.0630 -1.3925  0.2840
 1396SOL     OW15649   1.534   2.422   2.649  0.3397 -0.1409  0.0607
 1396SOL    HW115650   1.560   2.478   2.576  0.1645 -0.9928 -0.6547
 1396SOL    HW215651   1.575   2.338   2.628 -0.2794 -0.7025  1.0854
 1397SOL     OW15652   3.384   0.986   5.634 -0.4784  0.0861 -0.9147
 1397SOL    HW115653   3.476   0.977   5.660 -0.8336 -0.8176  0.0402
 1397SOL    HW215654   3.337   0.953   5.711 -1.7079  2.6800 -0.5844
 1398SOL     OW15655   3.529   0.384   0.673 -0.3518 -0.2991  0.5229
 1398SOL    HW115656   3.481   0.326   0.613 -0.5822 -2.6301  2.9568
 1398SOL    HW215657   3.575   0.432   0.605 -0.5909  0.0777  0.6279
 1399SOL     OW15658   1.520   3.282   5.448 -0.1920  0.5301  0.1974
 1399SOL    HW115659   1.515   3.192   5.477  0.1943  0.7292  0.8785
 1399SOL    HW215660   1.599   3.313   5.493  0.1318  0.9752 -0.6643
 1400SOL     OW15661   2.029   4.080   5.373  0.0734  0.8049 -0.0477
 1400SOL    HW115662   1.975   4.146   5.329 -0.9471  0.0078 -0.0027
 1400SOL    HW215663   1.956   4.026   5.404  1.5445 -0.8199  0.5475
 1401SOL     OW15664   3.737   3.376   0.884  0.6361  0.0235  0.6577
 1401SOL    HW115665   3.682   3.299   0.895 -1.9481  1.8590  0.6373
 1401SOL    HW215666   3.757   3.379   0.791 -0.1856  0.0276  0.4789
 1402SOL     OW15667   4.469   1.109   6.504  0.6015 -0.2866  0.4961
 1402SOL    HW115668   4.445   1.016   6.500  1.1463 -0.3464 -1.6057
 1402SOL    HW215669   4.478   1.132   6.411 -2.5911  1.2315  0.5621
 1403SOL     OW15670   3.667   1.850   4.452  0.0073 -0.0174 -0.1305
 1403SOL    HW115671   3.575   1.846   4.428  0.1365  0.6811 -0.7263
 1403SOL    HW215672   3.707   1.897   4.379 -0.2410 -1.2282 -1.0475
 1404SOL     OW15673   2.519   2.638   8.574 -0.3405 -0.6624  0.5499
 1404SOL    HW115674   2.579   2.684   8.632  2.0850 -1.9932 -0.8953
 1404SOL    HW215675   2.576   2.569   8.539  1.0425  0.3788  0.7846
 1405SOL     OW15676   3.784   2.766   6.645 -0.5867  0.5136 -0.0973
 1405SOL    HW115677   3.864   2.816   6.629  1.0571 -2.2805 -0.5697
 1405SOL    HW215678   3.718   2.820   6.601 -2.5748 -2.0921 -0.3031
 1406SOL     OW15679   0.094   3.980   0.941 -0.0522  0.3554 -0.3074
 1406SOL    HW115680   0.034   4.046   0.976 -0.6256 -0.7114  0.7444
 1406SOL    HW215681   0.179   4.022   0.952 -2.0977  4.3078  0.2631
 1407SOL     OW15682   3.322   2.499   2.114  0.2845  0.3246 -0.2970
 1407SOL    HW115683   3.249   2.444   2.086 -0.8726  0.8438  1.6819
 1407SOL    HW215684   3.395   2.460   2.067 -0.6516 -0.4055 -1.1502
 1408SOL     OW15685   2.435   4.293   4.592  0.1439 -0.2875 -0.0413
 1408SOL    HW115686   2.498   4.337   4.649 -0.8215 -0.1991  0.9670
 1408SOL    HW215687   2.493   4.296   4.516  1.0210  0.5261  0.6674
 1409SOL     OW15688   3.784   2.535   7.501  0.3829  0.1111  1.1558
 1409SOL    HW115689   3.867   2.580   7.485 -0.1617  0.4604 -0.7546
 1409SOL    HW215690   3.809   2.476   7.572 -1.4805 -1.1949  0.7107
 1410SOL     OW15691   0.234   4.072   0.424 -0.4718  0.9465 -0.3194
 1410SOL    HW115692   0.246   4.086   0.518  2.4958 -1.4621 -0.3614
 1410SOL    HW215693   0.205   4.160   0.398 -0.5472  0.6157 -1.3228
 1411SOL     OW15694   1.643   1.894  10.542  0.6747  0.2593 -0.2960
 1411SOL    HW115695   1.702   1.831  10.585 -0.4860 -0.5529  0.1150
 1411SOL    HW215696   1.579   1.834  10.504  1.6470  0.8883 -2.9394
 1412SOL     OW15697   0.841   0.674   4.433 -0.0693  0.1053 -0.8384
 1412SOL    HW115698   0.771   0.739   4.443 -1.0605 -0.7420 -2.2400
 1412SOL    HW215699   0.882   0.713   4.356  0.3123  1.0725 -0.1398
 1413SOL     OW15700   3.456   2.028   5.693 -0.4184  0.1553  0.6201
 1413SOL    HW115701   3.528   1.965   5.691 -0.3868  0.1754  1.0126
 1413SOL    HW215702   3.498   2.086   5.757  0.1407 -0.7226  1.0460
 1414SOL     OW15703   3.624   3.141   4.040 -0.4263  0.4224  0.5886
 1414SOL    HW115704   3.614   3.051   4.070  0.1936 -0.1686 -0.9570
 1414SOL    HW215705   3.706   3.171   4.079  0.0603  2.5354 -2.0426
 1415SOL     OW15706   2.894   2.072   9.074  0.1897 -0.0743  0.0320
 1415SOL    HW115707   2.867   2.098   8.986  2.7095  0.5564 -0.5543
 1415SOL    HW215708   2.966   2.013   9.052  0.4788  0.0212  0.7413
 1416SOL     OW15709   2.614   1.844   2.292 -0.6456 -0.4158  0.6843
 1416SOL    HW115710   2.546   1.816   2.231 -0.2453 -2.4238  1.1515
 1416SOL    HW215711   2.614   1.762   2.342 -1.6020 -0.9198 -0.1586
 1417SOL     OW15712   4.513   2.390  17.583 -0.1425 -0.1524 -0.0811
 1417SOL    HW115713   4.461   2.458  17.539  0.3369  0.5313  0.3952
 1417SOL    HW215714   4.520   2.429  17.671  0.0334 -0.9721  0.2647
 1418SOL     OW15715   1.432   1.269   3.239 -0.8436  0.2699 -0.1678
 1418SOL    HW115716   1.502   1.235   3.182 -1.3766 -0.2677 -0.5019
 1418SOL    HW215717   1.476   1.344   3.279 -0.2051 -0.2224  0.0610
 1419SOL     OW15718   2.748   1.911   6.180  1.0965  0.2399 -0.3599
 1419SOL    HW115719   2.706   1.902   6.095  3.3085 -0.4048 -1.3798
 1419SOL    HW215720   2.838   1.931   6.154  1.6057 -0.5570  0.7692
 1420SOL     OW15721   2.893   0.080   9.544  0.3508  0.2356  0.8101
 1420SOL    HW115722   2.928   0.032   9.469  0.0835  0.8604  0.2770
 1420SOL    HW215723   2.840   0.150   9.506 -0.0080 -1.1664 -1.2858
 1421SOL     OW15724   4.551   1.285   7.381  0.0318 -0.7572  0.3356
 1421SOL    HW115725   4.506   1.344   7.320  0.8608 -1.1585 -0.6679
 1421SOL    HW215726   4.523   1.198   7.354 -1.1757 -0.2658 -0.0204
 1422SOL     OW15727   1.966   1.644  17.264  0.4222  0.1877  0.3476
 1422SOL    HW115728   1.984   1.550  17.257  2.6765  0.6266  0.0163
 1422SOL    HW215729   1.915   1.662  17.185  2.3605 -0.3455 -1.0549
 1423SOL     OW15730   1.955   2.231   0.494  0.2357  0.2827 -0.2811
 1423SOL    HW115731   1.918   2.295   0.433  1.5274  2.9299  1.7087
 1423SOL    HW215732   2.005   2.281   0.558 -0.3516 -1.9524  1.9260
 1424SOL     OW15733   1.496   3.394   4.033  0.4139  0.5706 -0.1736
 1424SOL    HW115734   1.544   3.311   4.033 -2.9598 -1.3923 -1.3496
 1424SOL    HW215735   1.478   3.420   4.124 -1.7126  0.4391 -0.5523
 1425SOL     OW15736   1.155   0.228   4.669 -0.3717  0.3485  0.4980
 1425SOL    HW115737   1.155   0.162   4.599  2.0302  0.9837 -0.1200
 1425SOL    HW215738   1.249   0.239   4.687  0.0374 -2.5133  0.2359
 1426SOL     OW15739   0.600   3.906   5.571 -0.0097 -0.2049  0.2117
 1426SOL    HW115740   0.550   3.970   5.623 -1.3023 -0.8991 -0.1692
 1426SOL    HW215741   0.688   3.943   5.563 -1.0352  1.3691 -4.1938
 1427SOL     OW15742   2.918   0.927  11.272  0.6082  0.2813 -0.3917
 1427SOL    HW115743   2.839   0.921  11.218 -0.9488  0.2152  1.8924
 1427SOL    HW215744   2.961   1.008  11.242  0.3145  0.2372 -0.9479
 1428SOL     OW15745   4.551   0.698   8.052  0.3255  0.2352  0.4438
 1428SOL    HW115746   4.480   0.673   8.111  0.1340 -2.6903 -1.0023
 1428SOL    HW215747   4.522   0.782   8.018  0.7148 -0.1689 -0.9088
 1429SOL     OW15748   3.105   0.765   9.614  0.8668  0.1196  0.2722
 1429SOL    HW115749   3.127   0.832   9.679  1.5434  0.8438 -0.7272
 1429SOL    HW215750   3.069   0.691   9.664  0.9739 -0.0845  0.0475
 1430SOL     OW15751   3.369   2.136  10.883 -0.4868  0.0589 -0.0398
 1430SOL    HW115752   3.420   2.209  10.919  0.2160 -0.7978  0.6689
 1430SOL    HW215753   3.374   2.077  10.958  1.5312  1.8149  1.2412
 1431SOL     OW15754   0.610   2.329   7.551  0.0784 -0.5022 -0.0855
 1431SOL    HW115755   0.692   2.376   7.569  0.1905 -0.9940  0.7416
 1431SOL    HW215756   0.606   2.274   7.630  0.9479 -1.8364 -0.9751
 1432SOL     OW15757   3.698   3.793   3.271 -0.5923  0.2364 -0.4391
 1432SOL    HW115758   3.703   3.708   3.227 -1.2499 -1.4646  2.7249
 1432SOL    HW215759   3.653   3.847   3.207 -0.0250 -1.0225 -1.8983
 1433SOL     OW15760   1.088   2.754  10.993  0.4367  0.1428  0.0594
 1433SOL    HW115761   1.119   2.789  10.909  0.7174 -2.2378 -0.8396
 1433SOL    HW215762   1.160   2.787  11.046  0.6951  1.7754 -1.2801
 1434SOL     OW15763   0.768   0.183   9.626 -0.0344 -0.3744  0.2534
 1434SOL    HW115764   0.767   0.160   9.533 -0.8319  0.7511 -0.0011
 1434SOL    HW215765   0.791   0.094   9.653  1.0976 -0.2452 -0.2468
 1435SOL     OW15766   4.564   1.389  16.371 -0.3118 -0.1093 -0.2728
 1435SOL    HW115767   4.515   1.389  16.454  0.8998 -1.9746  0.4475
 1435SOL    HW215768   4.614   1.471  16.370 -1.1447  0.3811 -1.9572
 1436SOL     OW15769   3.201   1.792  13.985  0.2187  0.1814  0.7541
 1436SOL    HW115770   3.199   1.875  13.937 -0.9709  0.3957  1.1715
 1436SOL    HW215771   3.171   1.738  13.912 -1.1468  0.9622  0.7404
 1437SOL     OW15772   0.464   0.974   0.251 -0.0740 -0.3932 -0.4782
 1437SOL    HW115773   0.481   1.058   0.208  1.2860 -0.0670  0.7024
 1437SOL    HW215774   0.533   0.977   0.318  1.2779 -0.3540 -1.8591
 1438SOL     OW15775   3.463   2.513  12.870  0.7651 -0.5214 -0.3981
 1438SOL    HW115776   3.480   2.508  12.776 -1.0555  0.8438 -0.8031
 1438SOL    HW215777   3.514   2.586  12.904  0.4537  0.7336 -2.5823
 1439SOL     OW15778   2.121   2.860   3.432  0.4213  0.3049  0.2075
 1439SOL    HW115779   2.208   2.890   3.407 -0.1709 -0.1077 -2.3562
 1439SOL    HW215780   2.074   2.942   3.440 -0.8376 -0.4932  0.9523
 1440SOL     OW15781   4.411   2.261   2.301 -0.1020 -0.3574 -0.3759
 1440SOL    HW115782   4.349   2.272   2.373  1.2257  0.9876  0.5525
 1440SOL    HW215783   4.400   2.165   2.303 -0.2430 -0.2685  3.1888
 1441SOL     OW15784   2.181   0.849   4.782  0.1797  0.1206  0.0933
 1441SOL    HW115785   2.119   0.829   4.852  0.1202 -2.7189 -0.7498
 1441SOL    HW215786   2.134   0.919   4.735  1.9435  0.6529 -0.8625
 1442SOL     OW15787   0.441   2.078   3.812 -0.0949 -0.1131  0.0133
 1442SOL    HW115788   0.434   2.146   3.879 -2.3976 -0.7277  0.3855
 1442SOL    HW215789   0.524   2.032   3.829  0.8111  1.3543 -0.4490
 1443SOL     OW15790   1.273   2.445   2.665  0.4456  0.0773 -0.0514
 1443SOL    HW115791   1.260   2.354   2.639  1.0357  0.6806 -2.4459
 1443SOL    HW215792   1.369   2.446   2.671  0.4009 -2.2501  0.8459
 1444SOL     OW15793   3.144   0.351   8.531  0.0581 -0.4331  0.1870
 1444SOL    HW115794   3.176   0.441   8.517  0.1769 -0.3606  0.9418
 1444SOL    HW215795   3.177   0.327   8.617  0.0165  2.1614  0.9462
 1445SOL     OW15796   3.496   4.331   6.044 -0.4870 -0.1934  0.4779
 1445SOL    HW115797   3.494   4.361   5.953 -2.8073  0.6089  0.7916
 1445SOL    HW215798   3.537   4.403   6.093 -0.6722  0.9056 -0.9742
 1446SOL     OW15799   2.592   3.553   5.776  0.4565 -0.0399  0.2620
 1446SOL    HW115800   2.627   3.524   5.691  0.3682  1.7753 -0.3841
 1446SOL    HW215801   2.559   3.468   5.805  1.2212 -1.0742 -1.8834
 1447SOL     OW15802   1.094   1.898   3.203  0.2914 -0.0918 -0.3675
 1447SOL    HW115803   1.090   1.949   3.123  0.6976 -0.7414 -0.8028
 1447SOL    HW215804   1.045   1.821   3.172  0.0466  0.1839 -0.6602
 1448SOL     OW15805   1.893   1.867   4.439  0.2244  0.7190 -0.0594
 1448SOL    HW115806   1.958   1.913   4.386 -1.6540  0.9857 -2.1416
 1448SOL    HW215807   1.849   1.940   4.483 -1.3597 -1.7848  2.5312
 1449SOL     OW15808   0.345   3.896  11.580 -0.3720 -0.0021 -0.2097
 1449SOL    HW115809   0.283   3.856  11.641 -0.1314 -0.7333 -0.4466
 1449SOL    HW215810   0.409   3.825  11.568 -1.1131 -0.1585 -3.1940
 1450SOL     OW15811   3.690   0.372   9.630  0.0965 -0.2406 -0.9895
 1450SOL    HW115812   3.701   0.466   9.613 -0.9157 -0.0188 -0.4351
 1450SOL    HW215813   3.760   0.355   9.693 -2.5056  0.3140  2.0622
 1451SOL     OW15814   4.415   0.547   0.748  0.3048 -0.1169  0.0810
 1451SOL    HW115815   4.472   0.624   0.742 -0.1710  0.1946 -0.3777
 1451SOL    HW215816   4.340   0.591   0.788  0.5158  0.3920 -0.0889
 1452SOL     OW15817   2.428   0.637   7.011 -0.1454  0.1931  0.7500
 1452SOL    HW115818   2.424   0.629   6.916 -0.0155 -3.7529  1.0939
 1452SOL    HW215819   2.510   0.601   7.045  0.6257  1.1332 -0.1444
 1453SOL     OW15820   3.804   2.350   5.789 -0.5174 -0.1297  0.1806
 1453SOL    HW115821   3.732   2.396   5.747 -0.7213  0.0975  0.7855
 1453SOL    HW215822   3.833   2.299   5.713  1.1059  1.0596  0.0122
 1454SOL     OW15823   0.088   3.851   2.572 -0.3214 -0.5663 -0.4391
 1454SOL    HW115824   0.015   3.792   2.589  0.1760 -1.1680 -0.4083
 1454SOL    HW215825   0.094   3.841   2.477  2.7175 -1.1709 -0.1631
 1455SOL     OW15826   3.308   2.346   9.680 -0.3808  0.3067  0.5592
 1455SOL    HW115827   3.298   2.259   9.718  0.8041  0.1081  0.4279
 1455SOL    HW215828   3.404   2.351   9.681 -0.4242  1.1580  0.9856
 1456SOL     OW15829   2.080   4.513  13.474  0.2885  0.4329  0.6219
 1456SOL    HW115830   2.163   4.537  13.516  1.0036 -0.1824 -0.4529
 1456SOL    HW215831   2.097   4.420  13.456 -0.8153  0.2438  0.5229
 1457SOL     OW15832   1.306   1.660   3.679  0.0949 -0.3116  0.2529
 1457SOL    HW115833   1.302   1.696   3.767  3.1677 -0.5572  0.4630
 1457SOL    HW215834   1.335   1.740   3.636  0.9400 -0.1437  1.1523
 1458SOL     OW15835   0.377   2.102   7.518 -0.1842 -0.4581 -0.1867
 1458SOL    HW115836   0.343   2.099   7.607  0.3173 -0.4815  0.0069
 1458SOL    HW215837   0.302   2.057   7.478 -0.3883 -0.6489  0.4108
 1459SOL     OW15838   1.226   3.333  10.611 -0.5904 -0.5679  0.0798
 1459SOL    HW115839   1.311   3.372  10.633  0.4294 -2.6390 -0.2434
 1459SOL    HW215840   1.175   3.413  10.596 -1.0210  0.0049  4.4687
 1460SOL     OW15841   4.552   3.746  10.680  0.2088  0.6290  0.3430
 1460SOL    HW115842   4.515   3.675  10.627  0.4383 -0.1033  1.1527
 1460SOL    HW215843   4.570   3.808  10.610 -0.7981 -1.3040 -1.6288
 1461SOL     OW15844   3.390   4.556   6.364  0.1568  0.3938 -0.1360
 1461SOL    HW115845   3.347   4.574   6.281 -0.7772  2.7213  0.8537
 1461SOL    HW215846   3.383   4.461   6.371  0.5758  0.4179  0.6280
 1462SOL     OW15847   3.349   1.385  16.084  0.8411  0.1254  0.5235
 1462SOL    HW115848   3.345   1.291  16.066  0.0659  0.4421 -1.0164
 1462SOL    HW215849   3.426   1.400  16.030 -0.9144  2.4455 -1.3370
 1463SOL     OW15850   1.817   1.655  10.640  0.5251 -0.4986  0.0771
 1463SOL    HW115851   1.880   1.714  10.682 -1.5927  2.0394 -0.2951
 1463SOL    HW215852   1.876   1.585  10.612  0.6284  0.5560 -2.3175
 1464SOL     OW15853   0.890   1.973   3.598 -0.0235 -0.4061 -0.2217
 1464SOL    HW115854   0.815   1.927   3.560 -0.2476 -0.2006 -0.0333
 1464SOL    HW215855   0.955   1.905   3.616 -1.0436 -1.3075  0.0797
 1465SOL     OW15856   1.830   1.845   9.763 -0.3090  0.4151  0.2061
 1465SOL    HW115857   1.825   1.923   9.817  0.8855  0.5947  0.0493
 1465SOL    HW215858   1.909   1.812   9.804 -0.4608 -2.2750 -1.6411
 1466SOL     OW15859   0.026   0.165   2.422 -0.5201 -0.2438 -0.1338
 1466SOL    HW115860   0.106   0.137   2.468 -0.9399  0.5086  1.0680
 1466SOL    HW215861   4.692   0.123   2.486  0.7526  1.0030  1.8743
 1467SOL     OW15862   0.603   3.177   6.221  0.1758 -0.3747 -0.2746
 1467SOL    HW115863   0.509   3.163   6.228  0.2563 -0.6231  0.2954
 1467SOL    HW215864   0.621   3.159   6.128  3.8320 -1.7875  0.7141
 1468SOL     OW15865   0.902   1.189  10.361  0.1512  0.2557  0.1792
 1468SOL    HW115866   0.817   1.147  10.342  0.3491  0.0360 -0.2182
 1468SOL    HW215867   0.883   1.263  10.419 -1.0918 -0.3323  0.5268
 1469SOL     OW15868   1.993   1.231  10.567  0.0044  0.1666  0.3158
 1469SOL    HW115869   1.998   1.175  10.645 -1.0182  2.0532  1.7327
 1469SOL    HW215870   2.033   1.176  10.499 -1.3584 -2.1793  1.3828
 1470SOL     OW15871   3.975   2.003   8.591  0.2762 -0.3292 -0.3646
 1470SOL    HW115872   3.941   1.941   8.656  0.2118  0.3127  0.2155
 1470SOL    HW215873   3.910   2.016   8.522  0.3482  2.5763  0.1255
 1471SOL     OW15874   1.153   2.188  17.169  0.2060  0.1765  0.6145
 1471SOL    HW115875   1.136   2.121  17.236 -0.7545  2.1260  2.3352
 1471SOL    HW215876   1.201   2.149  17.096  2.5257 -0.3738  2.4315
 1472SOL     OW15877   4.351   1.970   4.629  0.1772  0.2256 -0.0284
 1472SOL    HW115878   4.402   1.889   4.629  0.4773  0.4038  1.3957
 1472SOL    HW215879   4.371   1.995   4.539 -1.7234  0.4349 -0.3809
 1473SOL     OW15880   4.163   0.398   7.133  0.0840 -0.9714 -0.1754
 1473SOL    HW115881   4.194   0.481   7.096  0.8133 -1.4143 -0.5449
 1473SOL    HW215882   4.069   0.404   7.153  0.1093  1.1182 -0.6423
 1474SOL     OW15883   0.292   2.991  14.359 -0.2823 -0.3803 -0.1210
 1474SOL    HW115884   0.360   3.056  14.341 -0.7993  0.1541 -0.1531
 1474SOL    HW215885   0.225   3.050  14.324 -0.0083 -0.8525 -1.4606
 1475SOL     OW15886   2.915   1.559  13.325 -0.5132  0.1281 -0.0047
 1475SOL    HW115887   2.975   1.520  13.389 -0.7142  1.0313  0.7252
 1475SOL    HW215888   2.838   1.503  13.337 -0.4291 -0.0793 -0.4122
 1476SOL     OW15889   3.487   0.042   6.150 -0.2556  0.0141  0.1926
 1476SOL    HW115890   3.546   0.065   6.079 -0.2288 -1.8303 -0.4010
 1476SOL    HW215891   3.530   4.688   6.186  0.9868  0.5843 -0.0599
 1477SOL     OW15892   0.313   1.816   1.840 -0.5161 -0.3591  0.5191
 1477SOL    HW115893   0.225   1.852   1.834  0.8712  2.7382 -1.0166
 1477SOL    HW215894   0.343   1.833   1.750 -1.1467  1.1080  0.5942
 1478SOL     OW15895   4.133   1.276   4.118 -0.0341  0.0563  0.1830
 1478SOL    HW115896   4.173   1.348   4.069  0.8426  0.2888  1.2280
 1478SOL    HW215897   4.087   1.328   4.184  0.5287  0.0748  0.5587
 1479SOL     OW15898   3.548   1.176  17.151  0.7207 -0.2855 -0.1104
 1479SOL    HW115899   3.564   1.124  17.072 -1.6238  0.4812 -1.0915
 1479SOL    HW215900   3.584   1.120  17.220  1.5183 -2.2567 -2.1306
 1480SOL     OW15901   1.930   2.121   6.244 -0.0834 -0.0067 -0.1850
 1480SOL    HW115902   1.931   2.033   6.206  2.1145  0.7955 -1.9425
 1480SOL    HW215903   1.867   2.105   6.315 -1.5067  1.6672 -1.0846
 1481SOL     OW15904   4.171   0.891   4.667  0.9373 -0.3562  0.0083
 1481SOL    HW115905   4.092   0.902   4.720  0.7358  0.5981 -0.4849
 1481SOL    HW215906   4.209   0.810   4.701  1.6340  0.5633  1.4261
 1482SOL     OW15907   3.195   3.672   4.865  0.0665  0.2537 -0.0034
 1482SOL    HW115908   3.207   3.577   4.867  0.1796  0.2771  0.4992
 1482SOL    HW215909   3.119   3.682   4.808  0.4473 -1.4218 -0.8189
 1483SOL     OW15910   4.537   1.752   8.684  0.5148 -0.1474  0.3622
 1483SOL    HW115911   4.472   1.751   8.755  0.0625  1.4335 -0.0222
 1483SOL    HW215912   4.613   1.762   8.742  1.0492  0.0483 -0.3699
 1484SOL     OW15913   0.853   4.186  12.384  0.0782 -0.0558 -0.3168
 1484SOL    HW115914   0.871   4.162  12.293 -0.4715 -0.7933 -0.2317
 1484SOL    HW215915   0.774   4.235  12.363 -0.2811  0.7451  3.0092
 1485SOL     OW15916   1.950   1.920  14.054  0.0267 -0.1548  0.5447
 1485SOL    HW115917   2.037   1.880  14.056  0.1340 -0.1320 -3.1581
 1485SOL    HW215918   1.954   1.950  14.144  0.0705  0.6630  0.2686
 1486SOL     OW15919   0.491   2.812   8.865  0.0809  0.6129 -0.4736
 1486SOL    HW115920   0.396   2.824   8.862 -0.1121 -0.5938  0.8884
 1486SOL    HW215921   0.499   2.730   8.816 -0.0989  0.5171 -0.3437
 1487SOL     OW15922   3.981   0.503   4.877  0.1614 -0.1893  0.2123
 1487SOL    HW115923   3.905   0.510   4.936  0.0648  1.1471 -0.0766
 1487SOL    HW215924   4.049   0.533   4.937 -0.9975 -1.4284  2.1807
 1488SOL     OW15925   1.593   4.168   7.094  0.5127  0.6506 -0.1944
 1488SOL    HW115926   1.688   4.161   7.097  0.3960 -0.7707  0.3267
 1488SOL    HW215927   1.587   4.262   7.079  0.9037  0.4868 -1.3404
 1489SOL     OW15928   2.918   4.028   7.209 -0.3627  0.2879  0.3541
 1489SOL    HW115929   2.877   3.974   7.141  0.5203 -1.1238  0.9469
 1489SOL    HW215930   2.856   4.014   7.281  1.5455  2.3984  2.4245
 1490SOL     OW15931   1.277   1.423  12.346  0.0651 -0.0394 -0.2095
 1490SOL    HW115932   1.362   1.408  12.386 -0.4204 -0.8369  0.5126
 1490SOL    HW215933   1.242   1.334  12.339  1.0430 -0.2511 -2.4005
 1491SOL     OW15934   1.538   3.509   8.653 -0.6929 -0.2053 -0.1363
 1491SOL    HW115935   1.498   3.465   8.578  1.4070  0.4445 -1.6208
 1491SOL    HW215936   1.628   3.477   8.649 -0.5927 -0.1527  1.5852
 1492SOL     OW15937   2.587   3.059   6.100 -0.5371  0.7389 -0.1313
 1492SOL    HW115938   2.664   3.106   6.068  0.3109 -1.4006 -1.2059
 1492SOL    HW215939   2.574   3.121   6.172 -2.0373  0.1108  0.1202
 1493SOL     OW15940   3.251   0.364   7.584 -0.0045  0.0333 -0.7159
 1493SOL    HW115941   3.243   0.449   7.541 -1.6700 -0.2976 -1.0324
 1493SOL    HW215942   3.262   0.308   7.507 -1.2803 -1.5046  0.2493
 1494SOL     OW15943   0.533   1.516  15.381 -0.2324 -0.4363 -0.3808
 1494SOL    HW115944   0.622   1.524  15.347  0.2151 -0.4034  0.8239
 1494SOL    HW215945   0.478   1.562  15.317  0.4207  1.5530  0.4954
 1495SOL     OW15946   0.623   1.538   2.615 -0.2883 -0.5170 -0.1209
 1495SOL    HW115947   0.613   1.626   2.650 -0.5446  0.1219 -1.7728
 1495SOL    HW215948   0.593   1.542   2.524 -0.4860  0.4919 -0.0021
 1496SOL     OW15949   1.567   1.376   3.873 -0.4635 -0.0699  0.5023
 1496SOL    HW115950   1.585   1.423   3.791 -0.5023 -0.4709  0.2656
 1496SOL    HW215951   1.595   1.287   3.851 -1.1845 -0.2080  0.1472
 1497SOL     OW15952   3.589   3.056   2.298  0.2706 -0.1073 -0.1275
 1497SOL    HW115953   3.593   3.131   2.357 -1.1394 -0.3379  0.2452
 1497SOL    HW215954   3.533   3.089   2.228 -0.4405 -0.9960  0.0178
 1498SOL     OW15955   3.785   3.262  11.796  0.0336 -0.6860 -0.4913
 1498SOL    HW115956   3.790   3.259  11.700 -3.2857 -1.0701 -0.6549
 1498SOL    HW215957   3.875   3.282  11.823 -0.1167  0.1017 -0.5872
 1499SOL     OW15958   3.132   2.917   5.815  0.1699  0.1991  0.3193
 1499SOL    HW115959   3.201   2.868   5.772 -0.9490  0.5913 -1.8968
 1499SOL    HW215960   3.129   2.985   5.748  1.0314 -0.1692 -0.0984
 1500SOL     OW15961   1.725   2.122   9.596  0.5882 -0.2173  0.3710
 1500SOL    HW115962   1.705   2.182   9.668 -0.1154 -0.2122  0.1666
 1500SOL    HW215963   1.636   2.105   9.565  0.0162  0.8091  1.4259
 1501SOL     OW15964   1.575   4.670   5.688 -0.1262 -0.2130  0.0514
 1501SOL    HW115965   1.517   4.619   5.745 -0.4056 -1.2188 -1.1221
 1501SOL    HW215966   1.607   4.599   5.633 -0.4943 -1.7042  1.7797
 1502SOL     OW15967   4.432   2.383   8.491  0.2563  0.6622  0.7198
 1502SOL    HW115968   4.463   2.342   8.572 -1.3897 -1.2588  0.4036
 1502SOL    HW215969   4.340   2.360   8.479  0.5568 -0.9274  1.4700
 1503SOL     OW15970   2.601   0.080   4.214 -0.2934  0.4672 -0.3898
 1503SOL    HW115971   2.505   0.080   4.224 -0.3616  0.1451 -1.0907
 1503SOL    HW215972   2.626   0.031   4.293 -0.6011  0.6454 -0.1823
 1504SOL     OW15973   4.075   2.318   7.799 -0.1796 -0.0852  0.4548
 1504SOL    HW115974   4.094   2.227   7.777  0.2852  0.5757 -1.8912
 1504SOL    HW215975   4.152   2.370   7.775  0.3619 -2.7200 -3.5166
 1505SOL     OW15976   2.852   2.154  16.670 -0.0139 -0.4370 -0.1582
 1505SOL    HW115977   2.934   2.203  16.673 -0.0093 -0.4867  0.5648
 1505SOL    HW215978   2.794   2.231  16.669 -1.5085 -1.5815 -0.6977
 1506SOL     OW15979   3.510   2.166   4.421 -0.0109  0.1409  0.0867
 1506SOL    HW115980   3.551   2.193   4.503 -2.5512  5.4812 -0.3797
 1506SOL    HW215981   3.418   2.190   4.428  0.2066  0.9435  0.1280
 1507SOL     OW15982   1.863   3.677   4.005 -0.0130  0.1291  0.0734
 1507SOL    HW115983   1.957   3.657   4.005 -0.0658 -0.1285  0.2850
 1507SOL    HW215984   1.853   3.723   4.088 -1.0293  1.9378 -1.0561
 1508SOL     OW15985   2.602   0.397   7.361 -0.1627  0.3328 -0.2940
 1508SOL    HW115986   2.662   0.441   7.422  0.2172 -0.5886  0.0008
 1508SOL    HW215987   2.659   0.320   7.351 -3.3457 -1.8562 -1.4368
 1509SOL     OW15988   0.643   4.675   8.021 -0.5544  0.0519  0.0667
 1509SOL    HW115989   0.616   4.694   7.931  1.5667 -0.5047 -0.6717
 1509SOL    HW215990   0.581   0.005   8.071 -0.7799 -1.5619  1.5601
 1510SOL     OW15991   1.420   4.141   6.652  0.1727  0.2313  0.3445
 1510SOL    HW115992   1.381   4.212   6.702 -0.6991 -0.9181  1.2826
 1510SOL    HW215993   1.509   4.169   6.632  0.4408 -1.7342 -1.2811
 1511SOL     OW15994   3.044   3.361   7.331  0.0918 -0.1682 -0.2370
 1511SOL    HW115995   2.991   3.282   7.339 -0.6926  0.4300  0.5940
 1511SOL    HW215996   3.123   3.341   7.381  0.2643 -0.1627 -0.5104
 1512SOL     OW15997   2.257   0.620   4.236  0.0001 -0.4400 -0.4797
 1512SOL    HW115998   2.249   0.691   4.172 -1.7508 -0.7895 -0.6455
 1512SOL    HW215999   2.348   0.596   4.218 -0.3894 -4.0866  2.5543
 1513SOL     OW16000   1.930   2.739   0.930  0.6789  0.4353  0.3574
 1513SOL    HW116001   1.993   2.722   0.860 -0.5371  0.1098 -0.6556
 1513SOL    HW216002   1.991   2.754   1.002  0.3034  2.5090  0.2535
 1514SOL     OW16003   1.990   1.491  10.491  0.1271 -0.8492 -0.4283
 1514SOL    HW116004   2.073   1.489  10.444 -0.6845  1.0166 -1.9205
 1514SOL    HW216005   1.999   1.401  10.522 -1.7769 -1.1247 -0.6529
 1515SOL     OW16006   3.760   4.432   2.821 -0.2188 -0.0547 -0.0213
 1515SOL    HW116007   3.692   4.393   2.876 -0.3012  0.4613  0.2458
 1515SOL    HW216008   3.802   4.496   2.878 -1.3395  1.1912 -0.5983
 1516SOL     OW16009   0.231   4.546   6.429  0.3618  0.3343  0.0479
 1516SOL    HW116010   0.312   4.495   6.438  0.0248  0.0593  1.5338
 1516SOL    HW216011   0.263   4.636   6.418  0.9778 -0.0088 -0.9664
 1517SOL     OW16012   3.828   1.766  15.758 -0.6132  0.0716 -0.0349
 1517SOL    HW116013   3.757   1.788  15.819 -2.4719  0.7953 -2.4897
 1517SOL    HW216014   3.907   1.786  15.808 -0.3730  0.7921 -0.7138
 1518SOL     OW16015   4.258   1.504   4.023  0.4130  0.0257  0.4913
 1518SOL    HW116016   4.299   1.530   4.105 -0.8927 -0.2577  1.2245
 1518SOL    HW216017   4.237   1.588   3.982 -2.2752  0.3994  2.6811
 1519SOL     OW16018   2.359   2.748   9.681  0.3859  0.0350 -0.1411
 1519SOL    HW116019   2.271   2.754   9.643 -0.2822 -1.0132  1.2087
 1519SOL    HW216020   2.406   2.718   9.603  1.2238  1.4451 -0.1670
 1520SOL     OW16021   1.332   2.643   7.935 -0.4177  0.1844  0.3566
 1520SOL    HW116022   1.377   2.728   7.940 -1.1822  0.5990  0.3045
 1520SOL    HW216023   1.269   2.655   8.006 -1.2775 -0.2523 -0.3266
 1521SOL     OW16024   0.542   0.345  13.715  0.1219 -0.6413 -0.4945
 1521SOL    HW116025   0.627   0.355  13.673  0.1672 -1.6525 -0.6421
 1521SOL    HW216026   0.488   0.324  13.638  0.0898  0.8217 -0.8707
 1522SOL     OW16027   0.933   3.755   6.103  0.4197 -0.0610  0.1476
 1522SOL    HW116028   1.009   3.780   6.050  1.0738  1.7017  1.9360
 1522SOL    HW216029   0.975   3.711   6.177 -2.3133 -0.9677  1.1259
 1523SOL     OW16030   3.198   2.509   6.856  0.1225  0.3785  0.3967
 1523SOL    HW116031   3.250   2.564   6.914 -2.0429 -0.0629  2.7457
 1523SOL    HW216032   3.249   2.428   6.865  0.1564  0.0644 -2.6956
 1524SOL     OW16033   3.578   1.216   6.815  0.1765 -0.4249 -0.3441
 1524SOL    HW116034   3.611   1.247   6.731 -1.6257  1.0645 -0.5036
 1524SOL    HW216035   3.640   1.271   6.864 -1.1138  0.9639 -0.2492
 1525SOL     OW16036   2.827   1.260   4.120  0.0933  0.2408  0.2371
 1525SOL    HW116037   2.760   1.211   4.168  1.1699  0.3266  1.8374
 1525SOL    HW216038   2.883   1.186   4.094 -0.9940 -0.3595 -0.3875
 1526SOL     OW16039   0.463   3.398   4.742  0.4156 -0.4231  0.1727
 1526SOL    HW116040   0.482   3.335   4.811 -0.4792 -0.3588  0.4758
 1526SOL    HW216041   0.546   3.440   4.718 -0.4751  1.3874  0.2929
 1527SOL     OW16042   0.979   1.566   8.833  0.0999  0.1069  0.1471
 1527SOL    HW116043   0.913   1.541   8.898  0.4316 -0.7785  0.1411
 1527SOL    HW216044   1.033   1.619   8.891 -1.2409  0.4602  1.0679
 1528SOL     OW16045   1.176   3.844   4.924 -0.2346 -0.1594  0.1240
 1528SOL    HW116046   1.150   3.907   4.856  2.4400  0.8041 -0.0022
 1528SOL    HW216047   1.259   3.808   4.893  1.6688  1.0622  3.7475
 1529SOL     OW16048   2.029   3.023   6.498  0.4167  0.1214  0.4894
 1529SOL    HW116049   2.048   2.935   6.465 -0.9223  0.4702 -1.2004
 1529SOL    HW216050   2.009   3.004   6.590  0.4457  0.2503  0.5231
 1530SOL     OW16051   3.809   3.768   0.083 -0.2746 -1.1219  0.2644
 1530SOL    HW116052   3.819   3.728   0.169  1.9603  1.6497  1.2988
 1530SOL    HW216053   3.777   3.695   0.030  0.8067 -2.8574  2.0211
 1531SOL     OW16054   3.794   2.429   2.376  0.4262  0.0061 -0.0263
 1531SOL    HW116055   3.773   2.414   2.468  0.6921 -1.1808 -0.1477
 1531SOL    HW216056   3.705   2.430   2.341  0.4810  0.6087 -0.1391
 1532SOL     OW16057   4.564   2.031   9.577 -0.2760 -0.2070  0.0009
 1532SOL    HW116058   4.620   2.108   9.567  0.6484 -0.9006 -0.1008
 1532SOL    HW216059   4.487   2.071   9.617  0.2141 -0.9916  1.7078
 1533SOL     OW16060   3.997   1.294   5.868 -0.4068  0.0834  0.2804
 1533SOL    HW116061   4.037   1.379   5.883 -0.0259 -0.3142  1.5454
 1533SOL    HW216062   3.986   1.300   5.773 -1.3637 -1.6810  0.2776
 1534SOL     OW16063   2.559   3.051   1.013 -0.1229 -0.1633 -0.4576
 1534SOL    HW116064   2.639   3.089   1.048 -1.6882  0.3611  2.4753
 1534SOL    HW216065   2.584   2.960   0.995 -2.7445 -0.9614 -0.0314
 1535SOL     OW16066   4.634   2.938   1.901  0.1768  0.3145 -0.0810
 1535SOL    HW116067   4.687   2.922   1.980  0.7207  0.9658 -0.3076
 1535SOL    HW216068   4.594   2.852   1.897 -0.2162  0.4928  0.0665
 1536SOL     OW16069   0.315   4.162   0.946 -0.0814 -0.5035  0.3056
 1536SOL    HW116070   0.327   4.228   1.014 -0.1715 -1.4773  1.2717
 1536SOL    HW216071   0.399   4.117   0.952 -0.2001 -0.6812  0.7196
 1537SOL     OW16072   3.542   2.170   2.956  0.1822 -0.5525 -0.2930
 1537SOL    HW116073   3.458   2.179   2.912 -0.4028 -1.3709  0.6364
 1537SOL    HW216074   3.559   2.264   2.954 -0.4929 -0.4486 -1.0984
 1538SOL     OW16075   0.994   2.982   3.377  0.0840 -0.1809  0.2361
 1538SOL    HW116076   0.976   3.057   3.319 -0.8399 -0.2612  0.4265
 1538SOL    HW216077   1.060   3.028   3.430  0.7478 -0.4616 -0.3448
 1539SOL     OW16078   3.219   4.717   7.230 -0.5536 -0.2924  0.2098
 1539SOL    HW116079   3.211   4.685   7.140  0.6514 -2.9292  1.0326
 1539SOL    HW216080   3.298   4.668   7.254 -0.1036  1.0124  1.3711
 1540SOL     OW16081   3.848   2.357   6.779 -0.4938 -0.1937  0.3666
 1540SOL    HW116082   3.788   2.322   6.713  1.4537  0.0703 -1.5381
 1540SOL    HW216083   3.919   2.390   6.725 -0.1682 -1.7408 -0.1699
 1541SOL     OW16084   3.188   2.595  12.013  0.0355  0.4888  0.2206
 1541SOL    HW116085   3.136   2.646  11.950 -2.2868 -1.8027  0.3087
 1541SOL    HW216086   3.261   2.564  11.961  0.1656  1.0909  0.0435
 1542SOL     OW16087   3.946   2.758  17.591  0.1235  0.4108  0.2214
 1542SOL    HW116088   4.036   2.724  17.581 -0.6730 -0.9212 -2.4232
 1542SOL    HW216089   3.952   2.825  17.659  0.0940  1.3259 -0.6757
 1543SOL     OW16090   3.684   3.767   2.028 -0.0798  0.4306 -0.3247
 1543SOL    HW116091   3.718   3.684   2.063 -1.0993 -0.7996 -2.2284
 1543SOL    HW216092   3.755   3.822   2.060 -0.5998  0.1807  1.2801
 1544SOL     OW16093   4.446   2.078   4.366  0.1327 -0.0564  0.4002
 1544SOL    HW116094   4.480   1.990   4.348  0.3503 -0.1049  1.0233
 1544SOL    HW216095   4.529   2.118   4.393 -0.1854 -0.1212  1.4639
 1545SOL     OW16096   2.915   3.069   5.361 -0.0113 -0.2242  0.3619
 1545SOL    HW116097   2.868   3.129   5.304  0.1643 -1.7905 -1.4332
 1545SOL    HW216098   2.942   3.005   5.296  1.5118  1.0910 -0.2978
 1546SOL     OW16099   2.833   1.071  15.716  0.1852 -0.0248  0.2727
 1546SOL    HW116100   2.903   1.136  15.724 -0.0849  0.4392 -1.0790
 1546SOL    HW216101   2.811   1.074  15.623 -0.6232 -1.9784  0.4138
 1547SOL     OW16102   4.059   3.057   4.175  0.2049  0.4872  0.0773
 1547SOL    HW116103   4.091   2.980   4.129 -1.6978 -1.4200  1.9220
 1547SOL    HW216104   4.117   3.074   4.250  0.0187 -2.1017  0.8230
 1548SOL     OW16105   4.337   0.811   7.779 -0.4404  0.4428  0.4189
 1548SOL    HW116106   4.270   0.793   7.845  0.4082 -0.4694  1.0273
 1548SOL    HW216107   4.387   0.864   7.841 -1.0996  1.8912 -0.2734
 1549SOL     OW16108   1.468   0.984   5.337 -0.3074  0.1524 -0.3992
 1549SOL    HW116109   1.440   1.022   5.420 -0.5408 -1.4109  0.2302
 1549SOL    HW216110   1.451   0.891   5.353 -1.3822  0.4298  0.0400
 1550SOL     OW16111   3.658   3.213   7.281 -0.2554  0.1386  0.4160
 1550SOL    HW116112   3.734   3.233   7.227  0.5865 -1.1181  1.1307
 1550SOL    HW216113   3.597   3.209   7.208 -1.8566 -1.6146  1.8633
 1551SOL     OW16114   2.122   0.228   7.795 -0.3921 -0.4195  0.2518
 1551SOL    HW116115   2.081   0.190   7.717 -1.3225 -0.8102  0.9342
 1551SOL    HW216116   2.201   0.177   7.809 -0.3593 -0.0179  1.5184
 1552SOL     OW16117   1.028   1.338  14.044 -0.3288 -0.2964  0.8626
 1552SOL    HW116118   1.022   1.283  13.966  1.8198 -0.4608  0.8114
 1552SOL    HW216119   0.995   1.422  14.014 -1.8521 -0.9792  0.6389
 1553SOL     OW16120   3.081   1.980   4.901 -0.5413  0.0870  0.2709
 1553SOL    HW116121   3.073   1.979   4.996  1.5907 -0.5222  0.4319
 1553SOL    HW216122   2.987   1.989   4.884 -0.7695  1.7950  2.4249
 1554SOL     OW16123   0.733   4.334   3.378  0.0675  0.0264  0.1083
 1554SOL    HW116124   0.682   4.388   3.437  1.4558  0.8551  0.5602
 1554SOL    HW216125   0.740   4.251   3.425  0.6951 -1.0513 -1.8755
 1555SOL     OW16126   0.536   2.729   5.173 -0.1482  0.1759 -0.4981
 1555SOL    HW116127   0.572   2.671   5.106 -0.6028 -1.0830  0.3543
 1555SOL    HW216128   0.565   2.694   5.257 -0.6922 -1.6803 -1.0869
 1556SOL     OW16129   0.288   0.727   5.359  0.3445 -0.0531  0.2887
 1556SOL    HW116130   0.352   0.656   5.350 -0.0905 -0.5617  1.1561
 1556SOL    HW216131   0.220   0.690   5.416 -0.6285  0.3310 -0.6228
 1557SOL     OW16132   1.107   2.880   2.586 -0.0971  0.4873  0.0110
 1557SOL    HW116133   1.083   2.957   2.638 -1.4550 -0.0292  0.1527
 1557SOL    HW216134   1.183   2.847   2.635  0.4416  0.6011 -0.7446
 1558SOL     OW16135   2.921   0.651   8.647 -0.3647  0.6526 -0.1411
 1558SOL    HW116136   3.002   0.628   8.600  0.6329  0.9308  1.4260
 1558SOL    HW216137   2.932   0.590   8.719 -0.6228 -1.1058 -1.6035
 1559SOL     OW16138   1.396   2.868   2.289  0.2953  0.0138 -0.1515
 1559SOL    HW116139   1.381   2.776   2.267 -1.7932  0.2444  0.2339
 1559SOL    HW216140   1.303   2.888   2.300  0.2904  0.8284 -1.6990
 1560SOL     OW16141   2.171   0.607   3.117  0.3779  0.3605 -0.7394
 1560SOL    HW116142   2.090   0.645   3.081 -0.7257  1.1122  2.5720
 1560SOL    HW216143   2.236   0.668   3.083  1.9406 -1.0259 -0.1926
 1561SOL     OW16144   3.379   1.529   7.423  0.7363 -0.1208  0.3858
 1561SOL    HW116145   3.413   1.442   7.447 -0.3453 -0.9266 -0.9939
 1561SOL    HW216146   3.435   1.585   7.477 -1.3459  0.7142  1.6405
 1562SOL     OW16147   0.181   0.445  11.649 -0.4298  0.1700 -0.2347
 1562SOL    HW116148   0.228   0.424  11.568  1.8630 -0.8442  1.3482
 1562SOL    HW216149   0.230   0.389  11.710  1.7834  0.1145 -2.0893
 1563SOL     OW16150   1.980   3.879  17.129  0.3219 -0.1859 -0.4640
 1563SOL    HW116151   1.933   3.797  17.144  1.6042 -1.0125 -1.0483
 1563SOL    HW216152   1.917   3.928  17.075 -0.7875 -0.5939  0.4589
 1564SOL     OW16153   2.847   0.758   7.379 -0.0939  0.0593  0.2950
 1564SOL    HW116154   2.908   0.697   7.421  0.0550 -1.0624 -1.5068
 1564SOL    HW216155   2.763   0.748   7.423 -0.9671  1.2445 -1.0796
 1565SOL     OW16156   3.112   0.091   0.874 -0.3144  0.5682 -0.6036
 1565SOL    HW116157   3.188   0.148   0.889  0.1370  0.0441 -0.9191
 1565SOL    HW216158   3.159   0.009   0.860  0.6967  0.8174  1.2603
 1566SOL     OW16159   4.154   2.469   0.108 -0.1842  0.3042  0.3660
 1566SOL    HW116160   4.153   2.378   0.076 -0.4257  0.5561 -0.3435
 1566SOL    HW216161   4.117   2.454   0.195 -0.2794 -0.6967  0.1546
 1567SOL     OW16162   3.182   4.453   4.083 -0.1727  0.0464  0.4672
 1567SOL    HW116163   3.203   4.544   4.101 -1.0842  0.3638 -0.0672
 1567SOL    HW216164   3.160   4.469   3.991 -1.8420  1.0161  1.0342
 1568SOL     OW16165   0.508   4.557   4.197 -0.0737 -0.1897  0.2851
 1568SOL    HW116166   0.520   4.539   4.103 -1.0749  0.1577  0.0920
 1568SOL    HW216167   0.597   4.571   4.228  0.8543  1.3279 -3.0818
 1569SOL     OW16168   4.379   4.521   6.177  0.2883 -0.1048  0.5488
 1569SOL    HW116169   4.321   4.458   6.133  1.1386 -1.4468  1.3236
 1569SOL    HW216170   4.326   4.596   6.152  0.9265  0.3373  0.5221
 1570SOL     OW16171   1.153   0.384   4.202 -0.2062 -0.2096 -0.1684
 1570SOL    HW116172   1.231   0.398   4.256 -2.0344  0.7623  2.2463
 1570SOL    HW216173   1.090   0.380   4.274 -0.3304 -1.7623 -0.3485
 1571SOL     OW16174   2.739   1.275  16.584 -0.1042  0.0564 -0.3247
 1571SOL    HW116175   2.799   1.228  16.640 -0.8902  1.5416  1.7629
 1571SOL    HW216176   2.802   1.316  16.525  1.4331  1.3099  2.2105
 1572SOL     OW16177   4.669   1.972  16.231  0.3148 -0.5950  0.6840
 1572SOL    HW116178   4.697   1.937  16.315  0.0566  0.9922  1.4360
 1572SOL    HW216179   0.033   1.992  16.201  0.0149  1.6120  1.2472
 1573SOL     OW16180   0.046   0.004   3.164  0.6589 -0.3697 -0.2039
 1573SOL    HW116181   0.001   4.708   3.247 -1.7138  0.4067 -1.2934
 1573SOL    HW216182   0.128   4.684   3.183  1.1222  1.6904  2.6468
 1574SOL     OW16183   0.523   0.993   3.322  0.5393  0.1533 -0.5176
 1574SOL    HW116184   0.543   1.087   3.319 -0.0201  0.3131  0.9230
 1574SOL    HW216185   0.498   0.986   3.414  3.1072  0.6726  0.2033
 1575SOL     OW16186   2.228   0.278   8.578 -0.0884  0.1572  0.0271
 1575SOL    HW116187   2.249   0.366   8.547 -0.1779  0.3793  0.6035
 1575SOL    HW216188   2.137   0.279   8.608  0.5008 -0.0973  1.8166
 1576SOL     OW16189   2.913   4.670   4.076  0.2220 -0.4151 -0.0740
 1576SOL    HW116190   2.978   0.015   4.088 -2.7257  2.3711 -0.1508
 1576SOL    HW216191   2.836   4.723   4.054  1.1201 -0.3549 -3.1035
 1577SOL     OW16192   4.569   1.745  12.793  0.0872  0.7950  0.0895
 1577SOL    HW116193   4.510   1.706  12.729  2.2339  1.6334 -2.4038
 1577SOL    HW216194   4.647   1.692  12.775  1.0104  0.8840  3.7505
 1578SOL     OW16195   4.228   2.561   6.886 -0.0248  0.3031 -0.0177
 1578SOL    HW116196   4.188   2.568   6.799  2.7412  2.3764 -1.1428
 1578SOL    HW216197   4.260   2.651   6.892  1.3655 -0.2003  0.1071
 1579SOL     OW16198   0.252   4.255   5.484 -0.5365  0.4263 -0.2616
 1579SOL    HW116199   0.264   4.321   5.552  1.6402 -0.7354  0.4801
 1579SOL    HW216200   0.157   4.246   5.485 -0.6960  2.0556 -0.6406
 1580SOL     OW16201   4.146   3.015   3.093 -0.2785 -1.0631  0.0813
 1580SOL    HW116202   4.194   2.936   3.068  1.8064  0.2479 -0.0302
 1580SOL    HW216203   4.088   3.020   3.017  1.5544  1.8394 -1.1332
 1581SOL     OW16204   3.764   3.454   3.886  0.0175 -0.0868  0.0965
 1581SOL    HW116205   3.686   3.409   3.854  0.8240 -0.8557 -0.7859
 1581SOL    HW216206   3.809   3.494   3.812 -1.8025  0.0094 -0.9421
 1582SOL     OW16207   4.337   0.979   4.464 -0.1344  0.3803  0.2994
 1582SOL    HW116208   4.285   0.966   4.543  0.7991  0.2453  0.8867
 1582SOL    HW216209   4.270   0.967   4.396  1.2391  0.8410 -1.1418
 1583SOL     OW16210   2.773   4.502   3.804 -0.0441  0.1463  0.1793
 1583SOL    HW116211   2.856   4.498   3.853 -0.3706  1.4660  0.8304
 1583SOL    HW216212   2.778   4.409   3.780  0.8476 -0.2839  1.9851
 1584SOL     OW16213   1.823   3.955   0.459 -0.0580 -0.4713  0.4315
 1584SOL    HW116214   1.791   4.003   0.382  0.7348 -0.9432 -0.1886
 1584SOL    HW216215   1.814   4.023   0.526  1.8996  2.0245 -1.7912
 1585SOL     OW16216   2.321   3.424   5.502  0.3178  0.1001 -0.5032
 1585SOL    HW116217   2.263   3.465   5.437  0.9254  1.6004 -0.1132
 1585SOL    HW216218   2.247   3.393   5.554 -0.1161  0.6684 -0.7813
 1586SOL     OW16219   0.210   1.374   6.361 -0.4129 -0.2756 -0.3883
 1586SOL    HW116220   0.193   1.468   6.357  1.1333  0.0492  0.9640
 1586SOL    HW216221   0.300   1.363   6.329 -0.9090  0.5712 -2.0995
 1587SOL     OW16222   1.382   4.047   6.374 -0.0811 -0.3776 -0.4652
 1587SOL    HW116223   1.382   4.082   6.462  0.8314  2.1967 -1.4900
 1587SOL    HW216224   1.291   4.018   6.377  0.2727 -1.3457  0.9006
 1588SOL     OW16225   4.219   2.815   6.824  0.0612  0.0474 -0.4151
 1588SOL    HW116226   4.289   2.816   6.759  0.0765  1.5789 -0.3721
 1588SOL    HW216227   4.249   2.884   6.883  3.2668 -2.2514  0.6721
 1589SOL     OW16228   2.990   2.604   5.100 -0.1951  0.2065  0.2947
 1589SOL    HW116229   2.925   2.596   5.030 -1.8216 -1.9343  2.0488
 1589SOL    HW216230   3.031   2.520   5.080 -1.3509 -0.4913  0.8523
 1590SOL     OW16231   3.821   2.250  10.403 -0.2483  0.2973 -0.3167
 1590SOL    HW116232   3.760   2.297  10.347  0.4238 -0.7952 -1.9676
 1590SOL    HW216233   3.892   2.314  10.398 -1.6922  1.8095 -1.3182
 1591SOL     OW16234   1.805   1.718   5.417 -0.1811 -0.5876  0.3625
 1591SOL    HW116235   1.768   1.663   5.486 -1.5388  0.6995  0.6642
 1591SOL    HW216236   1.824   1.664   5.340  0.3446  2.4663 -1.6850
 1592SOL     OW16237   1.492   3.185   3.507 -0.3337 -0.2096  0.0108
 1592SOL    HW116238   1.464   3.276   3.503  0.5760  0.1141  1.1736
 1592SOL    HW216239   1.561   3.198   3.572 -0.8683 -0.2228  0.5809
 1593SOL     OW16240   3.510   2.632  13.174  0.4177  0.0780 -0.3678
 1593SOL    HW116241   3.497   2.717  13.216 -0.8460 -1.0461  1.5302
 1593SOL    HW216242   3.602   2.630  13.147  0.7403  2.8570  0.5452
 1594SOL     OW16243   1.237   4.265   5.398  1.0807  0.3422  0.4181
 1594SOL    HW116244   1.209   4.328   5.332 -1.7623 -1.5543 -0.1938
 1594SOL    HW216245   1.238   4.328   5.471 -1.4316  0.0640  0.6881
 1595SOL     OW16246   3.145   0.008  12.487  0.0358  0.0587 -0.4711
 1595SOL    HW116247   3.105   4.720  12.573  0.7996  3.4062  0.3492
 1595SOL    HW216248   3.235   4.711  12.509 -0.8546 -0.3317  2.8012
 1596SOL     OW16249   0.032   0.994   4.442 -0.3204 -0.2980 -0.2854
 1596SOL    HW116250   0.104   1.056   4.436 -0.3507 -0.1513  0.7765
 1596SOL    HW216251   0.020   0.986   4.537  1.3612  0.4476 -0.0206
 1597SOL     OW16252   1.740   4.427   9.240  0.4094  0.5957 -0.1867
 1597SOL    HW116253   1.721   4.461   9.153 -2.3650 -0.7568 -0.1150
 1597SOL    HW216254   1.776   4.345   9.206 -0.3617 -0.0148  0.4654
 1598SOL     OW16255   4.503   4.058   4.450  0.5069 -0.2192 -0.0325
 1598SOL    HW116256   4.544   4.018   4.527 -2.9943 -0.5966  1.6450
 1598SOL    HW216257   4.515   3.989   4.385  1.8555  0.7454 -0.8064
 1599SOL     OW16258   1.380   1.061   9.115 -0.0158  0.4941 -0.4410
 1599SOL    HW116259   1.401   1.082   9.024  0.0381  1.9439 -0.0877
 1599SOL    HW216260   1.313   1.126   9.134  1.0364  2.0087 -1.8709
 1600SOL     OW16261   3.473   3.361   8.499  0.3709 -0.0049  0.1931
 1600SOL    HW116262   3.441   3.442   8.458  0.9139  1.0503  1.8858
 1600SOL    HW216263   3.565   3.383   8.512  0.9044 -1.2407 -1.4643
 1601SOL     OW16264   1.053   4.422   5.007  0.1237 -0.4449  0.3985
 1601SOL    HW116265   1.093   4.350   5.056 -1.5072 -1.2647  0.5327
 1601SOL    HW216266   0.999   4.471   5.070  2.2286  0.6941  1.3028
 1602SOL     OW16267   1.620   4.590   4.511 -0.0590  0.2981  0.1058
 1602SOL    HW116268   1.639   4.662   4.570 -1.0011  1.8594 -1.4901
 1602SOL    HW216269   1.621   4.645   4.433 -0.7609  0.2321  0.0512
 1603SOL     OW16270   4.427   2.317   0.279 -0.3373 -1.1013 -0.7622
 1603SOL    HW116271   4.368   2.294   0.350 -0.1466  1.6120  0.2925
 1603SOL    HW216272   4.508   2.361   0.306 -0.7781 -1.2499  0.8042
 1604SOL     OW16273   3.791   0.202  14.814 -0.5366 -0.5723  0.1146
 1604SOL    HW116274   3.853   0.221  14.884 -0.9368  1.1703 -0.0014
 1604SOL    HW216275   3.725   0.263  14.848  0.8177  0.6382  0.5969
 1605SOL     OW16276   1.805   1.333  13.091 -0.8518 -0.4294  0.0050
 1605SOL    HW116277   1.725   1.372  13.125 -0.8095 -0.3314 -0.0082
 1605SOL    HW216278   1.857   1.412  13.108 -1.9809  0.0220  1.2684
 1606SOL     OW16279   3.061   4.643  13.793 -0.5205  0.4647 -0.3312
 1606SOL    HW116280   3.078   0.000  13.841 -0.9424 -2.4496  4.7259
 1606SOL    HW216281   2.966   4.628  13.792 -0.0620 -2.5348  0.6512
 1607SOL     OW16282   0.777   0.515   5.832  0.5843  0.1678  0.4447
 1607SOL    HW116283   0.711   0.467   5.782  0.4366 -1.4447  2.2111
 1607SOL    HW216284   0.847   0.453   5.816  0.4837  0.2083 -0.1535
 1608SOL     OW16285   1.378   4.071   7.324 -0.4354 -0.0814 -0.2036
 1608SOL    HW116286   1.461   4.079   7.277 -0.8286  1.3327 -0.6539
 1608SOL    HW216287   1.377   4.162   7.356  0.9689  0.1603 -0.8586
 1609SOL     OW16288   3.228   0.794  13.883  0.2505 -0.1685  0.0275
 1609SOL    HW116289   3.159   0.859  13.893  1.1864  0.6518  1.1775
 1609SOL    HW216290   3.217   0.783  13.789  2.7550 -0.2761 -0.2580
 1610SOL     OW16291   4.556   4.193   1.370 -0.2697 -0.1455 -0.7501
 1610SOL    HW116292   4.463   4.208   1.384  0.0100  0.4801  0.3779
 1610SOL    HW216293   4.595   4.280   1.381  0.3710 -0.3684 -1.1905
 1611SOL     OW16294   0.266   2.604   9.098 -0.2642 -0.0157 -0.1820
 1611SOL    HW116295   0.237   2.626   9.186  0.0975  2.1358 -0.6052
 1611SOL    HW216296   0.359   2.624   9.108  0.1292 -1.4456 -0.8962
 1612SOL     OW16297   1.275   4.207   7.980 -0.1176 -1.1188  0.1459
 1612SOL    HW116298   1.361   4.183   8.013  0.6368  1.6898  0.2070
 1612SOL    HW216299   1.289   4.274   7.914  1.3509 -1.8911 -0.3095
 1613SOL     OW16300   3.788   1.639  13.316  0.3759  0.0550 -0.5217
 1613SOL    HW116301   3.853   1.623  13.247 -1.2182 -1.0824 -1.7810
 1613SOL    HW216302   3.746   1.553  13.320  2.3618 -0.9853 -2.1486
 1614SOL     OW16303   3.756   1.757   2.086  0.0394  0.3307 -0.4089
 1614SOL    HW116304   3.815   1.682   2.076  0.3859  0.7384 -1.3934
 1614SOL    HW216305   3.685   1.727   2.030 -0.2183 -2.1777  1.2407
 1615SOL     OW16306   4.399   1.122   8.918  0.1039  0.0996 -0.0441
 1615SOL    HW116307   4.363   1.190   8.861  1.3304 -1.1909 -2.3510
 1615SOL    HW216308   4.491   1.126   8.893  0.8197 -1.8332  2.3082
 1616SOL     OW16309   0.165   2.667   4.566  0.0918 -0.0663  0.1794
 1616SOL    HW116310   0.146   2.583   4.526 -0.9516 -0.6356  1.8894
 1616SOL    HW216311   0.231   2.700   4.505 -1.4954  0.7981 -1.0647
 1617SOL     OW16312   4.381   0.780   3.420 -0.3509 -0.0917 -0.1148
 1617SOL    HW116313   4.329   0.700   3.418 -0.3562 -0.0594 -1.9064
 1617SOL    HW216314   4.446   0.768   3.351 -0.4386  2.2502 -0.6002
 1618SOL     OW16315   3.155   2.694   3.379 -0.0686  0.4938  0.0173
 1618SOL    HW116316   3.089   2.676   3.447 -0.8284 -1.8305 -1.3296
 1618SOL    HW216317   3.228   2.701   3.441 -0.3629 -3.5393  0.8261
 1619SOL     OW16318   2.590   3.948   2.292  0.1833 -0.1368 -0.1304
 1619SOL    HW116319   2.664   3.910   2.245 -0.2507  0.0925 -0.9896
 1619SOL    HW216320   2.629   4.026   2.333  3.5594 -0.2678 -3.1437
 1620SOL     OW16321   3.399   0.661   7.878  0.3563  0.2448 -0.0351
 1620SOL    HW116322   3.305   0.668   7.898  0.2033  0.7167 -0.8916
 1620SOL    HW216323   3.400   0.585   7.819  2.5918 -1.6384  2.4528
 1621SOL     OW16324   4.493   1.930  16.494 -0.4461 -0.4128 -0.2736
 1621SOL    HW116325   4.446   2.012  16.510 -1.6248 -1.0652 -0.4150
 1621SOL    HW216326   4.454   1.902  16.411  1.1673  1.9560 -1.8492
 1622SOL     OW16327   1.513   0.850   0.868 -0.4099 -0.8741 -0.2527
 1622SOL    HW116328   1.454   0.775   0.860  0.7297 -1.9005  1.0167
 1622SOL    HW216329   1.460   0.914   0.917  1.2948 -0.8962  1.6135
 1623SOL     OW16330   1.891   4.403   8.372  0.3354  0.1162  0.0492
 1623SOL    HW116331   1.978   4.438   8.352  0.5176 -0.5386 -0.2902
 1623SOL    HW216332   1.906   4.310   8.388 -1.3648 -0.0930  0.4227
 1624SOL     OW16333   3.807   0.131  14.245 -0.1885 -0.0818  0.5613
 1624SOL    HW116334   3.713   0.148  14.239 -0.7156 -3.2879 -0.3664
 1624SOL    HW216335   3.821   0.136  14.340 -0.1573  0.6672  0.5190
 1625SOL     OW16336   4.075   0.967   2.404 -0.8067 -0.1434 -0.7878
 1625SOL    HW116337   4.024   0.919   2.469 -0.1366  1.1404  0.6684
 1625SOL    HW216338   4.061   0.910   2.328 -0.6557  0.6438 -1.4161
 1626SOL     OW16339   3.375   1.433  15.643  0.1459 -0.0041  0.2692
 1626SOL    HW116340   3.312   1.457  15.574 -0.3438 -0.8448  0.4253
 1626SOL    HW216341   3.435   1.507  15.643  0.0668  0.0532  1.7650
 1627SOL     OW16342   3.700   0.411  11.388 -0.0556 -0.0776 -0.3435
 1627SOL    HW116343   3.620   0.393  11.338  0.7546 -1.9459 -0.9660
 1627SOL    HW216344   3.762   0.349  11.348  0.3985  1.5412 -2.1424
 1628SOL     OW16345   2.769   2.920  10.962 -0.0674 -0.0634 -0.0829
 1628SOL    HW116346   2.784   2.899  11.055 -0.3239 -2.2604 -0.5313
 1628SOL    HW216347   2.832   2.861  10.921 -0.4698 -0.7059  0.2256
 1629SOL     OW16348   4.284   0.065   8.730  0.0101  0.8160 -0.3658
 1629SOL    HW116349   4.304   4.709   8.681  0.7230 -0.5593  2.2006
 1629SOL    HW216350   4.193   0.082   8.706 -0.5585  0.4440  1.5407
 1630SOL     OW16351   2.720   0.712  15.213  0.5510  0.1576  0.2034
 1630SOL    HW116352   2.625   0.700  15.221  0.8945 -0.8714  2.6243
 1630SOL    HW216353   2.736   0.778  15.146 -0.9310  0.8347  0.5175
 1631SOL     OW16354   0.872   2.563  11.468  0.1180  0.7602  0.2022
 1631SOL    HW116355   0.834   2.597  11.386  1.3640  1.6245 -0.0187
 1631SOL    HW216356   0.836   2.475  11.474  2.4676 -0.2451 -0.8146
 1632SOL     OW16357   3.923   4.118   5.829  0.2950  0.6294  0.6041
 1632SOL    HW116358   3.843   4.112   5.881  0.0062  1.6861  0.2772
 1632SOL    HW216359   3.949   4.026   5.822 -1.8306  0.0774  0.1226
 1633SOL     OW16360   1.513   0.975  10.629  0.2992 -0.2674  0.1233
 1633SOL    HW116361   1.417   0.970  10.630  0.1286  2.6272 -0.4476
 1633SOL    HW216362   1.534   0.973  10.535 -1.6083 -1.9237 -0.2582
 1634SOL     OW16363   1.361   2.957  12.859  0.4332 -0.7339 -0.1414
 1634SOL    HW116364   1.327   3.018  12.794 -0.2665  0.5256  1.4248
 1634SOL    HW216365   1.430   2.918  12.805 -1.1366 -0.6242 -2.2373
 1635SOL     OW16366   4.592   0.488   3.133 -0.3130  0.0476 -0.0105
 1635SOL    HW116367   4.604   0.583   3.133  1.8678 -0.2364 -0.2724
 1635SOL    HW216368   4.625   0.461   3.047 -2.6729  0.0215 -0.9068
 1636SOL     OW16369   2.282   1.976   9.325 -0.4457 -0.0175  0.3734
 1636SOL    HW116370   2.311   2.022   9.404 -0.1657  0.1232  0.1881
 1636SOL    HW216371   2.264   1.886   9.350 -0.6613 -0.2876 -0.7790
 1637SOL     OW16372   3.035   0.124   3.040 -0.2123 -0.7495  0.6990
 1637SOL    HW116373   3.006   0.213   3.022  0.4858 -0.6162  0.2542
 1637SOL    HW216374   3.042   0.132   3.135  2.3570 -0.5467  0.4736
 1638SOL     OW16375   2.802   1.161   5.860 -0.0370  0.0319 -0.1016
 1638SOL    HW116376   2.848   1.079   5.877  0.2925  0.1741 -0.3264
 1638SOL    HW216377   2.878   1.218   5.851  0.2495 -0.3905 -0.3639
 1639SOL     OW16378   2.205   1.432   8.266 -0.2239 -0.4874 -0.4896
 1639SOL    HW116379   2.159   1.509   8.234 -2.4901 -1.7969 -0.3794
 1639SOL    HW216380   2.149   1.399   8.336  1.7591 -1.5696  0.6014
 1640SOL     OW16381   2.898   4.603   4.341 -0.0883 -0.1234  0.2123
 1640SOL    HW116382   2.943   4.687   4.350 -0.4367  0.0462  0.3582
 1640SOL    HW216383   2.901   4.592   4.246  2.4822 -1.0360  0.4080
 1641SOL     OW16384   0.997   0.373   5.804 -0.0219  0.2951  0.5669
 1641SOL    HW116385   1.035   0.288   5.780  0.5162  1.3059 -2.1719
 1641SOL    HW216386   1.075   0.428   5.791 -0.1420 -0.4551 -3.3245
 1642SOL     OW16387   4.684   3.622   5.266  0.9581  0.0712 -0.1717
 1642SOL    HW116388   0.032   3.674   5.302 -0.0761  1.7477 -0.4923
 1642SOL    HW216389   4.637   3.688   5.215 -0.3443 -1.3513 -0.7948
 1643SOL     OW16390   4.701   3.727   6.098  0.4762  0.0815  0.1899
 1643SOL    HW116391   0.014   3.794   6.040  1.7162 -0.0650  0.8354
 1643SOL    HW216392   0.037   3.655   6.077  0.2611 -0.0282 -0.0556
 1644SOL     OW16393   1.851   3.530   4.695 -0.1258  0.1660 -0.4109
 1644SOL    HW116394   1.928   3.552   4.643  0.0275  1.8847  0.5488
 1644SOL    HW216395   1.861   3.588   4.771 -0.7620  0.3226 -0.4454
 1645SOL     OW16396   1.061   3.155   5.419  0.1165  0.1430 -0.4536
 1645SOL    HW116397   1.060   3.164   5.323  1.8999  1.1565 -0.3687
 1645SOL    HW216398   1.099   3.067   5.419  2.2692  1.0872  2.4600
 1646SOL     OW16399   0.440   3.644   8.561  0.4056 -0.0216  0.8508
 1646SOL    HW116400   0.506   3.711   8.578  1.5747 -0.7317 -0.8611
 1646SOL    HW216401   0.449   3.581   8.633 -2.7181 -0.3830  0.9401
 1647SOL     OW16402   0.453   1.612   9.995  0.5999 -0.2222  0.5136
 1647SOL    HW116403   0.415   1.625  10.082 -0.4190 -1.8574  0.3215
 1647SOL    HW216404   0.533   1.563  10.014  0.7136 -0.3502 -0.3054
 1648SOL     OW16405   0.400   1.877   4.742  0.4106  0.0919 -0.4509
 1648SOL    HW116406   0.394   1.804   4.803 -1.4573 -0.0516 -0.8108
 1648SOL    HW216407   0.334   1.853   4.677  0.4352 -0.9895 -0.0632
 1649SOL     OW16408   0.479   3.910   8.029  0.4454 -0.1619 -0.1965
 1649SOL    HW116409   0.400   3.906   8.083  1.5759  0.0286  1.4866
 1649SOL    HW216410   0.486   4.006   8.022  1.6010 -0.4274 -2.6515
 1650SOL     OW16411   1.396   2.560   8.693 -0.2897  0.2724  0.4259
 1650SOL    HW116412   1.460   2.504   8.737  0.0965  0.3224 -0.0799
 1650SOL    HW216413   1.374   2.616   8.768 -0.1453  0.2037  0.5206
 1651SOL     OW16414   3.201   1.395   3.324 -0.3886 -0.0220 -0.1059
 1651SOL    HW116415   3.270   1.370   3.262 -0.3144 -1.7191  0.6456
 1651SOL    HW216416   3.146   1.436   3.258  1.1289  0.1598 -1.2629
 1652SOL     OW16417   3.630   2.808   8.124 -0.0735  0.3573  0.2162
 1652SOL    HW116418   3.647   2.758   8.044 -1.8522 -1.5716  1.0550
 1652SOL    HW216419   3.701   2.776   8.180 -0.3635  2.0763  1.5679
 1653SOL     OW16420   2.208   4.055   8.272 -0.4855 -0.2761 -0.1084
 1653SOL    HW116421   2.252   3.980   8.313 -0.2453 -1.0177 -1.7260
 1653SOL    HW216422   2.259   4.134   8.292 -0.7423 -0.2060  0.2691
 1654SOL     OW16423   1.271   0.112   6.075 -0.5598  0.2913  0.2317
 1654SOL    HW116424   1.312   0.070   6.150  1.0397  0.7232 -0.4078
 1654SOL    HW216425   1.345   0.124   6.015 -1.2392  0.8095 -0.5088
 1655SOL     OW16426   3.722   0.916   6.653 -0.2743 -0.2990  0.0918
 1655SOL    HW116427   3.693   0.836   6.610  1.9269 -1.0187 -0.0344
 1655SOL    HW216428   3.708   0.886   6.743 -0.1823  1.3469  0.6559
 1656SOL     OW16429   1.374   1.153   7.897  0.2546 -0.1122  0.4037
 1656SOL    HW116430   1.430   1.079   7.921  2.6706  0.9639 -1.9121
 1656SOL    HW216431   1.375   1.196   7.983 -1.1849  1.4593 -0.3752
 1657SOL     OW16432   0.935   0.345   8.075  0.0128 -0.2106 -0.4960
 1657SOL    HW116433   0.887   0.282   8.129 -0.8431 -0.3725 -1.4442
 1657SOL    HW216434   0.987   0.291   8.016 -0.2097  0.3700 -1.2369
 1658SOL     OW16435   2.961   3.996  10.556  0.0462  0.1372  0.5139
 1658SOL    HW116436   2.905   3.938  10.504  1.6701  0.5379 -1.6941
 1658SOL    HW216437   3.046   3.960  10.530 -1.5591 -3.8168  0.7354
 1659SOL     OW16438   0.448   4.442  11.407 -0.3901  0.1160  0.6304
 1659SOL    HW116439   0.457   4.467  11.315  1.0720  1.6192  1.1754
 1659SOL    HW216440   0.457   4.347  11.412  3.0557  0.4431  1.2672
 1660SOL     OW16441   3.549   3.909   6.679 -0.1818 -0.1291  0.3878
 1660SOL    HW116442   3.597   3.847   6.624 -0.4258  0.2453 -0.2481
 1660SOL    HW216443   3.597   3.888   6.759 -2.0143  0.3597  1.5985
 1661SOL     OW16444   4.413   1.974   8.495 -0.0071  0.1732  0.0446
 1661SOL    HW116445   4.348   1.945   8.431 -1.1171  0.8801  0.8490
 1661SOL    HW216446   4.353   1.978   8.570  1.0763 -1.3345  0.9804
 1662SOL     OW16447   0.697   0.654  14.447 -0.6729 -0.2898  0.2146
 1662SOL    HW116448   0.618   0.600  14.459  0.0204 -1.7890 -2.0227
 1662SOL    HW216449   0.745   0.633  14.527  0.4099 -1.5256 -0.7574
 1663SOL     OW16450   2.006   3.698   5.102 -0.2029  0.3482 -0.5891
 1663SOL    HW116451   1.960   3.676   5.183  0.4403  0.6832 -0.1242
 1663SOL    HW216452   2.082   3.741   5.144  0.8245 -0.2687 -1.8440
 1664SOL     OW16453   1.202   4.067   2.583 -0.1220  0.2179  0.5534
 1664SOL    HW116454   1.296   4.074   2.563 -0.4893  0.5039 -1.0698
 1664SOL    HW216455   1.181   4.154   2.615  1.5284  1.0107 -0.4964
 1665SOL     OW16456   4.398   1.574   3.640  0.4640  0.2322  0.4542
 1665SOL    HW116457   4.360   1.613   3.718 -1.1477 -0.7051  0.1453
 1665SOL    HW216458   4.391   1.482   3.667  1.3320  0.0319  0.0166
 1666SOL     OW16459   0.683   1.861  12.436  0.0868 -0.4819  0.0056
 1666SOL    HW116460   0.768   1.858  12.393  0.1737 -0.4593  0.1747
 1666SOL    HW216461   0.709   1.888  12.524 -1.5083  0.1367  0.3075
 1667SOL     OW16462   1.748   0.420   6.024  0.4346 -0.2520  0.1986
 1667SOL    HW116463   1.786   0.497   5.982 -0.4904 -0.3016 -0.7386
 1667SOL    HW216464   1.819   0.358   6.011 -0.4998 -1.5528  1.3851
 1668SOL     OW16465   2.599   1.556  13.749  0.0494  0.2973  0.2171
 1668SOL    HW116466   2.615   1.600  13.665 -0.6103  2.5192  1.2770
 1668SOL    HW216467   2.604   1.463  13.727  0.6283  0.8640 -2.0636
 1669SOL     OW16468   2.153   1.775   5.485 -0.3837 -0.6652  0.0650
 1669SOL    HW116469   2.214   1.730   5.543  1.5108  2.1052  0.2398
 1669SOL    HW216470   2.137   1.710   5.416  2.0796 -0.1509 -0.9971
 1670SOL     OW16471   2.868   4.500   8.934 -0.2100  0.2206 -0.4535
 1670SOL    HW116472   2.888   4.508   9.027  0.9063 -0.2284 -0.6632
 1670SOL    HW216473   2.953   4.480   8.895  0.1043  1.4488 -0.4036
 1671SOL     OW16474   2.891   2.267  10.102 -0.1493  0.2174 -0.1256
 1671SOL    HW116475   2.900   2.182  10.145  0.6659 -0.1156 -0.9496
 1671SOL    HW216476   2.978   2.303  10.118  0.0556  0.3587 -1.6048
 1672SOL     OW16477   1.096   1.703   1.714  0.0238  0.2825  0.1915
 1672SOL    HW116478   1.122   1.622   1.758 -0.3134 -0.3746 -0.8070
 1672SOL    HW216479   1.004   1.695   1.738 -0.5663  0.3441 -2.0114
 1673SOL     OW16480   4.585   1.175   8.455 -0.4424 -0.8867 -0.1192
 1673SOL    HW116481   4.593   1.125   8.374  0.0136 -2.5703  0.9581
 1673SOL    HW216482   4.609   1.266   8.439  0.8434 -1.0593  0.7510
 1674SOL     OW16483   4.450   4.365   6.991 -0.3249  0.1410 -0.1477
 1674SOL    HW116484   4.513   4.421   6.945  0.8403 -0.4422  0.7390
 1674SOL    HW216485   4.444   4.296   6.925  2.5809  0.9148 -1.2133
 1675SOL     OW16486   1.408   1.156   7.617  0.1397  0.1033  0.4790
 1675SOL    HW116487   1.326   1.205   7.626  1.3684  2.4874 -1.5751
 1675SOL    HW216488   1.439   1.169   7.707  1.4097 -0.9286  0.1993
 1676SOL     OW16489   2.179   3.986  13.197  0.1544  0.2429  0.3020
 1676SOL    HW116490   2.246   3.946  13.141 -1.0384 -1.2144 -0.0798
 1676SOL    HW216491   2.195   4.075  13.166 -0.1432 -0.2870 -1.3724
 1677SOL     OW16492   3.524   4.589  17.663 -0.2701 -0.2336 -0.0786
 1677SOL    HW116493   3.486   4.509   0.001  0.1651 -1.0579 -1.4535
 1677SOL    HW216494   3.605   4.557  17.624  0.1706  0.1274  0.5428
 1678SOL     OW16495   1.854   2.432   7.189 -0.2779 -0.1147 -0.3205
 1678SOL    HW116496   1.769   2.452   7.149  0.1912  2.7473  0.0886
 1678SOL    HW216497   1.898   2.517   7.183 -2.2255  1.0141  1.5249
 1679SOL     OW16498   0.663   2.158   5.321 -0.1879  0.5625 -0.2386
 1679SOL    HW116499   0.663   2.066   5.294  0.4771  1.2085 -2.4060
 1679SOL    HW216500   0.738   2.171   5.379 -0.0613 -1.6629  0.0780
 1680SOL     OW16501   2.746   3.187   4.922 -0.2434 -0.3963 -0.0361
 1680SOL    HW116502   2.713   3.266   4.880  2.6394  1.1094  0.5606
 1680SOL    HW216503   2.791   3.145   4.849 -2.2715 -1.8369 -0.4818
 1681SOL     OW16504   0.505   3.651  11.628 -0.2998 -0.1257 -0.3301
 1681SOL    HW116505   0.471   3.570  11.664  1.8160 -1.3462 -1.1073
 1681SOL    HW216506   0.541   3.618  11.546 -0.8957  1.9515 -1.4285
 1682SOL     OW16507   4.535   3.727  11.048  0.1471  0.2228  0.2466
 1682SOL    HW116508   4.451   3.683  11.031 -0.6211  0.9297  2.1585
 1682SOL    HW216509   4.504   3.809  11.086  2.0701  0.9198  0.2995
 1683SOL     OW16510   4.339   2.187  16.389 -0.2821  0.0901 -0.2271
 1683SOL    HW116511   4.324   2.252  16.319  1.2424  0.8276  0.1250
 1683SOL    HW216512   4.253   2.203  16.426 -0.2952  1.0693 -0.6847
 1684SOL     OW16513   0.696   1.542  13.111 -1.1146  0.0529 -0.5351
 1684SOL    HW116514   0.693   1.587  13.195  1.6395  1.0155 -0.9672
 1684SOL    HW216515   0.787   1.513  13.113 -1.6043 -1.5282 -1.4354
 1685SOL     OW16516   2.688   4.253   5.228 -0.7512 -0.1453 -0.1252
 1685SOL    HW116517   2.739   4.314   5.281 -0.6165  0.2511 -0.7108
 1685SOL    HW216518   2.749   4.180   5.217 -1.8287 -1.0438 -0.1416
 1686SOL     OW16519   1.301   0.813   2.263  0.1372  0.4091  1.1086
 1686SOL    HW116520   1.304   0.905   2.289 -1.7090 -0.8940  5.8702
 1686SOL    HW216521   1.394   0.809   2.242 -0.2523  0.6831 -0.6365
 1687SOL     OW16522   0.290   1.069  14.428  0.0092 -0.0947 -0.0257
 1687SOL    HW116523   0.312   1.158  14.455 -0.6032 -0.4891  1.7873
 1687SOL    HW216524   0.268   1.078  14.335  1.4862 -0.7963 -0.4389
 1688SOL     OW16525   2.785   0.416   8.381  0.3106 -0.0064 -0.1632
 1688SOL    HW116526   2.761   0.465   8.303 -0.8295 -0.0210  0.1790
 1688SOL    HW216527   2.733   0.456   8.450  0.9487 -0.1904  0.4240
 1689SOL     OW16528   0.135   4.319  11.372  0.6817  0.6681 -0.3103
 1689SOL    HW116529   0.200   4.260  11.409  0.5753  1.4936  1.2087
 1689SOL    HW216530   0.175   4.330  11.286 -0.9059 -0.8301 -1.2160
 1690SOL     OW16531   2.253   4.155  14.190 -0.0201 -0.0113  0.2364
 1690SOL    HW116532   2.311   4.107  14.130  0.9038  2.4840 -0.8711
 1690SOL    HW216533   2.294   4.134  14.274 -0.3396 -0.2986  0.3178
 1691SOL     OW16534   3.324   4.695   3.319  0.4945  0.5168 -0.2680
 1691SOL    HW116535   3.378   0.051   3.323 -1.9197  2.1189  0.1497
 1691SOL    HW216536   3.285   4.693   3.407  1.5902 -2.5060  0.1587
 1692SOL     OW16537   3.934   3.745   8.566  0.1128 -0.6444 -0.3854
 1692SOL    HW116538   3.948   3.810   8.497  0.9900  0.4984  0.8683
 1692SOL    HW216539   3.842   3.721   8.578  0.2408 -0.5695  0.7499
 1693SOL     OW16540   1.103   3.515   8.114  0.0118 -0.3714 -0.3208
 1693SOL    HW116541   1.131   3.593   8.163  0.6788 -0.8759  0.0960
 1693SOL    HW216542   1.047   3.466   8.173  2.6229 -0.3182  2.2042
 1694SOL     OW16543   2.522   1.210  12.224 -0.5655  0.1302 -0.3762
 1694SOL    HW116544   2.490   1.264  12.295 -0.0240 -0.7228  0.5132
 1694SOL    HW216545   2.599   1.257  12.193  0.4990 -1.2013  0.2370
 1695SOL     OW16546   0.217   2.149   7.757 -0.2375  0.7403  0.5864
 1695SOL    HW116547   0.131   2.134   7.797  0.2893  0.3885  1.5878
 1695SOL    HW216548   0.201   2.226   7.702 -1.9459 -1.0310 -1.4088
 1696SOL     OW16549   1.747   3.965   8.324 -0.5104 -0.3948  0.4205
 1696SOL    HW116550   1.736   3.876   8.290  0.9986  0.0052 -1.0982
 1696SOL    HW216551   1.680   3.955   8.392 -0.7821  0.6879  0.3229
 1697SOL     OW16552   2.656   2.550   9.696 -0.5345 -0.2194  0.0576
 1697SOL    HW116553   2.740   2.596   9.696  0.1500 -1.4753 -0.3252
 1697SOL    HW216554   2.687   2.459   9.692  0.4159 -0.0074  2.3194
 1698SOL     OW16555   4.381   1.172  15.921  0.1131  1.2239 -0.1442
 1698SOL    HW116556   4.300   1.121  15.929  1.4564 -0.5949  1.8028
 1698SOL    HW216557   4.379   1.194  16.014  1.8694 -1.2883  0.5008
 1699SOL     OW16558   3.050   2.415   3.333  0.4245 -1.1573  0.0091
 1699SOL    HW116559   3.102   2.335   3.344 -0.1232 -1.4022  0.8005
 1699SOL    HW216560   3.017   2.431   3.421  1.2150  0.2192  0.0503
 1700SOL     OW16561   2.214   2.913  12.807  0.4576  0.1693 -0.0369
 1700SOL    HW116562   2.196   2.954  12.723 -0.2349 -1.4594 -0.6747
 1700SOL    HW216563   2.126   2.898  12.843  1.0330  0.1435  1.3765
 1701SOL     OW16564   3.248   2.428   3.648  0.0177  0.1235 -0.4960
 1701SOL    HW116565   3.183   2.497   3.631  0.5488  0.6386 -0.4286
 1701SOL    HW216566   3.295   2.462   3.724  1.1124 -0.2103 -1.0312
 1702SOL     OW16567   1.548   4.352  12.163 -0.2507  0.1546 -0.4991
 1702SOL    HW116568   1.554   4.289  12.234 -0.0301  0.4170 -0.2842
 1702SOL    HW216569   1.473   4.399  12.201 -2.1602 -2.9376 -0.5006
 1703SOL     OW16570   0.516   0.866   4.307 -0.0881 -0.6214 -0.2292
 1703SOL    HW116571   0.429   0.859   4.268 -1.3375  1.7594  2.1713
 1703SOL    HW216572   0.507   0.792   4.367  1.4005  0.6118  1.5157
 1704SOL     OW16573   1.282   4.707  11.076  0.3101  0.3889 -0.0867
 1704SOL    HW116574   1.247   4.715  10.987 -0.1285 -2.4231 -0.1804
 1704SOL    HW216575   1.207   4.714  11.134  1.8334 -0.3550  1.9613
 1705SOL     OW16576   0.647   3.649   0.136  1.0113 -0.3550 -0.0583
 1705SOL    HW116577   0.595   3.571   0.157  0.6784 -0.1895 -0.2614
 1705SOL    HW216578   0.707   3.618   0.068  2.3570  0.3784  0.7880
 1706SOL     OW16579   1.036   1.717   3.630  0.4895 -0.5336  0.1282
 1706SOL    HW116580   1.112   1.698   3.685  0.1160  0.9197  1.1620
 1706SOL    HW216581   1.070   1.695   3.544  0.4757  0.6847 -0.1818
 1707SOL     OW16582   1.748   1.606   2.363  0.5616  0.3645 -0.2650
 1707SOL    HW116583   1.823   1.662   2.340  1.3315 -1.6245 -2.5832
 1707SOL    HW216584   1.682   1.674   2.377 -0.4825 -0.6954 -0.0586
 1708SOL     OW16585   3.784   3.400   9.316 -0.4999 -0.3133 -0.3052
 1708SOL    HW116586   3.856   3.440   9.366 -0.1184  0.1359 -1.2182
 1708SOL    HW216587   3.738   3.470   9.269 -0.4316 -1.5873 -2.2484
 1709SOL     OW16588   2.261   0.816  14.069 -0.4201 -0.1685 -0.2286
 1709SOL    HW116589   2.278   0.910  14.079 -0.6411 -0.0233 -1.2191
 1709SOL    HW216590   2.203   0.834  13.996 -1.7455 -0.0604  0.8596
 1710SOL     OW16591   2.151   3.445  10.843  0.1439  0.2641  0.9715
 1710SOL    HW116592   2.125   3.452  10.934  0.0098  1.8238  0.8032
 1710SOL    HW216593   2.210   3.520  10.844 -0.3769  0.7075 -0.4616
 1711SOL     OW16594   2.632   4.008  15.873  0.1522 -1.3246 -0.1462
 1711SOL    HW116595   2.541   3.981  15.890  0.6851 -2.5303  0.8096
 1711SOL    HW216596   2.678   3.926  15.892  2.5799 -0.3568 -1.8679
 1712SOL     OW16597   2.676   3.535  10.005  0.0876 -0.4259 -0.1696
 1712SOL    HW116598   2.727   3.503   9.930  2.6260  0.1010  1.3328
 1712SOL    HW216599   2.704   3.627  10.003 -1.7948  0.1585  0.1277
 1713SOL     OW16600   1.597   3.270  17.596 -0.1012  0.1464 -0.0652
 1713SOL    HW116601   1.571   3.180  17.615  0.6813 -0.1327 -0.3295
 1713SOL    HW216602   1.614   3.264  17.502 -0.7553 -0.1324 -0.1681
 1714SOL     OW16603   1.750   2.381   8.972 -0.2593 -0.3531 -0.3159
 1714SOL    HW116604   1.841   2.372   8.945 -0.0177 -1.1622  0.7403
 1714SOL    HW216605   1.756   2.359   9.065 -0.3526  0.0052 -0.2240
 1715SOL     OW16606   2.294   0.618   9.028  0.1670  0.3657 -0.4351
 1715SOL    HW116607   2.318   0.528   9.005  1.7039  0.8589 -0.7744
 1715SOL    HW216608   2.355   0.666   8.972 -0.8466  1.7132 -0.3823
 1716SOL     OW16609   3.596   1.562   1.936 -0.1585  0.3280 -0.6108
 1716SOL    HW116610   3.616   1.487   1.992  1.8714  1.8910  0.7218
 1716SOL    HW216611   3.556   1.526   1.857 -0.9149 -0.3219  0.0765
 1717SOL     OW16612   4.022   3.968   7.335 -0.2588 -0.1329  0.3053
 1717SOL    HW116613   3.948   3.907   7.338  1.2628 -1.7924  4.3920
 1717SOL    HW216614   4.081   3.920   7.277  1.2372  1.4780  0.4793
 1718SOL     OW16615   0.173   1.877   6.942 -0.4170  0.4738 -0.6748
 1718SOL    HW116616   0.140   1.955   6.987 -0.8136  0.2009 -0.4948
 1718SOL    HW216617   0.267   1.895   6.939 -0.0889 -1.1110 -0.1586
 1719SOL     OW16618   1.809   0.969  11.580 -0.3951 -0.6105 -0.2894
 1719SOL    HW116619   1.789   1.043  11.522 -0.3059 -0.2315  0.1590
 1719SOL    HW216620   1.828   1.014  11.663 -0.8609 -1.2781  0.1741
 1720SOL     OW16621   3.975   0.702   9.994 -0.1558 -0.2911  0.3125
 1720SOL    HW116622   3.888   0.670  10.016  0.3341 -1.2112  0.8904
 1720SOL    HW216623   4.004   0.641   9.926 -2.9081  0.6524 -1.7130
 1721SOL     OW16624   0.783   2.344  12.553 -0.1997 -0.2295  0.2804
 1721SOL    HW116625   0.715   2.316  12.615  0.3699  1.0634  1.5192
 1721SOL    HW216626   0.742   2.342  12.467  1.7597  3.5588 -0.7312
 1722SOL     OW16627   2.598   4.664   4.577 -0.2531 -0.0885  0.9405
 1722SOL    HW116628   2.517   4.649   4.625 -1.3716  1.3650 -0.4897
 1722SOL    HW216629   2.569   0.025   4.544 -0.6283 -0.3703  0.5399
 1723SOL     OW16630   1.157   3.585  10.152 -0.3700 -0.0012  0.7427
 1723SOL    HW116631   1.074   3.630  10.170 -0.8054 -0.1087 -0.9941
 1723SOL    HW216632   1.133   3.493  10.150 -1.5330  0.2744  2.2570
 1724SOL     OW16633   0.155   2.244  13.102 -0.2905  0.0887  0.0960
 1724SOL    HW116634   0.141   2.177  13.169  1.6914  0.3211  0.7456
 1724SOL    HW216635   0.242   2.214  13.075 -0.4354 -1.4963  1.4044
 1725SOL     OW16636   4.494   3.613  13.530  0.3447  0.4851 -0.1230
 1725SOL    HW116637   4.514   3.625  13.437 -0.4137 -1.7594 -0.5760
 1725SOL    HW216638   4.436   3.688  13.539 -1.2049 -0.6720 -0.5569
 1726SOL     OW16639   1.860   1.638   3.644  0.0259  0.4973  0.1279
 1726SOL    HW116640   1.930   1.664   3.704 -0.1545 -0.4359  0.7352
 1726SOL    HW216641   1.873   1.696   3.568  2.1158 -0.3632 -0.1802
 1727SOL     OW16642   1.146   4.073   5.812 -0.2258  0.0736 -0.6639
 1727SOL    HW116643   1.071   4.014   5.804 -2.2597  2.4050  1.0567
 1727SOL    HW216644   1.206   4.038   5.747 -0.9603  0.3242 -1.4714
 1728SOL     OW16645   0.911   0.939   3.237  0.5965  0.3538  0.0250
 1728SOL    HW116646   0.839   0.990   3.199  1.1350  1.3190  0.2928
 1728SOL    HW216647   0.921   0.858   3.188  2.4818  1.1944 -0.9886
 1729SOL     OW16648   1.524   4.700  10.299 -0.0102  0.7384  0.0566
 1729SOL    HW116649   1.571   0.046  10.254  0.3061  0.5387  0.0708
 1729SOL    HW216650   1.592   4.637  10.322 -0.6235  0.8576  2.2783
 1730SOL     OW16651   3.703   4.663   7.184 -0.2709  1.0010  0.0380
 1730SOL    HW116652   3.754   4.620   7.253 -0.9179  0.0632 -0.0638
 1730SOL    HW216653   3.697   4.587   7.126  2.4206  0.5808  0.2920
 1731SOL     OW16654   2.426   3.528   6.358  0.0777  0.2821  0.5777
 1731SOL    HW116655   2.499   3.575   6.396  1.4167 -1.0958 -0.2900
 1731SOL    HW216656   2.386   3.599   6.308  1.5852 -0.1042 -1.1884
 1732SOL     OW16657   2.214   2.220   2.171 -0.1347 -0.7204 -0.4893
 1732SOL    HW116658   2.158   2.146   2.191 -0.3600  0.2827  2.6419
 1732SOL    HW216659   2.170   2.262   2.097 -1.2062 -0.2211  0.4381
 1733SOL     OW16660   1.787   2.045   6.463 -0.0872 -0.2634  0.5329
 1733SOL    HW116661   1.722   1.976   6.449 -1.8252  1.4285  0.2325
 1733SOL    HW216662   1.739   2.118   6.502  1.1222 -0.1180  1.7337
 1734SOL     OW16663   4.119   3.540   8.585  0.2125 -0.6491  0.1368
 1734SOL    HW116664   4.174   3.616   8.567  0.0070 -0.7566 -0.9520
 1734SOL    HW216665   4.034   3.584   8.598 -0.0242 -1.3640  1.0081
 1735SOL     OW16666   0.246   4.468   5.702  0.2156 -0.1105  0.3441
 1735SOL    HW116667   0.153   4.489   5.693 -0.3282 -1.8818  1.7508
 1735SOL    HW216668   0.253   4.477   5.797  1.6589 -0.2140  0.2527
 1736SOL     OW16669   3.872   4.513   1.522  0.0068 -0.4284 -0.2439
 1736SOL    HW116670   3.966   4.525   1.512  0.3260 -1.6298  1.3488
 1736SOL    HW216671   3.869   4.435   1.467 -1.4268  0.5412 -1.5309
 1737SOL     OW16672   2.167   3.759  14.444  0.2000 -0.2015 -0.2651
 1737SOL    HW116673   2.252   3.726  14.473  1.3836  2.1993 -1.0121
 1737SOL    HW216674   2.118   3.773  14.525  1.6050  1.9658  0.1905
 1738SOL     OW16675   2.492   2.406   6.613  0.1056 -0.4905  0.2469
 1738SOL    HW116676   2.569   2.433   6.663 -0.4697 -1.1081  1.4541
 1738SOL    HW216677   2.455   2.351   6.682 -0.5084 -1.7948 -1.1330
 1739SOL     OW16678   2.262   4.299   0.886  0.6442 -0.0963 -0.6982
 1739SOL    HW116679   2.247   4.270   0.976 -0.3148 -0.0666 -0.8491
 1739SOL    HW216680   2.332   4.361   0.909  1.4075 -0.5792 -1.6936
 1740SOL     OW16681   1.171   2.397   4.399 -0.5649  0.3200 -0.2644
 1740SOL    HW116682   1.089   2.437   4.427 -0.0126  0.9921  0.3926
 1740SOL    HW216683   1.223   2.477   4.400 -0.5214  0.2872  2.6868
 1741SOL     OW16684   3.770   1.238   7.172 -0.3697  0.1131  0.0023
 1741SOL    HW116685   3.738   1.172   7.233 -0.4439 -0.1587 -0.3317
 1741SOL    HW216686   3.689   1.286   7.157 -1.4502 -1.2351  1.5596
 1742SOL     OW16687   1.482   0.486   7.074  0.4311 -0.6087 -0.1005
 1742SOL    HW116688   1.461   0.451   6.988 -0.7102  0.0068 -0.0771
 1742SOL    HW216689   1.404   0.533   7.104 -0.4851 -3.1306  1.4992
 1743SOL     OW16690   3.610   3.486   9.611  0.5408  0.0613 -0.6914
 1743SOL    HW116691   3.575   3.397   9.609 -0.1041  0.3307 -1.2718
 1743SOL    HW216692   3.606   3.514   9.520  0.2984  0.4073 -0.5731
 1744SOL     OW16693   3.959   0.993   5.098 -0.7030  0.0536 -0.0330
 1744SOL    HW116694   4.003   1.005   5.182  2.0579  2.1293 -1.7789
 1744SOL    HW216695   3.996   1.064   5.045  0.9305  0.1478  1.2210
 1745SOL     OW16696   1.443   3.994  14.333 -0.0144 -0.0172 -0.4059
 1745SOL    HW116697   1.492   4.020  14.255  1.8898 -0.8793  0.4874
 1745SOL    HW216698   1.465   3.900  14.334  1.4959  0.3173 -1.6382
 1746SOL     OW16699   3.204   0.970   3.847  0.6049 -0.1170  0.1256
 1746SOL    HW116700   3.131   0.990   3.788  2.1185  1.7613 -1.1199
 1746SOL    HW216701   3.278   1.018   3.810  1.0785  1.0900  2.6692
 1747SOL     OW16702   0.812   3.433  17.059  0.0142  0.0119  0.4936
 1747SOL    HW116703   0.825   3.486  16.981 -1.2999  0.5142  0.6244
 1747SOL    HW216704   0.889   3.377  17.053 -1.2468 -1.4017 -2.4432
 1748SOL     OW16705   0.885   3.351   7.294  1.2637 -0.3776  0.2232
 1748SOL    HW116706   0.869   3.445   7.295  2.1278 -0.2361  3.1080
 1748SOL    HW216707   0.846   3.329   7.210  1.4196  0.8225 -0.1645
 1749SOL     OW16708   3.205   4.614   1.248  0.1225  0.7454 -0.6357
 1749SOL    HW116709   3.236   4.536   1.201 -0.5788  0.9492 -1.4354
 1749SOL    HW216710   3.111   4.603   1.237  0.3521 -1.1346 -0.8240
 1750SOL     OW16711   0.174   0.332  17.131  0.0187  0.3693 -0.1690
 1750SOL    HW116712   0.174   0.427  17.120  2.2045  0.4337  0.3384
 1750SOL    HW216713   0.270   0.323  17.135  0.0042  0.5669  0.7484
 1751SOL     OW16714   2.934   4.092   3.946  0.1067  0.1650  0.2976
 1751SOL    HW116715   3.025   4.064   3.956 -0.3619 -1.8298 -0.9554
 1751SOL    HW216716   2.889   4.056   4.022  1.0525 -0.9953  0.2997
 1752SOL     OW16717   1.365   2.740   4.715  0.0432  0.2758 -0.2637
 1752SOL    HW116718   1.430   2.689   4.764 -2.5332 -1.8316  0.9217
 1752SOL    HW216719   1.285   2.701   4.749  1.2797 -0.1015  2.2006
 1753SOL     OW16720   2.011   0.695   4.962  0.1467 -0.1888  0.1212
 1753SOL    HW116721   2.010   0.682   5.057 -0.9959  1.0211  0.2735
 1753SOL    HW216722   1.928   0.741   4.950  0.2680 -0.5671 -2.2970
 1754SOL     OW16723   3.059   2.937  15.509 -0.7034  0.1368 -0.8316
 1754SOL    HW116724   2.968   2.909  15.495 -1.2831  1.9600 -0.6923
 1754SOL    HW216725   3.090   2.878  15.578 -2.2288  1.3140  0.8499
 1755SOL     OW16726   0.923   4.050   4.306  0.3574 -1.1187  0.3937
 1755SOL    HW116727   0.942   3.976   4.248  0.4881 -0.4103 -0.4690
 1755SOL    HW216728   0.858   4.103   4.260 -0.2894 -1.8729  0.4354
 1756SOL     OW16729   1.484   4.092   3.158 -0.2268  0.8445  0.2139
 1756SOL    HW116730   1.553   4.151   3.127  0.5437 -1.0624 -1.7102
 1756SOL    HW216731   1.403   4.141   3.143  0.5627  2.6201  1.7600
 1757SOL     OW16732   1.548   4.415   5.860  0.3626  0.1735 -0.0706
 1757SOL    HW116733   1.614   4.404   5.792  0.7630  0.7880  0.2259
 1757SOL    HW216734   1.599   4.390   5.937 -3.3081 -1.7306  1.7183
 1758SOL     OW16735   4.047   1.955   4.289 -0.1286  0.3619 -0.7595
 1758SOL    HW116736   4.024   1.973   4.380 -0.0253  0.7331 -0.8045
 1758SOL    HW216737   4.104   2.030   4.271  0.3763  0.3470  0.7843
 1759SOL     OW16738   1.439   0.449  16.335 -0.2912 -0.5017  0.3589
 1759SOL    HW116739   1.527   0.475  16.361 -0.7943  0.1979  1.3560
 1759SOL    HW216740   1.443   0.484  16.246  1.9967  1.8742  1.3998
 1760SOL     OW16741   1.555   0.492   9.887 -0.4151 -0.6980 -0.2416
 1760SOL    HW116742   1.505   0.535   9.817 -0.0011 -0.5176 -0.4241
 1760SOL    HW216743   1.645   0.493   9.855 -0.8393 -2.1232 -1.4854
 1761SOL     OW16744   3.221   0.692  12.970 -0.0509 -0.6425 -0.6988
 1761SOL    HW116745   3.301   0.642  12.985  1.3514  2.4510  2.1426
 1761SOL    HW216746   3.254   0.750  12.901 -1.9420 -1.2659 -2.1100
 1762SOL     OW16747   1.199   3.483   9.886 -0.2794 -0.1097 -0.7557
 1762SOL    HW116748   1.193   3.527   9.971  1.0663  0.5689 -1.0084
 1762SOL    HW216749   1.197   3.391   9.915 -2.0459  0.6393  1.4619
 1763SOL     OW16750   4.529   2.892   8.015  0.3374 -0.0935 -0.2127
 1763SOL    HW116751   4.587   2.965   8.038  0.7835 -0.3377 -0.5627
 1763SOL    HW216752   4.450   2.931   7.976  1.7073  2.5761 -0.3222
 1764SOL     OW16753   2.886   4.627   8.195 -0.1812 -0.5022 -0.4747
 1764SOL    HW116754   2.972   4.667   8.207  0.5802 -1.7488 -1.7717
 1764SOL    HW216755   2.838   4.710   8.187 -1.5852 -1.4546 -1.9425
 1765SOL     OW16756   1.806   0.980   8.850  0.3599  0.0502 -0.3847
 1765SOL    HW116757   1.891   0.938   8.838  0.8076  0.7100  0.4474
 1765SOL    HW216758   1.781   0.947   8.937  2.7111  1.9278  0.9905
 1766SOL     OW16759   0.017   1.953   3.177 -0.0759 -0.6597 -0.2483
 1766SOL    HW116760   4.656   1.938   3.217  0.8555 -0.4586  1.8176
 1766SOL    HW216761   0.013   2.048   3.170 -1.9144 -0.8041 -1.1505
 1767SOL     OW16762   3.976   2.907   8.996  0.2433 -0.0989  0.7324
 1767SOL    HW116763   3.882   2.900   9.010 -0.0452 -0.4017 -1.3101
 1767SOL    HW216764   4.003   2.972   9.060 -0.0901  1.9960 -1.2740
 1768SOL     OW16765   3.224   2.693   9.956  0.6150  0.2726  0.6921
 1768SOL    HW116766   3.171   2.770   9.938  2.0719  0.4534 -2.9174
 1768SOL    HW216767   3.307   2.734   9.979  1.1740  0.1142 -1.0570
 1769SOL     OW16768   0.134   0.814   6.420 -0.0054 -0.0227  0.1105
 1769SOL    HW116769   0.104   0.877   6.486  1.3598 -0.0421  0.7335
 1769SOL    HW216770   0.075   0.830   6.346 -0.0232 -1.0074 -0.0891
 1770SOL     OW16771   3.392   2.553  15.356 -0.2539  0.3566 -0.0740
 1770SOL    HW116772   3.370   2.508  15.274 -0.2985 -1.8648  1.1568
 1770SOL    HW216773   3.448   2.623  15.322  0.5241 -0.6689 -0.8947
 1771SOL     OW16774   2.475   2.320   2.398  0.9829 -0.0809  0.0028
 1771SOL    HW116775   2.530   2.244   2.418  1.1170 -0.2485 -0.9840
 1771SOL    HW216776   2.523   2.376   2.459  0.5321 -0.4075  0.6421
 1772SOL     OW16777   2.924   1.159   8.231 -0.0611  0.1252  0.2388
 1772SOL    HW116778   2.831   1.145   8.249 -0.4192  1.3662 -0.6679
 1772SOL    HW216779   2.942   1.252   8.242 -3.3345  0.8834 -0.6037
 1773SOL     OW16780   3.979   0.622   5.740  0.2650  0.3869  0.1658
 1773SOL    HW116781   3.957   0.534   5.708  0.9934  0.1522  0.3081
 1773SOL    HW216782   4.040   0.595   5.809  0.8812 -0.3585 -0.6744
 1774SOL     OW16783   3.589   2.950   6.501 -0.0708 -0.4214  0.3464
 1774SOL    HW116784   3.592   3.034   6.548 -0.1441  0.2920 -0.9134
 1774SOL    HW216785   3.501   2.954   6.463  1.0762 -0.1262 -2.2854
 1775SOL     OW16786   2.449   3.405  10.604 -0.2089  0.3751  0.1005
 1775SOL    HW116787   2.424   3.495  10.585  0.0189  0.2068 -0.9661
 1775SOL    HW216788   2.468   3.414  10.698  3.1021 -1.6082 -0.3631
 1776SOL     OW16789   2.999   1.247   6.239  0.1574 -0.5614  0.1238
 1776SOL    HW116790   3.028   1.157   6.224 -1.1860 -0.7932 -1.0130
 1776SOL    HW216791   3.038   1.289   6.162 -2.0329  1.4710  0.1482
 1777SOL     OW16792   4.648   2.653   6.818 -0.1728 -0.0225  0.3803
 1777SOL    HW116793   4.631   2.558   6.818 -2.0510  0.3045 -0.5229
 1777SOL    HW216794   0.015   2.654   6.789  0.0012  1.1314  0.9943
 1778SOL     OW16795   0.845   1.196   7.044 -0.2784  0.1457  0.2234
 1778SOL    HW116796   0.755   1.213   7.015 -0.5057  0.1086  0.8990
 1778SOL    HW216797   0.850   1.100   7.037 -0.3430  0.1716 -0.1731
 1779SOL     OW16798   4.646   1.692   3.706  0.0192  0.0885 -0.2056
 1779SOL    HW116799   4.656   1.607   3.748  0.2969  1.2147  2.0299
 1779SOL    HW216800   4.565   1.680   3.655  1.6352 -2.6112 -2.1052
 1780SOL     OW16801   2.296   2.108   2.570 -0.3137 -0.7529 -0.8815
 1780SOL    HW116802   2.390   2.114   2.551 -0.4957  0.3803 -1.3719
 1780SOL    HW216803   2.296   2.121   2.665  2.1028  0.4899 -1.0459
 1781SOL     OW16804   0.073   4.506   4.809  0.1400  0.0400 -0.2976
 1781SOL    HW116805   0.145   4.444   4.804  0.2240  0.0278  1.1025
 1781SOL    HW216806   0.065   4.533   4.718  1.3757  1.6722  0.0655
 1782SOL     OW16807   4.179   1.434  11.703  0.0737  0.1659  0.5375
 1782SOL    HW116808   4.107   1.417  11.764 -0.2324 -0.5725 -0.0419
 1782SOL    HW216809   4.258   1.443  11.757  0.2402 -2.4041  0.7134
 1783SOL     OW16810   4.377   2.747  11.325 -0.5870 -0.0898 -0.0313
 1783SOL    HW116811   4.341   2.690  11.257  1.9357 -1.1353 -0.4969
 1783SOL    HW216812   4.469   2.722  11.314  0.0490  1.2122  2.2670
 1784SOL     OW16813   3.785   3.575   1.818 -0.6829  0.0552 -0.2702
 1784SOL    HW116814   3.831   3.509   1.765 -0.8217 -0.2654  0.0109
 1784SOL    HW216815   3.820   3.570   1.907 -1.2421  1.4083  0.0274
 1785SOL     OW16816   4.071   1.442   7.684  0.1537 -0.5818 -0.7395
 1785SOL    HW116817   4.139   1.387   7.646 -0.1188 -3.1508  2.4870
 1785SOL    HW216818   4.048   1.390   7.761 -0.7082  0.3822 -0.3403
 1786SOL     OW16819   0.817   2.425   2.859 -0.5025 -0.1062 -0.6187
 1786SOL    HW116820   0.784   2.359   2.798  0.9472 -2.6625  1.4021
 1786SOL    HW216821   0.910   2.405   2.864 -0.9766 -1.3888  3.0777
 1787SOL     OW16822   0.371   0.088  11.204  0.0714 -0.4542  0.6777
 1787SOL    HW116823   0.453   0.039  11.205 -1.2280 -2.6310  1.6350
 1787SOL    HW216824   0.394   0.160  11.146  0.1100 -2.0865 -1.3136
 1788SOL     OW16825   2.161   4.406   4.560  0.9590 -0.3297  0.8333
 1788SOL    HW116826   2.245   4.390   4.516  0.0487 -0.1414 -0.9540
 1788SOL    HW216827   2.174   4.496   4.592  0.9563 -0.1876  0.4446
 1789SOL     OW16828   0.224   2.196  10.291 -0.0698  1.0721  0.1008
 1789SOL    HW116829   0.268   2.123  10.334 -2.8393 -0.1123  0.9261
 1789SOL    HW216830   0.156   2.143  10.248  1.2387 -0.3075 -0.2966
 1790SOL     OW16831   3.623   0.910   3.361 -0.5252 -0.2028 -0.2613
 1790SOL    HW116832   3.703   0.946   3.398 -1.0941 -1.2990  2.0373
 1790SOL    HW216833   3.639   0.897   3.267 -0.1910 -0.1239 -0.2132
 1791SOL     OW16834   2.404   0.818   6.705  0.3628  0.3963  0.5468
 1791SOL    HW116835   2.499   0.817   6.718  0.1310 -2.3734  2.0498
 1791SOL    HW216836   2.388   0.896   6.652 -0.4254  0.6757  1.2050
 1792SOL     OW16837   2.546   2.017  11.427 -0.0082 -0.3557  0.2285
 1792SOL    HW116838   2.599   2.004  11.505  2.2833  2.4045 -0.8675
 1792SOL    HW216839   2.607   1.999  11.356 -2.1391 -0.0405 -1.6763
 1793SOL     OW16840   1.735   3.153   6.507  0.1193 -0.1107  0.2323
 1793SOL    HW116841   1.717   3.211   6.582  0.8323  0.8360 -0.3247
 1793SOL    HW216842   1.813   3.103   6.531 -1.0242 -1.1088  1.8376
 1794SOL     OW16843   0.032   3.123   7.880 -0.6005  0.2797 -0.0456
 1794SOL    HW116844   0.080   3.115   7.962 -1.6720 -1.5038  0.3944
 1794SOL    HW216845   0.093   3.174   7.826  0.2616 -0.6893  0.0092
 1795SOL     OW16846   2.747   2.012  11.603  0.6709 -0.5397  0.6467
 1795SOL    HW116847   2.730   2.053  11.688 -0.0515  2.7237 -1.0807
 1795SOL    HW216848   2.720   1.925  11.632 -1.2150 -0.0356  0.4366
 1796SOL     OW16849   1.027   4.150  10.355 -0.3300  0.0093  0.7091
 1796SOL    HW116850   1.077   4.075  10.387 -0.8096 -0.3008  0.7215
 1796SOL    HW216851   1.100   4.205  10.327  0.5663 -1.7356 -0.3815
 1797SOL     OW16852   1.466   2.769   0.670  0.6033  0.1809 -0.2160
 1797SOL    HW116853   1.561   2.779   0.659  0.8632 -0.8851  0.9712
 1797SOL    HW216854   1.457   2.674   0.673  1.1980  0.0855 -1.8723
 1798SOL     OW16855   4.167   2.684   6.429  0.2552  0.3090  0.5057
 1798SOL    HW116856   4.139   2.774   6.449  2.9764  1.0434  0.9833
 1798SOL    HW216857   4.180   2.697   6.335  2.6686 -1.6379  0.5679
 1799SOL     OW16858   2.335   2.970  16.850 -0.0199  0.4021 -0.2728
 1799SOL    HW116859   2.288   2.951  16.769  1.4494 -1.7435 -0.6300
 1799SOL    HW216860   2.292   3.046  16.890 -0.9677 -1.5153  2.3967
 1800SOL     OW16861   2.131   2.207  16.041  0.3983 -0.1778 -0.1578
 1800SOL    HW116862   2.147   2.291  15.998  1.5491 -0.2939  0.0340
 1800SOL    HW216863   2.144   2.139  15.975  1.1339 -0.0048 -0.1873
 1801SOL     OW16864   3.527   4.339   2.962 -0.0644 -0.2166  0.4826
 1801SOL    HW116865   3.529   4.434   2.974  0.0068 -0.5761  3.3119
 1801SOL    HW216866   3.561   4.295   3.039 -0.8307  0.8371  1.4213
 1802SOL     OW16867   2.073   3.525  11.462  0.0485  0.3431 -0.1723
 1802SOL    HW116868   2.074   3.600  11.403 -1.3371 -0.9785 -1.9183
 1802SOL    HW216869   2.078   3.465  11.387  0.4019 -1.9295  1.6444
 1803SOL     OW16870   0.901   0.425  12.791 -0.1942  0.7199 -0.6392
 1803SOL    HW116871   0.981   0.462  12.752  0.1151  0.2611 -0.4405
 1803SOL    HW216872   0.926   0.336  12.815 -3.5192  0.5928  2.3747
 1804SOL     OW16873   4.525   3.257  15.483 -0.0902  0.5868 -0.3272
 1804SOL    HW116874   4.576   3.262  15.402  0.3450 -1.9017 -0.2016
 1804SOL    HW216875   4.469   3.183  15.459  0.4307  0.8949 -2.5004
 1805SOL     OW16876   4.636   2.318   8.733 -1.2809 -0.2326  0.3276
 1805SOL    HW116877   4.607   2.356   8.816  0.3970 -1.3774  1.4369
 1805SOL    HW216878   4.703   2.382   8.709 -0.4725 -1.7193 -1.3320
 1806SOL     OW16879   1.426   1.900  13.271 -0.3869  0.4074  0.3079
 1806SOL    HW116880   1.502   1.855  13.308  1.7093  2.7436 -1.2507
 1806SOL    HW216881   1.435   1.869  13.181  0.0446 -0.6094  0.7019
 1807SOL     OW16882   2.618   3.848   0.413 -0.2758  0.6230  0.3249
 1807SOL    HW116883   2.601   3.818   0.324  1.6928 -0.3986  0.2988
 1807SOL    HW216884   2.562   3.798   0.473 -0.8861 -0.3195 -1.0158
 1808SOL     OW16885   1.522   4.295   8.731  0.6675  0.3833 -0.1734
 1808SOL    HW116886   1.448   4.352   8.709  0.1812 -0.8807 -1.8446
 1808SOL    HW216887   1.590   4.361   8.730  2.8002 -1.8523 -1.7554
 1809SOL     OW16888   3.122   1.655   7.575  0.2543  0.2308  0.4208
 1809SOL    HW116889   3.180   1.696   7.511 -0.1878 -0.0550 -0.1606
 1809SOL    HW216890   3.091   1.736   7.616  0.2420  1.4446 -1.9628
 1810SOL     OW16891   1.955   3.852   0.096 -0.3263 -0.3535 -0.3659
 1810SOL    HW116892   1.896   3.910   0.145  0.4864 -2.1156  2.6230
 1810SOL    HW216893   2.003   3.805   0.164  0.5702 -0.0320 -0.7707
 1811SOL     OW16894   2.360   3.394  15.378  0.0049  0.3680 -0.5311
 1811SOL    HW116895   2.320   3.403  15.464  0.9665  0.9480 -0.1492
 1811SOL    HW216896   2.284   3.371  15.324 -0.1237  0.4070 -0.3646
 1812SOL     OW16897   3.893   0.835  11.500  0.0026  0.3862  0.4407
 1812SOL    HW116898   3.863   0.853  11.411  1.8443  0.4751 -0.1585
 1812SOL    HW216899   3.959   0.904  11.505  2.3491 -1.8375 -0.3072
 1813SOL     OW16900   1.557   0.572   0.678  0.7061  0.3902  0.2232
 1813SOL    HW116901   1.512   0.549   0.596  0.7786 -0.2101  0.3517
 1813SOL    HW216902   1.487   0.611   0.730  0.1159 -0.4845  0.0883
 1814SOL     OW16903   3.539   0.924   7.791  0.3114  0.0909 -0.5581
 1814SOL    HW116904   3.466   0.886   7.839  1.9184  2.7488  3.9759
 1814SOL    HW216905   3.565   0.848   7.739 -0.1799 -1.5149  1.5620
 1815SOL     OW16906   4.026   3.628   3.149 -0.4853 -0.1572  0.4509
 1815SOL    HW116907   3.960   3.660   3.088 -0.4255 -0.9888 -0.0583
 1815SOL    HW216908   3.978   3.562   3.200 -0.1201 -0.8019 -0.0475
 1816SOL     OW16909   1.810   4.407   9.630 -0.2894 -0.1984  0.4264
 1816SOL    HW116910   1.830   4.438   9.541  1.2477  1.6965  1.4384
 1816SOL    HW216911   1.861   4.456   9.694  0.5276 -1.3578  0.6668
 1817SOL     OW16912   2.409   4.052   9.920  0.3475 -0.3329 -0.7099
 1817SOL    HW116913   2.327   4.012   9.891  0.1204  0.0504 -0.5943
 1817SOL    HW216914   2.462   3.992   9.973  0.4508  0.1769 -0.2309
 1818SOL     OW16915   1.164   3.165   2.799 -0.2864 -0.1620  0.1721
 1818SOL    HW116916   1.121   3.099   2.853 -0.2884  0.2211  0.6391
 1818SOL    HW216917   1.256   3.138   2.795 -0.8062 -1.7628 -1.0317
 1819SOL     OW16918   0.998   1.369   1.548 -0.4777 -0.1516  0.2942
 1819SOL    HW116919   1.051   1.289   1.547  2.1169  1.5748 -1.3990
 1819SOL    HW216920   1.067   1.429   1.576 -1.2895  1.1092 -0.4423
 1820SOL     OW16921   0.573   3.501  14.664 -0.1652  0.4496 -0.2742
 1820SOL    HW116922   0.559   3.550  14.745 -1.1309 -0.6032  0.1983
 1820SOL    HW216923   0.520   3.544  14.597 -1.5509 -1.4807 -0.4006
 1821SOL     OW16924   3.706   3.940   9.773 -0.1113  0.7009 -0.2097
 1821SOL    HW116925   3.717   3.856   9.817 -2.2459  0.0102 -0.9475
 1821SOL    HW216926   3.714   3.996   9.850 -0.3875 -0.4550  0.6411
 1822SOL     OW16927   3.476   4.105   1.190  0.1995 -0.1017  0.0940
 1822SOL    HW116928   3.542   4.163   1.228  0.6922 -0.9852  0.5959
 1822SOL    HW216929   3.509   4.015   1.199  0.2428 -0.2807 -1.7493
 1823SOL     OW16930   2.124   4.069  15.247  0.7983  0.0083  0.3062
 1823SOL    HW116931   2.072   4.147  15.229  1.5971 -0.0558 -2.4016
 1823SOL    HW216932   2.057   4.009  15.214  1.5437  0.0149 -1.2413
 1824SOL     OW16933   1.378   4.676   6.285  0.3540 -0.1057 -0.1616
 1824SOL    HW116934   1.418   4.589   6.290  1.5441  0.4847  0.6605
 1824SOL    HW216935   1.353   4.690   6.376  3.1766 -0.0869  0.6313
 1825SOL     OW16936   3.711   0.995   7.347 -0.2977 -0.0532  0.4003
 1825SOL    HW116937   3.616   0.994   7.331 -0.7897  1.8579  3.3923
 1825SOL    HW216938   3.710   0.918   7.403  1.7640 -0.5090 -0.1958
 1826SOL     OW16939   4.299   0.929   8.193  0.0267  0.1774 -0.4792
 1826SOL    HW116940   4.274   0.837   8.199  0.0983  0.4079  3.1168
 1826SOL    HW216941   4.314   0.954   8.284 -0.4961  1.6167 -0.8003
 1827SOL     OW16942   3.656   0.237   9.102 -0.4006 -0.9648 -0.6720
 1827SOL    HW116943   3.741   0.193   9.107 -1.7903 -3.5744  0.3929
 1827SOL    HW216944   3.652   0.272   9.191 -0.9284  0.0782 -1.1133
 1828SOL     OW16945   2.663   0.166   9.032  0.5130  0.4364  0.4096
 1828SOL    HW116946   2.728   0.224   9.071 -0.0685  1.0542  0.4630
 1828SOL    HW216947   2.668   0.203   8.944  0.9079 -1.4761 -0.3641
 1829SOL     OW16948   2.284   3.028   1.072  0.0008 -0.1978  0.1685
 1829SOL    HW116949   2.364   3.064   1.033  0.5890 -1.6652 -0.0149
 1829SOL    HW216950   2.227   3.101   1.049 -0.9764 -0.4400  1.8092
 1830SOL     OW16951   4.414   1.480   8.116  0.2892 -0.4025  0.6298
 1830SOL    HW116952   4.503   1.461   8.147 -0.4860 -2.6982  1.4344
 1830SOL    HW216953   4.353   1.461   8.187  0.2816  0.3705  0.8248
 1831SOL     OW16954   3.334   1.181   7.386 -0.0817  0.3034 -0.3105
 1831SOL    HW116955   3.241   1.198   7.399 -0.1135 -0.3366  0.3083
 1831SOL    HW216956   3.359   1.167   7.478  0.9600 -0.2864 -0.6867
 1832SOL     OW16957   1.460   2.192  16.919  0.1883 -0.0495 -0.3008
 1832SOL    HW116958   1.504   2.196  16.834 -0.1599 -0.5650 -0.5087
 1832SOL    HW216959   1.396   2.263  16.911  1.7081  1.0165 -2.8737
 1833SOL     OW16960   1.897   0.785   6.086  0.5753  0.4486  0.0471
 1833SOL    HW116961   1.957   0.860   6.093  1.3987 -0.0880 -1.3169
 1833SOL    HW216962   1.954   0.711   6.067 -0.4925 -0.1633 -0.7786
 1834SOL     OW16963   2.352   0.661   7.700 -0.4608  0.2424  0.1407
 1834SOL    HW116964   2.357   0.708   7.784  0.3085 -1.9409  1.3054
 1834SOL    HW216965   2.313   0.580   7.732  0.2078 -0.6214 -1.2295
 1835SOL     OW16966   1.277   1.614   0.090  0.1337  0.2668 -0.6631
 1835SOL    HW116967   1.288   1.709   0.078 -0.7305  0.2559 -1.6086
 1835SOL    HW216968   1.353   1.594   0.144 -0.5191  1.4595  0.7033
 1836SOL     OW16969   4.248   2.473  12.391 -0.1217 -0.4222 -0.0400
 1836SOL    HW116970   4.258   2.432  12.477  0.4280 -0.4693 -0.1288
 1836SOL    HW216971   4.316   2.540  12.401 -0.0580 -0.7537  1.8402
 1837SOL     OW16972   0.963   0.500   2.440  0.7260 -0.2242  0.2912
 1837SOL    HW116973   1.022   0.515   2.366 -0.6300 -0.8761 -0.9335
 1837SOL    HW216974   0.883   0.508   2.388  2.7957  0.0065 -2.8902
 1838SOL     OW16975   2.172   2.478  15.942 -0.4640 -0.1205 -0.4989
 1838SOL    HW116976   2.131   2.506  16.024  0.0726 -2.2640  0.4995
 1838SOL    HW216977   2.264   2.505  15.937  0.2526 -2.5762 -0.8203
 1839SOL     OW16978   2.790   1.274   2.335 -0.5798 -0.2989  0.3523
 1839SOL    HW116979   2.847   1.332   2.385  0.0710 -1.3525  0.8287
 1839SOL    HW216980   2.857   1.214   2.303 -2.3765 -1.6532 -0.8325
 1840SOL     OW16981   2.368   2.229   7.543  0.6213 -0.3838 -0.1423
 1840SOL    HW116982   2.298   2.219   7.607 -1.5018  2.9504 -1.9834
 1840SOL    HW216983   2.379   2.149   7.492 -1.4901 -2.0174  1.9562
 1841SOL     OW16984   1.936   4.703  10.532 -0.0241  0.0413 -0.0774
 1841SOL    HW116985   2.008   4.678  10.591  0.1373  2.7298  0.8349
 1841SOL    HW216986   1.969   0.060  10.494 -0.0171 -0.4522 -1.1377
 1842SOL     OW16987   4.463   0.395   7.258 -0.0639 -0.5351 -0.0312
 1842SOL    HW116988   4.398   0.348   7.207  1.8040 -2.3923 -0.6897
 1842SOL    HW216989   4.542   0.391   7.204 -0.2039  0.9346 -0.3490
 1843SOL     OW16990   2.429   3.942  12.137 -0.3962 -0.2263  0.0505
 1843SOL    HW116991   2.478   3.868  12.172  0.5822  1.4409  2.2061
 1843SOL    HW216992   2.442   4.011  12.202  1.4340 -0.1667 -0.3728
 1844SOL     OW16993   3.768   1.229   1.006 -0.2484  0.0555 -0.2230
 1844SOL    HW116994   3.812   1.295   1.061  1.3182 -1.0976 -0.0999
 1844SOL    HW216995   3.818   1.148   1.004 -0.1524  0.0243  2.6322
 1845SOL     OW16996   0.764   3.404   7.684 -0.0206 -0.2630  0.0981
 1845SOL    HW116997   0.765   3.315   7.647 -1.0360 -0.4829  0.6068
 1845SOL    HW216998   0.845   3.444   7.654  1.1031 -0.7936  2.3746
 1846SOL     OW16999   0.103   3.899   6.431  0.0898  0.5623  0.0607
 1846SOL    HW117000   0.084   3.806   6.419  1.5279  0.6708 -3.1038
 1846SOL    HW217001   0.144   3.933   6.352 -1.7742  1.2413 -0.6037
 1847SOL     OW17002   2.986   0.884   3.285 -0.2466  0.5204 -0.1659
 1847SOL    HW117003   2.941   0.920   3.209  2.6045  1.4055 -1.4390
 1847SOL    HW217004   2.912   0.905   3.342 -0.4535 -1.6036  0.3322
 1848SOL     OW17005   2.045   1.735  12.296  0.3673 -0.1267 -0.0220
 1848SOL    HW117006   2.073   1.823  12.269  1.3709 -0.7990 -1.1572
 1848SOL    HW217007   1.985   1.714  12.224  0.2570  2.9982 -0.8677
 1849SOL     OW17008   1.393   1.092   5.567 -0.0247  0.4821  0.3138
 1849SOL    HW117009   1.371   1.184   5.581 -1.4272 -0.0582  1.6408
 1849SOL    HW217010   1.355   1.055   5.646 -1.2299 -1.6874 -1.2932
 1850SOL     OW17011   2.919   2.688   8.051  0.7112 -0.9271 -0.4167
 1850SOL    HW117012   2.843   2.703   7.993  0.0838 -1.9533  0.1352
 1850SOL    HW217013   2.882   2.696   8.139 -2.3066 -2.2272 -1.5526
 1851SOL     OW17014   3.876   2.807  15.787  0.0722  0.2520 -0.4591
 1851SOL    HW117015   3.853   2.839  15.874 -0.3785 -0.7128 -0.2185
 1851SOL    HW217016   3.896   2.714  15.801 -0.6922 -0.0920 -1.5448
 1852SOL     OW17017   0.219   3.414   5.549 -0.0252  0.1361 -0.4541
 1852SOL    HW117018   0.136   3.380   5.513  0.4056 -0.8636 -0.5229
 1852SOL    HW217019   0.220   3.364   5.630  3.7315  0.9892 -0.0117
 1853SOL     OW17020   2.959   2.603   7.571 -0.7326  0.2982  0.0367
 1853SOL    HW117021   2.913   2.597   7.655  2.3228 -0.3032  1.6663
 1853SOL    HW217022   2.878   2.631   7.528 -1.1647  3.5211  2.9221
 1854SOL     OW17023   1.394   2.179   2.856  0.1613 -0.0424  0.3591
 1854SOL    HW117024   1.420   2.271   2.866  0.4149  0.0100 -0.8171
 1854SOL    HW217025   1.305   2.192   2.824 -0.1653 -1.9981  0.4984
 1855SOL     OW17026   3.617   3.125   0.927 -0.1986 -0.2650 -0.5587
 1855SOL    HW117027   3.575   3.132   1.013 -0.6332  2.3369 -0.9705
 1855SOL    HW217028   3.676   3.051   0.936  0.4536  0.1134 -1.6709
 1856SOL     OW17029   0.238   1.512   2.426 -0.3091 -0.4431 -0.3638
 1856SOL    HW117030   0.263   1.477   2.341 -0.8725 -1.6900 -0.0108
 1856SOL    HW217031   0.251   1.435   2.481 -1.4149 -0.2740  0.1385
 1857SOL     OW17032   1.976   2.565   9.878  0.1809  0.2451 -0.0531
 1857SOL    HW117033   2.008   2.610   9.955  2.8935  0.7529 -1.4722
 1857SOL    HW217034   2.048   2.505   9.858  0.2638  0.2039  0.3710
 1858SOL     OW17035   2.560   3.294   7.017  0.0627  0.1746  0.1937
 1858SOL    HW117036   2.574   3.379   7.058 -0.2770 -0.7311  2.2476
 1858SOL    HW217037   2.642   3.252   7.044  0.4677 -1.9042 -4.3647
 1859SOL     OW17038   3.255   0.525   4.085 -0.5521 -0.4635 -0.0205
 1859SOL    HW117039   3.185   0.547   4.147  0.0226 -1.7408  1.0722
 1859SOL    HW217040   3.302   0.608   4.073 -3.6559  1.7627  2.8682
 1860SOL     OW17041   3.948   0.326   1.092 -0.3365 -0.4098 -0.1351
 1860SOL    HW117042   3.887   0.252   1.088 -1.5995  0.5258  1.7305
 1860SOL    HW217043   3.884   0.390   1.124 -0.2401  0.5368 -1.8458
 1861SOL     OW17044   0.881   3.055   1.883  0.5655 -0.0309 -0.0855
 1861SOL    HW117045   0.924   3.091   1.960 -1.8432 -0.1225  1.3083
 1861SOL    HW217046   0.938   3.105   1.824  2.0095  0.5422  1.7960
 1862SOL     OW17047   3.065   1.717   4.041 -0.0548 -0.4497  0.1938
 1862SOL    HW117048   3.024   1.633   4.023  1.2749 -0.9387 -0.5541
 1862SOL    HW217049   3.056   1.761   3.957 -2.4109  2.1612  1.8051
 1863SOL     OW17050   0.945   3.740   8.435 -0.0236  0.1430 -0.5518
 1863SOL    HW117051   0.931   3.798   8.510  1.8087 -1.6211  1.1500
 1863SOL    HW217052   0.895   3.779   8.364 -0.3895  0.6849 -0.0000
 1864SOL     OW17053   1.021   4.142   8.924  0.6409 -0.2361 -0.4789
 1864SOL    HW117054   1.049   4.194   8.848  2.1276  2.6905  2.0256
 1864SOL    HW217055   0.926   4.142   8.913  0.3229  3.5739  2.3838
 1865SOL     OW17056   1.762   3.497   7.528 -0.3846 -0.2398 -0.0180
 1865SOL    HW117057   1.811   3.546   7.594 -1.9965  1.9275 -0.4159
 1865SOL    HW217058   1.783   3.407   7.551 -1.3010 -0.9975 -2.1499
 1866SOL     OW17059   3.913   3.564   6.455  0.2261 -0.1597  0.9109
 1866SOL    HW117060   3.836   3.531   6.500  0.8913  1.2197  3.0554
 1866SOL    HW217061   3.969   3.486   6.455  0.0189 -0.3181 -3.5491
 1867SOL     OW17062   1.733   0.396  16.179 -0.1034  0.0376 -0.4340
 1867SOL    HW117063   1.764   0.432  16.095  0.3767 -1.1456 -0.7567
 1867SOL    HW217064   1.760   0.305  16.189 -2.4847 -0.6324  0.0192
 1868SOL     OW17065   2.075   0.164   9.980  0.3677  0.3091 -0.2066
 1868SOL    HW117066   2.022   0.190   9.905  1.8283  0.5648 -1.1552
 1868SOL    HW217067   2.110   0.079   9.952 -0.6602 -0.6109  1.2706
 1869SOL     OW17068   4.350   1.637   4.246 -0.3779 -0.1363  0.6458
 1869SOL    HW117069   4.337   1.612   4.337  0.2982 -1.6519  0.3235
 1869SOL    HW217070   4.410   1.711   4.244  0.8215 -1.1135  0.3697
 1870SOL     OW17071   0.119   0.958   7.943  0.5602  0.2391 -0.2208
 1870SOL    HW117072   0.078   0.910   7.872 -0.3456 -0.5563  0.8266
 1870SOL    HW217073   0.174   1.022   7.898  0.9342  0.5142  0.6299
 1871SOL     OW17074   3.706   2.906   7.587 -0.4972  0.0782 -0.4549
 1871SOL    HW117075   3.702   2.851   7.509  1.9398 -0.8137  0.0526
 1871SOL    HW217076   3.657   2.857   7.653  3.1569 -1.7579  0.9143
 1872SOL     OW17077   2.680   3.639   6.410  0.8720 -0.0583 -0.2163
 1872SOL    HW117078   2.726   3.693   6.345 -0.1639  2.2881  1.0094
 1872SOL    HW217079   2.738   3.636   6.486 -2.9144  2.1604  2.7655
 1873SOL     OW17080   3.981   0.341   3.638  0.0019 -0.0151  0.3188
 1873SOL    HW117081   3.993   0.399   3.714  1.5589  0.2713 -0.1499
 1873SOL    HW217082   3.895   0.363   3.601 -0.1171  0.5052  0.8952
 1874SOL     OW17083   0.565   4.168   2.891  0.2860  0.4533 -0.5942
 1874SOL    HW117084   0.653   4.150   2.856  0.0651  1.2861 -1.5681
 1874SOL    HW217085   0.583   4.235   2.957  0.6363  0.0316 -0.2681
 1875SOL     OW17086   0.836   3.994   5.626  0.3954  0.4687  0.6623
 1875SOL    HW117087   0.914   4.003   5.572  0.6408  1.9436  1.2356
 1875SOL    HW217088   0.873   3.992   5.715  0.9660 -2.4685  0.3461
 1876SOL     OW17089   3.953   2.416  13.419 -0.0046  0.0518 -0.5793
 1876SOL    HW117090   3.867   2.458  13.409 -1.6232 -3.1985 -0.4679
 1876SOL    HW217091   4.003   2.451  13.345 -2.1287  0.2259 -1.9513
 1877SOL     OW17092   2.028   3.530   3.223 -0.2656  0.0232 -0.0502
 1877SOL    HW117093   1.946   3.485   3.203 -0.9722  1.2914 -0.0361
 1877SOL    HW217094   1.999   3.572   3.304  1.2536  1.1531 -0.0819
 1878SOL     OW17095   3.424   1.919   4.095  0.2659 -0.0757 -0.5332
 1878SOL    HW117096   3.490   1.873   4.044 -0.4134 -0.0967 -1.4173
 1878SOL    HW217097   3.461   2.007   4.103  0.6109 -0.0077 -2.6571
 1879SOL     OW17098   2.342   2.975   2.830 -0.9413  0.6598 -0.3558
 1879SOL    HW117099   2.432   2.973   2.863 -0.7562 -0.7743 -0.9806
 1879SOL    HW217100   2.318   3.067   2.821  0.3491  0.8949 -1.4019
 1880SOL     OW17101   2.759   1.616   4.793  1.1230 -0.0768  0.0084
 1880SOL    HW117102   2.708   1.635   4.871 -1.4889  0.1039 -1.7357
 1880SOL    HW217103   2.834   1.562   4.822 -0.5187 -1.0606  2.4383
 1881SOL     OW17104   0.788   2.054   8.822  0.3132 -0.1016 -0.1924
 1881SOL    HW117105   0.710   2.070   8.769 -0.0849  0.1894  0.4876
 1881SOL    HW217106   0.743   1.998   8.886 -2.0719 -0.2849 -2.0513
 1882SOL     OW17107   2.432   3.897  17.593 -0.1679  0.2154 -0.1142
 1882SOL    HW117108   2.432   3.984  17.553 -1.5451 -0.5978 -1.8622
 1882SOL    HW217109   2.343   3.907  17.627 -0.8929  0.1511 -1.9694
 1883SOL     OW17110   2.863   3.692   3.916 -0.0763 -0.2893 -0.2286
 1883SOL    HW117111   2.831   3.781   3.929  1.5491  0.5486 -1.9394
 1883SOL    HW217112   2.781   3.643   3.926  0.1161 -0.3754  0.9899
 1884SOL     OW17113   0.973   0.603   0.341 -0.0103 -0.1144 -0.1805
 1884SOL    HW117114   0.954   0.605   0.248 -0.6734 -2.0545 -0.0927
 1884SOL    HW217115   1.040   0.671   0.350 -0.6118  0.4709 -0.1753
 1885SOL     OW17116   3.725   0.479  17.497 -0.3947 -0.0441  0.0682
 1885SOL    HW117117   3.733   0.572  17.513  2.3845 -0.3563  0.4430
 1885SOL    HW217118   3.757   0.448  17.582  0.2442  0.2531 -0.0665
 1886SOL     OW17119   1.206   3.111   7.218 -0.7853  0.3129 -0.3027
 1886SOL    HW117120   1.154   3.172   7.165  0.8143  1.9713  0.0506
 1886SOL    HW217121   1.158   3.111   7.301 -1.1072  0.0406 -0.4909
 1887SOL     OW17122   3.900   3.236   3.131  0.1499 -0.0278  0.2923
 1887SOL    HW117123   3.981   3.266   3.089 -1.3427  3.7099  0.0571
 1887SOL    HW217124   3.870   3.320   3.165 -2.7062 -0.2825 -1.6264
 1888SOL     OW17125   3.937   0.549   3.834  0.1153 -0.0130  0.6738
 1888SOL    HW117126   3.865   0.503   3.877  0.5089 -0.2276  1.0980
 1888SOL    HW217127   3.967   0.614   3.898  1.3577 -0.5102  0.5981
 1889SOL     OW17128   4.122   2.007   9.231 -0.4075  0.4095  0.1296
 1889SOL    HW117129   4.028   1.991   9.244 -0.1391 -1.0432  0.1915
 1889SOL    HW217130   4.154   1.958   9.306 -0.5371  0.5676  0.2893
 1890SOL     OW17131   0.807   2.914  11.305 -0.2258 -0.0518  0.3327
 1890SOL    HW117132   0.760   2.833  11.325 -1.2150  0.1967 -0.9568
 1890SOL    HW217133   0.900   2.896  11.311 -0.0407  0.4610 -1.0061
 1891SOL     OW17134   0.265   2.711   5.161  0.6310  0.4335 -0.1892
 1891SOL    HW117135   0.360   2.718   5.171  0.4333  0.5325  1.6966
 1891SOL    HW217136   0.265   2.652   5.086 -1.8818 -1.5391  1.3842
 1892SOL     OW17137   3.013   0.376   4.626  0.3356 -0.0144  0.6115
 1892SOL    HW117138   2.955   0.301   4.610 -0.9055  0.5239  2.5764
 1892SOL    HW217139   3.061   0.352   4.705  1.5576 -0.9919 -0.4381
 1893SOL     OW17140   0.484   2.986   5.795  0.2618 -0.0055 -0.5889
 1893SOL    HW117141   0.447   2.924   5.858  0.8531  0.7919  0.5363
 1893SOL    HW217142   0.537   2.919   5.750 -1.4235 -2.0406  0.4533
 1894SOL     OW17143   1.749   3.408  17.206  0.3669  0.0757 -0.3869
 1894SOL    HW117144   1.683   3.458  17.158 -0.7014 -2.2007 -1.2650
 1894SOL    HW217145   1.790   3.485  17.247  1.4819 -1.0838  0.7022
 1895SOL     OW17146   1.888   3.949  13.207 -0.2012 -0.5242  0.1114
 1895SOL    HW117147   1.846   3.885  13.150  0.3016 -1.9367  1.3545
 1895SOL    HW217148   1.979   3.922  13.195 -0.1207  0.0257 -0.5515
 1896SOL     OW17149   0.100   3.936   6.692  0.1778  0.2343 -0.3648
 1896SOL    HW117150   0.165   3.868   6.710  2.1829  1.7451 -1.8513
 1896SOL    HW217151   0.100   3.935   6.596 -0.2715 -0.3900 -0.3605
 1897SOL     OW17152   2.022   4.205  14.894  0.0342 -0.1414  0.0748
 1897SOL    HW117153   2.026   4.299  14.911 -1.9502  0.3526 -2.2078
 1897SOL    HW217154   1.929   4.182  14.887 -0.2261  1.3598 -1.3715
 1898SOL     OW17155   4.402   4.533   1.279 -0.1211  0.1136 -0.3811
 1898SOL    HW117156   4.348   4.453   1.284 -2.0254  1.4209  0.0892
 1898SOL    HW217157   4.438   4.523   1.191 -2.0269  0.7654 -1.2317
 1899SOL     OW17158   2.972   2.374  12.323  0.5172  0.2020 -0.2824
 1899SOL    HW117159   2.963   2.399  12.231  0.5779 -0.8579 -0.5778
 1899SOL    HW217160   3.067   2.374  12.335  0.2116  0.1637  2.1272
 1900SOL     OW17161   3.658   0.486   4.345  0.1760 -0.1367 -0.0774
 1900SOL    HW117162   3.593   0.490   4.275 -0.3721 -0.8861  0.3882
 1900SOL    HW217163   3.668   0.581   4.355 -1.7181  0.2350 -1.7858
 1901SOL     OW17164   2.194   4.174  16.502 -0.5596  0.2476 -0.2896
 1901SOL    HW117165   2.276   4.163  16.452 -0.9259  0.8300 -1.0014
 1901SOL    HW217166   2.153   4.250  16.461 -1.3256 -0.0052  0.0207
 1902SOL     OW17167   2.203   4.002   1.477  1.2160 -0.4019 -0.0254
 1902SOL    HW117168   2.183   3.960   1.394  0.2721 -0.4469  0.2193
 1902SOL    HW217169   2.140   3.955   1.533  1.0635  1.4157  1.3586
 1903SOL     OW17170   0.858   2.443  15.368  0.0812  0.4782 -0.1970
 1903SOL    HW117171   0.893   2.449  15.279  1.6469 -2.0974  0.2174
 1903SOL    HW217172   0.819   2.528  15.386 -1.4231  0.1335 -1.8453
 1904SOL     OW17173   1.047   3.268   7.053 -0.4435 -0.1836 -0.2322
 1904SOL    HW117174   1.058   3.240   6.963 -0.7013 -1.5091  0.1499
 1904SOL    HW217175   0.952   3.278   7.065 -0.5967 -2.6075  0.5955
 1905SOL     OW17176   2.232   3.989   0.311  0.3223 -0.0314  0.2579
 1905SOL    HW117177   2.265   3.950   0.392 -0.5681 -1.8726 -0.2734
 1905SOL    HW217178   2.202   3.909   0.268 -1.1122 -0.7028  2.4770
 1906SOL     OW17179   0.119   0.275   8.625 -0.1446  0.3376  0.2306
 1906SOL    HW117180   0.077   0.349   8.668 -2.1333 -0.1923 -0.7562
 1906SOL    HW217181   0.054   0.260   8.555  0.1229 -0.2136  0.0985
 1907SOL     OW17182   3.073   2.415   9.873  0.3996  0.3558  0.2332
 1907SOL    HW117183   3.018   2.446   9.802  1.1386 -2.0215 -1.4075
 1907SOL    HW217184   3.114   2.340   9.829  0.6750  0.0676  0.9911
 1908SOL     OW17185   0.403   3.702   3.330 -0.9328 -0.4637 -0.2219
 1908SOL    HW117186   0.451   3.622   3.350  1.0944  0.9702  0.6620
 1908SOL    HW217187   0.334   3.675   3.269 -0.8194 -1.5055  0.1173
 1909SOL     OW17188   1.810   1.260  15.527  0.4952 -0.0417 -0.0180
 1909SOL    HW117189   1.899   1.242  15.498  0.2540  1.2167 -1.5414
 1909SOL    HW217190   1.798   1.334  15.467 -2.0257  0.7314  1.4131
 1910SOL     OW17191   4.386   4.012   3.098 -0.0021 -0.0021 -0.3418
 1910SOL    HW117192   4.307   4.064   3.112  0.3124  0.5825 -0.7235
 1910SOL    HW217193   4.344   3.926   3.100 -0.6652  0.3349 -0.0164
 1911SOL     OW17194   2.613   0.600   2.351 -0.4609 -0.0195 -0.3146
 1911SOL    HW117195   2.564   0.574   2.428 -0.7576 -2.4409 -1.3194
 1911SOL    HW217196   2.592   0.529   2.290 -2.7136 -0.3596  0.8543
 1912SOL     OW17197   1.310   3.665  10.375  0.0540 -1.0749 -0.3118
 1912SOL    HW117198   1.288   3.655  10.283  0.3374 -0.5012 -0.4396
 1912SOL    HW217199   1.342   3.577  10.394 -0.9565 -1.3705  0.0188
 1913SOL     OW17200   2.082   3.515   4.875  0.2052 -0.1166  0.3700
 1913SOL    HW117201   2.038   3.559   4.947  0.6281 -0.1161  0.6256
 1913SOL    HW217202   2.109   3.589   4.821  0.5135 -1.3217 -1.1374
 1914SOL     OW17203   1.615   0.114   8.402  0.0689 -0.2388  0.0832
 1914SOL    HW117204   1.640   0.061   8.478 -0.7882 -1.4507 -0.4800
 1914SOL    HW217205   1.564   0.179   8.450 -0.1154  0.1170 -0.5941
 1915SOL     OW17206   3.967   2.987  17.255 -0.3555  0.2066  0.1160
 1915SOL    HW117207   3.905   2.977  17.327 -0.2573  0.6030  0.2572
 1915SOL    HW217208   3.916   3.017  17.180 -0.5226 -3.7513 -1.4025
 1916SOL     OW17209   1.289   0.053   3.417 -0.3906 -0.0259 -0.6734
 1916SOL    HW117210   1.359   0.055   3.351 -0.9624 -0.1426 -1.2807
 1916SOL    HW217211   1.258   0.143   3.408 -0.5378 -0.1225 -1.0957
 1917SOL     OW17212   3.637   0.202   8.049  0.7135  0.0824  0.3565
 1917SOL    HW117213   3.723   0.163   8.062  0.0461 -1.6429 -0.3321
 1917SOL    HW217214   3.602   0.185   8.136  0.5429  0.2980  0.3296
 1918SOL     OW17215   1.857   2.483   5.489 -0.3451 -0.2966 -0.1823
 1918SOL    HW117216   1.866   2.443   5.576 -0.4217  1.6321  0.7148
 1918SOL    HW217217   1.762   2.479   5.482 -0.3568  0.7266 -0.6551
 1919SOL     OW17218   1.809   2.257   7.435  0.0172  0.2057 -0.0895
 1919SOL    HW117219   1.866   2.188   7.469 -0.4959  2.1328  4.7928
 1919SOL    HW217220   1.858   2.273   7.355 -0.6238  1.5188 -0.2089
 1920SOL     OW17221   1.149   1.735   3.951 -0.2298  0.2606 -0.5546
 1920SOL    HW117222   1.167   1.641   3.950  1.3654  0.5569  0.4210
 1920SOL    HW217223   1.093   1.736   4.028  1.6822 -0.2277  0.8625
 1921SOL     OW17224   1.660   1.779  13.370 -0.5308  0.3555  0.1608
 1921SOL    HW117225   1.657   1.746  13.280 -0.2031  0.5370  0.0825
 1921SOL    HW217226   1.752   1.776  13.396 -0.2978  1.2986 -0.5370
 1922SOL     OW17227   4.691   3.674   7.078  0.0376  0.0209  0.0640
 1922SOL    HW117228   0.036   3.684   7.145  3.0037 -0.3133 -2.9507
 1922SOL    HW217229   0.033   3.668   7.009 -1.3571  1.3528 -1.3676
 1923SOL     OW17230   1.254   1.475  11.277  0.1578 -0.2572  0.1430
 1923SOL    HW117231   1.205   1.518  11.208  1.5063 -1.9694 -1.8601
 1923SOL    HW217232   1.289   1.556  11.315  1.3512 -0.7797  0.1735
 1924SOL     OW17233   3.531   1.716   8.217  0.3987  0.6815 -0.3920
 1924SOL    HW117234   3.581   1.635   8.221  0.6193  0.8697  0.5647
 1924SOL    HW217235   3.444   1.689   8.188  0.7763 -0.7485 -0.1872
 1925SOL     OW17236   0.917   0.341   3.590  0.3946  0.1384 -0.1984
 1925SOL    HW117237   0.845   0.348   3.653  0.9604 -2.2058  0.7082
 1925SOL    HW217238   0.959   0.261   3.622 -0.0294 -0.5908 -1.4655
 1926SOL     OW17239   3.256   0.197  12.727 -0.0796  0.4003  0.1622
 1926SOL    HW117240   3.228   0.289  12.728  0.2712  0.5059  0.5352
 1926SOL    HW217241   3.308   0.198  12.647 -0.2152  2.2760  0.0938
 1927SOL     OW17242   0.147   2.686   9.340 -0.2067 -0.5282 -0.3042
 1927SOL    HW117243   0.113   2.771   9.310 -0.9196 -0.6638  0.1095
 1927SOL    HW217244   0.231   2.718   9.374  0.7212 -1.6045 -1.6352
 1928SOL     OW17245   2.560   2.062   2.450  0.3626 -0.2194 -0.2776
 1928SOL    HW117246   2.593   2.005   2.380 -0.3300 -0.6662 -0.2405
 1928SOL    HW217247   2.586   2.009   2.524 -0.4098 -0.1293  0.0584
 1929SOL     OW17248   0.901   3.322  15.255  0.0749  0.4602 -0.3784
 1929SOL    HW117249   0.879   3.230  15.238  0.9187  0.2505 -0.3206
 1929SOL    HW217250   0.948   3.343  15.174  0.3517 -1.4783 -0.7263
 1930SOL     OW17251   3.970   0.590  15.819 -0.7276 -0.8933  0.1662
 1930SOL    HW117252   3.969   0.654  15.889 -1.6671  1.7100 -2.2145
 1930SOL    HW217253   3.881   0.603  15.786 -1.2622 -0.5572  1.7658
 1931SOL     OW17254   2.890   4.516  14.906 -0.1050  0.0626 -0.0332
 1931SOL    HW117255   2.970   4.483  14.865  1.8250  2.2952  1.9105
 1931SOL    HW217256   2.848   4.564  14.836  0.1964  1.4231  0.7192
 1932SOL     OW17257   1.716   2.333   7.947  0.6666 -0.1270  0.0496
 1932SOL    HW117258   1.653   2.385   7.899  1.5072  0.2928 -0.6019
 1932SOL    HW217259   1.740   2.264   7.885  1.7709 -0.1488  0.5045
 1933SOL     OW17260   2.316   1.659  16.714  0.2564  0.0094  0.0382
 1933SOL    HW117261   2.352   1.699  16.635  0.9081 -1.7705 -0.5459
 1933SOL    HW217262   2.382   1.598  16.746  0.3049  1.1489  2.1021
 1934SOL     OW17263   4.591   3.345   7.584  0.1248 -0.0988 -0.2778
 1934SOL    HW117264   4.509   3.294   7.584 -1.4537  2.4455  2.0042
 1934SOL    HW217265   4.549   3.431   7.593 -0.1662 -0.3819  1.0470
 1935SOL     OW17266   2.361   1.645   5.737 -0.6568  0.4150  0.6610
 1935SOL    HW117267   2.405   1.580   5.792 -1.5576 -1.1930 -0.4932
 1935SOL    HW217268   2.305   1.693   5.798 -0.9765  2.3774 -1.1678
 1936SOL     OW17269   3.535   3.283   4.915  0.3570 -0.2352  0.1940
 1936SOL    HW117270   3.628   3.301   4.928  0.1432  1.5176 -0.7533
 1936SOL    HW217271   3.537   3.242   4.828 -0.7282  0.7857 -0.3154
 1937SOL     OW17272   0.481   1.791   1.614  0.2333  0.3847 -0.3485
 1937SOL    HW117273   0.506   1.815   1.525 -0.9077 -1.2673 -1.1130
 1937SOL    HW217274   0.464   1.697   1.606  0.4200  0.2603  0.7017
 1938SOL     OW17275   0.119   3.806   0.395  0.1433  0.4888 -0.6338
 1938SOL    HW117276   0.194   3.785   0.340  0.7086 -0.3984  0.4731
 1938SOL    HW217277   0.138   3.888   0.441 -2.2297 -0.6474  2.3565
 1939SOL     OW17278   3.028   0.412   7.260 -0.2424  0.3319 -0.6089
 1939SOL    HW117279   2.966   0.358   7.210 -1.4267  2.6018 -1.5576
 1939SOL    HW217280   2.976   0.411   7.340  0.3073  1.4776 -0.2424
 1940SOL     OW17281   3.441   4.160   4.948 -0.1281  0.4434 -0.3004
 1940SOL    HW117282   3.413   4.072   4.973  0.4668  0.2470 -0.3478
 1940SOL    HW217283   3.536   4.159   4.958 -0.3823 -0.7177  2.1233
 1941SOL     OW17284   0.163   0.854   8.380 -0.1267  0.1491 -0.1583
 1941SOL    HW117285   0.075   0.879   8.408 -0.2340  0.7437 -1.0459
 1941SOL    HW217286   0.147   0.830   8.288 -2.4708  0.3737  0.1932
 1942SOL     OW17287   0.880   4.325   8.411 -0.2739  0.3749  0.2312
 1942SOL    HW117288   0.892   4.419   8.404 -0.6000  0.3864 -0.1372
 1942SOL    HW217289   0.965   4.289   8.386 -0.5406 -1.9713  2.6033
 1943SOL     OW17290   1.176   3.763   8.742  0.5955 -0.3657  0.2793
 1943SOL    HW117291   1.185   3.740   8.834  0.9463  2.0848  0.8749
 1943SOL    HW217292   1.087   3.793   8.727 -0.0600 -0.8360  3.2554
 1944SOL     OW17293   0.112   3.933  17.627  0.3153  0.0914 -0.1346
 1944SOL    HW117294   0.150   4.019  17.646  1.5947 -0.8859  1.7463
 1944SOL    HW217295   0.044   3.959  17.564 -0.0536  0.6560  0.4894
 1945SOL     OW17296   1.674   2.969   3.870  0.2587  0.2387 -0.0216
 1945SOL    HW117297   1.652   2.887   3.913  2.7592 -0.0415  0.6905
 1945SOL    HW217298   1.621   2.962   3.790  0.1778  2.6099 -0.1974
 1946SOL     OW17299   2.055   0.829   1.549  0.2663  0.2955  0.2487
 1946SOL    HW117300   1.967   0.845   1.514  0.8557  0.4944 -1.1360
 1946SOL    HW217301   2.091   0.918   1.550  1.0620 -0.0368  1.1297
 1947SOL     OW17302   4.591   2.888  17.092 -0.7424 -0.0424  0.0695
 1947SOL    HW117303   4.675   2.933  17.101 -0.3624 -0.3233 -2.2349
 1947SOL    HW217304   4.603   2.855  17.003  2.4182 -0.6706  0.7179
 1948SOL     OW17305   3.049   2.293   6.244  0.2521  0.2749 -0.5606
 1948SOL    HW117306   2.985   2.265   6.178 -1.1858 -0.7597  1.2651
 1948SOL    HW217307   3.021   2.383   6.258 -0.9982  0.1460 -2.2041
 1949SOL     OW17308   1.401   1.815   0.822  0.1844 -0.2113  0.2699
 1949SOL    HW117309   1.477   1.801   0.766  2.2677 -2.1246  3.5191
 1949SOL    HW217310   1.385   1.908   0.808 -0.2966 -0.3372 -0.0132
 1950SOL     OW17311   1.221   1.822   5.907 -0.5237  0.1483  0.0573
 1950SOL    HW117312   1.210   1.913   5.878  2.8756  1.1150  1.8787
 1950SOL    HW217313   1.310   1.829   5.940 -0.3038  0.8413 -0.6773
 1951SOL     OW17314   1.701   2.228   0.171 -0.3404  0.2548  0.0476
 1951SOL    HW117315   1.776   2.266   0.125 -1.6004  3.0244  0.2956
 1951SOL    HW217316   1.673   2.294   0.235 -0.9293 -1.1083  1.1838
 1952SOL     OW17317   1.532   1.151   5.901  0.2975 -0.3194  0.3380
 1952SOL    HW117318   1.516   1.200   5.982 -0.2066  1.0046 -0.5444
 1952SOL    HW217319   1.456   1.095   5.885  0.6828 -1.2044  1.6726
 1953SOL     OW17320   0.095   3.429   7.350 -0.5518  0.4124 -0.0713
 1953SOL    HW117321   0.006   3.395   7.348 -0.7812  1.0727 -1.0835
 1953SOL    HW217322   0.144   3.363   7.301 -0.5504  1.1115 -1.0186
 1954SOL     OW17323   2.914   0.599   1.326  0.0132 -0.2857  0.2883
 1954SOL    HW117324   2.988   0.566   1.275  0.0115  1.4715 -0.8347
 1954SOL    HW217325   2.936   0.568   1.414 -2.5710 -2.2146  0.2812
 1955SOL     OW17326   3.253   0.539   7.366  0.5618 -0.1180  0.0702
 1955SOL    HW117327   3.166   0.516   7.335 -0.7227  1.8887  2.0954
 1955SOL    HW217328   3.238   0.616   7.422  0.2689  0.4860 -0.8507
 1956SOL     OW17329   2.654   2.824   7.210  0.1174  0.1473  0.4657
 1956SOL    HW117330   2.573   2.857   7.170 -0.8060 -1.3340  1.0977
 1956SOL    HW217331   2.605   2.777   7.278 -1.7610  1.8857  0.3191
 1957SOL     OW17332   2.322   0.797   3.972 -0.8070  0.2921 -0.1502
 1957SOL    HW117333   2.287   0.710   3.953 -1.0114  0.5607 -1.0048
 1957SOL    HW217334   2.408   0.782   3.932 -0.0912  0.8439  1.1884
 1958SOL     OW17335   1.992   2.593  13.132 -0.1262  0.2677 -0.0286
 1958SOL    HW117336   2.010   2.521  13.071 -1.6525 -1.5898  1.7308
 1958SOL    HW217337   2.083   2.621  13.143  0.4998 -1.4792 -0.6879
 1959SOL     OW17338   3.375   0.734   5.148 -0.6344 -0.6237 -0.0667
 1959SOL    HW117339   3.445   0.700   5.092 -1.4940  2.0736 -2.7855
 1959SOL    HW217340   3.407   0.819   5.178 -0.2662 -2.0205  3.4224
 1960SOL     OW17341   1.727   0.547  16.669 -0.2879 -0.2805  0.0992
 1960SOL    HW117342   1.638   0.530  16.701  0.4544 -1.6072  1.4254
 1960SOL    HW217343   1.724   0.529  16.575 -0.7460 -1.3492  0.3205
 1961SOL     OW17344   3.147   1.416   7.703 -0.1959 -0.0542  0.0689
 1961SOL    HW117345   3.160   1.379   7.616 -2.3219  0.7334 -0.5881
 1961SOL    HW217346   3.129   1.507   7.678  0.2105  0.4103  1.4883
 1962SOL     OW17347   3.273   0.348   1.858 -0.4293  0.2308  0.4381
 1962SOL    HW117348   3.269   0.423   1.917 -2.1194  1.8715 -1.7577
 1962SOL    HW217349   3.201   0.294   1.892  1.1980 -1.7216  0.7568
 1963SOL     OW17350   4.518   2.524  10.871  0.3920 -0.5732  0.0149
 1963SOL    HW117351   4.545   2.610  10.839 -0.4193 -1.1389 -2.2084
 1963SOL    HW217352   4.594   2.476  10.839  0.4098  0.1627 -1.0238
 1964SOL     OW17353   0.089   0.776   8.142  0.0142  0.1709 -0.0082
 1964SOL    HW117354   0.001   0.738   8.136 -0.6903  1.8861 -0.3777
 1964SOL    HW217355   0.098   0.840   8.072 -1.9377 -0.0205 -0.4408
 1965SOL     OW17356   2.431   2.244   3.633  0.1632  0.0886  0.4775
 1965SOL    HW117357   2.449   2.338   3.634  2.4402 -0.3365 -2.1897
 1965SOL    HW217358   2.368   2.240   3.705 -2.2086 -1.2617 -1.6947
 1966SOL     OW17359   4.150   0.704   3.985  0.0367  0.2674 -0.4768
 1966SOL    HW117360   4.225   0.653   3.954 -1.3825 -0.6337 -2.4407
 1966SOL    HW217361   4.131   0.650   4.061  1.5155 -0.2132 -0.4409
 1967SOL     OW17362   1.738   0.217   8.151  0.0521 -0.6938  0.1354
 1967SOL    HW117363   1.821   0.240   8.110  0.0822 -0.5430  0.2822
 1967SOL    HW217364   1.758   0.141   8.207 -0.4351 -0.6585  0.3562
 1968SOL     OW17365   1.767   2.038   0.595 -0.6279  0.0296 -0.4028
 1968SOL    HW117366   1.815   2.112   0.560 -0.0758  1.0714  2.5292
 1968SOL    HW217367   1.839   1.977   0.608 -2.5018 -1.5603  2.5986
 1969SOL     OW17368   3.192   4.477   8.454 -0.2113 -0.3124 -0.3062
 1969SOL    HW117369   3.212   4.416   8.525 -2.3918  0.9359  1.3881
 1969SOL    HW217370   3.195   4.422   8.376  0.8716  0.4125 -0.7629
 1970SOL     OW17371   2.666   1.189   9.474  0.4177  0.3135  0.6347
 1970SOL    HW117372   2.659   1.110   9.527 -1.5741  1.8312  2.6267
 1970SOL    HW217373   2.574   1.213   9.473  0.2093 -0.4981  0.4070
 1971SOL     OW17374   0.152   1.915   9.143 -0.1578 -0.6422 -0.0435
 1971SOL    HW117375   0.116   1.998   9.111  0.2204 -0.1076  0.9171
 1971SOL    HW217376   0.096   1.884   9.214  0.0959 -0.9012  0.0435
 1972SOL     OW17377   1.074   4.700   9.540  0.7605 -0.0412 -0.2821
 1972SOL    HW117378   1.104   4.619   9.583 -1.3858 -1.0599 -0.7053
 1972SOL    HW217379   0.984   4.674   9.518  1.0979 -2.3873  1.0267
 1973SOL     OW17380   1.093   0.608   6.166 -0.1525  0.0016 -0.6862
 1973SOL    HW117381   1.095   0.603   6.262  0.2386 -1.1070 -0.7521
 1973SOL    HW217382   1.149   0.534   6.142  1.4842  1.1416 -0.3582
 1974SOL     OW17383   2.004   1.246   6.573  0.3427 -0.7376  0.6117
 1974SOL    HW117384   2.005   1.225   6.479 -0.6300  0.7885  0.2543
 1974SOL    HW217385   1.915   1.273   6.593  0.3109 -0.5761  0.2632
 1975SOL     OW17386   4.172   1.753   1.690  0.1957 -0.0176  0.6443
 1975SOL    HW117387   4.201   1.687   1.627 -0.9694 -0.1625  0.2471
 1975SOL    HW217388   4.097   1.788   1.641  0.5882  1.9926  1.4950
 1976SOL     OW17389   3.390   3.625  14.424  0.3234  0.3716  0.0346
 1976SOL    HW117390   3.385   3.650  14.516  2.2238 -2.1404  0.8081
 1976SOL    HW217391   3.296   3.618  14.410 -0.0567 -0.1301  2.7718
 1977SOL     OW17392   1.810   0.861   6.414  0.9124  0.2369 -0.2224
 1977SOL    HW117393   1.834   0.768   6.414  0.6465  0.1654  3.0300
 1977SOL    HW217394   1.880   0.907   6.460  0.6214  1.6859 -1.2325
 1978SOL     OW17395   2.373   4.607   3.704  1.5301  0.5247  0.0463
 1978SOL    HW117396   2.349   4.697   3.684  1.0713  0.3078 -0.3927
 1978SOL    HW217397   2.409   4.618   3.792  1.6393  1.5193 -0.1190
 1979SOL     OW17398   3.646   2.846   8.883 -0.0098 -0.4207 -0.3196
 1979SOL    HW117399   3.680   2.795   8.810 -2.5169 -0.8600 -1.1872
 1979SOL    HW217400   3.601   2.777   8.932 -0.1386  0.4150  0.7328
 1980SOL     OW17401   0.696   3.695   6.358 -0.0786  0.0808  0.5037
 1980SOL    HW117402   0.709   3.737   6.273  1.0888  0.2004  0.7453
 1980SOL    HW217403   0.620   3.745   6.389  0.9315  0.9858  1.4764
 1981SOL     OW17404   1.895   4.581  13.268 -0.0823  0.3274 -0.0639
 1981SOL    HW117405   1.965   4.548  13.325  1.1445  1.6944 -0.7647
 1981SOL    HW217406   1.828   4.515  13.285  0.0875 -0.5307 -2.7667
 1982SOL     OW17407   0.269   2.971   3.733 -0.4356  0.2785 -0.7008
 1982SOL    HW117408   0.178   2.998   3.746  0.2660  1.6869  1.1843
 1982SOL    HW217409   0.273   2.950   3.639  0.8517  0.5069 -0.6889
 1983SOL     OW17410   2.183   3.743  12.928  0.3940  0.3794  0.1138
 1983SOL    HW117411   2.171   3.650  12.911  0.7591  0.6727 -1.7647
 1983SOL    HW217412   2.268   3.748  12.973  0.4601  1.2742 -0.1064
 1984SOL     OW17413   1.808   0.891   4.851  0.8469 -0.0982 -0.0488
 1984SOL    HW117414   1.755   0.892   4.772  2.5198  0.8753 -1.1614
 1984SOL    HW217415   1.874   0.959   4.835  0.9211 -0.6814 -2.2454
 1985SOL     OW17416   2.008   2.885   1.656  0.2287 -0.3067  0.0544
 1985SOL    HW117417   2.009   2.965   1.709  0.5620 -0.1627 -0.1715
 1985SOL    HW217418   1.937   2.896   1.593 -0.8303  2.7491  1.7394
 1986SOL     OW17419   3.940   1.763   0.411  0.3985 -0.5271  0.3616
 1986SOL    HW117420   3.896   1.727   0.487  0.6261  0.4678  0.9668
 1986SOL    HW217421   4.034   1.771   0.429  0.1087  2.3731  0.6005
 1987SOL     OW17422   3.195   0.361   3.877  0.0794 -0.5347 -0.1398
 1987SOL    HW117423   3.278   0.325   3.844  1.3491  0.3124  2.0847
 1987SOL    HW217424   3.220   0.429   3.939  0.6354  0.6395 -1.6447
 1988SOL     OW17425   1.627   2.530   6.515 -0.2606  0.4426  0.4600
 1988SOL    HW117426   1.532   2.516   6.515 -0.3021  0.7273 -1.2252
 1988SOL    HW217427   1.632   2.585   6.594 -3.0702 -1.4323  1.9534
 1989SOL     OW17428   3.067   3.784   2.040  0.0545  0.4346 -0.2934
 1989SOL    HW117429   3.096   3.740   1.960 -1.3056  0.4902 -0.8349
 1989SOL    HW217430   3.094   3.713   2.098  0.0725  1.2342  0.6755
 1990SOL     OW17431   2.103   0.573   8.172 -0.1501  0.4273  0.2108
 1990SOL    HW117432   2.179   0.516   8.183 -0.1577 -0.4738 -4.3532
 1990SOL    HW217433   2.032   0.523   8.213  0.5561  0.8174  1.8876
 1991SOL     OW17434   3.807   3.873   7.702  0.2294 -0.0982 -0.1374
 1991SOL    HW117435   3.759   3.797   7.670  1.7796 -1.7737  1.6026
 1991SOL    HW217436   3.745   3.946   7.712  0.7968  0.5923 -1.6346
 1992SOL     OW17437   1.491   1.070   0.078 -0.4513  0.4898 -0.8074
 1992SOL    HW117438   1.580   1.083   0.045 -1.6047  5.0756 -2.0573
 1992SOL    HW217439   1.517   1.060   0.170  1.2982  0.3629 -1.3263
 1993SOL     OW17440   0.262   3.091   2.061 -0.3982  0.3017 -0.0955
 1993SOL    HW117441   0.301   3.107   1.976  0.4400 -0.4975  0.1371
 1993SOL    HW217442   0.328   3.113   2.127 -1.7767  0.2339  1.3281
 1994SOL     OW17443   2.477   2.119  17.467 -0.0397 -0.0107  0.1055
 1994SOL    HW117444   2.481   2.110  17.372 -0.9067 -1.2553  0.1854
 1994SOL    HW217445   2.567   2.150  17.479  0.2590 -0.8993  0.1969
 1995SOL     OW17446   3.736   2.304   6.538 -0.8317 -0.7024 -0.1768
 1995SOL    HW117447   3.713   2.373   6.476  1.9534  0.5096  0.1587
 1995SOL    HW217448   3.651   2.264   6.558 -1.7141  0.7002 -1.1640
 1996SOL     OW17449   0.004   0.084   3.692  0.2324 -0.5656  0.7148
 1996SOL    HW117450   4.690   0.160   3.735  2.1109  0.2622  0.9130
 1996SOL    HW217451   4.680   0.075   3.609 -1.8401 -2.6759  2.1303
 1997SOL     OW17452   1.739   0.570   6.866  0.6151 -0.7148  0.1066
 1997SOL    HW117453   1.817   0.624   6.877  0.9249 -1.0742 -0.3666
 1997SOL    HW217454   1.681   0.629   6.819  1.4276 -0.2264 -0.2746
 1998SOL     OW17455   0.437   3.684   5.899  0.0901  0.1400  0.7691
 1998SOL    HW117456   0.531   3.668   5.885 -0.3237 -0.1313 -1.5774
 1998SOL    HW217457   0.412   3.759   5.845  0.2493  0.6315  1.3779
 1999SOL     OW17458   0.839   3.620   7.009  0.0208 -0.5356  0.2176
 1999SOL    HW117459   0.814   3.615   7.101 -0.3721 -0.1377  0.1335
 1999SOL    HW217460   0.932   3.642   7.010 -0.4565  1.3715  2.5072
 2000SOL     OW17461   1.780   1.029   2.712 -0.6430 -0.0026 -0.0715
 2000SOL    HW117462   1.693   1.066   2.730  0.2885  1.8080  0.6168
 2000SOL    HW217463   1.834   1.069   2.779 -2.3495 -2.4438  2.7807
 2001SOL     OW17464   0.516   3.842   6.953 -0.1360  0.7253 -0.0198
 2001SOL    HW117465   0.605   3.811   6.935  0.2671  1.4747  0.6438
 2001SOL    HW217466   0.475   3.820   6.870  2.0228 -0.5559 -0.7463
 2002SOL     OW17467   0.924   1.197  11.735 -0.2144  0.4314 -0.1901
 2002SOL    HW117468   0.921   1.271  11.675 -4.0614  1.7407  1.5537
 2002SOL    HW217469   1.017   1.177  11.740  0.2497  2.2912 -1.3878
 2003SOL     OW17470   1.158   3.560   7.855 -0.2388 -1.1180 -0.2342
 2003SOL    HW117471   1.117   3.629   7.803 -0.3344 -0.1289  1.1845
 2003SOL    HW217472   1.103   3.559   7.933 -2.0695 -0.8232 -1.5207
 2004SOL     OW17473   3.564   1.528   9.390 -0.1743  0.6276 -0.2244
 2004SOL    HW117474   3.634   1.560   9.447  0.1309  1.3470 -1.0124
 2004SOL    HW217475   3.535   1.609   9.350  1.2492  0.8405 -0.8451
 2005SOL     OW17476   1.720   2.894   0.458  0.0286  0.0734  0.1637
 2005SOL    HW117477   1.740   2.909   0.551 -0.2581 -1.5337  0.4808
 2005SOL    HW217478   1.709   2.987   0.438  2.5195  0.2367 -0.4786
 2006SOL     OW17479   2.284   0.765   0.963 -0.0938  0.0159 -0.5599
 2006SOL    HW117480   2.362   0.758   1.018  0.3397 -0.3538 -1.2171
 2006SOL    HW217481   2.226   0.822   1.012  0.0275 -0.6358  0.3467
 2007SOL     OW17482   0.914   2.989   4.955  0.8667  0.2937  0.0766
 2007SOL    HW117483   0.826   2.999   4.919  0.9503 -2.0490 -0.7404
 2007SOL    HW217484   0.965   3.033   4.887  0.6228 -0.0025 -0.2927
 2008SOL     OW17485   2.055   1.811   4.953 -0.0973 -0.6757 -0.4718
 2008SOL    HW117486   1.965   1.804   4.985 -0.2175  1.8162 -0.2750
 2008SOL    HW217487   2.041   1.760   4.873  0.4790 -0.8943 -0.4300
 2009SOL     OW17488   1.771   0.907   3.410 -0.1818 -0.7436 -0.0298
 2009SOL    HW117489   1.680   0.933   3.402 -0.0381  0.1844  1.3829
 2009SOL    HW217490   1.778   0.924   3.504 -0.2910 -0.4285 -0.0781
 2010SOL     OW17491   0.721   1.475   4.598 -0.4961 -0.2606  0.5985
 2010SOL    HW117492   0.697   1.385   4.617 -1.3066 -0.2583 -0.4521
 2010SOL    HW217493   0.816   1.475   4.588 -0.4891 -2.3600  0.7517
 2011SOL     OW17494   3.234   2.695   5.701  0.7107  0.1663 -0.0038
 2011SOL    HW117495   3.181   2.634   5.752  0.3387  1.7503  1.4942
 2011SOL    HW217496   3.228   2.668   5.609 -2.5417 -0.5799  0.4102
 2012SOL     OW17497   0.516   4.392   4.700 -0.0544 -0.5108  0.6703
 2012SOL    HW117498   0.518   4.315   4.643 -3.3398  1.9792 -2.8189
 2012SOL    HW217499   0.605   4.394   4.735  0.6617  0.5202 -1.1804
 2013SOL     OW17500   1.900   3.348   1.801  0.0477  0.4849  0.3335
 2013SOL    HW117501   1.822   3.305   1.837  0.2783 -0.5208 -0.3603
 2013SOL    HW217502   1.938   3.278   1.748  0.0029 -0.6623  1.8212
 2014SOL     OW17503   1.787   0.077   7.206 -0.2053  0.1343  1.1344
 2014SOL    HW117504   1.783   0.094   7.112 -1.8191  1.7939  1.5276
 2014SOL    HW217505   1.881   0.060   7.219  0.0735  1.9048  1.4222
 2015SOL     OW17506   2.165   1.318   2.993  0.5366  0.1308 -0.2838
 2015SOL    HW117507   2.083   1.289   2.953 -0.0913 -0.2500  1.2767
 2015SOL    HW217508   2.234   1.306   2.928  1.2142 -0.1883  0.4945
 2016SOL     OW17509   1.884   2.920  12.718  0.2421  0.2729  0.0306
 2016SOL    HW117510   1.852   3.006  12.747 -2.2330 -0.3180 -1.0191
 2016SOL    HW217511   1.893   2.877  12.803 -1.7639 -0.1619  0.0284
 2017SOL     OW17512   2.601   0.631   9.610  0.2475 -0.4631 -0.1606
 2017SOL    HW117513   2.641   0.696   9.668  2.2224  0.8768 -2.9941
 2017SOL    HW217514   2.593   0.687   9.533 -2.0104 -0.0250  0.3996
 2018SOL     OW17515   4.604   0.327  15.227 -0.6374 -0.1567  0.1991
 2018SOL    HW117516   4.568   0.408  15.262 -1.0878 -1.0507  1.7991
 2018SOL    HW217517   4.540   0.262  15.255 -1.0585 -0.1451 -0.7144
 2019SOL     OW17518   1.440   3.793   8.645 -0.8192  0.0893  0.5016
 2019SOL    HW117519   1.449   3.701   8.669  0.2679 -0.4305 -1.9350
 2019SOL    HW217520   1.355   3.817   8.681 -0.4211 -0.2215  1.6491
 2020SOL     OW17521   1.151   0.820   6.016 -0.6156 -0.0680  0.2598
 2020SOL    HW117522   1.133   0.748   6.076  2.1836 -2.0177 -1.2020
 2020SOL    HW217523   1.195   0.883   6.074 -1.5380  1.1684 -0.3715
 2021SOL     OW17524   2.977   4.270   0.697  0.0121  0.1171 -0.5749
 2021SOL    HW117525   3.049   4.219   0.660  1.1636  1.5941 -0.3468
 2021SOL    HW217526   2.897   4.220   0.681 -0.3273  0.6974 -0.6701
 2022SOL     OW17527   3.715   3.196   6.584 -0.5064  0.3109  0.0121
 2022SOL    HW117528   3.809   3.210   6.571 -0.2459  0.4329  2.0546
 2022SOL    HW217529   3.712   3.143   6.664  0.6099  0.4107  0.1209
 2023SOL     OW17530   0.700   2.351   0.610  0.1746 -0.2050 -0.0283
 2023SOL    HW117531   0.719   2.438   0.572  0.2877  0.3044  1.2078
 2023SOL    HW217532   0.608   2.342   0.583  0.1072  0.1290  0.0906
 2024SOL     OW17533   1.409   2.122   4.930 -0.0663  0.0656 -0.4573
 2024SOL    HW117534   1.357   2.106   4.851  0.2259 -2.4434 -0.1628
 2024SOL    HW217535   1.381   2.058   4.995  0.4413 -0.3152 -0.6116
 2025SOL     OW17536   3.807   2.284   2.880  0.2640  0.0271  0.0616
 2025SOL    HW117537   3.890   2.277   2.926 -0.3733  0.2102  1.2230
 2025SOL    HW217538   3.764   2.352   2.932  1.1043  0.0600  0.7112
 2026SOL     OW17539   3.920   0.090   9.136 -0.4936 -0.4359  0.1287
 2026SOL    HW117540   3.926   0.041   9.218  1.8566  0.2696  0.3813
 2026SOL    HW217541   3.991   0.044   9.091 -0.7381  0.1937 -0.9097
 2027SOL     OW17542   0.634   2.086   2.123 -0.0122 -0.2311 -0.1228
 2027SOL    HW117543   0.645   1.991   2.125  1.9676 -0.0939 -3.9906
 2027SOL    HW217544   0.575   2.102   2.049 -2.9651  0.3167  2.3402
 2028SOL     OW17545   1.977   1.857   6.779 -0.2835  0.7951  0.2690
 2028SOL    HW117546   1.923   1.936   6.774 -0.6059  0.4954 -1.1027
 2028SOL    HW217547   1.914   1.787   6.761  1.1720 -0.3342 -0.5420
 2029SOL     OW17548   2.261   0.884   3.276  0.0026  0.9152  0.6076
 2029SOL    HW117549   2.178   0.906   3.233 -0.9357 -2.9860  0.4205
 2029SOL    HW217550   2.294   0.973   3.291  1.8230  0.7779 -2.5064
 2030SOL     OW17551   0.038   0.780   2.014  0.5557 -0.3792  0.2469
 2030SOL    HW117552   4.722   0.791   1.928 -0.8074 -3.9287  0.3938
 2030SOL    HW217553   0.130   0.779   1.989  0.9203 -0.0383  1.5651
 2031SOL     OW17554   2.460   0.877   0.798  0.1957  0.0589 -0.7586
 2031SOL    HW117555   2.403   0.941   0.755 -0.8360  0.5900  1.3855
 2031SOL    HW217556   2.401   0.831   0.857  2.3910  0.0862  1.4323
 2032SOL     OW17557   0.269   4.164   3.489 -0.1677 -0.2075  0.0494
 2032SOL    HW117558   0.319   4.130   3.564  0.4087 -0.9976 -0.6967
 2032SOL    HW217559   0.238   4.082   3.452 -0.3962  0.5118 -1.3163
 2033SOL     OW17560   0.519   0.022   1.780 -0.2246  0.3926  0.9121
 2033SOL    HW117561   0.489   0.097   1.729  0.6669 -0.6115 -1.1396
 2033SOL    HW217562   0.439   4.699   1.802  0.2542 -1.4972 -1.3652
 2034SOL     OW17563   0.177   3.058  14.976 -0.1569  0.1359  0.2756
 2034SOL    HW117564   0.219   3.142  14.994 -1.6671  1.7473 -3.7288
 2034SOL    HW217565   0.105   3.073  14.915 -0.7639 -1.7255  0.5449
 2035SOL     OW17566   2.791   4.182   4.602  0.1421 -0.2487 -0.1690
 2035SOL    HW117567   2.837   4.126   4.664 -0.4583 -1.2554 -0.6282
 2035SOL    HW217568   2.737   4.236   4.660  1.2341  0.7954 -0.1150
 2036SOL     OW17569   4.403   4.588   7.510 -0.2918 -0.2015 -0.1491
 2036SOL    HW117570   4.449   4.506   7.491 -1.8792 -1.4260  1.2197
 2036SOL    HW217571   4.423   4.627   7.426  1.0994  0.7119  0.6171
 2037SOL     OW17572   0.418   1.501   7.541 -0.0400  0.7383 -0.3824
 2037SOL    HW117573   0.333   1.534   7.570  1.1401  2.1123  1.5130
 2037SOL    HW217574   0.390   1.437   7.476 -2.1916  0.2713  1.0001
 2038SOL     OW17575   1.507   2.007   5.326  0.4358 -0.1897  0.1908
 2038SOL    HW117576   1.415   2.033   5.327  0.3769 -0.4179  0.4962
 2038SOL    HW217577   1.548   2.074   5.271  3.4307 -1.9826  0.2399
 2039SOL     OW17578   4.287   0.286  13.163 -0.1959  0.4168 -0.1428
 2039SOL    HW117579   4.378   0.267  13.140 -0.9137 -1.1358 -1.7400
 2039SOL    HW217580   4.249   0.198  13.170 -0.4234  0.5468  0.2221
 2040SOL     OW17581   4.183   2.714   9.623  0.1058  0.3937 -0.3987
 2040SOL    HW117582   4.198   2.622   9.646 -2.4503  0.3747  1.1518
 2040SOL    HW217583   4.099   2.731   9.666  0.2821 -0.9805  0.4860
 2041SOL     OW17584   1.333   0.543   7.813 -0.1364 -0.2674 -0.3194
 2041SOL    HW117585   1.290   0.458   7.802  0.3045 -0.4751 -0.4460
 2041SOL    HW217586   1.406   0.518   7.870 -1.3682  0.1067  1.4091
 2042SOL     OW17587   0.088   0.362  16.109  0.4452  0.0712  0.2846
 2042SOL    HW117588   0.041   0.370  16.192 -1.7049 -1.5399 -0.7575
 2042SOL    HW217589   0.041   0.391  16.031  1.2276 -1.1878 -0.6514
 2043SOL     OW17590   0.589   1.270   7.236  0.4246 -0.4269  0.0139
 2043SOL    HW117591   0.614   1.179   7.251  0.9995 -0.1319  0.8387
 2043SOL    HW217592   0.519   1.281   7.299 -0.8247  1.4128 -1.6959
 2044SOL     OW17593   2.118   2.801   1.176 -0.4105  0.0136 -0.3714
 2044SOL    HW117594   2.066   2.872   1.213 -0.8013  0.0664 -1.0212
 2044SOL    HW217595   2.195   2.856   1.160 -1.0919  0.8721 -0.7014
 2045SOL     OW17596   1.096   2.994   2.333 -0.2576 -0.1351  0.3475
 2045SOL    HW117597   1.123   3.081   2.360  0.0579 -0.9466  2.6311
 2045SOL    HW217598   1.106   2.938   2.410 -0.1866 -0.6218 -0.0114
 2046SOL     OW17599   3.530   4.655   9.497  0.2543  0.4776 -0.0220
 2046SOL    HW117600   3.512   4.627   9.407 -1.4799 -2.3420  1.2348
 2046SOL    HW217601   3.464   4.721   9.516 -0.9788 -0.4078 -1.2590
 2047SOL     OW17602   3.590   0.047  11.308 -0.2998 -0.1178  0.7575
 2047SOL    HW117603   3.683   0.035  11.286 -0.4196  0.9429 -0.3773
 2047SOL    HW217604   3.551   0.040  11.221 -1.8501  0.6361  1.3824
 2048SOL     OW17605   0.637   0.392   9.759 -0.4164 -0.1974 -0.0155
 2048SOL    HW117606   0.676   0.327   9.700 -1.4780 -1.5817  0.7871
 2048SOL    HW217607   0.713   0.445   9.783  0.2707 -1.7556  1.2522
 2049SOL     OW17608   2.047   2.465   9.421 -0.2928  0.1822  0.5288
 2049SOL    HW117609   2.038   2.545   9.472  2.0592  0.8259 -0.0667
 2049SOL    HW217610   2.142   2.459   9.411  0.0407  1.7900  2.8480
 2050SOL     OW17611   2.535   1.952  17.099 -0.2788 -0.0518 -0.5177
 2050SOL    HW117612   2.547   1.946  17.004 -2.0400 -1.8661 -0.6366
 2050SOL    HW217613   2.575   2.036  17.121 -0.7766  0.4614 -1.5654
 2051SOL     OW17614   1.712   0.957   4.571  0.1379  0.1143 -0.2431
 2051SOL    HW117615   1.679   0.998   4.491 -1.0847 -1.0473 -0.3195
 2051SOL    HW217616   1.797   1.002   4.574  0.2743 -0.0599 -1.5890
 2052SOL     OW17617   1.520   1.883  10.049  0.0944 -0.6527 -0.3950
 2052SOL    HW117618   1.604   1.845  10.075 -0.8206 -1.1210  1.8609
 2052SOL    HW217619   1.465   1.822  10.098 -0.6182 -0.7532 -1.3051
 2053SOL     OW17620   4.324   4.562   8.021 -0.1099  0.2916 -0.2919
 2053SOL    HW117621   4.252   4.500   8.014 -1.5291  1.7599  1.4443
 2053SOL    HW217622   4.284   4.636   8.066  1.4103  1.5106 -0.9102
 2054SOL     OW17623   4.310   3.636   7.025 -0.5456  0.2754 -0.8556
 2054SOL    HW117624   4.234   3.677   7.067  2.0086  3.8371  0.2957
 2054SOL    HW217625   4.366   3.704   6.988  0.2426 -0.8429 -1.7243
 2055SOL     OW17626   0.169   1.509   9.095 -0.2601  0.2334  0.1197
 2055SOL    HW117627   0.194   1.472   9.179  0.6152 -0.7165 -0.5517
 2055SOL    HW217628   0.074   1.517   9.102 -0.3068  0.1785 -0.4462
 2056SOL     OW17629   1.528   0.357   3.459 -0.2826 -0.2509  0.0691
 2056SOL    HW117630   1.436   0.341   3.481  0.0355 -0.3820  1.2951
 2056SOL    HW217631   1.517   0.448   3.432  2.5500  0.5558  1.6286
 2057SOL     OW17632   2.717   0.266   9.389 -0.1345  0.2699  0.2126
 2057SOL    HW117633   2.733   0.343   9.444  0.1469  0.3638  0.0019
 2057SOL    HW217634   2.677   0.300   9.309 -0.8496  1.0120  0.8791
 2058SOL     OW17635   2.955   1.206  11.432 -0.6514  0.0367  0.0802
 2058SOL    HW117636   2.924   1.204  11.342 -1.3691 -3.4792  0.3842
 2058SOL    HW217637   3.047   1.184  11.414 -0.3338 -0.1123  1.8966
 2059SOL     OW17638   1.069   0.344  10.910 -0.1745  1.1321  0.4364
 2059SOL    HW117639   0.998   0.301  10.863  0.8333  0.3029 -0.3278
 2059SOL    HW217640   1.067   0.302  10.996  1.1848 -2.2499 -1.1887
 2060SOL     OW17641   4.573   2.262   8.078  0.0979  0.3807 -0.0553
 2060SOL    HW117642   4.481   2.276   8.098  0.3499 -1.9590  2.6896
 2060SOL    HW217643   4.616   2.287   8.160  0.7364  0.6775 -0.4797
 2061SOL     OW17644   4.176   1.711   1.952  0.3433  0.2109  0.4366
 2061SOL    HW117645   4.098   1.658   1.972  0.6031 -0.3527 -0.0366
 2061SOL    HW217646   4.159   1.727   1.859  0.0717 -1.4463  0.1902
 2062SOL     OW17647   1.449   1.043  14.765 -0.0403 -0.0534 -0.1468
 2062SOL    HW117648   1.539   1.060  14.794  0.4190 -0.3156 -1.3982
 2062SOL    HW217649   1.414   1.044  14.854  2.0468 -0.6360  0.7006
 2063SOL     OW17650   1.560   4.013  15.391  0.4948 -0.1446  0.1268
 2063SOL    HW117651   1.489   3.968  15.344 -0.2759  2.1199 -0.8507
 2063SOL    HW217652   1.634   3.989  15.335  0.8172  0.5217  0.2798
 2064SOL     OW17653   4.701   2.390   0.327  0.0127 -0.6208  0.3184
 2064SOL    HW117654   0.014   2.407   0.241  0.1794 -1.6010  0.1886
 2064SOL    HW217655   0.046   2.428   0.381  1.5313 -0.5484 -1.6686
 2065SOL     OW17656   2.954   2.705   2.642  0.0449  0.1593  0.3116
 2065SOL    HW117657   2.965   2.675   2.732  0.4389 -0.7340 -0.0277
 2065SOL    HW217658   2.934   2.620   2.602  0.4079  1.0547 -1.7664
 2066SOL     OW17659   3.953   0.892   4.832 -0.1145  0.4854  0.4900
 2066SOL    HW117660   3.916   0.804   4.824  1.3556  0.2479 -3.3930
 2066SOL    HW217661   3.927   0.930   4.916 -2.1107  0.7372 -0.2235
 2067SOL     OW17662   1.893   1.660   0.702  0.3529  0.5017 -0.0027
 2067SOL    HW117663   1.830   1.636   0.634  0.6158 -2.0887  0.6544
 2067SOL    HW217664   1.943   1.723   0.649 -2.8289  2.3157 -0.8862
 2068SOL     OW17665   2.115   3.290   6.420 -0.2189  0.3982 -0.1827
 2068SOL    HW117666   2.111   3.275   6.515  1.3713 -1.5665 -0.4296
 2068SOL    HW217667   2.134   3.201   6.390  0.6914  0.0695  1.3425
 2069SOL     OW17668   4.528   2.679   8.621 -0.1270  0.5021 -0.8363
 2069SOL    HW117669   4.466   2.606   8.613 -0.6050  0.8273 -0.0993
 2069SOL    HW217670   4.494   2.712   8.704  0.2237  0.4998 -0.6950
 2070SOL     OW17671   4.302   4.498   0.599 -0.1288  0.1540  0.3164
 2070SOL    HW117672   4.283   4.425   0.658 -2.9535  1.2566  0.8067
 2070SOL    HW217673   4.272   4.574   0.650 -1.0547  0.6342 -0.9346
 2071SOL     OW17674   4.678   3.259   3.119  0.6503 -0.2031  0.2810
 2071SOL    HW117675   0.015   3.304   3.177 -0.1102 -0.3181  1.1602
 2071SOL    HW217676   4.685   3.317   3.043  0.4760 -1.4083 -0.6571
 2072SOL     OW17677   0.473   1.731  14.811  0.8730 -0.3490 -0.0240
 2072SOL    HW117678   0.503   1.803  14.866 -0.1729 -0.7032  1.0073
 2072SOL    HW217679   0.523   1.744  14.730 -0.5239 -2.5737 -1.2342
 2073SOL     OW17680   2.832   0.189   4.612  0.4622 -0.0673 -0.2697
 2073SOL    HW117681   2.748   0.232   4.594  0.2227  0.3949  2.0068
 2073SOL    HW217682   2.801   0.102   4.635  0.2716  0.1544  0.3176
 2074SOL     OW17683   3.497   3.744   3.915  0.1660  0.4271 -0.4952
 2074SOL    HW117684   3.438   3.670   3.901 -2.2960  2.3360 -0.2593
 2074SOL    HW217685   3.502   3.740   4.010  1.8816 -1.3442 -0.6662
 2075SOL     OW17686   0.495   1.767   3.687 -0.2135 -0.0492  0.0901
 2075SOL    HW117687   0.492   1.837   3.753  0.5940  0.2582 -0.1896
 2075SOL    HW217688   0.571   1.716   3.716 -0.4243 -1.0700 -1.1608
 2076SOL     OW17689   3.544   2.213   3.580  0.6517  0.1247 -1.2528
 2076SOL    HW117690   3.521   2.174   3.664 -0.3874 -0.6774 -1.9042
 2076SOL    HW217691   3.638   2.196   3.575  0.8179  0.7189 -0.0146
 2077SOL     OW17692   2.303   2.701  16.942 -0.5436  0.2636 -0.0320
 2077SOL    HW117693   2.303   2.795  16.929  1.4835  0.4727  1.6164
 2077SOL    HW217694   2.251   2.673  16.866 -0.7508 -0.7035  0.4579
 2078SOL     OW17695   2.945   4.671  16.394  0.4834 -0.0024  0.0386
 2078SOL    HW117696   2.993   4.621  16.459  2.7727  1.8323 -0.2446
 2078SOL    HW217697   2.858   4.683  16.433  0.2322  2.4186 -1.2288
 2079SOL     OW17698   3.980   3.267  12.662 -0.1083 -0.3846 -0.0024
 2079SOL    HW117699   3.999   3.197  12.726  0.1485  0.3275  0.6952
 2079SOL    HW217700   3.916   3.219  12.609  1.4878  1.1486 -3.3010
 2080SOL     OW17701   2.294   2.913   2.390  0.1809 -0.4881 -0.0243
 2080SOL    HW117702   2.360   2.889   2.325 -0.2698  0.3508 -0.7882
 2080SOL    HW217703   2.224   2.948   2.335  0.1812  1.1946  1.0309
 2081SOL     OW17704   1.892   2.558  11.749  0.0252  0.2210  0.3746
 2081SOL    HW117705   1.951   2.566  11.824 -0.3031 -1.2059  0.7884
 2081SOL    HW217706   1.827   2.509  11.799 -0.6488  1.6557  0.8913
 2082SOL     OW17707   4.635   0.367   7.043  0.5365 -0.4911 -0.0374
 2082SOL    HW117708   4.659   0.282   7.006 -2.2485 -0.1953 -2.4557
 2082SOL    HW217709   4.658   0.422   6.968  0.8571  1.3844  1.4345
 2083SOL     OW17710   4.706   4.121   9.557  0.2356 -0.3826 -0.0114
 2083SOL    HW117711   0.038   4.164   9.492 -0.1681  1.6818  1.0172
 2083SOL    HW217712   4.644   4.091   9.490  0.6193 -0.5685 -0.2788
 2084SOL     OW17713   4.652   3.926  12.155 -0.2140 -0.3837 -0.8054
 2084SOL    HW117714   4.641   3.850  12.098  0.3967  0.4937 -2.1065
 2084SOL    HW217715   4.606   3.895  12.233  1.8981  0.8274  0.9254
 2085SOL     OW17716   2.188   1.376   3.737  0.2386  0.1004 -0.3466
 2085SOL    HW117717   2.126   1.341   3.673 -1.2951  1.3544  0.4328
 2085SOL    HW217718   2.247   1.432   3.685 -0.5209  1.0960 -0.1433
 2086SOL     OW17719   4.276   3.205   3.281 -0.2338  0.0773 -0.3206
 2086SOL    HW117720   4.227   3.144   3.226 -0.6929  0.5729 -0.4617
 2086SOL    HW217721   4.325   3.253   3.214 -1.0994  0.3118 -0.7920
 2087SOL     OW17722   3.187   0.320   8.797 -0.3046  0.4956  0.4049
 2087SOL    HW117723   3.105   0.366   8.814  0.1026  2.1139 -2.0793
 2087SOL    HW217724   3.254   0.386   8.814 -0.7401  0.8148  0.8826
 2088SOL     OW17725   2.215   3.572   6.980  0.0960  0.0236 -0.1999
 2088SOL    HW117726   2.306   3.574   6.948  0.0204 -0.7114 -0.4665
 2088SOL    HW217727   2.227   3.504   7.047 -0.2213  1.6537  1.4943
 2089SOL     OW17728   0.153   0.429   5.242 -0.3961  0.4108 -0.2561
 2089SOL    HW117729   0.242   0.465   5.244 -0.7440  1.2784 -0.2620
 2089SOL    HW217730   0.172   0.343   5.280 -1.0998  0.6450  0.6294
 2090SOL     OW17731   3.639   1.756   9.005 -0.0439  0.1851 -0.2928
 2090SOL    HW117732   3.689   1.813   8.946 -0.7915  0.7721 -0.3638
 2090SOL    HW217733   3.577   1.713   8.946 -0.6817 -0.8245  1.1241
 2091SOL     OW17734   3.379   1.736   8.640  0.0821 -0.4843 -0.0259
 2091SOL    HW117735   3.423   1.673   8.697  1.5593  0.4068 -0.1639
 2091SOL    HW217736   3.303   1.687   8.607  1.6670 -0.4889 -3.6986
 2092SOL     OW17737   2.743   1.485   9.546 -0.5374  0.1439 -0.1301
 2092SOL    HW117738   2.792   1.450   9.621 -2.1169 -1.0259  0.3562
 2092SOL    HW217739   2.801   1.554   9.513 -1.7436  1.2753  0.0994
 2093SOL     OW17740   4.254   0.939  12.616  0.1745 -0.2165 -0.7052
 2093SOL    HW117741   4.288   0.935  12.526 -0.3581 -1.5005 -0.8422
 2093SOL    HW217742   4.185   1.005  12.608  0.0142 -0.2986  0.0549
 2094SOL     OW17743   3.763   1.880  16.356 -0.4903  0.9591  0.0393
 2094SOL    HW117744   3.734   1.943  16.422  0.3345 -0.5326  1.8176
 2094SOL    HW217745   3.853   1.869  16.386 -0.0523 -0.8968 -1.9789
 2095SOL     OW17746   3.793   2.044  14.614 -0.3528  0.3699  0.1792
 2095SOL    HW117747   3.841   2.004  14.687  0.6896 -0.3933 -0.9332
 2095SOL    HW217748   3.712   2.080  14.650 -0.6102  1.6180 -1.7121
 2096SOL     OW17749   2.406   1.849  11.251  0.6698 -0.2084 -0.1083
 2096SOL    HW117750   2.475   1.911  11.227  0.4513 -0.4978 -1.4739
 2096SOL    HW217751   2.402   1.846  11.346  1.3140 -1.5565 -0.1347
 2097SOL     OW17752   3.123   1.173   2.587 -0.2437  0.1001  0.1822
 2097SOL    HW117753   3.038   1.176   2.544  0.1950  0.6701 -0.6390
 2097SOL    HW217754   3.180   1.159   2.512 -0.4351 -2.9155  0.5910
 2098SOL     OW17755   4.145   2.344   8.508 -0.0391 -0.0066 -0.2757
 2098SOL    HW117756   4.087   2.406   8.464  1.8995  0.9337 -1.5260
 2098SOL    HW217757   4.162   2.388   8.591 -0.8359  1.4094 -0.8590
 2099SOL     OW17758   0.699   2.699   7.895  0.5062  0.0774  0.8764
 2099SOL    HW117759   0.719   2.739   7.811  2.9880 -2.3448  0.2998
 2099SOL    HW217760   0.641   2.626   7.874 -0.9844  1.5442 -0.1191
 2100SOL     OW17761   3.590   3.095   0.654 -0.1119 -0.6646  0.3017
 2100SOL    HW117762   3.641   3.174   0.636 -2.3335  1.1092  1.6873
 2100SOL    HW217763   3.581   3.096   0.750 -0.8244 -0.9030  0.2411
 2101SOL     OW17764   1.537   1.101  11.292 -0.0075 -0.1178  0.4725
 2101SOL    HW117765   1.579   1.048  11.224  1.7383 -0.4002  1.7924
 2101SOL    HW217766   1.598   1.174  11.296 -2.1972  1.7762 -0.6552
 2102SOL     OW17767   0.638   0.941   5.579 -0.0895 -0.2413  0.0050
 2102SOL    HW117768   0.592   0.911   5.658 -0.1730 -2.2256 -0.7823
 2102SOL    HW217769   0.566   0.946   5.517  0.2663  0.1693 -0.3659
 2103SOL     OW17770   0.729   1.741   6.602  0.1372  0.2635  0.2542
 2103SOL    HW117771   0.726   1.647   6.622  0.5657 -0.0501 -1.1647
 2103SOL    HW217772   0.689   1.781   6.679 -0.4602 -0.8598  0.5240
 2104SOL     OW17773   3.910   1.137   8.284  0.6283  0.4072 -0.6436
 2104SOL    HW117774   3.902   1.145   8.189 -0.4563  0.7936 -0.5223
 2104SOL    HW217775   3.930   1.044   8.286 -1.1718  0.0255 -0.3980
 2105SOL     OW17776   2.220   0.758   7.359  0.9414  0.3425 -0.0871
 2105SOL    HW117777   2.224   0.684   7.299 -0.3612 -0.2350  0.5332
 2105SOL    HW217778   2.289   0.807   7.316  1.5673 -1.9676 -1.6884
 2106SOL     OW17779   4.010   1.361   8.060 -0.1630  0.0738 -0.6847
 2106SOL    HW117780   4.067   1.307   8.114  1.3443  0.9780 -1.3632
 2106SOL    HW217781   4.047   1.449   8.058  1.2904 -0.5148  1.8242
 2107SOL     OW17782   2.481   0.376   9.254  0.4752  0.1885  0.3744
 2107SOL    HW117783   2.461   0.464   9.222  0.8507  0.1862  0.1348
 2107SOL    HW217784   2.444   0.375   9.343 -1.2888 -2.6427 -0.4369
 2108SOL     OW17785   1.652   4.315   6.075 -0.1179  0.9349  0.0654
 2108SOL    HW117786   1.665   4.232   6.121 -3.0121  1.7640  2.3951
 2108SOL    HW217787   1.603   4.368   6.138 -1.7984 -0.4674 -0.0647
 2109SOL     OW17788   3.028   1.392   1.573  0.1201  0.0333 -0.1884
 2109SOL    HW117789   3.123   1.400   1.584  0.1499  0.8949 -1.0439
 2109SOL    HW217790   3.013   1.302   1.543  0.2307 -0.1764  0.3909
 2110SOL     OW17791   2.324   2.689  17.288  0.2094  0.1535  0.1102
 2110SOL    HW117792   2.404   2.741  17.304  0.6553 -0.7190  0.6837
 2110SOL    HW217793   2.323   2.674  17.193  2.9637 -4.2525  0.7650
 2111SOL     OW17794   2.145   3.593   1.536 -0.3161 -0.0715  0.1247
 2111SOL    HW117795   2.211   3.568   1.600  0.8534 -0.3113 -1.1756
 2111SOL    HW217796   2.133   3.519   1.477  0.4926 -0.5793  0.6059
 2112SOL     OW17797   1.969   2.988   2.528 -0.5243 -0.0093 -0.2027
 2112SOL    HW117798   1.908   2.934   2.578 -0.5101  0.6099  0.4944
 2112SOL    HW217799   1.973   2.945   2.443  0.5465  0.8514 -0.5927
 2113SOL     OW17800   3.438   1.739   9.264  0.3144  0.0287  0.0646
 2113SOL    HW117801   3.369   1.720   9.201 -0.9695  1.5430  1.0365
 2113SOL    HW217802   3.381   1.762   9.337 -0.0725 -1.6204  0.2995
 2114SOL     OW17803   2.574   2.785  17.339 -0.3895 -0.3269  0.3049
 2114SOL    HW117804   2.643   2.807  17.276  1.2100  0.0708  2.2112
 2114SOL    HW217805   2.588   2.841  17.415 -0.6482  1.1297 -0.6952
 2115SOL     OW17806   1.592   3.353  11.702 -0.2291  0.2974 -0.2130
 2115SOL    HW117807   1.523   3.344  11.637  1.0229 -0.8959 -1.3630
 2115SOL    HW217808   1.628   3.433  11.662 -0.8536  0.2717 -0.8079
 2116SOL     OW17809   2.000   3.247   2.628  0.2450 -0.1594 -0.0378
 2116SOL    HW117810   2.087   3.246   2.667  0.7350  1.4852 -1.0599
 2116SOL    HW217811   2.000   3.162   2.583 -0.3385 -0.9758  1.5363
 2117SOL     OW17812   0.577   3.630   5.555  0.4701  0.7230 -0.0822
 2117SOL    HW117813   0.604   3.600   5.642  1.2877  1.9727  0.1086
 2117SOL    HW217814   0.581   3.726   5.562  0.3182  0.7077  0.2142
 2118SOL     OW17815   0.020   1.199   3.211  0.2087  0.2142 -0.0780
 2118SOL    HW117816   0.087   1.131   3.204  1.0179  1.0359 -0.2783
 2118SOL    HW217817   4.691   1.177   3.134  0.5827 -1.6007  0.1734
 2119SOL     OW17818   4.194   2.877   8.345  0.2797  0.4350 -0.1990
 2119SOL    HW117819   4.179   2.798   8.293 -0.8897  0.2648  0.4065
 2119SOL    HW217820   4.121   2.924   8.306  0.0396 -0.1153 -0.4131
 2120SOL     OW17821   3.905   2.559   6.432  0.3951 -0.3981  0.5492
 2120SOL    HW117822   3.996   2.587   6.442  0.2773  1.1960 -2.8062
 2120SOL    HW217823   3.853   2.611   6.494 -1.2516 -1.3571 -0.0377
 2121SOL     OW17824   2.505   3.574   7.655  0.3051  0.4877  0.0404
 2121SOL    HW117825   2.471   3.548   7.569 -1.3549  0.1657  0.8075
 2121SOL    HW217826   2.591   3.532   7.660 -0.1235 -0.4388 -0.4483
 2122SOL     OW17827   0.820   0.020   1.777  0.2635  0.1150  0.3444
 2122SOL    HW117828   0.839   0.007   1.684 -0.2149 -0.0157  0.2623
 2122SOL    HW217829   0.726   0.003   1.777  0.2760  0.0478  0.2955
 2123SOL     OW17830   0.558   0.201  14.015  0.2115 -0.4694  0.0509
 2123SOL    HW117831   0.574   0.241  13.929 -0.4973 -0.3951 -0.0447
 2123SOL    HW217832   0.633   0.142  14.027 -0.0694 -0.9231 -0.4457
 2124SOL     OW17833   0.766   1.417   3.839  0.3960  0.1571  0.0209
 2124SOL    HW117834   0.768   1.468   3.920 -0.0268 -2.6371  1.7671
 2124SOL    HW217835   0.684   1.371   3.854  1.5371 -2.6929 -2.5691
 2125SOL     OW17836   2.598   4.510   3.589 -0.1841  0.1987  0.5750
 2125SOL    HW117837   2.520   4.531   3.639  0.3825  1.0277  1.1047
 2125SOL    HW217838   2.666   4.491   3.654  0.6347 -0.9866 -0.6256
 2126SOL     OW17839   2.821   0.372  17.554 -0.0523  0.3997 -0.6352
 2126SOL    HW117840   2.756   0.344  17.490 -1.6102  2.3849  0.0866
 2126SOL    HW217841   2.846   0.451  17.507  0.7436  0.0476 -0.8226
 2127SOL     OW17842   1.219   2.384   2.365 -0.2062 -0.1651  0.2750
 2127SOL    HW117843   1.186   2.295   2.350 -1.1535  0.3033 -0.3923
 2127SOL    HW217844   1.140   2.438   2.368 -0.4280 -0.4973  0.4604
 2128SOL     OW17845   0.433   2.347  14.220 -0.1352  0.5552 -0.3092
 2128SOL    HW117846   0.367   2.402  14.178 -1.1058 -0.7155 -0.4547
 2128SOL    HW217847   0.464   2.405  14.290  4.1168 -1.5335 -0.4660
 2129SOL     OW17848   3.006   1.669   5.455 -0.3809  0.4320 -0.5702
 2129SOL    HW117849   2.950   1.592   5.460  0.0795  0.1732  0.3981
 2129SOL    HW217850   3.048   1.684   5.539 -0.2130 -0.8978 -0.4324
 2130SOL     OW17851   1.431   3.710   4.540 -0.1852 -0.2028  0.1742
 2130SOL    HW117852   1.498   3.777   4.532 -0.8371  0.3966 -0.3094
 2130SOL    HW217853   1.440   3.656   4.461  0.2181  0.0762  0.0294
 2131SOL     OW17854   2.782   3.433  12.785 -0.0248  0.5716  0.2992
 2131SOL    HW117855   2.796   3.507  12.725 -0.6686 -0.7994 -1.5592
 2131SOL    HW217856   2.864   3.387  12.773 -0.2680 -0.1108  1.3368
 2132SOL     OW17857   2.565   4.259   1.536  0.2001  0.2008 -0.3122
 2132SOL    HW117858   2.472   4.250   1.556  0.0260 -1.5396 -1.8295
 2132SOL    HW217859   2.603   4.206   1.607  1.0407  0.3522 -0.6526
 2133SOL     OW17860   4.412   2.467   2.788 -0.0013 -0.6288 -0.6371
 2133SOL    HW117861   4.448   2.466   2.699 -0.1513 -0.9429 -0.6934
 2133SOL    HW217862   4.331   2.418   2.775 -0.4655 -0.1135  0.3051
 2134SOL     OW17863   1.692   3.864   8.580 -0.0573  0.1425  0.3643
 2134SOL    HW117864   1.598   3.850   8.596  0.6759 -3.3876  1.5617
 2134SOL    HW217865   1.736   3.780   8.573  0.1894  0.3870 -1.1052
 2135SOL     OW17866   0.247   4.456   7.165  0.5155  0.0453 -0.5424
 2135SOL    HW117867   0.214   4.540   7.197  0.5755 -1.0516  2.4334
 2135SOL    HW217868   0.333   4.454   7.207 -0.3029  1.2709  1.1926
 2136SOL     OW17869   3.090   0.469   3.522  0.1391  0.1830 -0.0373
 2136SOL    HW117870   3.008   0.499   3.484  0.3394  1.0377  0.2051
 2136SOL    HW217871   3.112   0.537   3.586 -1.6212  1.2738 -0.6060
 2137SOL     OW17872   0.752   0.273   8.518  0.1485 -0.4428 -0.0522
 2137SOL    HW117873   0.710   0.351   8.555 -1.0582 -0.0730 -2.1771
 2137SOL    HW217874   0.731   0.218   8.593 -2.0481 -0.2072 -0.4851
 2138SOL     OW17875   1.267   3.930   6.724 -0.5205 -0.4856  0.5329
 2138SOL    HW117876   1.271   3.944   6.819 -0.3874 -0.4526  0.5227
 2138SOL    HW217877   1.325   4.000   6.694 -1.2733 -0.0016  0.1982
 2139SOL     OW17878   0.876   4.558   8.061  0.0825 -0.6936 -0.5558
 2139SOL    HW117879   0.795   4.607   8.049 -0.6977 -2.0317 -0.7784
 2139SOL    HW217880   0.860   4.469   8.028 -0.6688  0.2633 -2.7877
 2140SOL     OW17881   3.426   1.126   3.221 -0.3418 -0.2682  0.0977
 2140SOL    HW117882   3.409   1.114   3.315 -1.6842 -2.0738 -0.3755
 2140SOL    HW217883   3.516   1.157   3.232  0.1105 -1.8206  0.8187
 2141SOL     OW17884   0.103   4.201   2.534  0.0163 -0.5085  0.4506
 2141SOL    HW117885   0.093   4.191   2.439 -1.3589  1.3608  0.3996
 2141SOL    HW217886   0.144   4.119   2.561 -1.5003 -0.8218  1.7876
 2142SOL     OW17887   4.570   0.247   6.596 -1.1070 -0.1511  0.0617
 2142SOL    HW117888   4.659   0.219   6.574 -1.5483 -1.2886 -0.3004
 2142SOL    HW217889   4.528   0.168   6.562 -0.0579 -0.4079 -0.6634
 2143SOL     OW17890   3.616   1.574   6.041  0.0161  0.4434  1.2643
 2143SOL    HW117891   3.610   1.669   6.033 -1.5010  0.3610  1.3474
 2143SOL    HW217892   3.701   1.560   6.081  0.1003  0.0684  0.9609
 2144SOL     OW17893   2.938   1.561   4.376 -0.4206 -0.2889 -0.1679
 2144SOL    HW117894   2.916   1.484   4.324 -0.3899  0.5281 -1.3996
 2144SOL    HW217895   2.960   1.519   4.459  3.7672  1.3967 -0.4132
 2145SOL     OW17896   4.640   3.729   8.914 -0.0699  0.2455  0.3783
 2145SOL    HW117897   4.550   3.762   8.905 -0.3871 -0.2380  1.7154
 2145SOL    HW217898   4.680   3.803   8.959  1.1606  0.9222 -1.8337
 2146SOL     OW17899   2.190   0.017  13.054  0.0713 -0.1805  0.2947
 2146SOL    HW117900   2.210   4.666  13.111  1.1078 -0.0165  0.1547
 2146SOL    HW217901   2.096   4.723  13.052  0.6160 -2.4808 -3.3896
 2147SOL     OW17902   2.107   3.361   5.954  0.0971  0.1961  0.2923
 2147SOL    HW117903   2.106   3.267   5.969 -2.1522 -0.0735 -1.5088
 2147SOL    HW217904   2.080   3.384   6.042 -0.0630 -0.4123  0.3975
 2148SOL     OW17905   4.273   1.744   3.843  0.1944 -0.0972  0.3490
 2148SOL    HW117906   4.204   1.799   3.808  0.2179  1.3327  2.5296
 2148SOL    HW217907   4.332   1.810   3.879  0.5639 -0.0501 -0.3442
 2149SOL     OW17908   3.130   4.205   7.216 -0.2988  0.5228 -0.4093
 2149SOL    HW117909   3.207   4.198   7.160  0.4200 -0.1745  0.6757
 2149SOL    HW217910   3.082   4.126   7.190 -0.1074 -0.1242  1.2132
 2150SOL     OW17911   1.163   2.532   7.719  0.5595  0.1336  0.2884
 2150SOL    HW117912   1.118   2.614   7.699  0.8678 -0.4746 -2.9546
 2150SOL    HW217913   1.220   2.572   7.784  1.3478  0.0524 -0.3473
 2151SOL     OW17914   0.369   2.866   4.909  0.4916  0.0920  0.4005
 2151SOL    HW117915   0.278   2.853   4.880  0.7047 -0.6560  0.0442
 2151SOL    HW217916   0.414   2.792   4.867 -1.4649 -0.0579 -1.4396
 2152SOL     OW17917   1.125   0.860   8.332  0.0631 -0.3795 -0.1447
 2152SOL    HW117918   1.072   0.792   8.289 -0.7554 -0.9234  1.7041
 2152SOL    HW217919   1.171   0.805   8.396  0.0606  1.6855  1.6256
 2153SOL     OW17920   3.230   4.133   1.943 -0.3888 -0.5416 -0.1695
 2153SOL    HW117921   3.289   4.073   1.897  0.9112  0.5620  0.0584
 2153SOL    HW217922   3.286   4.143   2.020 -2.7885  2.6830  1.1720
 2154SOL     OW17923   0.339   2.437  11.632 -0.0679  0.0958  0.7827
 2154SOL    HW117924   0.414   2.434  11.691  1.3329 -0.2859 -1.0105
 2154SOL    HW217925   0.391   2.471  11.559  0.0743  0.1578  0.9150
 2155SOL     OW17926   4.549   2.645   4.790 -0.3911  0.8242  0.0789
 2155SOL    HW117927   4.500   2.611   4.715 -0.9523 -0.8886  1.2100
 2155SOL    HW217928   4.587   2.569   4.834  0.8424  1.9569  0.9576
 2156SOL     OW17929   2.941   1.844  16.320 -0.3151  0.0489  0.0822
 2156SOL    HW117930   2.993   1.859  16.399  0.3292 -0.6454 -0.2094
 2156SOL    HW217931   2.970   1.915  16.263  1.5589 -2.5952 -2.2786
 2157SOL     OW17932   1.472   2.514   8.238 -0.3975 -0.1578  0.2656
 2157SOL    HW117933   1.453   2.585   8.300  0.8372  1.4391 -1.1897
 2157SOL    HW217934   1.384   2.498   8.203 -0.7332 -1.3096  1.6199
 2158SOL     OW17935   1.367   3.484   5.948  0.0112 -0.1643 -0.6293
 2158SOL    HW117936   1.396   3.410   6.001 -0.1168  0.3372  0.1389
 2158SOL    HW217937   1.339   3.542   6.019 -0.8689  0.6921 -1.6748
 2159SOL     OW17938   2.236   3.654   4.329 -0.0443  0.0095  0.4224
 2159SOL    HW117939   2.270   3.611   4.408 -0.5992  1.5559  1.4996
 2159SOL    HW217940   2.283   3.604   4.263 -0.5408 -1.3764  1.0998
 2160SOL     OW17941   2.392   2.716  12.703  0.0295 -0.1778  0.4397
 2160SOL    HW117942   2.330   2.749  12.768 -0.8738  3.3780 -2.2633
 2160SOL    HW217943   2.392   2.621  12.716 -3.6206 -0.2767 -0.2992
 2161SOL     OW17944   0.530   2.454   7.886 -0.1225  0.4614 -0.9945
 2161SOL    HW117945   0.563   2.365   7.874  1.2431  0.8830 -0.3717
 2161SOL    HW217946   0.537   2.468   7.980 -0.2657  0.6713 -1.0154
 2162SOL     OW17947   0.814   0.231   0.615  0.1819  0.6985  0.1056
 2162SOL    HW117948   0.821   0.204   0.707  1.1430 -2.0035 -0.7666
 2162SOL    HW217949   0.718   0.230   0.616  0.1736  3.0456 -0.1651
 2163SOL     OW17950   1.441   1.105   8.844  0.3400  0.0134 -0.0556
 2163SOL    HW117951   1.443   1.011   8.829  0.2787  0.0076 -0.0254
 2163SOL    HW217952   1.443   1.132   8.752 -0.1379 -2.4918 -0.7974
 2164SOL     OW17953   2.051   1.701   3.855  0.6235 -0.4457  0.7713
 2164SOL    HW117954   2.140   1.716   3.823  0.4557  1.7161  1.2988
 2164SOL    HW217955   2.045   1.770   3.921 -0.8231  0.1543  0.0412
 2165SOL     OW17956   1.369   0.531   8.323 -1.0012 -0.4371 -0.2734
 2165SOL    HW117957   1.284   0.515   8.281 -2.3412 -0.1206  2.3481
 2165SOL    HW217958   1.391   0.616   8.285  1.1338 -0.1308  1.7211
 2166SOL     OW17959   2.506   3.289  12.669 -0.1828  0.0359  0.2966
 2166SOL    HW117960   2.524   3.195  12.675  0.2755  0.1813  1.2461
 2166SOL    HW217961   2.570   3.336  12.722 -1.5116  1.8399  0.3065
 2167SOL     OW17962   4.082   4.352  11.803 -0.1781  0.0773  0.0578
 2167SOL    HW117963   4.157   4.301  11.771  1.4598  1.7958  1.1258
 2167SOL    HW217964   4.117   4.440  11.820 -1.7007  0.9978 -1.5588
 2168SOL     OW17965   2.136   3.338   5.676  0.0327  0.1707  0.4244
 2168SOL    HW117966   2.137   3.380   5.763  0.0258 -3.0626  1.9608
 2168SOL    HW217967   2.176   3.254   5.696 -0.3172  0.2462  1.4329
 2169SOL     OW17968   2.445   1.975   3.661  0.1079  0.3151  0.0829
 2169SOL    HW117969   2.419   2.062   3.630  1.3551  0.6662  0.0015
 2169SOL    HW217970   2.521   1.958   3.605 -0.7801  1.6427 -1.5343
 2170SOL     OW17971   4.168   4.527   1.490 -0.3888  0.4784  0.0621
 2170SOL    HW117972   4.203   4.594   1.431 -1.2724 -1.0397 -2.1874
 2170SOL    HW217973   4.239   4.465   1.506  0.7426  1.8883  0.4229
 2171SOL     OW17974   1.389   1.105   6.506  0.2061 -0.0542 -0.3854
 2171SOL    HW117975   1.451   1.099   6.433 -0.0682  0.2586 -0.6422
 2171SOL    HW217976   1.344   1.184   6.478  0.5535  0.8126  1.4890
 2172SOL     OW17977   2.500   2.499   3.556  1.1713  0.1322  0.1038
 2172SOL    HW117978   2.535   2.584   3.582  0.6819  0.3398  0.0873
 2172SOL    HW217979   2.574   2.498   3.495  0.2139 -0.8114 -1.0483
 2173SOL     OW17980   3.639   1.916   8.766 -0.0126  0.2368  0.5096
 2173SOL    HW117981   3.695   1.869   8.704 -1.9113 -0.3480 -0.7974
 2173SOL    HW217982   3.639   2.004   8.727 -0.4013 -0.6338 -1.4934
 2174SOL     OW17983   3.341   0.095   8.646 -0.1001  0.6008  0.2294
 2174SOL    HW117984   3.349   0.130   8.734  0.4720 -0.2046  0.4991
 2174SOL    HW217985   3.397   0.019   8.663 -0.8477  0.4451  1.9940
 2175SOL     OW17986   2.162   2.789   7.574  0.3396  0.4766 -0.0559
 2175SOL    HW117987   2.079   2.817   7.612  1.7065 -1.7392  4.4602
 2175SOL    HW217988   2.224   2.805   7.644  0.0624  2.1040 -0.1851
 2176SOL     OW17989   0.133   2.781   4.840 -0.1894 -0.1397 -0.2259
 2176SOL    HW117990   0.084   2.835   4.778 -1.4307  0.7688  1.5498
 2176SOL    HW217991   0.147   2.703   4.786 -0.7666 -0.1421 -0.3694
 2177SOL     OW17992   3.728   0.262  10.022 -0.7548  0.2502 -0.2353
 2177SOL    HW117993   3.685   0.220   9.948  0.0455  0.7769 -0.9932
 2177SOL    HW217994   3.708   0.200  10.093 -1.2960 -1.2053 -1.6709
 2178SOL     OW17995   2.882   0.690   7.990  0.1323  0.2319  0.0799
 2178SOL    HW117996   2.815   0.756   7.973  0.8654  1.1572  0.7735
 2178SOL    HW217997   2.833   0.627   8.044 -1.5384  0.7550 -0.8131
 2179SOL     OW17998   2.397   3.298   6.158 -0.3426  0.2689 -0.5065
 2179SOL    HW117999   2.435   3.371   6.207 -2.0690  1.3378 -0.7680
 2179SOL    HW218000   2.313   3.286   6.201 -1.0229  1.1240 -1.6157
 2180SOL     OW18001   0.937   4.404   7.168  0.0924 -0.0600  0.1820
 2180SOL    HW118002   0.847   4.401   7.136  0.7448  0.8620 -1.7339
 2180SOL    HW218003   0.935   4.499   7.180  1.0111  0.0621 -0.5811
 2181SOL     OW18004   1.417   2.926   7.514  0.7152 -0.0690 -0.0098
 2181SOL    HW118005   1.355   2.912   7.443  1.3874 -1.4045 -0.3213
 2181SOL    HW218006   1.486   2.869   7.481 -0.5833 -0.2190 -2.4832
 2182SOL     OW18007   4.392   2.826  16.038  0.3643  0.3244  0.3719
 2182SOL    HW118008   4.354   2.838  15.950  1.0662  0.9752  0.1614
 2182SOL    HW218009   4.470   2.880  16.034 -0.2398  1.1602 -0.3816
 2183SOL     OW18010   2.905   0.503   0.388  0.1876  0.0577 -0.5235
 2183SOL    HW118011   2.935   0.425   0.342 -0.3871 -1.6406  2.0143
 2183SOL    HW218012   2.822   0.507   0.340  0.1206  1.3895 -0.2968
 2184SOL     OW18013   2.026   4.205   0.324 -0.0923 -0.5259  0.4234
 2184SOL    HW118014   1.956   4.147   0.293 -2.8480  2.1334  1.6815
 2184SOL    HW218015   2.100   4.145   0.319  1.2266  0.8989  2.6853
 2185SOL     OW18016   0.964   0.449  12.364 -0.0474 -0.3295  0.1946
 2185SOL    HW118017   1.039   0.435  12.421  2.3407 -1.4882 -3.2551
 2185SOL    HW218018   0.960   0.544  12.359 -0.7686 -0.3655  0.0090
 2186SOL     OW18019   0.176   3.843   1.669 -0.1200  0.2546  0.1781
 2186SOL    HW118020   0.183   3.801   1.754  0.5503  0.4077  0.1964
 2186SOL    HW218021   0.125   3.921   1.692  1.5941  1.3917  0.1074
 2187SOL     OW18022   4.057   3.098   8.490  0.2750 -0.8440  0.5083
 2187SOL    HW118023   4.022   3.045   8.562 -1.9676 -3.1658 -2.3138
 2187SOL    HW218024   3.989   3.098   8.422 -0.2740  1.0660  1.0633
 2188SOL     OW18025   3.273   1.645   7.186 -0.0946 -0.1225  0.1197
 2188SOL    HW118026   3.179   1.635   7.204 -0.6207  1.5604 -1.6542
 2188SOL    HW218027   3.305   1.629   7.275  0.6171 -2.4425 -0.5547
 2189SOL     OW18028   0.247   0.320   7.888  0.0291 -0.7291 -0.1400
 2189SOL    HW118029   0.213   0.311   7.977 -1.6935 -0.3104 -0.7353
 2189SOL    HW218030   0.167   0.347   7.842  0.0348  1.8287  1.3778
 2190SOL     OW18031   0.919   0.051   4.314  0.5068  0.6361 -0.4572
 2190SOL    HW118032   1.008   0.070   4.345  0.6678  0.8015 -1.0127
 2190SOL    HW218033   0.918   4.681   4.299 -2.0989  0.8384 -1.5380
 2191SOL     OW18034   2.526   2.770   3.127  0.4035 -0.0258 -0.3250
 2191SOL    HW118035   2.431   2.768   3.137  0.5473 -2.3790  0.5520
 2191SOL    HW218036   2.539   2.686   3.081  1.0382  0.1090 -0.3880
 2192SOL     OW18037   0.167   0.545   4.257 -0.5706  0.5226 -0.6105
 2192SOL    HW118038   0.126   0.490   4.191 -0.4182  0.9431 -1.0584
 2192SOL    HW218039   0.218   0.600   4.198 -2.3075  2.2970 -0.4583
 2193SOL     OW18040   1.465   0.192  11.919  0.4353 -0.1870 -0.5653
 2193SOL    HW118041   1.544   0.189  11.973  0.1972  1.0865 -0.1367
 2193SOL    HW218042   1.421   0.114  11.953 -1.3869  1.4766  0.9191
 2194SOL     OW18043   0.352   2.783   6.956 -0.7178  0.2742 -0.7292
 2194SOL    HW118044   0.305   2.730   6.891  0.9246 -1.3621 -0.5967
 2194SOL    HW218045   0.349   2.722   7.029 -1.8937 -0.1330 -1.1248
 2195SOL     OW18046   4.333   1.330  16.164 -0.7789 -0.5028 -0.1792
 2195SOL    HW118047   4.413   1.333  16.217 -0.9239 -0.6219  0.0445
 2195SOL    HW218048   4.283   1.285  16.232 -0.6990  1.3848  1.1670
 2196SOL     OW18049   0.475   3.931   7.638  0.3554 -0.7234 -0.0651
 2196SOL    HW118050   0.556   3.982   7.641 -0.1281  0.1313 -1.5406
 2196SOL    HW218051   0.471   3.907   7.731 -1.6950 -0.7606 -0.1707
 2197SOL     OW18052   0.620   3.853   9.396  0.3909  0.4972 -0.2026
 2197SOL    HW118053   0.533   3.871   9.362  0.1309  0.0026  0.2002
 2197SOL    HW218054   0.681   3.827   9.326  1.3664  3.2931 -0.3907
 2198SOL     OW18055   2.435   1.797   6.692  0.0408  0.2924 -0.3185
 2198SOL    HW118056   2.375   1.757   6.756 -1.6510  0.6304 -1.6744
 2198SOL    HW218057   2.374   1.824   6.623  1.3400 -0.6539 -1.8242
 2199SOL     OW18058   1.576   3.922   4.603 -0.4238  0.4849  0.2014
 2199SOL    HW118059   1.576   4.018   4.600 -3.0995  0.5468  2.2107
 2199SOL    HW218060   1.668   3.897   4.601 -0.3748  0.7425 -1.0365
 2200SOL     OW18061   0.535   1.523   6.834  0.3566  0.5913  1.1345
 2200SOL    HW118062   0.522   1.457   6.766 -1.4344  1.7687  0.3286
 2200SOL    HW218063   0.444   1.544   6.854  0.4467  0.1010  2.0254
 2201SOL     OW18064   0.425   0.067   2.987 -0.5822  0.6417 -0.1092
 2201SOL    HW118065   0.373   0.012   2.929 -1.0663 -1.5865  2.4525
 2201SOL    HW218066   0.510   0.026   2.976 -1.9417 -2.1221 -0.1850
 2202SOL     OW18067   2.794   2.328  11.077  0.5516 -0.0812 -0.0645
 2202SOL    HW118068   2.830   2.345  10.990  0.4142 -0.4629 -0.1982
 2202SOL    HW218069   2.843   2.248  11.097  1.3844  1.0270  2.2434
 2203SOL     OW18070   0.876   2.947   7.405  0.3823 -0.3860  0.0750
 2203SOL    HW118071   0.796   2.961   7.455  1.7247  0.5521  1.9659
 2203SOL    HW218072   0.843   2.990   7.327  0.4346 -0.3833  0.0543
 2204SOL     OW18073   4.054   2.259   3.005 -0.1981  0.0689 -0.0066
 2204SOL    HW118074   4.043   2.294   3.093  1.0943 -1.4867  0.7799
 2204SOL    HW218075   4.089   2.175   3.033 -1.7064 -0.8210 -0.7495
 2205SOL     OW18076   3.755   0.680  15.151 -0.1957 -0.1769 -0.3130
 2205SOL    HW118077   3.706   0.617  15.204  2.6009 -1.7750  0.4261
 2205SOL    HW218078   3.742   0.763  15.196  3.7389 -0.1178  0.7333
 2206SOL     OW18079   4.433   2.256   0.578  0.1123  0.1014 -0.3497
 2206SOL    HW118080   4.458   2.171   0.543 -1.7342 -0.3855 -0.4531
 2206SOL    HW218081   4.338   2.261   0.565  0.0574  0.3082  0.1253
 2207SOL     OW18082   2.138   3.963   8.879  0.0788  0.5595  0.7402
 2207SOL    HW118083   2.194   3.886   8.892  0.1252  0.2493 -1.3213
 2207SOL    HW218084   2.121   3.955   8.786  2.4787 -2.0938  0.5318
 2208SOL     OW18085   1.983   0.709  10.854 -0.1853  0.4947  0.3874
 2208SOL    HW118086   2.034   0.768  10.908 -0.3613 -0.9034  2.0715
 2208SOL    HW218087   1.899   0.709  10.899  0.5038 -0.2613  1.6583
 2209SOL     OW18088   2.459   1.431   9.576  0.0109 -0.5283 -0.4953
 2209SOL    HW118089   2.552   1.447   9.563 -0.4851  2.8011  0.1153
 2209SOL    HW218090   2.449   1.389   9.661 -2.6553  0.7725 -0.1469
 2210SOL     OW18091   3.532   2.180   4.142  0.5107  0.1485  0.4971
 2210SOL    HW118092   3.527   2.169   4.237 -1.5349 -0.1565  0.3648
 2210SOL    HW218093   3.610   2.234   4.135  0.1629  0.6873  0.7420
 2211SOL     OW18094   3.267   1.441   9.317  0.2959  1.0842  0.4569
 2211SOL    HW118095   3.336   1.477   9.373 -0.0648  0.4138  1.3413
 2211SOL    HW218096   3.254   1.512   9.254  2.9518  1.4080  0.2715
 2212SOL     OW18097   1.701   4.647   8.170  0.3524 -0.2271 -0.0522
 2212SOL    HW118098   1.634   4.619   8.108  0.5518 -0.2524 -0.2581
 2212SOL    HW218099   1.657   4.704   8.234 -1.3925  0.6519 -2.0393
 2213SOL     OW18100   3.800   4.714   8.777  0.1707 -0.3914 -0.1822
 2213SOL    HW118101   3.831   0.073   8.812  0.6451 -0.4509 -0.4617
 2213SOL    HW218102   3.852   4.691   8.700  1.7715 -0.8876  1.0517
 2214SOL     OW18103   3.190   1.347   5.315 -0.1273 -0.1516 -0.0854
 2214SOL    HW118104   3.228   1.420   5.364  1.5325 -1.2947  0.3271
 2214SOL    HW218105   3.133   1.401   5.260 -1.8646 -2.6564 -0.7504
 2215SOL     OW18106   1.634   0.170   4.943 -0.3632  0.1249 -0.3724
 2215SOL    HW118107   1.710   0.227   4.929  1.4104 -1.2522  3.5111
 2215SOL    HW218108   1.676   0.090   4.976 -2.0035 -0.5105  0.1662
 2216SOL     OW18109   3.535   0.644   6.928  0.0716  0.0389  0.3337
 2216SOL    HW118110   3.607   0.705   6.944  0.7217 -0.5048 -0.5009
 2216SOL    HW218111   3.500   0.639   7.017  2.5139  3.0627  1.4488
 2217SOL     OW18112   3.320   3.111   6.698 -0.1945 -0.2831 -0.6813
 2217SOL    HW118113   3.227   3.101   6.675  0.3299  0.6840 -3.1471
 2217SOL    HW218114   3.349   3.027   6.662 -0.6170  0.9656 -3.8617
 2218SOL     OW18115   3.342   0.142   4.346 -0.2553 -0.2196  0.1841
 2218SOL    HW118116   3.326   0.231   4.378  0.2096  0.3859 -1.2681
 2218SOL    HW218117   3.419   0.120   4.398  0.5262  0.6431 -0.6175
 2219SOL     OW18118   0.150   2.717   6.112  0.3126  0.2409 -0.5441
 2219SOL    HW118119   0.141   2.797   6.165  0.8708  0.7778 -1.2566
 2219SOL    HW218120   0.062   2.679   6.114  0.2089  0.7196  3.0097
 2220SOL     OW18121   4.423   4.688   7.226  0.2014 -0.1568 -0.3847
 2220SOL    HW118122   4.355   4.620   7.226  0.5747 -0.5182  1.1410
 2220SOL    HW218123   4.363   0.036   7.209 -0.3905 -0.3057  1.1585
 2221SOL     OW18124   3.613   2.781   5.974  0.1240  0.0793  0.6929
 2221SOL    HW118125   3.596   2.760   5.882 -0.7760 -0.8001  1.0567
 2221SOL    HW218126   3.595   2.704   6.028 -0.6822  0.2021  0.5966
 2222SOL     OW18127   2.144   2.983   8.323  1.0325 -0.3703 -0.0845
 2222SOL    HW118128   2.093   3.001   8.402  0.6217 -0.0482 -0.4250
 2222SOL    HW218129   2.228   3.002   8.364  0.0346  3.0726  0.3898
 2223SOL     OW18130   2.478   2.661  14.838 -0.5507 -0.2250  0.6412
 2223SOL    HW118131   2.461   2.678  14.746 -0.1075 -2.0843  0.2038
 2223SOL    HW218132   2.438   2.731  14.889  0.5721  0.4693  0.5579
 2224SOL     OW18133   2.390   0.879  10.623 -0.0083 -0.6898 -0.0721
 2224SOL    HW118134   2.475   0.865  10.664  0.5536 -1.3055 -1.4516
 2224SOL    HW218135   2.338   0.814  10.670 -2.7296  0.2024 -1.8434
 2225SOL     OW18136   4.614   1.587  15.711 -0.5430  0.0394  0.1478
 2225SOL    HW118137   4.587   1.500  15.740 -0.7581 -0.4835 -1.6752
 2225SOL    HW218138   4.654   1.565  15.627 -0.1652  0.7225  0.1469
 2226SOL     OW18139   2.507   1.684  14.898  0.1401  0.2381 -0.3430
 2226SOL    HW118140   2.460   1.734  14.831  2.0230  1.1353 -0.9831
 2226SOL    HW218141   2.457   1.602  14.902 -0.8634  0.9101  1.1658
 2227SOL     OW18142   1.923   4.269  12.540 -0.2510 -0.3260  0.1722
 2227SOL    HW118143   1.927   4.356  12.580  2.0037 -0.9308  1.2706
 2227SOL    HW218144   1.883   4.218  12.611  1.1012  1.1761  2.0461
 2228SOL     OW18145   2.855   3.057   7.250  0.1322 -0.0592 -0.2364
 2228SOL    HW118146   2.849   3.094   7.338 -1.2572  1.1264 -0.8347
 2228SOL    HW218147   2.783   2.994   7.245 -1.2795  1.5886 -0.2078
 2229SOL     OW18148   3.157   3.076   5.028 -0.0955 -0.4209 -0.1921
 2229SOL    HW118149   3.170   2.982   5.027  1.7109 -0.1687 -1.8829
 2229SOL    HW218150   3.204   3.104   4.949 -2.0353  2.3963 -0.3513
 2230SOL     OW18151   4.440   2.672   8.143  0.0509  0.3387 -0.2117
 2230SOL    HW118152   4.491   2.746   8.110  0.0608  0.5102  0.1764
 2230SOL    HW218153   4.355   2.689   8.102 -0.9338  2.0637  2.5074
 2231SOL     OW18154   2.569   2.395   7.668  0.0854  0.5010  0.0383
 2231SOL    HW118155   2.525   2.337   7.605 -1.3991  0.3284  1.2419
 2231SOL    HW218156   2.516   2.472   7.647  1.0182  1.5303  1.5123
 2232SOL     OW18157   0.663   1.924   3.844 -0.0316  0.1334  0.0444
 2232SOL    HW118158   0.723   1.885   3.780 -0.5155 -1.0505  0.3242
 2232SOL    HW218159   0.728   1.946   3.911  0.2619  1.1067 -0.5449
 2233SOL     OW18160   4.376   1.995   1.021  0.1196 -0.0313  0.3900
 2233SOL    HW118161   4.465   2.025   1.038  0.3750 -0.4829 -0.1646
 2233SOL    HW218162   4.346   1.958   1.104  0.4033 -0.9163  0.0871
 2234SOL     OW18163   2.750   0.894   8.507 -0.2934  0.2880  0.2202
 2234SOL    HW118164   2.805   0.971   8.499  0.8909 -0.5535  0.2265
 2234SOL    HW218165   2.812   0.850   8.566  0.4896  2.2276  0.8188
 2235SOL     OW18166   4.112   1.825   7.597 -0.0521  0.3029 -0.4546
 2235SOL    HW118167   4.018   1.837   7.607 -0.0265  0.6234 -0.6109
 2235SOL    HW218168   4.113   1.740   7.642 -2.4554 -0.3459 -1.5844
 2236SOL     OW18169   0.451   0.911   2.268 -0.6365 -0.2527 -0.8635
 2236SOL    HW118170   0.469   0.954   2.184 -0.9707  1.1127 -0.2323
 2236SOL    HW218171   0.500   0.830   2.253  0.0999 -0.1303  0.8749
 2237SOL     OW18172   0.874   0.598   7.922  0.2582  0.2984 -0.2632
 2237SOL    HW118173   0.780   0.584   7.930  0.6158 -0.8889  1.9896
 2237SOL    HW218174   0.904   0.524   7.974  0.2646 -0.9200 -2.0358
 2238SOL     OW18175   4.360   1.305   3.656 -0.1556 -0.0006  0.2712
 2238SOL    HW118176   4.455   1.300   3.646  0.3072  2.5562  3.3340
 2238SOL    HW218177   4.359   1.255   3.738  0.7661 -0.2225  0.1409
 2239SOL     OW18178   3.691   3.818   6.488  0.6157  0.5386  0.2387
 2239SOL    HW118179   3.768   3.873   6.505  1.4785 -0.0181 -1.9159
 2239SOL    HW218180   3.715   3.751   6.425 -0.0998 -1.1895  1.8090
 2240SOL     OW18181   2.902   2.694   7.107 -0.1992  0.2081  0.1867
 2240SOL    HW118182   2.885   2.613   7.156  0.3643 -0.6557 -1.0426
 2240SOL    HW218183   2.831   2.750   7.138  0.0272  0.7984 -0.3717
 2241SOL     OW18184   3.865   2.065   9.281  0.3953 -0.4665 -0.5750
 2241SOL    HW118185   3.820   2.126   9.223  0.2498 -0.1933 -0.1728
 2241SOL    HW218186   3.808   1.988   9.288  1.5496 -1.2557  0.2379
 2242SOL     OW18187   2.809   4.095  12.980  0.2321 -0.5382 -0.1042
 2242SOL    HW118188   2.788   4.152  12.906 -1.5320  0.3606  1.0911
 2242SOL    HW218189   2.897   4.118  13.012  0.2493  1.0938 -1.2904
 2243SOL     OW18190   1.627   0.855   6.216 -0.0112  0.0555 -0.5586
 2243SOL    HW118191   1.690   0.857   6.289 -1.2262 -3.8966  0.6023
 2243SOL    HW218192   1.691   0.819   6.155 -0.2887 -1.2309 -0.0817
 2244SOL     OW18193   1.966   1.452   6.825  0.8707  0.5045 -0.4279
 2244SOL    HW118194   2.012   1.426   6.905  0.0226 -0.0361 -0.1190
 2244SOL    HW218195   1.911   1.376   6.811 -0.3020  1.2073  0.2977
 2245SOL     OW18196   0.413   1.678   3.043  0.1467  0.0740 -0.1420
 2245SOL    HW118197   0.461   1.758   3.021  0.2332 -0.2565 -1.1390
 2245SOL    HW218198   0.431   1.622   2.968  0.0019  0.0786 -0.1810
 2246SOL     OW18199   2.317   2.061   0.139  0.3619  0.0940  0.1800
 2246SOL    HW118200   2.375   2.000   0.185 -2.2332 -0.7405  2.3567
 2246SOL    HW218201   2.318   2.142   0.191 -0.5423 -0.0981  0.5016
 2247SOL     OW18202   2.729   3.009  12.531 -0.1194 -0.4576 -0.0017
 2247SOL    HW118203   2.801   2.994  12.470  2.0909  3.2839  1.6095
 2247SOL    HW218204   2.774   3.058  12.601  1.4775 -1.5885 -0.2392
 2248SOL     OW18205   1.945   2.882   7.672 -0.0745  0.3467  0.1518
 2248SOL    HW118206   1.956   2.955   7.733 -0.3612 -0.0609  0.6948
 2248SOL    HW218207   1.867   2.840   7.709  0.0038  2.3079  2.5067
 2249SOL     OW18208   2.548   2.814  11.765  0.1811 -0.1974  0.3597
 2249SOL    HW118209   2.518   2.817  11.856  0.0448 -1.9263  0.3629
 2249SOL    HW218210   2.578   2.724  11.754  2.4139  0.6655 -0.6548
 2250SOL     OW18211   2.354   1.579   2.967  0.1666  0.0899 -0.0330
 2250SOL    HW118212   2.341   1.674   2.959  1.5937  0.2267 -0.7086
 2250SOL    HW218213   2.446   1.575   2.991 -0.3346  1.4234  2.0648
 2251SOL     OW18214   2.147   4.456   8.270 -0.3152 -0.2958 -0.0442
 2251SOL    HW118215   2.171   4.400   8.197  1.8753  0.5116  0.0590
 2251SOL    HW218216   2.229   4.489   8.307 -0.3581 -1.4534  1.0821
 2252SOL     OW18217   3.219   1.322   7.111  0.0478 -0.5410  0.3542
 2252SOL    HW118218   3.186   1.235   7.135  1.3982 -0.4958  2.3880
 2252SOL    HW218219   3.163   1.388   7.152 -1.1115 -0.7517 -0.8761
 2253SOL     OW18220   2.983   2.438  13.030  0.4585  0.2747  0.5951
 2253SOL    HW118221   3.044   2.450  13.103  0.8493  0.4671  0.2377
 2253SOL    HW218222   3.009   2.505  12.966 -0.9966  1.5195  1.3061
 2254SOL     OW18223   4.299   2.176   4.819 -0.3263  0.4143 -0.3345
 2254SOL    HW118224   4.318   2.229   4.742 -1.5125 -0.3566 -1.1480
 2254SOL    HW218225   4.340   2.092   4.800 -0.4310 -0.1471  1.8518
 2255SOL     OW18226   4.048   0.706   5.438  0.1707  0.1760  0.1617
 2255SOL    HW118227   4.105   0.706   5.361  0.9277  1.1757  0.7233
 2255SOL    HW218228   4.101   0.654   5.498  1.6511  0.0847 -1.2481
 2256SOL     OW18229   3.838   1.646   4.507 -0.2279  0.0529 -0.3745
 2256SOL    HW118230   3.781   1.721   4.487  0.2107 -0.3599 -3.1966
 2256SOL    HW218231   3.849   1.616   4.417 -1.6051  1.7785 -1.1087
 2257SOL     OW18232   0.089   1.552   1.994 -0.2436 -0.1433 -0.0605
 2257SOL    HW118233   0.064   1.461   2.010  0.1654 -0.4253 -1.0527
 2257SOL    HW218234   0.033   1.574   1.920  0.4905  1.5545 -0.1177
 2258SOL     OW18235   0.591   1.851   2.878 -0.6523  0.8729 -0.1172
 2258SOL    HW118236   0.665   1.904   2.908 -0.1876 -1.4113  2.8046
 2258SOL    HW218237   0.534   1.918   2.840 -2.1468 -0.7008 -0.6485
 2259SOL     OW18238   4.412   0.651  11.990  0.1593  0.3823 -1.0012
 2259SOL    HW118239   4.334   0.596  11.990  0.6825 -0.3594 -1.0930
 2259SOL    HW218240   4.423   0.657  11.895  2.6078 -1.0137 -0.7942
 2260SOL     OW18241   4.461   0.850  14.728  0.6241  0.1558 -0.2130
 2260SOL    HW118242   4.409   0.910  14.782  2.2679  2.1903 -0.8911
 2260SOL    HW218243   4.398   0.832  14.657 -0.3850  2.6761  0.0355
 2261SOL     OW18244   1.291   1.928   8.832  0.4473 -0.8214  0.3612
 2261SOL    HW118245   1.329   1.868   8.768  0.5577 -0.3013 -0.0651
 2261SOL    HW218246   1.207   1.889   8.856 -0.1413  1.1081  1.4753
 2262SOL     OW18247   0.484   0.162   5.559 -0.2494 -0.6104  0.1191
 2262SOL    HW118248   0.568   0.198   5.529  0.2501 -1.1025  0.8958
 2262SOL    HW218249   0.503   0.068   5.556  1.2420 -0.3222  0.6464
 2263SOL     OW18250   3.791   1.217   4.132  0.1731  0.4793 -0.7814
 2263SOL    HW118251   3.851   1.288   4.113  0.5684  0.4482  0.3101
 2263SOL    HW218252   3.777   1.224   4.227  3.3220 -2.1864 -0.1215
 2264SOL     OW18253   2.276   0.064  12.120  0.1661  0.6823  0.3918
 2264SOL    HW118254   2.223   4.720  12.162  0.4486 -0.3076 -0.8230
 2264SOL    HW218255   2.296   0.125  12.191  0.2104  0.9281  0.1690
 2265SOL     OW18256   2.085   3.513   2.265 -0.1722  0.1922 -0.3813
 2265SOL    HW118257   1.991   3.515   2.283 -0.0410 -3.0793  0.6476
 2265SOL    HW218258   2.129   3.527   2.349 -1.3171  0.2300  0.2209
 2266SOL     OW18259   2.615   3.581   5.300  0.0901 -0.0265  0.0667
 2266SOL    HW118260   2.643   3.581   5.209 -2.4831  4.2749 -0.7414
 2266SOL    HW218261   2.542   3.521   5.283 -0.8356  1.1021  0.0651
 2267SOL     OW18262   0.933   1.150   3.732 -0.4015  0.0603 -0.1836
 2267SOL    HW118263   0.942   1.234   3.688 -2.2515 -0.4241 -1.4843
 2267SOL    HW218264   0.981   1.091   3.674  0.7758  1.2081 -0.3676
 2268SOL     OW18265   3.532   4.076   3.159 -0.4625  0.2822  0.3546
 2268SOL    HW118266   3.540   4.143   3.227 -1.0999 -1.1562  1.8532
 2268SOL    HW218267   3.443   4.043   3.145 -0.8347  2.1461 -1.6075
 2269SOL     OW18268   4.322   1.533   6.473  0.3845 -0.2366 -0.1353
 2269SOL    HW118269   4.247   1.589   6.493  1.2265  1.8118 -2.7637
 2269SOL    HW218270   4.346   1.562   6.385 -0.9753  0.7626 -0.1755
 2270SOL     OW18271   4.040   1.292   7.118  0.6577  0.3277  0.1922
 2270SOL    HW118272   3.948   1.274   7.137  0.2294 -0.4429 -2.5414
 2270SOL    HW218273   4.078   1.336   7.194  4.7340  0.1297 -1.7122
 2271SOL     OW18274   3.414   4.182   2.204 -0.2343 -0.5494  0.4869
 2271SOL    HW118275   3.471   4.139   2.140 -0.8921  0.9572 -1.1283
 2271SOL    HW218276   3.471   4.255   2.230  0.2360 -0.5691 -0.4876
 2272SOL     OW18277   4.256   3.483   6.103  0.3792 -0.2111 -0.1144
 2272SOL    HW118278   4.166   3.509   6.121 -0.3450 -1.2216 -2.3561
 2272SOL    HW218279   4.267   3.511   6.012  0.6505 -0.2506 -0.0955
 2273SOL     OW18280   3.049   2.131   2.179 -0.5750 -0.5586 -1.0535
 2273SOL    HW118281   2.987   2.061   2.203  0.7050 -0.7838  1.6506
 2273SOL    HW218282   2.989   2.199   2.149 -1.4274 -1.2963 -1.0485
 2274SOL     OW18283   4.216   4.029  10.715 -0.2735  0.1434  0.2233
 2274SOL    HW118284   4.151   3.994  10.655 -0.2196  0.1386  0.1671
 2274SOL    HW218285   4.245   3.943  10.744 -0.4964  0.3560  1.0902
 2275SOL     OW18286   3.119   2.597   4.180  0.7469 -0.4454 -0.6952
 2275SOL    HW118287   3.057   2.537   4.223  2.3380 -2.2490 -0.9327
 2275SOL    HW218288   3.093   2.585   4.088 -3.0915 -1.3459  0.4954
 2276SOL     OW18289   0.006   3.357  16.083 -0.3449 -0.4232 -0.2990
 2276SOL    HW118290   0.070   3.426  16.102 -0.2821  0.2362 -2.9119
 2276SOL    HW218291   0.058   3.279  16.105  2.3557  0.7984 -2.2942
 2277SOL     OW18292   3.582   2.657   7.691  0.6480  0.3620 -0.5782
 2277SOL    HW118293   3.492   2.625   7.687  0.3142  0.7604  3.8921
 2277SOL    HW218294   3.629   2.592   7.639  1.0933 -1.1506  1.7318
 2278SOL     OW18295   0.644   0.644   5.417 -0.0926  0.0598 -0.1315
 2278SOL    HW118296   0.725   0.641   5.366  0.3347 -1.6029  0.6290
 2278SOL    HW218297   0.651   0.727   5.464 -0.5988  0.2486 -0.3947
 2279SOL     OW18298   0.235   0.857   2.926  0.7239 -0.4493  0.6382
 2279SOL    HW118299   0.259   0.819   3.010  0.4430 -1.2044  0.3779
 2279SOL    HW218300   0.318   0.899   2.902  0.1281  2.2471  3.4151
 2280SOL     OW18301   4.718   2.684   8.997 -0.1008  0.0277 -0.0232
 2280SOL    HW118302   4.700   2.597   8.963 -0.5405 -0.0473  0.4127
 2280SOL    HW218303   0.057   2.666   9.067  0.0480  1.1898  0.1539
 2281SOL     OW18304   2.657   1.509   1.815  0.0610 -0.0386 -0.2676
 2281SOL    HW118305   2.655   1.454   1.737  0.3570 -1.0774  0.4680
 2281SOL    HW218306   2.738   1.476   1.852 -0.6996 -1.7804 -0.1319
 2282SOL     OW18307   3.106   0.862  17.349  0.0035 -0.0149 -0.0969
 2282SOL    HW118308   3.058   0.943  17.332  2.8678  2.0844  1.9051
 2282SOL    HW218309   3.160   0.864  17.270  2.3592 -0.7792  1.5166
 2283SOL     OW18310   2.793   2.593   0.441 -0.2196 -0.4727  0.3204
 2283SOL    HW118311   2.744   2.608   0.360 -0.9461  0.8993  1.0176
 2283SOL    HW218312   2.875   2.575   0.395  0.3836 -1.0538  1.6520
 2284SOL     OW18313   4.176   4.327   4.014 -0.0124  0.2016  0.2533
 2284SOL    HW118314   4.255   4.380   4.023 -0.4525  0.9035 -0.0751
 2284SOL    HW218315   4.181   4.299   4.105  2.7063  0.2437  0.1072
 2285SOL     OW18316   0.127   3.752   4.495 -0.7671  0.0908 -0.4440
 2285SOL    HW118317   0.157   3.827   4.546  0.3077 -1.0005  0.5215
 2285SOL    HW218318   0.197   3.691   4.515 -0.5970  1.2230  2.3804
 2286SOL     OW18319   4.296   1.801   2.839 -0.2001 -1.0420 -0.7687
 2286SOL    HW118320   4.274   1.721   2.886 -1.4331  0.1682  0.7097
 2286SOL    HW218321   4.390   1.808   2.858 -0.0383 -2.0180 -1.1948
 2287SOL     OW18322   2.615   1.572   3.050 -1.4538  0.4618 -0.0352
 2287SOL    HW118323   2.663   1.576   2.968 -2.2672  0.1620 -0.5305
 2287SOL    HW218324   2.632   1.660   3.081 -1.7415  0.0092  1.4045
 2288SOL     OW18325   4.288   2.847  10.634 -0.2832  0.4385 -0.1782
 2288SOL    HW118326   4.331   2.895  10.705  1.7563  0.9781 -1.7851
 2288SOL    HW218327   4.299   2.898  10.554  1.6724  2.1317  1.1611
 2289SOL     OW18328   3.811   4.121   7.570 -0.4760 -0.0318  0.2835
 2289SOL    HW118329   3.811   4.117   7.474  2.4870  1.1685  0.2405
 2289SOL    HW218330   3.767   4.205   7.584 -1.4887 -0.2632 -1.4439
 2290SOL     OW18331   3.267   1.144  14.162  0.0559  0.1094  0.0971
 2290SOL    HW118332   3.185   1.103  14.190 -0.0311  0.3324  0.1656
 2290SOL    HW218333   3.237   1.235  14.162  0.5707  0.2814 -0.2144
 2291SOL     OW18334   1.856   0.769   2.652 -0.3834 -0.5416 -0.1309
 2291SOL    HW118335   1.836   0.854   2.692  0.2465  0.2640 -1.5243
 2291SOL    HW218336   1.809   0.777   2.569  0.8123  1.3560 -0.6094
 2292SOL     OW18337   0.573   0.169   2.706 -0.8091  0.5728 -0.0827
 2292SOL    HW118338   0.594   0.152   2.797  0.1930  2.3287  0.0156
 2292SOL    HW218339   0.484   0.203   2.711 -1.4030 -1.2194  1.0687
 2293SOL     OW18340   2.074   4.296   2.718  0.0001 -0.3784 -0.2984
 2293SOL    HW118341   2.070   4.358   2.791  1.1524  0.3947 -0.8890
 2293SOL    HW218342   2.062   4.350   2.641  2.8782  0.7017 -0.0053
 2294SOL     OW18343   0.399   1.974   9.043 -0.0928 -0.3648 -0.3021
 2294SOL    HW118344   0.438   2.021   9.116  1.8972 -3.2276  0.4605
 2294SOL    HW218345   0.313   1.961   9.083  0.3933 -1.6937  0.3191
 2295SOL     OW18346   1.030   2.716  13.339  0.2081 -0.3586  0.0334
 2295SOL    HW118347   0.976   2.794  13.327 -1.0698 -1.2698 -0.0245
 2295SOL    HW218348   0.984   2.657  13.278 -2.6147  1.2481  0.6261
 2296SOL     OW18349   1.694   3.978   7.755  0.1154 -0.0023  0.1669
 2296SOL    HW118350   1.631   3.926   7.706  0.9915 -0.0290 -0.9262
 2296SOL    HW218351   1.649   4.062   7.759  0.1092  0.0655 -1.6276
 2297SOL     OW18352   2.894   0.258   8.595 -0.1210  0.0974  0.1413
 2297SOL    HW118353   2.861   0.319   8.530 -0.3189 -0.8361 -0.6301
 2297SOL    HW218354   2.989   0.267   8.589 -0.1562  0.7998  0.6072
 2298SOL     OW18355   2.273   1.651   7.939  0.1895 -0.5547 -0.0389
 2298SOL    HW118356   2.224   1.731   7.955  2.4198  0.1576  3.2398
 2298SOL    HW218357   2.347   1.651   8.000  0.9601  0.1159 -0.9797
 2299SOL     OW18358   4.174   2.727   9.004 -0.1001 -0.3213 -0.6393
 2299SOL    HW118359   4.106   2.668   9.036 -0.0744 -1.3415 -2.4620
 2299SOL    HW218360   4.128   2.810   9.017  1.1751  0.3023 -0.1107
 2300SOL     OW18361   0.195   0.048   8.256 -0.0784 -0.3809  0.0311
 2300SOL    HW118362   0.139   4.700   8.226  2.5665 -1.4161 -2.4768
 2300SOL    HW218363   0.155   0.070   8.340 -1.0872 -0.0607 -0.5412
 2301SOL     OW18364   3.078   0.657  12.123  0.4337  0.0034 -0.1643
 2301SOL    HW118365   3.003   0.677  12.067 -0.8056 -0.2174  1.3978
 2301SOL    HW218366   3.158   0.687  12.080 -0.0203  0.2853 -0.8097
 2302SOL     OW18367   2.712   0.310   6.756 -0.2850  0.2188 -0.2277
 2302SOL    HW118368   2.780   0.273   6.812  0.5554  0.2767 -1.2128
 2302SOL    HW218369   2.730   0.402   6.772 -1.0846  0.0401  1.7195
 2303SOL     OW18370   1.654   2.832  12.864 -0.3036  0.1917 -0.0914
 2303SOL    HW118371   1.729   2.788  12.825 -0.4019  0.8205 -0.9901
 2303SOL    HW218372   1.652   2.902  12.799 -1.2308 -0.2936 -0.5918
 2304SOL     OW18373   4.445   3.977   4.901  0.0641 -0.8540  0.1008
 2304SOL    HW118374   4.421   3.963   4.809 -0.3318 -0.4148  0.1382
 2304SOL    HW218375   4.505   4.050   4.885 -2.2943  0.9200 -0.6528
 2305SOL     OW18376   0.067   2.670   2.882  0.3533 -0.0297  0.2046
 2305SOL    HW118377   0.103   2.581   2.890 -0.9848 -0.5676  0.1994
 2305SOL    HW218378   0.083   2.689   2.975  0.9335 -0.4821  0.2001
 2306SOL     OW18379   2.954   2.999   8.607 -0.1306  0.0234  0.3923
 2306SOL    HW118380   2.928   3.062   8.540 -1.3834 -3.5670 -2.5382
 2306SOL    HW218381   3.049   3.002   8.594  0.0258 -3.7626  0.4641
 2307SOL     OW18382   1.367   0.598  12.410  0.1532 -0.7385 -0.9570
 2307SOL    HW118383   1.449   0.565  12.373  0.0130 -2.3354  0.1871
 2307SOL    HW218384   1.327   0.514  12.429 -2.3864  0.0293 -2.8697
 2308SOL     OW18385   1.949   3.777   1.530 -0.1911  0.1229 -0.1030
 2308SOL    HW118386   2.008   3.706   1.503  2.6148  2.2032  0.5928
 2308SOL    HW218387   1.904   3.736   1.605  0.4724 -1.3930 -0.5321
 2309SOL     OW18388   3.925   4.299  15.373  0.1779 -0.5465  0.0955
 2309SOL    HW118389   3.914   4.216  15.419 -0.6200 -0.4426  0.0903
 2309SOL    HW218390   3.843   4.298  15.323 -0.0925 -3.5615  0.6362
 2310SOL     OW18391   2.175   4.017  16.922  0.0563 -0.3457 -0.3630
 2310SOL    HW118392   2.121   4.004  17.000  0.7375 -3.6288 -0.4488
 2310SOL    HW218393   2.121   3.968  16.861 -1.0993  0.7346 -0.2110
 2311SOL     OW18394   0.801   2.502   7.056  0.0307 -1.2911  0.2292
 2311SOL    HW118395   0.864   2.446   7.010 -0.2546 -0.0321 -1.6723
 2311SOL    HW218396   0.723   2.508   7.000  0.8447 -0.0307 -0.7566
 2312SOL     OW18397   1.601   3.728   5.135  0.1614  0.3372  0.5453
 2312SOL    HW118398   1.549   3.671   5.191 -1.8651  0.8647 -0.8128
 2312SOL    HW218399   1.687   3.708   5.171  0.8075 -0.1183 -1.2285
 2313SOL     OW18400   3.661   1.469   1.515 -0.4076  0.1027 -0.0158
 2313SOL    HW118401   3.603   1.408   1.469  0.5365  0.2468 -1.3844
 2313SOL    HW218402   3.610   1.483   1.594 -2.3434 -1.6650 -0.9552
 2314SOL     OW18403   4.602   3.857   5.087  0.0155  0.3233  0.0333
 2314SOL    HW118404   4.537   3.871   5.018  1.2246  0.8160 -1.0276
 2314SOL    HW218405   4.573   3.931   5.140 -2.6401 -0.5221 -0.2622
 2315SOL     OW18406   0.552   3.185   8.120 -0.0902 -0.5417  0.2392
 2315SOL    HW118407   0.642   3.219   8.121 -0.1046 -0.5131  0.8322
 2315SOL    HW218408   0.556   3.127   8.045  0.7744 -0.5870  0.3150
 2316SOL     OW18409   1.033   1.724   6.560  0.2477 -0.4377  0.5011
 2316SOL    HW118410   0.967   1.655   6.574  0.5653 -1.2824 -2.1010
 2316SOL    HW218411   1.064   1.736   6.649  0.3550  2.1390  0.1140
 2317SOL     OW18412   2.298   1.077   7.834 -0.5272  0.0465  0.4463
 2317SOL    HW118413   2.242   1.155   7.836 -0.6108 -0.0190  0.6391
 2317SOL    HW218414   2.238   1.014   7.795  0.2514 -0.9113  0.8036
 2318SOL     OW18415   3.327   3.860   3.344 -0.3863  0.0921 -0.3621
 2318SOL    HW118416   3.408   3.862   3.395 -1.0996 -1.7848  0.8535
 2318SOL    HW218417   3.335   3.772   3.306  0.6065  0.2169 -0.4623
 2319SOL     OW18418   1.464   0.522   1.923  0.4511 -0.1290  0.1866
 2319SOL    HW118419   1.549   0.566   1.931  0.2311  0.2997  0.0965
 2319SOL    HW218420   1.498   0.432   1.922 -0.2869 -0.4269  1.5520
 2320SOL     OW18421   0.581   1.854   2.329  0.1236 -0.4284  0.1853
 2320SOL    HW118422   0.527   1.790   2.374 -2.0929  0.8791 -0.6017
 2320SOL    HW218423   0.522   1.867   2.254  1.3861  0.0626 -0.7299
 2321SOL     OW18424   1.796   3.119   5.504  0.4287  0.7946 -0.0054
 2321SOL    HW118425   1.868   3.103   5.565  3.0514 -1.8028 -3.8082
 2321SOL    HW218426   1.748   3.037   5.503 -0.6362  1.4073  0.6494
 2322SOL     OW18427   3.902   2.429  14.276  0.3549  0.3917  0.0199
 2322SOL    HW118428   3.875   2.419  14.367  0.9483  2.1895  0.3884
 2322SOL    HW218429   3.919   2.337  14.252 -1.0510  0.4339 -1.1029
 2323SOL     OW18430   2.081   0.258   3.991  0.1750 -0.2254  0.0256
 2323SOL    HW118431   1.985   0.261   3.989  0.1833  0.5909  0.7709
 2323SOL    HW218432   2.098   0.274   3.899  1.1046  1.0590  0.4313
 2324SOL     OW18433   4.120   4.554  15.533 -0.0708 -0.4075 -0.0679
 2324SOL    HW118434   4.170   4.486  15.579 -1.8828 -0.9100  1.1387
 2324SOL    HW218435   4.062   4.493  15.486  1.6761 -1.7430 -0.5015
 2325SOL     OW18436   1.168   2.187   2.657 -0.3784  0.5543 -0.5679
 2325SOL    HW118437   1.082   2.165   2.693 -0.4071  0.8126 -0.4724
 2325SOL    HW218438   1.199   2.101   2.629 -3.2947 -0.8581  0.5330
 2326SOL     OW18439   0.456   4.632   7.216  0.3607  0.3435 -0.1215
 2326SOL    HW118440   0.378   4.688   7.211  0.4192  0.4262 -0.0857
 2326SOL    HW218441   0.496   4.655   7.132 -0.0527  0.3830 -0.3092
 2327SOL     OW18442   2.795   4.015   9.462  0.2800  0.4816  0.2175
 2327SOL    HW118443   2.860   3.960   9.507 -1.6294 -3.1870 -1.5101
 2327SOL    HW218444   2.777   4.066   9.541  0.0818  1.2656 -0.3383
 2328SOL     OW18445   4.471   2.438   9.787  0.3431 -0.3050 -0.1012
 2328SOL    HW118446   4.461   2.481   9.872 -0.8369  2.6754 -1.7328
 2328SOL    HW218447   4.397   2.454   9.729  0.2209  3.0664  0.9634
 2329SOL     OW18448   0.268   1.678  13.714 -0.2289 -0.2213 -0.0308
 2329SOL    HW118449   0.177   1.652  13.726 -0.5935  0.1815 -1.8319
 2329SOL    HW218450   0.287   1.735  13.788 -0.5485  3.0560 -2.4256
 2330SOL     OW18451   0.520   2.755   0.342 -0.4311  0.0296 -0.1668
 2330SOL    HW118452   0.517   2.803   0.259 -1.4746  1.0927  0.4908
 2330SOL    HW218453   0.540   2.667   0.309 -1.6998 -0.9204  1.6403
 2331SOL     OW18454   4.340   1.347   5.868  0.4589  0.2326 -0.5312
 2331SOL    HW118455   4.287   1.418   5.834 -1.2815 -1.1812 -0.7729
 2331SOL    HW218456   4.298   1.333   5.953  1.5844 -2.9481 -0.4733
 2332SOL     OW18457   1.115   1.687   3.384  0.0904  0.4088 -0.4667
 2332SOL    HW118458   1.143   1.618   3.324 -1.3218  0.3057 -1.0027
 2332SOL    HW218459   1.140   1.769   3.342 -0.9174  0.3029 -1.2481
 2333SOL     OW18460   3.095   0.542   0.613  0.2428 -0.3435 -0.1680
 2333SOL    HW118461   3.074   0.451   0.636  2.2942 -0.7069  0.2028
 2333SOL    HW218462   3.021   0.549   0.553 -0.4213 -1.6124  0.4871
 2334SOL     OW18463   1.877   1.148   2.024 -0.0971  0.4932  0.0015
 2334SOL    HW118464   1.892   1.063   1.983 -0.3672 -0.4295  1.8237
 2334SOL    HW218465   1.967   1.182   2.032  0.5827 -1.5313  0.9886
 2335SOL     OW18466   2.681   0.204   5.722  0.1231  0.4833  0.4560
 2335SOL    HW118467   2.718   0.279   5.675  0.8939 -2.1159 -3.0782
 2335SOL    HW218468   2.603   0.179   5.671  0.8526 -1.3423  0.2465
 2336SOL     OW18469   4.297   4.296   8.160  0.0272  1.0677 -0.0259
 2336SOL    HW118470   4.300   4.274   8.253  1.2828 -1.5370 -0.6795
 2336SOL    HW218471   4.202   4.303   8.151 -0.1100 -0.1529  0.5215
 2337SOL     OW18472   2.213   1.340  10.819 -0.5746  0.6254  0.4485
 2337SOL    HW118473   2.220   1.324  10.725  1.2626 -0.9481  0.8432
 2337SOL    HW218474   2.171   1.426  10.823 -1.3132  0.3637 -1.8404
 2338SOL     OW18475   1.725   2.659   5.750  0.4365 -0.1145 -0.4281
 2338SOL    HW118476   1.781   2.584   5.728 -1.3104 -1.9152  1.3021
 2338SOL    HW218477   1.687   2.636   5.835 -3.7087 -2.7776 -3.0155
 2339SOL     OW18478   3.127   1.850   8.389  0.5208  0.4140  0.1338
 2339SOL    HW118479   3.166   1.774   8.433 -0.0145  0.3260  0.4530
 2339SOL    HW218480   3.093   1.807   8.311 -0.6388  1.2281  0.1994
 2340SOL     OW18481   2.716   4.163   8.301  0.2885  0.6741 -0.2497
 2340SOL    HW118482   2.786   4.228   8.301 -2.3958  3.5837 -1.1735
 2340SOL    HW218483   2.666   4.195   8.377  3.6420  1.4681  1.5947
 2341SOL     OW18484   4.319   2.583  10.556  0.0087 -0.1673  0.0898
 2341SOL    HW118485   4.320   2.674  10.585 -1.3335 -0.0124 -0.3957
 2341SOL    HW218486   4.230   2.551  10.571  0.5926 -1.8173  0.0302
 2342SOL     OW18487   4.078   0.758   2.195  0.5139  0.4336  0.4495
 2342SOL    HW118488   4.132   0.720   2.265 -1.2238 -1.3162  0.8458
 2342SOL    HW218489   4.025   0.680   2.178  1.1234  0.1459 -0.1414
 2343SOL     OW18490   4.679   2.266   6.392 -0.0279 -0.0938  0.5613
 2343SOL    HW118491   0.045   2.235   6.377 -0.3116 -1.9902  2.7583
 2343SOL    HW218492   4.674   2.332   6.323 -1.2333 -0.6189  0.1594
 2344SOL     OW18493   2.623   2.242   8.263 -0.5049  0.3517 -0.7863
 2344SOL    HW118494   2.602   2.327   8.223  0.2111  0.3187 -1.2379
 2344SOL    HW218495   2.711   2.259   8.296 -0.5705  2.4228 -1.6628
 2345SOL     OW18496   2.584   3.898   6.990 -0.0816  0.2211 -0.1231
 2345SOL    HW118497   2.533   3.879   7.068 -0.4965  0.7077 -0.2795
 2345SOL    HW218498   2.547   3.985   6.975 -3.5789 -1.3759 -0.8539
 2346SOL     OW18499   3.551   0.161   9.763  0.3257  0.3501 -0.5474
 2346SOL    HW118500   3.492   0.145   9.689  1.2914 -0.5034 -1.1341
 2346SOL    HW218501   3.597   0.230   9.715  1.0007 -1.3643 -2.3502
 2347SOL     OW18502   1.724   3.893   3.030 -0.1469 -0.0664 -0.2145
 2347SOL    HW118503   1.705   3.949   2.955 -1.0913 -0.8844 -0.5988
 2347SOL    HW218504   1.805   3.846   3.010  1.1344  1.5825  1.1146
 2348SOL     OW18505   2.899   2.553  12.539 -0.1816 -0.4246  0.1572
 2348SOL    HW118506   2.919   2.506  12.459  3.1261 -0.5429  1.0540
 2348SOL    HW218507   2.926   2.641  12.513 -0.4028 -1.4207 -3.3448
 2349SOL     OW18508   0.108   3.680   6.847  0.2357  0.5699  0.2561
 2349SOL    HW118509   0.191   3.633   6.850  0.0661  0.2870  0.5810
 2349SOL    HW218510   0.095   3.658   6.754 -1.4631  0.3188  0.5520
 2350SOL     OW18511   2.641   3.501  11.583  0.2926 -0.2379  0.0495
 2350SOL    HW118512   2.577   3.432  11.600  0.7364 -0.8089 -0.5804
 2350SOL    HW218513   2.581   3.571  11.558  1.8044  1.1608  0.3360
 2351SOL     OW18514   2.534   4.295  13.714 -0.0214 -0.2863  0.2142
 2351SOL    HW118515   2.612   4.251  13.680 -2.2520 -1.7565 -3.0245
 2351SOL    HW218516   2.562   4.385  13.700 -2.1124  0.0944 -1.4821
 2352SOL     OW18517   1.821   2.539  17.498 -0.0308  0.5631 -0.0309
 2352SOL    HW118518   1.863   2.586  17.426  2.5305 -0.8550  0.5608
 2352SOL    HW218519   1.860   2.455  17.476 -0.0795  0.1526  1.4553
 2353SOL     OW18520   4.306   1.227   7.053  0.0842 -0.0383  0.5188
 2353SOL    HW118521   4.335   1.277   6.977 -0.8678 -0.0968  0.1235
 2353SOL    HW218522   4.214   1.252   7.066  0.1230  0.9572 -1.2482
 2354SOL     OW18523   3.961   0.651   4.511 -0.0237  0.4048  0.2012
 2354SOL    HW118524   4.044   0.606   4.496  0.0927  0.8260 -0.4217
 2354SOL    HW218525   3.899   0.605   4.454 -1.7857  2.2277  0.6265
 2355SOL     OW18526   3.246   3.301  10.259  0.8617 -0.5033  0.3540
 2355SOL    HW118527   3.269   3.225  10.206 -0.7529  0.3094 -1.4941
 2355SOL    HW218528   3.181   3.344  10.203 -1.0452 -0.5820  2.5015
 2356SOL     OW18529   3.919   2.123   6.897  0.2262  0.1616  0.5304
 2356SOL    HW118530   3.870   2.138   6.978 -1.7866 -0.5557 -0.5575
 2356SOL    HW218531   3.910   2.208   6.853  2.3599 -0.9727 -2.1000
 2357SOL     OW18532   0.919   0.228   2.495  0.6986 -0.7876 -0.0570
 2357SOL    HW118533   0.923   0.323   2.507  2.8398 -0.8666 -0.1731
 2357SOL    HW218534   0.965   0.204   2.415  0.2040 -1.9685  0.0193
 2358SOL     OW18535   1.592   2.922  17.378 -0.7800  0.2076 -0.4677
 2358SOL    HW118536   1.631   3.008  17.396 -1.7341 -0.1497  3.1521
 2358SOL    HW218537   1.661   2.885  17.322 -0.1469 -0.4187  0.7332
 2359SOL     OW18538   1.537   0.010   0.834  0.0180  0.2620 -0.0912
 2359SOL    HW118539   1.515   0.024   0.742  3.1473 -0.6939 -0.9842
 2359SOL    HW218540   1.582   0.091   0.858  0.8049 -0.0418 -0.5690
 2360SOL     OW18541   1.275   1.032   6.183 -0.2309  0.4433 -0.0510
 2360SOL    HW118542   1.351   1.076   6.218  0.8992 -1.7137  0.2059
 2360SOL    HW218543   1.229   1.114   6.164  1.4546  1.4634  0.3319
 2361SOL     OW18544   3.508   0.136   2.766  0.3432 -0.4123  0.2843
 2361SOL    HW118545   3.571   0.207   2.779  1.2205 -1.7031  2.9633
 2361SOL    HW218546   3.426   0.183   2.776  0.0792 -0.9824  0.8212
 2362SOL     OW18547   1.801   1.275   6.296 -0.1311  0.4511 -0.3349
 2362SOL    HW118548   1.881   1.239   6.257  1.1802  1.2398  1.5822
 2362SOL    HW218549   1.791   1.352   6.241  1.5609  0.0740 -1.1660
 2363SOL     OW18550   0.171   0.971  14.662  0.3347 -0.3000  0.0817
 2363SOL    HW118551   0.180   0.975  14.567  0.8123 -0.3810  0.1271
 2363SOL    HW218552   0.189   0.879  14.679  4.0772  0.0931 -1.8488
 2364SOL     OW18553   0.812   4.249   5.462  0.4776  0.0387 -0.1540
 2364SOL    HW118554   0.834   4.208   5.546 -2.4727 -0.7428  0.2326
 2364SOL    HW218555   0.856   4.194   5.396 -0.4431  0.6525 -1.2774
 2365SOL     OW18556   0.768   2.802   1.420 -0.0971  0.7768  0.1754
 2365SOL    HW118557   0.833   2.821   1.352  0.1672 -3.4862 -0.7791
 2365SOL    HW218558   0.689   2.799   1.365 -0.2280 -0.4268  0.4281
 2366SOL     OW18559   0.998   2.829   7.179  0.5173 -0.6688 -0.1976
 2366SOL    HW118560   0.969   2.911   7.220  1.0298 -0.8882  0.5997
 2366SOL    HW218561   1.074   2.803   7.230  0.9439  1.0288  0.0549
 2367SOL     OW18562   2.705   4.249   1.057 -0.0192  1.1367 -0.1816
 2367SOL    HW118563   2.706   4.345   1.049  0.6974  1.0260 -1.4311
 2367SOL    HW218564   2.708   4.243   1.152 -0.8930 -1.0856 -0.2846
 2368SOL     OW18565   0.054   1.650  12.663  0.3487 -0.0469 -0.1563
 2368SOL    HW118566   0.125   1.609  12.712 -1.0287 -1.2370  0.8640
 2368SOL    HW218567   0.074   1.622  12.573 -0.2096 -1.2255  0.0776
 2369SOL     OW18568   0.115   1.618   4.946 -0.3235  0.2825  0.4204
 2369SOL    HW118569   0.086   1.660   5.027  0.0972  1.4540 -0.0436
 2369SOL    HW218570   0.111   1.522   4.953  1.1161  0.1947 -0.0309
 2370SOL     OW18571   2.140   4.466   3.661 -0.2955  0.1238  0.3518
 2370SOL    HW118572   2.231   4.483   3.686 -1.0209  1.2107  2.2114
 2370SOL    HW218573   2.105   4.471   3.750  1.2368  0.2363  0.9647
 2371SOL     OW18574   4.288   4.230   7.355 -0.2882  0.3282 -0.1542
 2371SOL    HW118575   4.283   4.210   7.448  0.5070  1.0572  0.0549
 2371SOL    HW218576   4.373   4.192   7.332 -1.1328 -0.6109 -1.6905
 2372SOL     OW18577   2.657   1.350  15.658 -0.0891 -0.8325 -0.0110
 2372SOL    HW118578   2.727   1.409  15.684 -1.3577 -0.6504  2.9815
 2372SOL    HW218579   2.578   1.358  15.711  0.6531 -1.5482  1.1789
 2373SOL     OW18580   3.590   4.686   4.421  0.0059 -0.1250 -0.2530
 2373SOL    HW118581   3.624   4.655   4.337 -0.7993 -1.1092 -0.2127
 2373SOL    HW218582   3.582   4.609   4.478  0.6189 -1.9019 -2.5866
 2374SOL     OW18583   0.362   2.617   7.156 -0.6163  0.3566 -0.5309
 2374SOL    HW118584   0.446   2.598   7.198  0.3847  1.8725 -1.8586
 2374SOL    HW218585   0.341   2.529   7.125 -0.3843  0.2032 -0.2534
 2375SOL     OW18586   3.343   1.085   7.651 -0.4160 -0.0472  0.1007
 2375SOL    HW118587   3.301   1.081   7.736  1.1479  0.5230  0.9114
 2375SOL    HW218588   3.434   1.064   7.674 -1.0743 -0.5020  2.2786
 2376SOL     OW18589   3.101   4.332   2.306 -0.0390 -0.3458 -0.2844
 2376SOL    HW118590   3.127   4.416   2.345  1.9809 -1.4842  0.8203
 2376SOL    HW218591   3.006   4.329   2.316  0.1023  0.5088  1.3101
 2377SOL     OW18592   4.089   2.531  11.891  0.5866  0.6698 -0.4004
 2377SOL    HW118593   4.139   2.497  11.965  0.3963  0.1701 -0.5032
 2377SOL    HW218594   4.101   2.458  11.831  0.7601  1.0538 -0.8354
 2378SOL     OW18595   3.846   1.385   2.791  1.1021  0.4505 -0.4740
 2378SOL    HW118596   3.843   1.313   2.728 -1.3072 -2.6655  3.1883
 2378SOL    HW218597   3.786   1.454   2.764  0.7090  0.1805 -0.2960
 2379SOL     OW18598   3.815   1.326   7.599  0.1815  0.1054 -0.2172
 2379SOL    HW118599   3.819   1.233   7.620  0.1460  0.3530  0.8887
 2379SOL    HW218600   3.890   1.361   7.647  0.4028 -0.4708 -0.1454
 2380SOL     OW18601   4.217   1.005   3.480 -0.0646 -0.3894 -0.3639
 2380SOL    HW118602   4.216   1.002   3.575 -0.7904  1.1065 -0.3143
 2380SOL    HW218603   4.284   0.942   3.454  0.3285  0.9656 -2.6263
 2381SOL     OW18604   0.589   4.400  17.349 -0.1258  0.2856 -0.3179
 2381SOL    HW118605   0.519   4.465  17.338 -1.2304 -0.7360  0.7235
 2381SOL    HW218606   0.588   4.405  17.445 -1.1357 -1.5512 -0.2418
 2382SOL     OW18607   3.792   3.276   4.429  0.0339  0.1799  0.4274
 2382SOL    HW118608   3.855   3.313   4.491 -1.6683  0.5636  1.9073
 2382SOL    HW218609   3.737   3.350   4.406 -2.6860 -1.2408  2.4068
 2383SOL     OW18610   3.736   0.837   5.113  0.0498  0.0058  0.5244
 2383SOL    HW118611   3.821   0.881   5.104 -0.6286  1.1558 -0.3158
 2383SOL    HW218612   3.708   0.857   5.202  1.2429 -1.6069  1.2441
 2384SOL     OW18613   4.630   4.029   0.529  0.3586  0.6038  0.3525
 2384SOL    HW118614   4.711   4.050   0.481  0.5854 -0.7598  0.1487
 2384SOL    HW218615   4.606   3.940   0.506 -1.3710  0.0876  4.0915
 2385SOL     OW18616   1.573   1.915   5.584 -0.0222 -0.5200 -0.9680
 2385SOL    HW118617   1.589   1.979   5.654  1.4791 -0.7740 -1.0677
 2385SOL    HW218618   1.529   1.960   5.512  1.6692  2.0752 -0.4028
 2386SOL     OW18619   2.581   2.459   2.055  0.0510 -0.1935  0.6300
 2386SOL    HW118620   2.624   2.534   2.014 -0.7448 -1.4294 -2.4512
 2386SOL    HW218621   2.590   2.396   1.983 -0.7338 -0.6982  0.9824
 2387SOL     OW18622   4.654   3.259   4.440  0.0012  0.7152  0.3032
 2387SOL    HW118623   0.009   3.273   4.389  0.0929 -0.7523  0.0580
 2387SOL    HW218624   4.644   3.341   4.489  2.0419  0.9179  0.3568
 2388SOL     OW18625   2.894   0.191  13.840  0.0364  0.4604  0.0537
 2388SOL    HW118626   2.911   0.285  13.832  2.1198  0.2445  2.0479
 2388SOL    HW218627   2.920   0.162  13.927  1.1045 -0.5409 -0.5976
 2389SOL     OW18628   0.791   0.862   3.547 -0.9051 -0.0257  0.0522
 2389SOL    HW118629   0.798   0.903   3.461  1.9165  0.6698  0.6056
 2389SOL    HW218630   0.703   0.889   3.572 -0.6337 -0.2554  1.2543
 2390SOL     OW18631   2.310   0.341   4.535 -0.2005 -0.3711 -0.1321
 2390SOL    HW118632   2.231   0.334   4.589 -0.6308  1.5122 -0.5046
 2390SOL    HW218633   2.271   0.355   4.449 -0.0563  3.2908  0.3686
 2391SOL     OW18634   3.197   3.352   5.511 -0.1846 -0.0727 -0.2630
 2391SOL    HW118635   3.209   3.325   5.420 -0.8286  1.5632 -0.8379
 2391SOL    HW218636   3.150   3.435   5.497  1.5934  1.1074  0.7563
 2392SOL     OW18637   0.408   1.338  13.890  0.2410 -0.2595 -0.2127
 2392SOL    HW118638   0.499   1.323  13.915  0.2804 -1.3663 -1.0123
 2392SOL    HW218639   0.410   1.392  13.811 -0.7794 -0.6695 -0.5256
 2393SOL     OW18640   0.696   3.951   4.025  0.1019  0.0307 -0.6793
 2393SOL    HW118641   0.678   4.042   4.048 -1.1890 -0.6300  0.9516
 2393SOL    HW218642   0.689   3.915   4.114 -1.8848  1.4901 -0.2373
 2394SOL     OW18643   0.452   1.230   6.281  0.5546 -0.1072 -0.2608
 2394SOL    HW118644   0.420   1.139   6.282 -0.4264  0.2450  1.7224
 2394SOL    HW218645   0.546   1.220   6.273  0.2876 -2.0105 -1.0878
 2395SOL     OW18646   1.222   0.549   5.881 -0.2401 -0.3926  0.8705
 2395SOL    HW118647   1.217   0.642   5.903 -0.5292  0.1322 -1.4422
 2395SOL    HW218648   1.263   0.506   5.956  0.4246  1.7096  1.7017
 2396SOL     OW18649   3.841   3.034   1.779  0.4048 -0.6144 -0.1956
 2396SOL    HW118650   3.911   3.066   1.836 -0.3571  1.7761 -0.5864
 2396SOL    HW218651   3.867   3.067   1.693 -1.6834  3.4046  0.7363
 2397SOL     OW18652   3.296   0.897   7.037 -0.1718 -0.7434 -0.8467
 2397SOL    HW118653   3.357   0.968   7.018 -0.7349  0.4466  1.7362
 2397SOL    HW218654   3.299   0.844   6.957 -0.7873  0.0008 -1.3698
 2398SOL     OW18655   2.783   0.277   7.116  0.1462  0.3445  0.2514
 2398SOL    HW118656   2.817   0.199   7.158  2.1861 -0.4086 -2.7618
 2398SOL    HW218657   2.822   0.272   7.029 -1.1657 -0.0689 -0.3221
 2399SOL     OW18658   3.520   1.768   1.154  0.0423 -0.5152  0.2985
 2399SOL    HW118659   3.495   1.859   1.135  2.1649  0.2159  0.9614
 2399SOL    HW218660   3.521   1.769   1.249  0.9493 -0.0431  0.2880
 2400SOL     OW18661   3.023   3.368   4.965 -0.0656  0.2481  0.1286
 2400SOL    HW118662   3.092   3.361   4.899  0.3162  0.9702  0.4459
 2400SOL    HW218663   3.061   3.317   5.036 -1.1164 -2.2695 -1.1311
 2401SOL     OW18664   4.234   0.276   3.543 -0.0540  0.3902 -0.3862
 2401SOL    HW118665   4.254   0.236   3.628  0.2191  0.0331 -0.6156
 2401SOL    HW218666   4.141   0.297   3.554  0.0104 -0.6317  2.0273
 2402SOL     OW18667   0.478   0.244  16.855  0.5621  0.5785  0.0721
 2402SOL    HW118668   0.405   0.189  16.826 -0.5633  1.0048  2.0729
 2402SOL    HW218669   0.554   0.194  16.826  0.9177  1.4772 -0.5432
 2403SOL     OW18670   3.719   1.496   9.772 -0.3014  0.2708  0.4830
 2403SOL    HW118671   3.697   1.405   9.749 -1.2777  0.9585 -1.3049
 2403SOL    HW218672   3.794   1.475   9.828  0.0517 -2.7898 -1.1259
 2404SOL     OW18673   4.693   4.029   9.186  0.7039 -0.2788  0.0759
 2404SOL    HW118674   0.002   4.106   9.231  0.1234 -0.8117  1.4054
 2404SOL    HW218675   0.052   3.984   9.171  0.0394 -1.3670 -0.3950
 2405SOL     OW18676   3.142   0.202  11.818  0.2106  0.7027  0.2289
 2405SOL    HW118677   3.072   0.178  11.879  2.0782 -1.6676  1.4320
 2405SOL    HW218678   3.192   0.121  11.822  0.3125  0.8051  1.0262
 2406SOL     OW18679   1.690   0.779  16.338 -0.4498 -0.5605  0.2703
 2406SOL    HW118680   1.678   0.871  16.365  1.4733  0.4844 -2.4536
 2406SOL    HW218681   1.686   0.796  16.244  3.3928  2.8303  0.7002
 2407SOL     OW18682   1.484   0.390   5.722 -0.1949  0.0217 -0.4665
 2407SOL    HW118683   1.527   0.314   5.683 -0.3038 -0.6212  0.6757
 2407SOL    HW218684   1.455   0.351   5.804 -0.7690 -1.1832 -1.2386
 2408SOL     OW18685   3.950   2.751   0.952  0.6555  0.0429  0.2102
 2408SOL    HW118686   3.895   2.828   0.954  0.7797  0.1151  1.3205
 2408SOL    HW218687   3.883   2.693   0.987  2.2605 -1.9030  0.0784
 2409SOL     OW18688   0.739   1.104   6.635 -0.3832 -0.2148 -0.3016
 2409SOL    HW118689   0.720   1.028   6.580  0.1125  0.1280 -0.9412
 2409SOL    HW218690   0.738   1.061   6.721 -0.1971 -0.2997 -0.3422
 2410SOL     OW18691   3.578   0.882   3.786 -0.0017 -0.4780  0.3106
 2410SOL    HW118692   3.518   0.956   3.773  0.4006 -0.4338 -1.2456
 2410SOL    HW218693   3.651   0.926   3.829  0.3840 -0.4369 -0.3841
 2411SOL     OW18694   3.115   3.727   3.994 -0.2432  0.2538 -0.6013
 2411SOL    HW118695   3.022   3.713   3.975 -0.0702 -0.7027 -0.7196
 2411SOL    HW218696   3.117   3.791   4.066 -2.4161  0.6225 -0.8460
 2412SOL     OW18697   0.049   3.013   9.529 -0.1526  0.4627 -0.0358
 2412SOL    HW118698   0.017   2.923   9.534 -0.0789  0.4157 -0.3956
 2412SOL    HW218699   0.120   3.011   9.593 -0.6818  0.3732  0.5527
 2413SOL     OW18700   0.447   0.641   4.986 -0.0592  0.0024  0.1030
 2413SOL    HW118701   0.411   0.606   4.905  0.4894 -1.1494  0.3557
 2413SOL    HW218702   0.536   0.604   4.981 -0.2475 -0.6936  1.8778
 2414SOL     OW18703   0.302   1.872  10.227  0.1805 -0.2876  0.1161
 2414SOL    HW118704   0.239   1.847  10.293 -2.0944  1.8877 -1.2507
 2414SOL    HW218705   0.360   1.915  10.290 -0.6337  1.8146 -0.5632
 2415SOL     OW18706   1.616   1.338   8.033  0.6104 -0.2993 -0.6189
 2415SOL    HW118707   1.526   1.319   8.060 -0.3318  3.1810 -1.3709
 2415SOL    HW218708   1.602   1.390   7.954  2.0519  0.8207 -0.1371
 2416SOL     OW18709   3.380   2.542   4.924  0.6772 -0.0440 -0.5793
 2416SOL    HW118710   3.460   2.496   4.898  2.0719  1.8567  0.4544
 2416SOL    HW218711   3.358   2.570   4.835  1.4850 -0.9053 -1.0565
 2417SOL     OW18712   1.486   3.192   8.942  0.0130  0.2446 -0.4245
 2417SOL    HW118713   1.462   3.137   8.867 -3.4453  1.0866  0.0865
 2417SOL    HW218714   1.550   3.143   8.993 -0.2261 -0.7020 -1.0260
 2418SOL     OW18715   1.067   3.628  15.115  0.1174 -0.1364 -0.0318
 2418SOL    HW118716   1.106   3.670  15.191  2.6538 -2.0537 -0.2531
 2418SOL    HW218717   0.986   3.677  15.101  0.0483 -0.1783  0.2168
 2419SOL     OW18718   1.856   1.926   9.064 -0.0960  0.1273 -0.3587
 2419SOL    HW118719   1.850   1.862   8.993 -2.4088 -1.4539  1.3135
 2419SOL    HW218720   1.951   1.933   9.075 -0.0244 -0.5814 -0.5630
 2420SOL     OW18721   3.738   0.325   3.507 -0.7549 -0.4674  0.1544
 2420SOL    HW118722   3.650   0.295   3.526 -1.2671  0.1338 -1.3167
 2420SOL    HW218723   3.729   0.418   3.488 -0.4830 -0.9502 -2.3257
 2421SOL     OW18724   3.088   3.601   6.348 -0.2842  0.2188 -0.1759
 2421SOL    HW118725   3.176   3.636   6.366 -1.1817  2.8526 -1.0195
 2421SOL    HW218726   3.085   3.550   6.429 -3.1178 -0.1775 -0.5241
 2422SOL     OW18727   1.088   3.426   8.778 -0.2335  0.3073  0.1679
 2422SOL    HW118728   1.080   3.336   8.810 -0.3084 -0.5966 -2.3609
 2422SOL    HW218729   1.014   3.476   8.811 -1.7116 -2.1743  0.6051
 2423SOL     OW18730   1.687   1.404   0.363  0.1113  0.0469  0.2241
 2423SOL    HW118731   1.749   1.354   0.416 -0.2020  0.1822  0.7118
 2423SOL    HW218732   1.619   1.345   0.329  0.9091 -1.0157  0.4707
 2424SOL     OW18733   4.268   2.173  15.528 -0.3414 -0.0438 -0.5536
 2424SOL    HW118734   4.319   2.147  15.605  1.0120  0.2816 -1.3318
 2424SOL    HW218735   4.272   2.268  15.536  0.7127 -0.0174 -1.3383
 2425SOL     OW18736   1.289   1.013  11.325 -0.1722  0.2160 -0.1522
 2425SOL    HW118737   1.233   1.089  11.341  0.6747 -0.0335  4.1828
 2425SOL    HW218738   1.369   1.063  11.309 -0.9628  0.8161 -2.1260
 2426SOL     OW18739   3.933   1.018   6.902  0.0326 -0.2014  0.2101
 2426SOL    HW118740   4.005   0.955   6.909  0.6823  0.6513  1.1157
 2426SOL    HW218741   3.972   1.093   6.859 -1.4514  0.2676 -0.3045
 2427SOL     OW18742   3.310   3.301  14.411  0.0903  0.0834 -0.5257
 2427SOL    HW118743   3.294   3.395  14.416 -2.1971 -0.3261 -0.0548
 2427SOL    HW218744   3.393   3.298  14.362  1.0799 -0.3508  1.1530
 2428SOL     OW18745   0.713   0.602  17.004 -0.6585  0.2620 -0.3575
 2428SOL    HW118746   0.694   0.601  17.098  1.6679  2.1601  0.1403
 2428SOL    HW218747   0.742   0.512  16.988 -1.5178 -0.3174  1.2480
 2429SOL     OW18748   3.302   0.220   0.986 -0.1055 -0.4773  0.2489
 2429SOL    HW118749   3.325   0.311   1.002 -2.7953  0.4036 -0.8681
 2429SOL    HW218750   3.375   0.189   0.933  1.6624  0.9364  1.8728
 2430SOL     OW18751   2.388   4.380   1.168  0.0119 -0.4227  0.0984
 2430SOL    HW118752   2.341   4.410   1.246  0.1646 -1.7542  0.7089
 2430SOL    HW218753   2.398   4.461   1.118  0.8349 -0.1105  0.7632
 2431SOL     OW18754   3.763   0.646   9.613 -0.1467  0.0413 -0.1388
 2431SOL    HW118755   3.850   0.682   9.597  1.4304 -3.6846  0.2336
 2431SOL    HW218756   3.714   0.726   9.592  0.5378 -0.4149 -3.4122
 2432SOL     OW18757   3.274   2.146   4.741 -0.0415  0.0851 -0.1247
 2432SOL    HW118758   3.206   2.091   4.781 -0.0631  0.0817 -0.1659
 2432SOL    HW218759   3.361   2.115   4.766  1.0163  1.1903 -2.4318
 2433SOL     OW18760   1.338   4.019   9.784 -0.0496  0.4607 -0.0189
 2433SOL    HW118761   1.300   3.932   9.787 -0.7704  0.7562 -0.4056
 2433SOL    HW218762   1.390   4.022   9.704 -1.0611  1.5718 -0.6464
 2434SOL     OW18763   3.467   0.570   7.189 -0.6473  0.1408  0.4373
 2434SOL    HW118764   3.409   0.555   7.264 -2.1632  3.0988 -0.1175
 2434SOL    HW218765   3.546   0.581   7.242 -1.6334  2.4287  1.3970
 2435SOL     OW18766   1.348   3.772   2.358  0.0343  0.0658 -0.9498
 2435SOL    HW118767   1.345   3.681   2.385 -1.2499 -0.0735 -1.5532
 2435SOL    HW218768   1.430   3.782   2.406  0.2857 -1.1417 -1.1433
 2436SOL     OW18769   2.337   3.483   1.962  0.4580 -0.2030 -0.0294
 2436SOL    HW118770   2.308   3.424   2.032  0.5449  1.1411  1.1257
 2436SOL    HW218771   2.408   3.520   2.014 -1.4180  0.9756  1.6947
 2437SOL     OW18772   2.985   1.443   8.230 -0.5050 -0.6106 -0.3445
 2437SOL    HW118773   2.988   1.466   8.137  1.5316  2.2847  0.4535
 2437SOL    HW218774   3.050   1.499   8.272 -0.9981  0.3239 -0.8457
 2438SOL     OW18775   1.675   0.533  10.227 -0.7397  0.1623  0.0041
 2438SOL    HW118776   1.696   0.475  10.300  2.6560  0.8042 -0.4557
 2438SOL    HW218777   1.735   0.500  10.160 -0.3194 -1.7726  1.3191
 2439SOL     OW18778   2.800   2.428  11.349  0.4790 -0.0684  0.4481
 2439SOL    HW118779   2.807   2.400  11.258  2.0808 -0.3300  0.6559
 2439SOL    HW218780   2.708   2.455  11.345  0.6300  0.7094  2.3735
 2440SOL     OW18781   2.742   4.431  15.144  0.3195 -0.5909  0.0829
 2440SOL    HW118782   2.726   4.337  15.136 -0.9571 -0.4513  1.0390
 2440SOL    HW218783   2.807   4.437  15.073  0.9726 -1.2205  0.6246
 2441SOL     OW18784   0.041   2.594  15.850  0.0644 -0.2363 -0.5080
 2441SOL    HW118785   0.067   2.614  15.940 -1.3995 -1.6444  0.2467
 2441SOL    HW218786   0.046   2.498  15.847  0.6857 -0.2038 -0.4256
 2442SOL     OW18787   0.757   2.935   6.838  0.3669  0.1851  0.0256
 2442SOL    HW118788   0.849   2.954   6.818  0.0956  2.2088  0.6655
 2442SOL    HW218789   0.738   2.842   6.827  1.0439 -0.2124  2.3874
 2443SOL     OW18790   2.207   1.687   7.217 -0.2392  0.1457  0.3850
 2443SOL    HW118791   2.264   1.649   7.284 -1.6405  2.5754  2.9465
 2443SOL    HW218792   2.120   1.653   7.239 -0.4261 -0.8789 -1.9349
 2444SOL     OW18793   0.233   0.450   6.936 -0.1850 -0.0523  0.0570
 2444SOL    HW118794   0.198   0.492   7.015 -1.2892 -1.2727  0.2041
 2444SOL    HW218795   0.323   0.452   6.968 -0.0284 -3.6603 -0.2350
 2445SOL     OW18796   4.537   0.595  15.132 -0.0615 -0.2739 -0.1266
 2445SOL    HW118797   4.524   0.663  15.198  3.2560 -1.9175  2.2764
 2445SOL    HW218798   4.630   0.615  15.121  0.1559 -1.9173 -1.1107
 2446SOL     OW18799   1.053   3.104   1.612  0.4193 -0.0935  0.5014
 2446SOL    HW118800   0.998   3.065   1.544 -0.5547 -0.6519  1.6148
 2446SOL    HW218801   1.089   3.171   1.554  1.2189 -0.3398  0.6994
 2447SOL     OW18802   4.541   4.627   4.518  0.6556 -0.8406  0.5122
 2447SOL    HW118803   4.621   4.583   4.546 -0.4277 -1.4656  2.6248
 2447SOL    HW218804   4.574   4.714   4.494 -4.5482  1.6439  2.4023
 2448SOL     OW18805   1.638   4.096   4.275  0.3397  0.1686  0.6432
 2448SOL    HW118806   1.727   4.093   4.311 -0.4874  0.6305  2.7374
 2448SOL    HW218807   1.645   4.042   4.197  1.0525  2.2723 -0.7612
 2449SOL     OW18808   1.340   1.180   4.040  0.0404  0.0138 -0.2822
 2449SOL    HW118809   1.280   1.118   3.999  1.2375 -0.9407 -0.5852
 2449SOL    HW218810   1.309   1.268   4.018  0.4150  0.3671  0.5664
 2450SOL     OW18811   3.085   2.631  15.222 -0.6441 -0.1949 -0.5337
 2450SOL    HW118812   3.010   2.663  15.273 -0.7769 -2.0379  0.4451
 2450SOL    HW218813   3.084   2.692  15.149 -1.2618  1.8870  1.2192
 2451SOL     OW18814   0.157   2.983   4.444  0.0337 -0.2872  0.2194
 2451SOL    HW118815   0.244   2.953   4.470  0.0603 -0.9031 -0.5885
 2451SOL    HW218816   0.185   3.045   4.377  2.8974 -1.4342  0.3634
 2452SOL     OW18817   0.243   3.208  12.140 -0.4521 -0.3143  0.6070
 2452SOL    HW118818   0.330   3.180  12.113 -0.3397  0.8953 -0.2446
 2452SOL    HW218819   0.221   3.275  12.075 -0.4812 -0.4342  0.4936
 2453SOL     OW18820   0.239   0.039  12.344 -0.3517 -0.0242 -0.0463
 2453SOL    HW118821   0.209   0.012  12.430 -0.1419 -1.7077 -0.5104
 2453SOL    HW218822   0.266   0.130  12.357  1.0083 -0.7769  2.3564
 2454SOL     OW18823   2.529   0.117   3.211  0.3894 -0.7992 -0.1021
 2454SOL    HW118824   2.501   0.209   3.217  1.4516 -0.4333 -0.7095
 2454SOL    HW218825   2.451   0.068   3.185 -0.9549  0.2422  1.9378
 2455SOL     OW18826   2.924   3.978   3.013  0.3587 -0.5917 -0.2325
 2455SOL    HW118827   2.877   4.059   3.035 -0.6798 -0.6770 -2.1877
 2455SOL    HW218828   2.995   3.982   3.078  0.0024 -2.5524  0.2568
 2456SOL     OW18829   0.846   1.844   0.064  0.0748 -0.3701  0.5410
 2456SOL    HW118830   0.780   1.897   0.108  1.0448  2.1909 -1.1167
 2456SOL    HW218831   0.877   1.790   0.137  3.0234  0.0793 -0.3805
 2457SOL     OW18832   1.215   0.757  15.014  0.2207 -0.3116  0.3517
 2457SOL    HW118833   1.254   0.775  14.928  1.0297  3.2584  1.4636
 2457SOL    HW218834   1.126   0.791  15.000  0.6246  0.0274 -1.4069
 2458SOL     OW18835   1.120   1.597  11.063  0.9393 -0.0860 -0.2090
 2458SOL    HW118836   1.166   1.593  10.979 -0.9775  0.4652 -1.2733
 2458SOL    HW218837   1.031   1.571  11.038  0.3875  3.1595 -1.6041
 2459SOL     OW18838   4.384   0.476   0.466 -0.3757 -0.2487 -0.3132
 2459SOL    HW118839   4.386   0.454   0.559  0.0644 -2.8508 -0.9341
 2459SOL    HW218840   4.457   0.538   0.459  0.8648 -1.8075 -1.1465
 2460SOL     OW18841   0.519   2.260  13.552 -0.1293  0.8270  0.2749
 2460SOL    HW118842   0.482   2.296  13.633 -1.0318  0.7842 -0.1260
 2460SOL    HW218843   0.599   2.313  13.550  0.2858  0.2308  0.8974
 2461SOL     OW18844   0.500   4.190   4.521  0.4839 -0.2830  0.0478
 2461SOL    HW118845   0.475   4.098   4.508 -2.3430  0.8244 -2.2505
 2461SOL    HW218846   0.521   4.225   4.435 -0.8431 -1.5746 -0.7979
 2462SOL     OW18847   2.334   3.972   9.182  0.1428  0.3782 -0.1626
 2462SOL    HW118848   2.274   4.033   9.139  1.5012  0.2716 -2.2122
 2462SOL    HW218849   2.344   4.009   9.270 -1.1258 -0.8685  0.5108
 2463SOL     OW18850   0.084   4.080   7.613 -0.2535 -0.0520  0.3741
 2463SOL    HW118851   0.073   4.132   7.533 -0.1805 -2.9523 -1.5097
 2463SOL    HW218852   4.721   4.042   7.622 -1.1986  2.1132  0.5849
 2464SOL     OW18853   3.852   1.498   6.413 -0.0001  0.6257 -0.3656
 2464SOL    HW118854   3.764   1.462   6.408 -0.0790  0.6777  0.6423
 2464SOL    HW218855   3.856   1.554   6.336 -0.8713  1.2851  0.0669
 2465SOL     OW18856   4.638   0.163   6.858 -0.4230  1.1798  0.3988
 2465SOL    HW118857   4.640   0.206   6.773 -1.2661  0.8223  0.1984
 2465SOL    HW218858   4.585   0.087   6.834  0.6607  0.9048 -1.1374
 2466SOL     OW18859   3.539   2.114   6.916 -0.0882  0.5836  0.3760
 2466SOL    HW118860   3.561   2.202   6.885  0.6850  0.8435  1.6798
 2466SOL    HW218861   3.596   2.106   6.992  1.5684  0.8900 -0.8437
 2467SOL     OW18862   2.914   4.565   9.692  0.8070  0.6769  0.2137
 2467SOL    HW118863   2.891   4.651   9.656 -0.3673  0.5427  0.6384
 2467SOL    HW218864   2.989   4.575   9.750  1.3530  1.5855 -0.6475
 2468SOL     OW18865   0.326   2.127  11.760  0.2688 -0.3374  0.3040
 2468SOL    HW118866   0.293   2.162  11.677  2.5110  1.1110  0.0173
 2468SOL    HW218867   0.250   2.152  11.812  0.0227 -0.8465  0.1818
 2469SOL     OW18868   2.066   0.064   6.736  0.1135  0.8183 -0.4796
 2469SOL    HW118869   2.049   0.070   6.642 -1.1333  0.9605 -0.2347
 2469SOL    HW218870   2.111   0.148   6.748  0.0434  0.3881  2.8076
 2470SOL     OW18871   1.936   4.686  13.021  0.4176 -0.4375  0.0952
 2470SOL    HW118872   1.925   4.641  13.105  1.6908  1.4942  1.2848
 2470SOL    HW218873   1.924   4.613  12.960 -1.9741 -0.8416  1.0366
 2471SOL     OW18874   1.559   0.075   7.953  0.1836 -0.1026 -0.2731
 2471SOL    HW118875   1.557   0.144   7.887  0.2647 -1.3334 -1.5621
 2471SOL    HW218876   1.623   0.104   8.017 -0.3878  2.4539 -0.8709
 2472SOL     OW18877   0.623   3.775  12.868  0.0497 -0.0961 -0.1795
 2472SOL    HW118878   0.678   3.757  12.791 -0.1632  1.0745 -0.6013
 2472SOL    HW218879   0.537   3.801  12.836  0.6310  0.5668 -1.2013
 2473SOL     OW18880   2.221   3.045   1.363  0.0583  0.3876  0.1996
 2473SOL    HW118881   2.260   3.077   1.282  0.8490 -1.1018 -0.0216
 2473SOL    HW218882   2.147   3.105   1.371 -0.9505 -1.0343  1.5296
 2474SOL     OW18883   0.822   3.834   7.934 -0.5471  0.2254  0.2196
 2474SOL    HW118884   0.761   3.778   7.886 -2.3478 -0.6050  3.4909
 2474SOL    HW218885   0.810   3.916   7.887  0.8002 -0.3650 -1.1553
 2475SOL     OW18886   0.613   2.652  12.421  0.2546 -0.0031  0.4874
 2475SOL    HW118887   0.567   2.688  12.496 -0.8982 -1.2641  0.3947
 2475SOL    HW218888   0.702   2.632  12.448  0.2194 -1.5688 -0.5386
 2476SOL     OW18889   4.602   3.719   1.666  0.1329  0.3018  0.2407
 2476SOL    HW118890   4.622   3.809   1.641 -2.3710  0.7320 -0.2099
 2476SOL    HW218891   4.598   3.720   1.762 -1.0624 -1.6004  0.2137
 2477SOL     OW18892   0.553   2.071   1.435 -0.1416 -0.3230  0.0086
 2477SOL    HW118893   0.502   2.091   1.357 -0.6019 -0.5315  0.2550
 2477SOL    HW218894   0.640   2.053   1.399 -1.0501 -2.2737 -1.2105
 2478SOL     OW18895   3.036   1.895  13.242 -0.4410 -0.5085  0.1007
 2478SOL    HW118896   3.061   1.929  13.327 -0.0523  2.1477 -1.0910
 2478SOL    HW218897   3.117   1.886  13.191  0.3462  0.5577  1.1817
 2479SOL     OW18898   0.115   2.953  17.216  0.4131 -0.0230 -0.3896
 2479SOL    HW118899   0.166   2.898  17.276  3.2787  3.1096  0.0365
 2479SOL    HW218900   0.059   2.996  17.280 -0.1039  1.4233 -1.8346
 2480SOL     OW18901   1.074   4.041   4.752 -0.2133  0.3839 -0.0178
 2480SOL    HW118902   1.080   4.074   4.663 -1.4418 -0.1864 -0.3220
 2480SOL    HW218903   1.126   4.110   4.794  0.2255 -0.7346  1.2860
 2481SOL     OW18904   1.942   1.779   4.096  0.2497 -0.0713  0.0549
 2481SOL    HW118905   1.877   1.774   4.166 -1.1613  0.3244 -1.2253
 2481SOL    HW218906   1.900   1.725   4.029 -0.8343 -1.3132  1.7256
 2482SOL     OW18907   0.295   0.169  13.068  0.1725  0.5411 -0.3103
 2482SOL    HW118908   0.388   0.174  13.093  0.3146 -1.6250 -0.4377
 2482SOL    HW218909   0.282   0.252  13.022 -0.1276  0.4226 -0.4358
 2483SOL     OW18910   0.183   0.050  10.940 -0.8393  0.6208  0.3855
 2483SOL    HW118911   0.170   4.719  11.018  0.2681 -1.7825 -1.1011
 2483SOL    HW218912   0.270   0.017  10.917 -1.5519 -1.3676  0.4926
 2484SOL     OW18913   0.073   0.333  15.032 -0.2669  0.1547 -0.3662
 2484SOL    HW118914   0.155   0.293  15.059  0.0901  0.3382 -1.1927
 2484SOL    HW218915   0.020   0.309  15.108 -0.0027  0.5003 -0.0704
 2485SOL     OW18916   2.749   4.313   7.526 -0.3986  0.2003  0.1669
 2485SOL    HW118917   2.698   4.265   7.591  0.7313 -1.5363 -0.2139
 2485SOL    HW218918   2.712   4.400   7.537  0.3704  0.4829  0.5074
 2486SOL     OW18919   1.748   2.446   4.976 -0.6958  0.2540 -0.2531
 2486SOL    HW118920   1.778   2.512   5.038 -2.3151  1.5410 -0.8410
 2486SOL    HW218921   1.831   2.440   4.929 -1.3973 -0.9351 -1.3485
 2487SOL     OW18922   0.797   0.554   6.362  0.0489  0.9286  0.1615
 2487SOL    HW118923   0.737   0.619   6.398 -2.2579 -1.0517 -0.1549
 2487SOL    HW218924   0.866   0.556   6.428  0.4439 -1.9480 -0.1750
 2488SOL     OW18925   1.124   2.863   5.455 -0.0920 -0.0311 -0.2667
 2488SOL    HW118926   1.168   2.821   5.529  0.8078  1.9169  0.3028
 2488SOL    HW218927   1.147   2.801   5.386 -3.6360 -1.6377  0.0458
 2489SOL     OW18928   0.660   4.284   2.404  0.2176  0.5371  0.3784
 2489SOL    HW118929   0.714   4.330   2.339  1.2379 -0.9559  0.1719
 2489SOL    HW218930   0.582   4.262   2.352  0.0056  0.2040  0.8370
 2490SOL     OW18931   2.116   3.585   0.844  0.0031 -0.2157  0.1879
 2490SOL    HW118932   2.085   3.561   0.757  0.2934 -1.9606  0.5724
 2490SOL    HW218933   2.168   3.506   0.857 -1.8671 -1.3097  0.8637
 2491SOL     OW18934   2.800   4.653  10.522 -0.1637 -0.2735  0.2721
 2491SOL    HW118935   2.876   4.600  10.544 -0.0213 -0.1029  0.1847
 2491SOL    HW218936   2.760   4.604  10.450  0.9663 -2.5027  1.1723
 2492SOL     OW18937   4.054   3.499   4.806  0.5307 -0.2026 -0.0933
 2492SOL    HW118938   4.106   3.418   4.810  0.2757 -0.2566  2.1666
 2492SOL    HW218939   4.076   3.542   4.888 -2.4785  0.2778  0.4267
 2493SOL     OW18940   2.829   1.842   7.177 -0.1618  0.7375  0.1828
 2493SOL    HW118941   2.907   1.896   7.159  2.1148 -2.8210 -0.6471
 2493SOL    HW218942   2.832   1.792   7.096  0.7744  3.3191 -1.4023
 2494SOL     OW18943   2.338   3.039  13.022  0.1897  0.1420  0.9371
 2494SOL    HW118944   2.316   2.985  13.098 -1.5983 -0.1933  0.1843
 2494SOL    HW218945   2.282   3.017  12.947  1.0656 -0.5466  0.4866
 2495SOL     OW18946   1.777   3.193   6.192 -0.1408 -0.4360  0.1434
 2495SOL    HW118947   1.742   3.270   6.238 -0.2343  0.0629 -0.7571
 2495SOL    HW218948   1.775   3.127   6.261 -0.6756  1.3411  1.8532
 2496SOL     OW18949   1.430   0.547  16.681  0.2944 -0.2776  0.2181
 2496SOL    HW118950   1.404   0.607  16.612  2.0975  1.4222  1.0173
 2496SOL    HW218951   1.356   0.487  16.679  1.0079 -1.2683  3.2759
 2497SOL     OW18952   0.005   0.436   5.751  0.0719  0.3607  0.3225
 2497SOL    HW118953   0.075   0.496   5.726 -1.5950  1.4619 -1.7059
 2497SOL    HW218954   4.711   0.388   5.671  0.3169 -0.8932  1.0339
 2498SOL     OW18955   3.609   1.367   6.349 -0.0731  0.2078  0.5402
 2498SOL    HW118956   3.522   1.401   6.327  0.0285 -0.7625 -1.2987
 2498SOL    HW218957   3.598   1.276   6.319  0.8557 -0.0130  0.8862
 2499SOL     OW18958   3.715   3.129   8.535 -0.2836  0.7613  0.1286
 2499SOL    HW118959   3.677   3.131   8.623 -1.3518 -1.5356 -0.2815
 2499SOL    HW218960   3.798   3.097   8.571 -0.9020  0.3355  1.1672
 2500SOL     OW18961   2.865   3.717  14.646  0.0003  0.2693  0.2683
 2500SOL    HW118962   2.806   3.658  14.599 -2.7083  1.7259  1.8148
 2500SOL    HW218963   2.794   3.765  14.689  0.3720  1.6092 -0.6475
 2501SOL     OW18964   2.846   0.352   7.500  0.2425  0.1125  0.2600
 2501SOL    HW118965   2.898   0.280   7.536  1.6348  0.9385 -0.1075
 2501SOL    HW218966   2.860   0.427   7.557 -0.0993 -1.6818  2.7042
 2502SOL     OW18967   0.964   3.378   3.366  0.1638  0.1148  0.2422
 2502SOL    HW118968   1.034   3.429   3.326  0.4023 -1.0386 -0.8022
 2502SOL    HW218969   0.926   3.433   3.435 -0.4119 -1.4873  1.1891
 2503SOL     OW18970   0.467   2.945   7.515 -0.1305  0.5644  0.1662
 2503SOL    HW118971   0.438   2.895   7.439 -1.1088 -0.8010  1.4245
 2503SOL    HW218972   0.479   3.025   7.466  3.1090 -0.1377 -0.2278
 2504SOL     OW18973   2.418   1.403   9.866  0.5134  0.0653  0.0290
 2504SOL    HW118974   2.452   1.426   9.953  1.1512 -1.2825  0.1248
 2504SOL    HW218975   2.384   1.315   9.877 -0.6876  0.0493 -3.8096
 2505SOL     OW18976   3.077   2.841   4.690  0.0084 -0.5808 -0.2385
 2505SOL    HW118977   3.094   2.764   4.744  0.3155 -0.0192  0.4545
 2505SOL    HW218978   3.076   2.797   4.604 -1.4375  0.4431 -0.7410
 2506SOL     OW18979   2.874   1.573  10.895  0.1290  0.4331 -0.5674
 2506SOL    HW118980   2.954   1.627  10.895  0.8145 -0.5770  2.4949
 2506SOL    HW218981   2.891   1.522  10.816 -2.7341 -0.9191 -0.3035
 2507SOL     OW18982   2.747   1.842  13.246 -0.2475  0.0804  0.1463
 2507SOL    HW118983   2.842   1.850  13.239 -0.3557  1.7142  0.5051
 2507SOL    HW218984   2.717   1.914  13.302 -1.7205 -0.8273  0.5358
 2508SOL     OW18985   1.867   4.239   2.347 -0.0622  0.0801  0.6455
 2508SOL    HW118986   1.954   4.256   2.383  0.0971 -0.1067  0.3415
 2508SOL    HW218987   1.879   4.263   2.255  2.4451  1.4409  1.3465
 2509SOL     OW18988   2.025   1.763   1.386 -0.4675  0.1081 -0.4136
 2509SOL    HW118989   2.073   1.730   1.310  0.2006 -2.0685  0.9472
 2509SOL    HW218990   1.962   1.822   1.346  0.3371  1.0098 -0.3654
 2510SOL     OW18991   0.173   2.313   4.447  0.0532  0.5206 -0.7724
 2510SOL    HW118992   0.248   2.336   4.393  1.6409  0.8617  1.5996
 2510SOL    HW218993   0.208   2.280   4.529 -0.9038 -1.3907 -1.1108
 2511SOL     OW18994   0.088   3.885   3.043 -0.3425  0.2948  0.1105
 2511SOL    HW118995   4.724   3.853   3.022 -1.0425  0.9531  2.0887
 2511SOL    HW218996   0.115   3.929   2.962 -0.6156  0.3116  0.0284
 2512SOL     OW18997   1.305   3.425   5.696  0.9488 -0.1255  0.2375
 2512SOL    HW118998   1.365   3.353   5.677  0.4652 -0.6737  0.7759
 2512SOL    HW218999   1.326   3.447   5.787 -3.1367 -1.2685  1.4772
 2513SOL     OW19000   4.572   2.003   2.537 -0.3090  0.3564  0.0731
 2513SOL    HW119001   4.533   2.036   2.456 -1.2700 -1.6895 -0.2826
 2513SOL    HW219002   4.654   1.970   2.501 -0.1589  0.0720  0.6650
 2514SOL     OW19003   4.608   1.582   0.741  0.0512 -0.2674 -0.1853
 2514SOL    HW119004   4.661   1.529   0.680  1.3510  0.7624  0.0709
 2514SOL    HW219005   4.659   1.549   0.815  0.5463 -0.3490 -0.5551
 2515SOL     OW19006   0.953   3.210   9.144 -0.0605  0.2777 -0.0066
 2515SOL    HW119007   0.977   3.132   9.194 -0.4306  0.3709  0.3136
 2515SOL    HW219008   1.030   3.240   9.095  0.4133  0.0888  0.6132
 2516SOL     OW19009   4.023   2.335   3.266 -1.0363 -0.3898  0.3463
 2516SOL    HW119010   3.952   2.381   3.310  0.9991  2.7082  0.3789
 2516SOL    HW219011   4.073   2.293   3.336 -1.1386 -2.0786 -0.6032
 2517SOL     OW19012   1.759   2.175   5.530  0.8414 -1.1128 -0.3525
 2517SOL    HW119013   1.832   2.113   5.533  0.4477 -1.6082 -1.1051
 2517SOL    HW219014   1.773   2.208   5.442 -1.6105 -0.6384 -0.5687
 2518SOL     OW19015   1.386   0.512   3.120  0.5311  0.0934 -0.1340
 2518SOL    HW119016   1.475   0.486   3.098 -0.0002 -1.5467 -0.3200
 2518SOL    HW219017   1.367   0.578   3.053  1.3954  0.4308 -0.0472
 2519SOL     OW19018   1.561   3.826   6.587  0.0970 -0.2504  0.3940
 2519SOL    HW119019   1.482   3.779   6.562 -0.4016  2.2233 -2.6712
 2519SOL    HW219020   1.530   3.900   6.640 -1.8230 -1.8668  1.5104
 2520SOL     OW19021   1.076   3.423  16.841  0.3589 -0.7473  0.1523
 2520SOL    HW119022   1.113   3.498  16.795  0.7514 -0.1519  1.4262
 2520SOL    HW219023   1.155   3.378  16.871  1.6637  1.4718  0.0289
 2521SOL     OW19024   4.285   2.046   6.141 -0.2205 -0.4909 -0.2948
 2521SOL    HW119025   4.235   2.000   6.208 -0.4686  3.3871  2.2077
 2521SOL    HW219026   4.324   1.969   6.102  2.4658 -0.7920  3.0028
 2522SOL     OW19027   1.239   3.962   8.956 -0.3475  0.2198  0.5368
 2522SOL    HW119028   1.179   4.034   8.971  1.1973  1.5702  0.2384
 2522SOL    HW219029   1.327   3.999   8.960 -0.0961 -0.2746 -0.4828
 2523SOL     OW19030   2.379   2.300   8.837  0.2616 -0.4636 -0.4069
 2523SOL    HW119031   2.443   2.235   8.810 -0.6089 -0.4522 -2.4672
 2523SOL    HW219032   2.322   2.309   8.761  1.2527 -1.0709 -1.2273
 2524SOL     OW19033   2.967   2.472   2.303 -0.3132 -0.6514 -0.1750
 2524SOL    HW119034   2.972   2.532   2.377  1.5319  0.8313 -1.4829
 2524SOL    HW219035   2.902   2.516   2.247 -2.1408 -1.1852  1.5133
 2525SOL     OW19036   3.139   3.509   8.997  0.2671 -0.1223  0.0436
 2525SOL    HW119037   3.056   3.461   8.998  0.0276  0.3424  2.0172
 2525SOL    HW219038   3.140   3.572   9.069 -0.2049  0.8415 -0.7910
 2526SOL     OW19039   3.788   3.589   6.879 -0.2136  0.3711 -0.1243
 2526SOL    HW119040   3.757   3.529   6.811 -0.4042  0.8021 -0.4138
 2526SOL    HW219041   3.877   3.604   6.849 -0.8613  1.0077 -1.7369
 2527SOL     OW19042   1.925   4.174   3.639 -0.1499  0.4862 -0.2004
 2527SOL    HW119043   1.850   4.229   3.616 -1.2926 -1.0159 -0.0211
 2527SOL    HW219044   1.904   4.172   3.733  1.7581 -1.5504  0.1714
 2528SOL     OW19045   2.917   2.790  10.706  0.0351  0.1508  0.4994
 2528SOL    HW119046   2.980   2.724  10.677 -0.7503 -0.4413  0.1369
 2528SOL    HW219047   2.967   2.871  10.694 -0.5085  0.1580 -1.7134
 2529SOL     OW19048   2.996   0.910   0.572  0.6073  0.0216  0.1307
 2529SOL    HW119049   3.023   0.856   0.498  2.0425  1.3490 -0.3191
 2529SOL    HW219050   2.907   0.924   0.537  1.5796  1.0114 -1.9520
 2530SOL     OW19051   1.926   4.308   5.243 -0.8276 -0.1445  0.3744
 2530SOL    HW119052   1.876   4.387   5.223  1.0289  1.3603  1.7053
 2530SOL    HW219053   2.006   4.315   5.191 -0.9007  1.1861  0.4561
 2531SOL     OW19054   3.035   4.147   9.412  0.2387  0.3523  0.3538
 2531SOL    HW119055   3.047   4.230   9.459 -0.4172 -0.6681  2.3341
 2531SOL    HW219056   2.948   4.116   9.437 -0.8720  1.5691 -1.9157
 2532SOL     OW19057   0.948   1.925   6.131 -0.0401 -0.8990  0.0346
 2532SOL    HW119058   1.009   1.964   6.194  0.4395 -1.4862 -0.0674
 2532SOL    HW219059   0.875   1.985   6.118 -0.2531 -0.7150  2.1713
 2533SOL     OW19060   4.638   4.042  12.556 -0.0448  0.1848 -0.1047
 2533SOL    HW119061   4.576   3.995  12.500  0.4004 -2.2158  1.4283
 2533SOL    HW219062   4.717   3.995  12.528  1.4409  1.7864  1.3777
 2534SOL     OW19063   3.692   0.169   6.388 -0.2116  0.3646  0.3668
 2534SOL    HW119064   3.663   0.079   6.406  2.9388 -0.3558  1.8775
 2534SOL    HW219065   3.640   0.210   6.456 -1.9998  1.1844 -1.4996
 2535SOL     OW19066   1.583   1.134   3.757 -0.4090 -0.0612 -0.3403
 2535SOL    HW119067   1.548   1.049   3.785  3.0927 -1.9911 -1.7245
 2535SOL    HW219068   1.533   1.152   3.677  0.6544  0.3580 -0.9098
 2536SOL     OW19069   0.022   2.184   1.038  0.4986 -0.1193  0.3431
 2536SOL    HW119070   0.014   2.153   0.948  0.9636  0.3570  0.1411
 2536SOL    HW219071   4.688   2.123   1.082 -1.6556  2.6007  1.2573
 2537SOL     OW19072   0.733   1.697   7.416 -0.1700  0.7954  0.2945
 2537SOL    HW119073   0.701   1.651   7.339 -0.2434 -0.7471  1.2547
 2537SOL    HW219074   0.660   1.683   7.476 -0.5693 -1.3147 -0.6972
 2538SOL     OW19075   2.726   1.503   7.112 -0.0275  0.5999  0.4612
 2538SOL    HW119076   2.679   1.552   7.045  1.1869  2.4416  0.9426
 2538SOL    HW219077   2.707   1.412   7.092 -1.9219  1.2585 -0.7075
 2539SOL     OW19078   0.397   4.512   2.445 -0.4394  0.1120 -0.4439
 2539SOL    HW119079   0.409   4.468   2.529  1.6451  0.8358 -0.3746
 2539SOL    HW219080   0.475   4.566   2.457 -0.9287  0.7339 -0.0551
 2540SOL     OW19081   2.780   4.055   0.423 -0.4418 -0.0719  0.1762
 2540SOL    HW119082   2.731   3.974   0.413 -0.6066  0.0950 -0.3573
 2540SOL    HW219083   2.731   4.102   0.490 -0.4392  0.9293 -0.5276
 2541SOL     OW19084   2.318   1.131  10.630 -0.0605  0.4425 -0.0106
 2541SOL    HW119085   2.239   1.114  10.681  0.7998 -2.5105  0.3773
 2541SOL    HW219086   2.354   1.042  10.622  2.9847  1.7305 -0.5593
 2542SOL     OW19087   4.355   2.000   2.352  0.6816  0.1417  0.1243
 2542SOL    HW119088   4.334   1.954   2.271  1.5990 -0.5571  0.2931
 2542SOL    HW219089   4.330   1.940   2.422  1.2398  1.2022  1.2582
 2543SOL     OW19090   3.550   1.224  13.107  0.3184 -0.1417 -0.1214
 2543SOL    HW119091   3.500   1.149  13.138 -0.8275  0.4572 -0.5389
 2543SOL    HW219092   3.522   1.281  13.178 -1.0018 -0.2984 -0.5145
 2544SOL     OW19093   3.271   1.559   5.936  0.4839 -0.6089 -0.4632
 2544SOL    HW119094   3.318   1.641   5.946  1.9500 -1.6474  1.0997
 2544SOL    HW219095   3.276   1.548   5.841 -0.5245 -1.3407 -0.4330
 2545SOL     OW19096   3.972   2.927   6.516 -0.2119  0.1519 -0.1167
 2545SOL    HW119097   3.894   2.927   6.461 -1.1313  0.1161  1.1945
 2545SOL    HW219098   3.979   3.016   6.551  0.1453  0.5825 -1.2763
 2546SOL     OW19099   1.078   1.016  11.931  0.2220  0.1337 -0.3809
 2546SOL    HW119100   1.112   1.034  11.844 -2.5265  0.8161 -1.3092
 2546SOL    HW219101   1.151   0.972  11.974 -0.9578 -0.6389  0.8225
 2547SOL     OW19102   3.738   0.144   0.084 -0.4046 -0.2484  0.2819
 2547SOL    HW119103   3.758   0.076   0.020  1.4516  1.1792 -0.6705
 2547SOL    HW219104   3.804   0.212   0.069  1.1385 -1.7088  0.4596
 2548SOL     OW19105   2.254   2.723   0.478 -0.2863 -0.2267  0.0718
 2548SOL    HW119106   2.311   2.647   0.469  2.1097  1.4206  1.1363
 2548SOL    HW219107   2.167   2.693   0.453  0.2827 -1.7729 -0.0296
 2549SOL     OW19108   0.506   2.059   8.795 -0.1309  0.2630 -0.0952
 2549SOL    HW119109   0.478   1.991   8.733 -2.6994  1.1635  0.0952
 2549SOL    HW219110   0.475   2.016   8.874 -1.7980  3.4252  0.9630
 2550SOL     OW19111   3.002   0.313   2.153  0.6250  0.0722  1.0931
 2550SOL    HW119112   3.023   0.243   2.215  2.3175  0.1292  0.5698
 2550SOL    HW219113   3.016   0.270   2.069 -0.2012  1.1586  0.3962
 2551SOL     OW19114   2.553   1.201   9.055  0.0434  0.2625 -0.1337
 2551SOL    HW119115   2.512   1.266   8.997 -0.4932  1.5750  1.7044
 2551SOL    HW219116   2.477   1.147   9.079  0.6624 -0.2910  0.5515
 2552SOL     OW19117   0.319   4.506   0.306 -0.2061 -0.1804  0.1983
 2552SOL    HW119118   0.361   4.424   0.279 -1.1052 -0.0685 -1.5342
 2552SOL    HW219119   0.304   4.538   0.217  1.6621  2.6904  0.9230
 2553SOL     OW19120   1.321   1.382   3.558  0.9636  0.5097  0.0998
 2553SOL    HW119121   1.228   1.402   3.570  0.8154 -0.0406 -0.1149
 2553SOL    HW219122   1.355   1.463   3.596  0.1160 -0.3527  2.6813
 2554SOL     OW19123   0.905   1.019   8.445 -0.7318 -0.3302  0.5282
 2554SOL    HW119124   0.972   0.992   8.383 -1.2344 -0.9718  0.2639
 2554SOL    HW219125   0.828   0.963   8.448 -0.6433 -0.3954  1.7797
 2555SOL     OW19126   0.004   3.941  11.801  0.2820  0.2886  0.4987
 2555SOL    HW119127   0.068   3.872  11.783  0.1052  0.2630 -0.0268
 2555SOL    HW219128   4.665   3.893  11.854 -0.0721  0.2474  0.0378
 2556SOL     OW19129   4.613   0.130  12.486  0.5917  0.4367 -0.1499
 2556SOL    HW119130   4.593   0.058  12.426 -2.2607  0.3784  0.8734
 2556SOL    HW219131   4.683   0.166  12.431  0.8547  0.5278  0.2485
 2557SOL     OW19132   3.483   0.443   2.166 -0.4737 -0.4830  0.2515
 2557SOL    HW119133   3.556   0.505   2.169 -0.1925 -0.9455  2.8137
 2557SOL    HW219134   3.410   0.482   2.119 -1.1369 -0.9371  0.9085
 2558SOL     OW19135   3.787   4.174   2.638 -0.2025  0.0257 -0.1921
 2558SOL    HW119136   3.844   4.225   2.696  0.0306 -1.3481  0.7966
 2558SOL    HW219137   3.815   4.088   2.668  0.8227  0.7278  0.8644
 2559SOL     OW19138   2.202   0.340   4.226 -0.7616  0.4390  0.5569
 2559SOL    HW119139   2.155   0.335   4.143  0.7955 -0.4630 -0.2848
 2559SOL    HW219140   2.208   0.435   4.236 -1.9917  0.4217  1.4941
 2560SOL     OW19141   3.146   0.633   2.601 -0.2768 -0.1058 -0.1538
 2560SOL    HW119142   3.193   0.575   2.542  1.4457  1.2182 -0.0894
 2560SOL    HW219143   3.065   0.647   2.551 -0.8926  1.0487  1.1605
 2561SOL     OW19144   3.008   4.341   2.689  0.0342 -0.7012 -0.3286
 2561SOL    HW119145   3.050   4.270   2.640  0.4570  0.0373 -1.0332
 2561SOL    HW219146   3.083   4.398   2.702  0.5695 -0.8885 -2.5431
 2562SOL     OW19147   0.041   2.226  12.848  0.3816  0.4311 -0.2740
 2562SOL    HW119148   0.059   2.247  12.940 -1.0883 -1.0835  0.3609
 2562SOL    HW219149   4.704   2.153  12.860  0.7020  0.5143  1.8173
 2563SOL     OW19150   1.942   4.333   4.725 -0.4921  0.1253  0.2846
 2563SOL    HW119151   1.952   4.425   4.750  0.5105  0.2267 -0.5281
 2563SOL    HW219152   2.023   4.311   4.680 -1.0393 -2.4107  0.5646
 2564SOL     OW19153   2.694   2.469   8.506  0.3839  0.2404  0.8399
 2564SOL    HW119154   2.774   2.489   8.458 -0.0082 -0.2585 -0.0204
 2564SOL    HW219155   2.703   2.374   8.506  0.7840  0.2855 -0.2923
 2565SOL     OW19156   1.938   1.689  16.964  0.3432  0.4536 -0.1417
 2565SOL    HW119157   1.948   1.604  16.921  0.5163  0.8673 -0.9308
 2565SOL    HW219158   2.014   1.742  16.940  1.7049 -2.5359 -2.4436
 2566SOL     OW19159   3.600   4.254  12.175 -0.2647  0.0984  0.3828
 2566SOL    HW119160   3.584   4.160  12.172 -0.2068  0.0230  2.5052
 2566SOL    HW219161   3.692   4.262  12.150 -0.5235  2.0173  0.0772
 2567SOL     OW19162   0.632   0.485  13.351  0.3804  0.6309  1.0749
 2567SOL    HW119163   0.585   0.473  13.268  0.3902  2.3872  0.8156
 2567SOL    HW219164   0.712   0.512  13.306 -0.5468  2.8367  0.7081
 2568SOL     OW19165   0.673   2.959   2.213  0.0706  0.5168 -0.1046
 2568SOL    HW119166   0.644   2.929   2.299 -0.6531 -0.1670 -0.5848
 2568SOL    HW219167   0.649   3.051   2.222  0.1480  0.4087  1.1258
 2569SOL     OW19168   1.768   3.000  14.106 -0.1124  0.3237  0.5489
 2569SOL    HW119169   1.747   3.075  14.052 -1.0390  0.0192  0.4952
 2569SOL    HW219170   1.791   2.930  14.045 -1.4340  1.9168 -1.7614
 2570SOL     OW19171   3.615   3.905   6.216 -0.3843 -0.5443  0.0158
 2570SOL    HW119172   3.563   3.980   6.185 -0.6657 -0.0179  1.7672
 2570SOL    HW219173   3.647   3.949   6.295 -0.5936 -1.8623  0.8370
 2571SOL     OW19174   1.009   3.690   2.888  0.3035  0.1333 -0.5561
 2571SOL    HW119175   1.005   3.774   2.842  0.4676  0.5290  0.1468
 2571SOL    HW219176   1.006   3.626   2.817 -2.2170 -2.4245  1.8816
 2572SOL     OW19177   1.369   0.337   0.191  0.6120 -0.1844 -0.5183
 2572SOL    HW119178   1.369   0.401   0.262 -3.7158 -1.6956  0.8126
 2572SOL    HW219179   1.463   0.323   0.180  0.6198 -1.2298  0.7651
 2573SOL     OW19180   0.394   0.127  15.855  0.2547  0.5534  0.1258
 2573SOL    HW119181   0.385   0.140  15.949 -0.6969  1.2366 -0.0614
 2573SOL    HW219182   0.390   0.032  15.864  2.3282  0.7554  3.2000
 2574SOL     OW19183   1.406   1.293  11.055 -0.4980  0.0414  0.1990
 2574SOL    HW119184   1.477   1.356  11.050 -0.8426  0.4676  0.7620
 2574SOL    HW219185   1.345   1.333  11.117  1.1318  1.2603  0.9986
 2575SOL     OW19186   3.110   3.715  16.525 -0.5032 -0.0609  0.6262
 2575SOL    HW119187   3.030   3.760  16.552 -0.5541 -0.4986  1.2222
 2575SOL    HW219188   3.167   3.789  16.543 -1.2945  0.9917 -1.2503
 2576SOL     OW19189   3.515   0.165   8.870  0.2829  0.0102  0.2914
 2576SOL    HW119190   3.545   0.183   8.959  0.3928  2.3054 -0.1924
 2576SOL    HW219191   3.592   0.181   8.815 -0.4023  1.3789 -0.2843
 2577SOL     OW19192   3.914   2.767   2.706  0.1321  0.3871  0.0180
 2577SOL    HW119193   3.983   2.834   2.706 -0.1192  0.6489 -1.8186
 2577SOL    HW219194   3.967   2.688   2.701  0.7166  0.8090 -0.5871
 2578SOL     OW19195   0.231   0.253   7.574 -0.1562 -0.0272  0.6961
 2578SOL    HW119196   0.255   0.162   7.592 -0.7215  0.2263  2.6848
 2578SOL    HW219197   0.145   0.256   7.616 -0.3114  2.1408  0.2675
 2579SOL     OW19198   2.230   0.473   7.890  0.0263 -0.3394 -0.1127
 2579SOL    HW119199   2.249   0.458   7.983 -1.9904  0.7822  0.4854
 2579SOL    HW219200   2.191   0.392   7.859  0.2042 -1.6010  2.8803
 2580SOL     OW19201   2.775   4.361   6.666 -0.3928  0.0152  0.1341
 2580SOL    HW119202   2.784   4.362   6.570 -0.9833  0.2497  0.0822
 2580SOL    HW219203   2.838   4.295   6.696  1.7093  1.6588 -0.6889
 2581SOL     OW19204   1.886   2.735   7.425 -0.3323  0.1861  0.4391
 2581SOL    HW119205   1.923   2.743   7.337 -0.7375  0.0116  0.2523
 2581SOL    HW219206   1.941   2.797   7.474 -0.8103 -0.2118  1.4792
 2582SOL     OW19207   1.698   3.217   3.331 -0.2026  0.0302  0.1269
 2582SOL    HW119208   1.631   3.174   3.384 -0.4349 -0.3974 -0.5216
 2582SOL    HW219209   1.648   3.240   3.253 -0.4229 -1.4059 -0.1524
 2583SOL     OW19210   0.880   2.415   6.732  0.1585 -0.4232  0.3316
 2583SOL    HW119211   0.787   2.392   6.732  0.0050  0.1784  1.4999
 2583SOL    HW219212   0.916   2.367   6.807  0.8789  0.1252  0.3383
 2584SOL     OW19213   1.690   2.601   8.768  0.3059  0.1944  0.4948
 2584SOL    HW119214   1.698   2.531   8.704 -0.8823 -0.5416  1.1389
 2584SOL    HW219215   1.662   2.552   8.845 -1.5102 -0.7204 -0.7402
 2585SOL     OW19216   2.302   1.406   3.243  0.3284 -0.4471 -0.4039
 2585SOL    HW119217   2.384   1.443   3.210  0.4490  0.5541  1.0706
 2585SOL    HW219218   2.259   1.415   3.158 -2.5998 -1.1621  1.0034
 2586SOL     OW19219   0.228   4.170  17.670  0.0663 -0.2428  0.4755
 2586SOL    HW119220   0.175   4.249  17.681 -2.3721 -1.6765 -1.0437
 2586SOL    HW219221   0.264   4.176  17.581 -0.7327  2.1361  0.3050
 2587SOL     OW19222   4.084   2.594   7.168 -0.0210  0.3117  0.1565
 2587SOL    HW119223   4.111   2.531   7.101  2.0806  0.8178  0.5411
 2587SOL    HW219224   3.995   2.614   7.137  0.1065 -0.2580 -0.5595
 2588SOL     OW19225   0.354   0.992  12.757  0.8263 -0.0389 -0.2803
 2588SOL    HW119226   0.416   1.062  12.778  1.1896  0.1216 -1.9498
 2588SOL    HW219227   0.330   0.967  12.847 -2.2273  3.6138 -0.0804
 2589SOL     OW19228   2.539   3.176   0.213  0.5004  0.0619 -0.1937
 2589SOL    HW119229   2.577   3.238   0.275  0.4578  0.0695 -0.1753
 2589SOL    HW219230   2.492   3.116   0.270 -0.0971  0.3275 -0.4081
 2590SOL     OW19231   0.747   0.719   1.493  0.3367  0.0390  0.7107
 2590SOL    HW119232   0.760   0.789   1.429 -0.4601 -0.6557 -0.2031
 2590SOL    HW219233   0.729   0.648   1.432 -2.0092 -0.6142  2.1671
 2591SOL     OW19234   3.632   0.607  12.015 -0.3403 -0.0393  0.0306
 2591SOL    HW119235   3.642   0.693  11.975  1.2963 -0.6032 -0.7745
 2591SOL    HW219236   3.585   0.621  12.097  0.3283 -1.7517  0.7193
 2592SOL     OW19237   0.527   4.437   7.401  0.6101 -0.0310 -0.0746
 2592SOL    HW119238   0.576   4.491   7.464  1.7909 -0.8696 -0.2788
 2592SOL    HW219239   0.503   4.509   7.342  1.2866 -0.7908 -1.2904
 2593SOL     OW19240   0.141   2.342  11.098  0.2142 -0.5277 -0.2424
 2593SOL    HW119241   0.200   2.407  11.135 -0.5756  0.3293 -0.4857
 2593SOL    HW219242   0.171   2.342  11.007 -0.6881  2.0663 -0.5422
 2594SOL     OW19243   1.550   1.397  12.421 -0.3609  0.7064  0.5823
 2594SOL    HW119244   1.590   1.388  12.507  2.6519 -3.2560 -1.2446
 2594SOL    HW219245   1.535   1.305  12.400  0.5211  0.2396  1.9948
 2595SOL     OW19246   1.325   2.958   0.518 -0.4060 -0.8274 -0.0215
 2595SOL    HW119247   1.351   3.020   0.585  1.1309 -0.0099 -1.3581
 2595SOL    HW219248   1.361   2.876   0.552  0.9979 -0.1582  0.0981
 2596SOL     OW19249   4.218   4.686   3.370 -0.5966  0.7113  0.1983
 2596SOL    HW119250   4.262   0.015   3.436  0.8998 -1.1549  0.7334
 2596SOL    HW219251   4.140   4.664   3.420 -0.4651 -1.1668 -0.4212
 2597SOL     OW19252   1.643   4.499   8.994 -0.4454  0.4687  0.0749
 2597SOL    HW119253   1.660   4.495   8.900 -0.1752 -1.3543  0.2103
 2597SOL    HW219254   1.550   4.521   9.003 -0.8814 -0.7285 -1.5212
 2598SOL     OW19255   1.832   3.161   2.161  0.4874  0.4483 -0.1386
 2598SOL    HW119256   1.821   3.256   2.157 -0.2907  0.3778  0.4181
 2598SOL    HW219257   1.742   3.138   2.185 -0.6606  2.0869 -2.8725
 2599SOL     OW19258   3.929   3.328   5.415 -0.2554  1.2033 -0.8193
 2599SOL    HW119259   4.016   3.328   5.456 -1.0536 -3.3531  0.8185
 2599SOL    HW219260   3.875   3.324   5.495  0.5157  2.4009 -0.2272
 2600SOL     OW19261   1.756   4.114  14.908 -0.1320 -0.2244 -0.1565
 2600SOL    HW119262   1.715   4.192  14.947 -0.8945 -1.2400  1.0834
 2600SOL    HW219263   1.678   4.079  14.864  0.0293  0.2489 -0.8265
 2601SOL     OW19264   4.661   4.514  11.825 -0.0119 -0.0143 -0.0412
 2601SOL    HW119265   0.031   4.499  11.828 -0.3364 -1.9464  0.5342
 2601SOL    HW219266   4.641   4.545  11.913  1.6284  1.7601 -0.3131
 2602SOL     OW19267   3.691   4.113   6.001 -0.0741  0.3676 -0.3857
 2602SOL    HW119268   3.623   4.179   5.998 -0.6681 -0.2097  0.2388
 2602SOL    HW219269   3.645   4.029   5.996 -0.7441  0.8835 -2.8186
 2603SOL     OW19270   0.460   3.151   3.858 -0.1325 -0.1689 -0.3484
 2603SOL    HW119271   0.379   3.101   3.850 -0.2207  0.1324 -1.2902
 2603SOL    HW219272   0.430   3.236   3.825  3.1641  0.4290 -1.8072
 2604SOL     OW19273   3.912   2.798  15.476 -0.1768 -0.7890 -0.3533
 2604SOL    HW119274   3.982   2.733  15.483  1.9625  1.6589  1.1148
 2604SOL    HW219275   3.834   2.744  15.465 -0.2586 -0.9792  1.1476
 2605SOL     OW19276   2.138   2.952  11.168 -0.3049  0.0860 -0.0933
 2605SOL    HW119277   2.094   2.886  11.221 -0.7092  1.6520  1.5470
 2605SOL    HW219278   2.057   2.983  11.127 -0.9320 -0.3431  0.8062
 2606SOL     OW19279   1.755   1.843  17.148  0.3633  0.6017 -0.0104
 2606SOL    HW119280   1.664   1.824  17.123  0.6446  0.5981 -1.0428
 2606SOL    HW219281   1.803   1.792  17.083  0.1714 -0.4171  0.6504
 2607SOL     OW19282   0.496   4.166   7.921  0.1223 -0.3436 -0.1559
 2607SOL    HW119283   0.405   4.175   7.892  1.1150 -1.7751 -3.7039
 2607SOL    HW219284   0.514   4.256   7.950 -0.0862  0.0688 -1.3176
 2608SOL     OW19285   0.316   0.325   4.934 -0.2284  1.1333  0.4661
 2608SOL    HW119286   0.384   0.258   4.941 -2.1750 -0.7655  1.3325
 2608SOL    HW219287   0.265   0.289   4.861  1.9272 -1.4672  0.2476
 2609SOL     OW19288   3.088   0.113   5.058  0.2367  0.2261 -0.7780
 2609SOL    HW119289   3.155   0.086   4.996  1.0107 -0.5529  0.3855
 2609SOL    HW219290   3.128   0.128   5.144 -0.8283 -0.8202 -0.0835
 2610SOL     OW19291   3.434   4.457   0.602  0.3087  0.0875  0.0035
 2610SOL    HW119292   3.388   4.382   0.640 -1.0075 -0.0746 -1.9322
 2610SOL    HW219293   3.523   4.438   0.632  0.2793  1.6737  1.0715
 2611SOL     OW19294   0.558   2.759  11.367 -0.2217  0.1948 -0.4993
 2611SOL    HW119295   0.471   2.759  11.327 -0.8183 -0.4520  0.8058
 2611SOL    HW219296   0.560   2.666  11.386 -0.2283  0.5948  1.4320
 2612SOL     OW19297   1.165   2.567  11.779  0.3042  0.4940  0.1606
 2612SOL    HW119298   1.076   2.587  11.750 -0.0038  0.8048  1.3153
 2612SOL    HW219299   1.153   2.526  11.865  0.3899  0.2507  0.0577
 2613SOL     OW19300   0.010   2.601  12.051 -0.6190  0.1255 -0.5151
 2613SOL    HW119301   4.679   2.524  12.031  0.0464 -0.2820 -0.7713
 2613SOL    HW219302   0.083   2.600  11.990  1.5434 -1.4351  2.1039
 2614SOL     OW19303   3.966   1.022   1.051 -0.3434 -0.8011  0.6793
 2614SOL    HW119304   4.028   0.953   1.070  1.4076  0.4098 -0.6337
 2614SOL    HW219305   3.939   1.031   1.142  0.5990 -3.5353  1.2042
 2615SOL     OW19306   0.270   2.830   0.386 -0.1487  0.2542 -0.5346
 2615SOL    HW119307   0.290   2.884   0.462  2.0595  1.9457 -2.2897
 2615SOL    HW219308   0.354   2.784   0.383 -0.6925 -0.7864  0.4445
 2616SOL     OW19309   3.346   0.191   3.701  1.0558  0.3599  0.1159
 2616SOL    HW119310   3.368   0.272   3.655  3.0810 -1.7738 -2.7044
 2616SOL    HW219311   3.416   0.128   3.682 -0.8758 -1.0632 -2.1844
 2617SOL     OW19312   2.402   3.129   7.488  0.1061 -0.8588  0.1924
 2617SOL    HW119313   2.363   3.116   7.574 -0.4333  0.1165  0.1008
 2617SOL    HW219314   2.495   3.137   7.507  0.2236  1.0775 -1.2199
 2618SOL     OW19315   2.211   0.974   1.151 -0.1416 -0.6011  0.4697
 2618SOL    HW119316   2.124   0.984   1.112  0.0855 -2.1146 -0.4320
 2618SOL    HW219317   2.213   1.020   1.235  1.5863  0.8352 -0.3747
 2619SOL     OW19318   2.799   3.782  15.126 -0.5948  0.3508 -0.4413
 2619SOL    HW119319   2.859   3.848  15.091  1.5528 -1.2470  0.1837
 2619SOL    HW219320   2.847   3.747  15.202 -0.9849 -0.9629 -0.8000
 2620SOL     OW19321   0.781   0.182   8.265  0.1090 -0.0219 -0.5197
 2620SOL    HW119322   0.795   0.095   8.305 -1.4794 -0.0034  0.0834
 2620SOL    HW219323   0.782   0.241   8.341  0.7149  3.1148 -2.9897
 2621SOL     OW19324   2.617   1.304  13.681 -0.0375  0.2218  0.2696
 2621SOL    HW119325   2.680   1.305  13.609  0.2705 -0.0182  0.5374
 2621SOL    HW219326   2.621   1.209  13.692  1.7936  0.3348  0.6450
 2622SOL     OW19327   4.660   3.062   0.633  0.5763 -0.0751  0.1168
 2622SOL    HW119328   4.706   3.130   0.682  0.8546 -0.3563  0.2463
 2622SOL    HW219329   4.723   2.990   0.643  0.7690  0.1738  0.7059
 2623SOL     OW19330   2.714   0.107   8.739  0.4552  0.9037 -0.2283
 2623SOL    HW119331   2.763   0.170   8.687 -0.6575  1.6615 -0.3472
 2623SOL    HW219332   2.779   0.036   8.743  0.2405  0.7341  0.3047
 2624SOL     OW19333   1.965   3.041   2.929 -0.6944  0.1230 -0.4510
 2624SOL    HW119334   1.873   3.012   2.927  0.0588 -2.4214  1.8691
 2624SOL    HW219335   1.945   3.133   2.946  1.7405  0.1619  2.0180
 2625SOL     OW19336   4.298   1.057  17.629 -0.0419 -0.5638 -0.0653
 2625SOL    HW119337   4.208   1.091  17.624 -0.5947 -1.9843  0.0974
 2625SOL    HW219338   4.329   1.085  17.543 -0.4160 -0.1718 -0.0736
 2626SOL     OW19339   3.334   4.237   0.714 -0.0740  0.3334 -0.2794
 2626SOL    HW119340   3.318   4.238   0.809  1.2333 -1.1698 -0.0488
 2626SOL    HW219341   3.266   4.179   0.681 -0.0005  1.1601 -1.8902
 2627SOL     OW19342   1.625   2.160   0.854 -0.1546  0.4522  0.0272
 2627SOL    HW119343   1.544   2.202   0.885  1.0253  1.2473  2.0408
 2627SOL    HW219344   1.597   2.071   0.834 -2.7008  1.1266  0.5981
 2628SOL     OW19345   2.955   0.188  11.521  0.3088  0.2361  0.5413
 2628SOL    HW119346   3.045   0.166  11.545  0.2531 -1.4439 -0.7611
 2628SOL    HW219347   2.962   0.280  11.496 -0.3878  0.5688  1.5747
 2629SOL     OW19348   0.686   0.937  13.011 -0.0136 -0.5374  0.0100
 2629SOL    HW119349   0.737   1.014  12.986  1.1259 -0.5500  2.3141
 2629SOL    HW219350   0.600   0.970  12.983  0.6624 -1.5885 -3.3460
 2630SOL     OW19351   2.936   3.280   3.719  0.9298 -0.7975  0.2551
 2630SOL    HW119352   2.847   3.302   3.692  0.7440 -0.1697  1.3907
 2630SOL    HW219353   2.969   3.363   3.754 -0.4408 -0.3774  0.5320
 2631SOL     OW19354   1.213   1.151   0.134  0.1720  0.7470 -0.0461
 2631SOL    HW119355   1.299   1.109   0.137 -0.3227 -0.4405 -1.9675
 2631SOL    HW219356   1.246   1.227   0.087 -0.7069  0.2938 -1.3987
 2632SOL     OW19357   2.456   2.748  12.305 -0.0302 -0.1302  0.0629
 2632SOL    HW119358   2.508   2.697  12.368  2.1719  2.1388  0.0757
 2632SOL    HW219359   2.477   2.836  12.335 -1.8439  1.0686 -2.1404
 2633SOL     OW19360   4.256   1.065   1.434  0.3565  1.0078  0.7073
 2633SOL    HW119361   4.172   1.059   1.479  0.1086 -2.0484 -0.1654
 2633SOL    HW219362   4.319   1.068   1.506  2.4639 -1.6504 -1.0178
 2634SOL     OW19363   0.356   0.193   1.619  0.4128 -0.1615 -0.1468
 2634SOL    HW119364   0.262   0.206   1.612  0.2313 -2.6805 -2.4401
 2634SOL    HW219365   0.377   0.182   1.526  3.0241 -0.4400  0.4702
 2635SOL     OW19366   3.128   0.059   8.161 -0.0590 -0.1242  0.6308
 2635SOL    HW119367   3.152   0.060   8.254  0.6680 -0.6111  0.4567
 2635SOL    HW219368   3.175   0.139   8.137 -0.0548 -0.5905 -0.9472
 2636SOL     OW19369   0.531   3.764  16.760 -0.4951  0.5968 -0.1882
 2636SOL    HW119370   0.590   3.779  16.686  1.3547 -2.2033  0.7329
 2636SOL    HW219371   0.451   3.798  16.720 -0.3245 -1.5994 -2.3638
 2637SOL     OW19372   1.422   2.317  15.495 -0.0825  0.1003  0.3061
 2637SOL    HW119373   1.431   2.323  15.399  1.2120  1.1648  0.4887
 2637SOL    HW219374   1.405   2.224  15.506 -1.5337  0.2926 -0.2835
 2638SOL     OW19375   1.712   0.039   5.913  0.0631 -0.2218 -0.6750
 2638SOL    HW119376   1.718   4.717   5.829  1.4890 -0.4331 -0.4674
 2638SOL    HW219377   1.714   4.688   5.972  0.2858 -2.3712 -3.3896
 2639SOL     OW19378   2.391   2.533   5.767 -0.3132  0.7929  0.0411
 2639SOL    HW119379   2.423   2.559   5.853  0.3570 -1.9035  0.6176
 2639SOL    HW219380   2.474   2.511   5.725 -0.1758  1.2301  0.0919
 2640SOL     OW19381   0.150   3.669   0.012 -0.9304 -0.2154 -0.4118
 2640SOL    HW119382   0.172   3.687   0.104  0.0852  1.4182 -0.9826
 2640SOL    HW219383   0.158   3.756  17.673 -0.4315  0.5474  1.5153
 2641SOL     OW19384   4.453   4.407   4.980  0.9574  0.2041  0.0076
 2641SOL    HW119385   4.427   4.453   4.901 -2.4511 -0.1067  0.9444
 2641SOL    HW219386   4.498   4.472   5.034 -1.5538  1.3132  0.7524
 2642SOL     OW19387   1.438   2.524   5.811  0.1369  0.1535 -0.6057
 2642SOL    HW119388   1.418   2.606   5.766 -1.7553 -1.4012 -2.5453
 2642SOL    HW219389   1.496   2.553   5.881 -0.1965  0.7548 -0.5765
 2643SOL     OW19390   3.759   2.686  13.786  0.5654 -0.3199 -0.2764
 2643SOL    HW119391   3.726   2.732  13.863 -0.1345 -1.7706  0.2973
 2643SOL    HW219392   3.792   2.756  13.729 -0.7041  1.1004  0.7432
 2644SOL     OW19393   1.141   0.428   3.738  0.4867  0.2975  0.2326
 2644SOL    HW119394   1.179   0.480   3.809  1.3709 -0.8844  0.6238
 2644SOL    HW219395   1.067   0.480   3.708 -0.2161 -0.8004  0.0595
 2645SOL     OW19396   1.766   0.636   8.022  0.5019 -0.0582 -0.4159
 2645SOL    HW119397   1.780   0.569   7.955  1.7290  1.3391 -1.5712
 2645SOL    HW219398   1.753   0.710   7.963  0.0762  0.3856  0.2356
 2646SOL     OW19399   0.474   3.821  17.683  0.2201 -0.6057  0.0150
 2646SOL    HW119400   0.522   3.765   0.046  1.7488  0.8509  0.1520
 2646SOL    HW219401   0.488   3.764  17.608 -0.2135 -0.0114 -0.5175
 2647SOL     OW19402   2.175   0.372   4.999  0.3902  0.4385  0.5025
 2647SOL    HW119403   2.165   0.422   5.079 -3.0751  1.1264 -0.3588
 2647SOL    HW219404   2.211   0.433   4.935 -3.0439 -2.0775 -3.9004
 2648SOL     OW19405   4.256   3.945   9.163  0.4603 -0.2439  0.8569
 2648SOL    HW119406   4.205   4.009   9.212 -0.2585  0.2247 -0.4942
 2648SOL    HW219407   4.292   3.887   9.229 -4.1124 -0.8153  2.8505
 2649SOL     OW19408   0.634   1.875  16.028 -0.0123  0.1780 -0.0152
 2649SOL    HW119409   0.706   1.871  15.965 -0.4258  1.0243 -0.5289
 2649SOL    HW219410   0.604   1.965  16.034  1.1045  0.5468  0.0688
 2650SOL     OW19411   1.030   0.254   8.562  0.5405 -0.1063 -0.4491
 2650SOL    HW119412   0.935   0.257   8.551  0.3082 -3.8372  0.5138
 2650SOL    HW219413   1.040   0.292   8.649 -2.5715  0.6306 -0.4092
 2651SOL     OW19414   2.266   3.654   6.643 -0.0945  0.0390 -0.3704
 2651SOL    HW119415   2.336   3.612   6.694 -0.1036 -0.0580 -0.4386
 2651SOL    HW219416   2.233   3.725   6.698  0.4724  0.9505 -1.2139
 2652SOL     OW19417   4.700   0.360   0.507  0.1952 -0.6618  0.4274
 2652SOL    HW119418   4.642   0.295   0.467  0.6099 -0.9325  0.2671
 2652SOL    HW219419   0.056   0.334   0.461 -0.1017  0.5039 -0.7599
 2653SOL     OW19420   3.138   1.421   2.177  0.5282 -0.2599 -0.1867
 2653SOL    HW119421   3.197   1.413   2.102 -0.5044  1.4702 -1.1886
 2653SOL    HW219422   3.114   1.513   2.161 -0.8831 -0.5646  0.1503
 2654SOL     OW19423   2.310   0.131   3.625 -0.0159  0.4858  0.0076
 2654SOL    HW119424   2.391   0.178   3.609  0.9469 -2.1885 -3.0225
 2654SOL    HW219425   2.261   0.183   3.561  0.8454 -0.0792 -1.1119
 2655SOL     OW19426   4.087   2.322   5.956 -0.1815  0.2933  0.0791
 2655SOL    HW119427   4.039   2.392   5.913 -1.1448  0.0219  0.6990
 2655SOL    HW219428   4.123   2.368   6.032  0.0194  1.3886 -0.6784
 2656SOL     OW19429   0.328   0.344   5.651 -0.1526 -0.1584  0.9510
 2656SOL    HW119430   0.249   0.310   5.610 -0.6304  2.0219  0.0593
 2656SOL    HW219431   0.396   0.278   5.634  1.2731  1.5359  0.0574
 2657SOL     OW19432   0.630   2.321   4.382  0.0861  0.6801 -0.4640
 2657SOL    HW119433   0.673   2.352   4.462 -0.6891  0.1490  0.1636
 2657SOL    HW219434   0.707   2.321   4.325 -0.1212  0.2828 -0.7463
 2658SOL     OW19435   3.653   0.206   4.905  0.1736 -0.0866 -0.1397
 2658SOL    HW119436   3.597   0.274   4.944  0.8464 -0.5493  1.6109
 2658SOL    HW219437   3.601   0.197   4.825  2.6423  0.0533 -1.7479
 2659SOL     OW19438   3.176   1.650   9.174  0.1762  0.3030 -0.0132
 2659SOL    HW119439   3.087   1.649   9.210  0.2448  0.3531  0.1565
 2659SOL    HW219440   3.163   1.709   9.101 -0.3755  0.4871  0.2326
 2660SOL     OW19441   0.957   4.112   5.200 -0.0611  0.3623 -0.0979
 2660SOL    HW119442   1.008   4.032   5.202  0.5852  0.7947  0.9399
 2660SOL    HW219443   1.021   4.160   5.148 -0.3560  0.2359 -0.5797
 2661SOL     OW19444   4.260   1.518   4.484 -0.0730 -0.0079 -1.0443
 2661SOL    HW119445   4.308   1.447   4.527 -0.1583 -0.5646 -1.8710
 2661SOL    HW219446   4.203   1.478   4.418 -0.4737 -1.0533 -0.0758
 2662SOL     OW19447   4.264   0.825   2.770 -0.0222 -0.0190  0.0401
 2662SOL    HW119448   4.180   0.811   2.725  1.7807 -2.6124 -2.5499
 2662SOL    HW219449   4.322   0.824   2.694  0.4642 -0.3100  0.4142
 2663SOL     OW19450   2.059   0.783   8.015 -0.4585 -0.0830  0.1436
 2663SOL    HW119451   2.072   0.709   8.075  2.0144  1.1123  1.0812
 2663SOL    HW219452   2.005   0.745   7.945 -0.0906 -2.6105  1.2081
 2664SOL     OW19453   1.325   4.451   1.406 -0.1023  0.2214 -0.3406
 2664SOL    HW119454   1.294   4.438   1.496  0.3583  0.1117 -0.2006
 2664SOL    HW219455   1.245   4.479   1.360 -1.7949 -1.6357  1.4442
 2665SOL     OW19456   0.226   2.257   5.147  0.1835  0.2932  0.2011
 2665SOL    HW119457   0.296   2.215   5.098 -1.2202 -2.3049  0.4216
 2665SOL    HW219458   0.162   2.207   5.096 -0.4439  0.0552  1.2220
 2666SOL     OW19459   3.528   1.296   1.343 -0.3573 -0.6092  0.6756
 2666SOL    HW119460   3.540   1.341   1.259  3.1979 -0.3980  1.3329
 2666SOL    HW219461   3.432   1.287   1.340 -0.3204 -0.5151 -0.8886
 2667SOL     OW19462   4.138   4.516   1.958 -0.2851  0.2970 -0.0254
 2667SOL    HW119463   4.163   4.586   2.019 -0.5842  2.2156 -2.1308
 2667SOL    HW219464   4.090   4.566   1.892 -1.4192 -1.1326 -0.2808
 2668SOL     OW19465   0.441   2.169   4.995  0.1425 -0.4272  0.6608
 2668SOL    HW119466   0.440   2.184   4.900 -0.5471 -1.4745  0.5065
 2668SOL    HW219467   0.466   2.077   4.987  1.4847 -0.2633  3.0152
 2669SOL     OW19468   0.733   3.920  15.717  0.5740 -0.1746 -0.5559
 2669SOL    HW119469   0.642   3.904  15.741  0.4098  1.7531  0.1164
 2669SOL    HW219470   0.770   3.882  15.796 -0.0884 -0.2460 -0.2853
 2670SOL     OW19471   4.032   4.180   6.953  0.3460  0.2007  0.0537
 2670SOL    HW119472   4.072   4.221   6.877  1.0071 -2.8911 -1.2299
 2670SOL    HW219473   4.003   4.261   6.995 -1.2227  0.2546 -1.1401
 2671SOL     OW19474   4.144   1.406   1.367  0.5401  0.2068 -0.6122
 2671SOL    HW119475   4.120   1.347   1.296  1.2616  0.0425 -0.7197
 2671SOL    HW219476   4.076   1.390   1.432  0.9002 -2.1412 -0.8010
 2672SOL     OW19477   0.851   4.299   7.973 -0.0199  0.5482 -0.1710
 2672SOL    HW119478   0.870   4.215   8.014  1.3469  0.1376 -1.6446
 2672SOL    HW219479   0.929   4.302   7.917 -0.7883  0.4081 -1.2438
 2673SOL     OW19480   0.439   2.078  13.308  0.7339  0.1822  0.2752
 2673SOL    HW119481   0.472   2.140  13.242 -1.7322  1.2087 -0.0143
 2673SOL    HW219482   0.356   2.061  13.263  1.6988 -2.0427 -0.6630
 2674SOL     OW19483   3.844   0.290  12.308 -0.2223 -0.2749 -0.5664
 2674SOL    HW119484   3.879   0.236  12.379  0.1234  1.8149  0.8507
 2674SOL    HW219485   3.906   0.270  12.238 -1.9442 -0.0704 -2.1420
 2675SOL     OW19486   3.804   4.529   5.967 -0.2513  0.2132 -0.0773
 2675SOL    HW119487   3.859   4.452   5.953 -0.8148 -0.5542  1.9408
 2675SOL    HW219488   3.849   4.595   5.914 -0.2078 -0.1817 -0.5341
 2676SOL     OW19489   2.248   1.956   0.849  0.1494  0.1779 -0.1702
 2676SOL    HW119490   2.157   1.943   0.878  0.8602  2.8151  3.1940
 2676SOL    HW219491   2.278   2.007   0.924  2.4097  2.5269 -2.7078
 2677SOL     OW19492   0.946   3.573   6.376 -0.3532  0.1406  0.8907
 2677SOL    HW119493   0.951   3.494   6.322 -1.6462  0.4348  0.3144
 2677SOL    HW219494   0.857   3.603   6.355 -0.8196 -0.0744  2.5541
 2678SOL     OW19495   0.561   0.199   4.894  0.5361 -0.1448  0.0280
 2678SOL    HW119496   0.565   0.109   4.863 -0.5554 -0.2299  0.1238
 2678SOL    HW219497   0.641   0.198   4.947  0.6244 -0.5788 -0.1117
 2679SOL     OW19498   0.315   4.272   9.789 -0.2440  0.0344  0.1953
 2679SOL    HW119499   0.300   4.189   9.835  0.5311 -0.7519 -1.0077
 2679SOL    HW219500   0.333   4.325   9.867 -0.7131  0.1335  0.2399
 2680SOL     OW19501   4.235   2.798  14.788 -0.3862 -0.1328 -0.3955
 2680SOL    HW119502   4.164   2.854  14.758 -0.7254 -0.9035 -1.0436
 2680SOL    HW219503   4.198   2.711  14.807 -1.0616  0.2153 -0.1184
 2681SOL     OW19504   1.816   3.520   2.376  0.0538 -0.3868 -0.0094
 2681SOL    HW119505   1.784   3.492   2.291 -0.3443 -3.3208  1.0847
 2681SOL    HW219506   1.776   3.606   2.384  2.5950  1.0027 -2.4989
 2682SOL     OW19507   0.988   1.645   7.801 -0.6101 -0.5887 -0.1439
 2682SOL    HW119508   1.020   1.600   7.723 -0.8867 -0.8922 -0.0784
 2682SOL    HW219509   1.053   1.616   7.865 -0.8392 -0.2415  0.2527
 2683SOL     OW19510   4.620   0.846   6.758 -0.0811 -0.6651 -0.3787
 2683SOL    HW119511   4.626   0.777   6.825  1.3797 -0.9395 -0.7971
 2683SOL    HW219512   4.561   0.901   6.808  0.3440 -0.6921  0.1540
 2684SOL     OW19513   4.651   1.602  11.488 -0.3645 -0.3506 -0.4083
 2684SOL    HW119514   4.606   1.672  11.535 -1.9515 -1.5028 -0.2138
 2684SOL    HW219515   4.595   1.527  11.505  0.5068 -1.1970 -1.2504
 2685SOL     OW19516   2.084   2.740   8.884  0.1546 -0.1229 -0.3594
 2685SOL    HW119517   2.054   2.673   8.946 -0.5652 -0.8949 -1.5496
 2685SOL    HW219518   2.157   2.700   8.837  1.1346 -0.5447  1.5329
 2686SOL     OW19519   3.777   3.521   8.260 -0.2449 -0.6097  0.0149
 2686SOL    HW119520   3.760   3.510   8.354 -1.1454  0.8336  0.0284
 2686SOL    HW219521   3.854   3.577   8.252 -0.9722  0.6533  1.6944
 2687SOL     OW19522   2.497   3.330   5.866  0.3380 -0.4920 -0.1631
 2687SOL    HW119523   2.462   3.268   5.802  2.8348 -0.2753 -1.7369
 2687SOL    HW219524   2.477   3.292   5.952 -0.8678  0.0354 -0.2081
 2688SOL     OW19525   3.071   4.373   4.357  0.3474 -0.2851 -0.3830
 2688SOL    HW119526   2.995   4.431   4.368  0.7519  0.3622 -0.9805
 2688SOL    HW219527   3.098   4.410   4.273 -2.0755  0.6608 -0.7481
 2689SOL     OW19528   4.378   2.933  17.647 -0.0940 -0.6419  0.1329
 2689SOL    HW119529   4.384   2.957  17.555 -0.5636 -2.0741 -0.2731
 2689SOL    HW219530   4.351   2.842  17.641  3.3827 -1.7230  0.9087
 2690SOL     OW19531   1.655   3.027  15.920  0.3014 -0.0351 -0.3428
 2690SOL    HW119532   1.594   3.022  15.846  2.3775 -2.0950 -1.9107
 2690SOL    HW219533   1.608   3.087  15.978  0.4668  0.1492 -0.4010
 2691SOL     OW19534   2.293   3.535   6.056 -0.4830  0.3441 -0.5406
 2691SOL    HW119535   2.219   3.485   6.021  0.2671  1.3276 -3.5183
 2691SOL    HW219536   2.338   3.457   6.088 -0.6341 -0.5057 -2.3960
 2692SOL     OW19537   3.031   3.933  15.609 -0.3855 -0.1446  0.1059
 2692SOL    HW119538   3.028   3.976  15.695  1.7272 -0.7544  0.4963
 2692SOL    HW219539   3.058   3.844  15.632 -0.3076 -0.0651  0.3193
 2693SOL     OW19540   0.520   2.830   3.252 -0.4265  0.2215 -0.5538
 2693SOL    HW119541   0.593   2.882   3.286 -0.6346 -2.0592  3.4063
 2693SOL    HW219542   0.520   2.758   3.315  0.1045  1.0812  0.4225
 2694SOL     OW19543   3.530   0.381   6.148 -0.1270  0.0230  0.4150
 2694SOL    HW119544   3.449   0.425   6.125  1.4451  1.1961 -2.8297
 2694SOL    HW219545   3.496   0.294   6.170  0.4115  0.2445  2.1341
 2695SOL     OW19546   1.501   3.411   0.754  0.3582 -0.8731  0.3717
 2695SOL    HW119547   1.413   3.418   0.792 -0.5055  0.0938 -1.8324
 2695SOL    HW219548   1.481   3.333   0.703  1.2122 -1.2481  0.6082
 2696SOL     OW19549   2.323   1.172   8.231  0.6653  0.5690 -0.3302
 2696SOL    HW119550   2.241   1.124   8.223  1.3343 -0.7482  0.6868
 2696SOL    HW219551   2.291   1.262   8.218 -0.8635  0.1386  0.4801
 2697SOL     OW19552   1.511   4.607  11.179 -0.4841 -0.3482  0.0004
 2697SOL    HW119553   1.568   4.636  11.109  0.2758 -1.3149  0.2140
 2697SOL    HW219554   1.422   4.623  11.148  0.9165  3.0399 -2.1363
 2698SOL     OW19555   1.352   1.113   0.525 -0.1598  0.3316  0.4104
 2698SOL    HW119556   1.352   1.163   0.607 -0.8762 -0.4545  0.8929
 2698SOL    HW219557   1.345   1.024   0.560 -1.1107  0.4456  0.5019
 2699SOL     OW19558   2.951   1.427  10.696 -0.6984  0.4991  0.0533
 2699SOL    HW119559   3.045   1.442  10.689 -0.4767 -0.3388  1.3646
 2699SOL    HW219560   2.945   1.337  10.663 -3.4369  0.4555  0.6312
 2700SOL     OW19561   2.377   3.734   7.844  0.0857  0.1939  0.1048
 2700SOL    HW119562   2.411   3.706   7.759 -0.3687  2.9322 -0.9914
 2700SOL    HW219563   2.307   3.795   7.822 -1.6635 -2.0807 -0.6563
 2701SOL     OW19564   0.778   1.625  13.391  0.5632 -0.2197  0.1455
 2701SOL    HW119565   0.826   1.707  13.394 -1.1664  0.8051 -0.2650
 2701SOL    HW219566   0.811   1.578  13.468  1.0208 -0.6359 -0.3033
 2702SOL     OW19567   1.552   3.775   2.035  0.0706  0.4024  0.1386
 2702SOL    HW119568   1.470   3.783   1.987 -0.0607 -0.8102  0.1547
 2702SOL    HW219569   1.560   3.870   2.048 -1.2953  0.0704  3.3715
 2703SOL     OW19570   0.147   2.564   6.530  0.6125  0.2874  0.2834
 2703SOL    HW119571   0.199   2.518   6.464 -1.8755 -2.2716  0.1224
 2703SOL    HW219572   0.115   2.636   6.474  0.6983 -1.0897 -1.5418
 2704SOL     OW19573   0.353   4.353   1.133  0.1110 -0.1179  0.1729
 2704SOL    HW119574   0.419   4.423   1.139  2.8684 -2.8304  1.7519
 2704SOL    HW219575   0.306   4.368   1.214  0.6153 -0.1959  0.4827
 2705SOL     OW19576   3.710   2.470  14.733 -0.2371  0.1169 -0.0362
 2705SOL    HW119577   3.616   2.479  14.719 -0.6201 -0.2997  2.3772
 2705SOL    HW219578   3.743   2.560  14.743  1.4714 -0.5238  0.1000
 2706SOL     OW19579   2.742   4.554  14.489 -0.2367  0.6457  0.1475
 2706SOL    HW119580   2.672   4.605  14.448  0.8891  0.2041 -2.3576
 2706SOL    HW219581   2.722   4.476  14.437  0.2805  0.6814 -0.1120
 2707SOL     OW19582   2.808   3.491   1.373 -0.4165 -0.2074  0.2973
 2707SOL    HW119583   2.857   3.562   1.332 -3.2803  1.4920 -0.2215
 2707SOL    HW219584   2.769   3.530   1.451  1.2419 -0.9349  1.4749
 2708SOL     OW19585   4.373   2.800   0.685  0.3616 -0.9557 -0.0711
 2708SOL    HW119586   4.282   2.814   0.660  0.3432  0.6480  0.8999
 2708SOL    HW219587   4.377   2.704   0.690  0.7270 -0.9785 -0.8892
 2709SOL     OW19588   3.276   0.737   2.331 -0.1223 -0.4199 -0.5424
 2709SOL    HW119589   3.218   0.768   2.401  0.8858  0.2159  0.0101
 2709SOL    HW219590   3.261   0.643   2.340  2.0142 -0.6029  1.0422
 2710SOL     OW19591   0.572   3.520  17.196  0.2358  0.4607  0.3682
 2710SOL    HW119592   0.578   3.425  17.199  1.5131  0.5953  2.6057
 2710SOL    HW219593   0.555   3.529  17.102 -3.7801  3.2321  1.3383
 2711SOL     OW19594   4.038   1.074  10.070 -0.3255 -0.1829 -0.3644
 2711SOL    HW119595   4.000   1.071  10.158  0.6021 -0.5472  0.0230
 2711SOL    HW219596   4.113   1.018  10.090  0.9782  1.7298  0.0950
 2712SOL     OW19597   2.844   0.573   5.486  0.5689  0.1920 -0.2245
 2712SOL    HW119598   2.818   0.608   5.571 -2.2157 -0.1671 -0.9167
 2712SOL    HW219599   2.820   0.647   5.430 -2.2886  0.4027  1.2859
 2713SOL     OW19600   4.297   1.448  10.557  0.1038  0.5056 -0.8990
 2713SOL    HW119601   4.258   1.361  10.548  2.1731 -0.6308  1.0658
 2713SOL    HW219602   4.329   1.437  10.647 -1.3672 -2.5629 -0.7374
 2714SOL     OW19603   0.726   1.185   6.265 -0.1500  0.1175 -0.5676
 2714SOL    HW119604   0.753   1.246   6.197  0.7143 -0.8557 -1.0935
 2714SOL    HW219605   0.814   1.165   6.298 -0.7361 -1.9949 -0.2633
 2715SOL     OW19606   4.714   1.227   9.021 -0.6330 -0.2597 -1.0871
 2715SOL    HW119607   4.723   1.262   8.932  0.0257  0.4413 -0.7431
 2715SOL    HW219608   4.682   1.299   9.075 -1.1451 -0.0729 -1.6388
 2716SOL     OW19609   3.470   1.967   3.362 -0.5751 -0.0692 -0.3907
 2716SOL    HW119610   3.525   2.003   3.293 -0.1581 -0.4487 -0.2547
 2716SOL    HW219611   3.477   2.042   3.421 -0.2624  0.9022 -1.6623
 2717SOL     OW19612   3.686   0.575   7.965  0.1196  0.2207 -0.5226
 2717SOL    HW119613   3.714   0.577   8.057 -0.3973 -0.7780 -0.3520
 2717SOL    HW219614   3.594   0.551   7.975  0.0801  0.7351  0.4100
 2718SOL     OW19615   3.909   1.255   0.152  0.0285  0.3299 -0.8483
 2718SOL    HW119616   3.940   1.343   0.172  1.6499 -0.3751 -0.2394
 2718SOL    HW219617   3.951   1.193   0.213 -3.2768 -1.2065 -0.1300
 2719SOL     OW19618   1.207   3.869   7.377  0.6937  0.0360 -0.2067
 2719SOL    HW119619   1.220   3.871   7.472  2.8837 -2.4614 -0.4473
 2719SOL    HW219620   1.264   3.941   7.350 -1.3214  1.5718 -0.3819
 2720SOL     OW19621   3.357   2.602   4.646  0.2628  0.1087 -0.1827
 2720SOL    HW119622   3.336   2.670   4.582  0.3731 -0.3659 -0.7176
 2720SOL    HW219623   3.331   2.523   4.600 -0.8626 -1.7699  3.6842
 2721SOL     OW19624   4.235   4.047  14.039 -0.4943  0.2963 -0.2167
 2721SOL    HW119625   4.172   3.992  14.086  1.7687 -1.2019  1.1199
 2721SOL    HW219626   4.179   4.094  13.979 -0.0468  0.0726 -0.8098
 2722SOL     OW19627   3.062   1.815   2.596 -0.5199 -0.1088  0.4171
 2722SOL    HW119628   2.989   1.777   2.549 -0.0101  0.6767 -1.0100
 2722SOL    HW219629   3.059   1.910   2.583 -3.5088 -0.4244 -1.0184
 2723SOL     OW19630   4.000   0.472  15.443 -0.1506 -0.1371  0.2362
 2723SOL    HW119631   4.050   0.471  15.361 -1.5641  1.5387 -0.6624
 2723SOL    HW219632   4.039   0.538  15.500  2.3258 -0.2972 -1.2851
 2724SOL     OW19633   1.189   4.091   1.890 -0.3687  0.3943  0.1646
 2724SOL    HW119634   1.222   4.037   1.819 -0.6476  0.0412  0.3020
 2724SOL    HW219635   1.212   4.031   1.962  2.5827  1.2239 -0.0876
 2725SOL     OW19636   2.920   2.448   2.579 -0.1966 -0.4420  0.2620
 2725SOL    HW119637   2.982   2.429   2.650  0.0128 -0.4849  0.0669
 2725SOL    HW219638   2.919   2.370   2.523  2.4477 -1.0667  1.0697
 2726SOL     OW19639   4.213   4.377   7.131 -0.1833  0.6227 -0.0342
 2726SOL    HW119640   4.246   4.339   7.213 -0.1477  0.3758 -0.1625
 2726SOL    HW219641   4.284   4.349   7.072 -0.6460 -2.2916  0.7657
 2727SOL     OW19642   0.512   2.729   6.547 -0.7963 -0.0452  0.0425
 2727SOL    HW119643   0.458   2.702   6.473 -0.1211 -2.0793  0.2818
 2727SOL    HW219644   0.572   2.785   6.498  0.9868  0.4051  2.7119
 2728SOL     OW19645   3.550   1.587   0.531 -0.6245  0.4176 -0.3623
 2728SOL    HW119646   3.632   1.608   0.576 -2.6346  2.2963  2.3861
 2728SOL    HW219647   3.569   1.512   0.474  1.5353  1.8846 -1.5761
 2729SOL     OW19648   3.683   3.089   2.801  0.1279  0.1092 -0.8819
 2729SOL    HW119649   3.633   3.030   2.744 -1.0150  1.1811 -0.9736
 2729SOL    HW219650   3.620   3.113   2.868  2.2736  0.5066  0.9967
 2730SOL     OW19651   0.651   2.195   7.788  0.0294  0.3070  0.0175
 2730SOL    HW119652   0.719   2.128   7.777 -0.0429  0.0682  1.0519
 2730SOL    HW219653   0.582   2.139   7.825 -0.5216  0.8619 -0.1676
 2731SOL     OW19654   2.566   1.065  16.579  0.1089  0.2951  0.4615
 2731SOL    HW119655   2.624   1.140  16.566  0.1139 -0.1370 -1.9858
 2731SOL    HW219656   2.481   1.098  16.551  1.2939  3.2374  0.2791
 2732SOL     OW19657   1.002   3.010   3.705  0.2120 -0.0727 -0.1599
 2732SOL    HW119658   1.092   3.022   3.734  0.3755  0.6773 -1.0202
 2732SOL    HW219659   0.986   2.922   3.741 -2.4111 -0.1041 -1.3830
 2733SOL     OW19660   1.038   4.422  13.058  0.4325  0.1121 -0.5343
 2733SOL    HW119661   1.088   4.497  13.026  0.9057 -0.0823 -0.2383
 2733SOL    HW219662   0.953   4.464  13.040  1.5034  2.1299 -0.8624
 2734SOL     OW19663   4.267   3.198   8.383  0.3638  0.6006 -0.3461
 2734SOL    HW119664   4.298   3.232   8.467  2.1759  0.8152 -1.0848
 2734SOL    HW219665   4.180   3.172   8.412  1.1657 -1.3921  0.3052
 2735SOL     OW19666   4.413   1.294   1.322 -0.2260  0.3200  0.4914
 2735SOL    HW119667   4.370   1.209   1.335  3.1577 -1.4493  0.0674
 2735SOL    HW219668   4.337   1.352   1.327 -1.2698 -0.8867 -1.4095
 2736SOL     OW19669   3.078   0.269   2.453 -0.1647 -0.5837 -0.3667
 2736SOL    HW119670   3.118   0.294   2.536  2.7797  0.8231 -2.2166
 2736SOL    HW219671   2.997   0.238   2.493  0.0915  0.0296  0.6287
 2737SOL     OW19672   4.061   2.924  11.000  0.0745  0.6159 -0.0742
 2737SOL    HW119673   3.975   2.924  11.040 -0.2717  1.4852 -0.8340
 2737SOL    HW219674   4.076   3.018  10.989 -0.1591  0.5863 -0.6404
 2738SOL     OW19675   2.971   4.015  13.658 -0.2222 -0.3327  0.0744
 2738SOL    HW119676   2.981   3.921  13.673  0.0947 -0.3434 -0.1900
 2738SOL    HW219677   2.882   4.021  13.692 -1.2402  0.7573 -2.7839
 2739SOL     OW19678   0.498   2.846   0.085 -0.2996 -0.8872  0.2205
 2739SOL    HW119679   0.437   2.783   0.045  1.0111 -1.3454 -1.0371
 2739SOL    HW219680   0.541   2.876   0.006 -0.2366 -1.4820  0.0267
 2740SOL     OW19681   3.451   0.911   1.709 -0.3741 -0.2441 -0.1649
 2740SOL    HW119682   3.418   0.997   1.685  0.1513 -0.0197 -0.0872
 2740SOL    HW219683   3.492   0.873   1.632  2.4520  0.2618  1.0622
 2741SOL     OW19684   0.409   1.019  10.484  0.4401  0.3199  0.5963
 2741SOL    HW119685   0.446   1.093  10.531  1.7000 -0.4117  0.7485
 2741SOL    HW219686   0.347   0.973  10.541  0.7202 -0.0616  0.5932
 2742SOL     OW19687   3.829   2.501   8.158  0.2161 -0.7606 -0.2892
 2742SOL    HW119688   3.764   2.508   8.228 -0.8158 -1.5213 -1.1636
 2742SOL    HW219689   3.778   2.541   8.087  0.0822 -0.8783 -0.2597
 2743SOL     OW19690   1.720   1.057   7.801  0.1571  0.2034 -0.0452
 2743SOL    HW119691   1.747   1.139   7.843  1.8189 -0.6177  0.5197
 2743SOL    HW219692   1.679   1.017   7.878  1.0155  1.6917  1.1897
 2744SOL     OW19693   2.629   2.729   3.618  0.2576 -0.0648  0.7145
 2744SOL    HW119694   2.557   2.792   3.619  1.2904  1.1064  1.4399
 2744SOL    HW219695   2.694   2.764   3.679 -0.2925  0.0972  1.2037
 2745SOL     OW19696   2.644   1.048   5.335  0.7314  0.1086  0.6725
 2745SOL    HW119697   2.581   1.119   5.327  1.6991  0.6741 -1.8460
 2745SOL    HW219698   2.620   1.010   5.420  0.5443 -0.0564  0.5464
 2746SOL     OW19699   3.898   1.935   5.768 -0.4989  0.1175  1.1488
 2746SOL    HW119700   3.940   1.944   5.854 -1.8016  0.8413  1.6975
 2746SOL    HW219701   3.923   2.020   5.732  1.7629 -1.2863 -0.5626
 2747SOL     OW19702   3.237   0.472   2.359 -0.5994 -0.0137  0.0034
 2747SOL    HW119703   3.167   0.407   2.361 -0.0826 -0.5060  2.3822
 2747SOL    HW219704   3.319   0.423   2.360 -0.3038  0.5200  1.5461
 2748SOL     OW19705   3.024   4.422   9.481 -0.1403  0.5054  0.7324
 2748SOL    HW119706   2.979   4.465   9.553 -1.5138 -1.8396  1.2674
 2748SOL    HW219707   3.055   4.498   9.431  0.3553 -0.3222 -0.2227
 2749SOL     OW19708   0.199   1.136   8.343 -0.2658 -0.0096  0.5535
 2749SOL    HW119709   0.285   1.171   8.369 -0.3424  1.4025 -1.1465
 2749SOL    HW219710   0.178   1.111   8.433 -0.0713 -1.5488  0.1751
 2750SOL     OW19711   2.397   0.082   9.238  0.1415  0.1567 -0.5094
 2750SOL    HW119712   2.449   0.162   9.231  0.3335  0.1805  1.2674
 2750SOL    HW219713   2.309   0.119   9.245 -0.3358 -1.2755  0.8560
 2751SOL     OW19714   3.439   0.415   3.575  0.2915  0.3261 -0.0843
 2751SOL    HW119715   3.370   0.469   3.535 -1.0160 -0.9732  0.4343
 2751SOL    HW219716   3.507   0.481   3.589  0.5000 -0.3982  2.3091
 2752SOL     OW19717   2.962   4.478   6.122 -0.3130 -0.0888 -0.0009
 2752SOL    HW119718   2.926   4.567   6.120  1.1562  0.5254  1.5776
 2752SOL    HW219719   3.053   4.505   6.129 -1.4695  3.8632  0.1101
 2753SOL     OW19720   4.574   0.663   5.941  0.2597  0.4156  0.0916
 2753SOL    HW119721   4.560   0.680   5.848 -2.0025  0.1123  0.3760
 2753SOL    HW219722   4.484   0.643   5.967  0.6584  2.1117  2.7810
 2754SOL     OW19723   2.336   0.337  15.985  0.4479  0.2257 -0.4780
 2754SOL    HW119724   2.320   0.244  16.002  0.4817 -0.2640 -3.1142
 2754SOL    HW219725   2.425   0.339  16.021  1.0204  2.0133 -1.9627
 2755SOL     OW19726   3.636   2.139   3.207  0.2656  0.2446 -0.2692
 2755SOL    HW119727   3.631   2.230   3.235  1.1634 -0.2587  1.5444
 2755SOL    HW219728   3.593   2.143   3.121 -0.8452 -1.4579  0.1921
 2756SOL     OW19729   1.700   1.770   7.216 -0.0955  0.2507  0.0715
 2756SOL    HW119730   1.768   1.705   7.233 -0.8629 -0.4346  0.5320
 2756SOL    HW219731   1.735   1.848   7.259 -1.6807  0.9226  0.1614
 2757SOL     OW19732   2.344   0.093   4.201  0.2474  0.5006  0.1479
 2757SOL    HW119733   2.309   0.172   4.242  1.1976  0.5896  0.8014
 2757SOL    HW219734   2.263   0.055   4.166  0.7966 -1.0183  0.5051
 2758SOL     OW19735   3.458   1.683   2.923  0.5649  0.1247  0.2604
 2758SOL    HW119736   3.412   1.630   2.988  1.4163 -0.7663  0.1250
 2758SOL    HW219737   3.385   1.711   2.868  0.6774  1.7031  0.8955
 2759SOL     OW19738   3.229   0.624  13.388  0.5393 -0.2609  0.1145
 2759SOL    HW119739   3.298   0.689  13.380  1.1982 -1.1671 -1.5356
 2759SOL    HW219740   3.287   0.557  13.425 -0.8014 -0.8278  1.2202
 2760SOL     OW19741   4.676   1.212  13.371 -1.1187 -0.1873  0.3446
 2760SOL    HW119742   0.017   1.215  13.442 -0.1607  0.4846 -0.5740
 2760SOL    HW219743   4.639   1.300  13.376 -0.6452 -0.0128  0.8785
 2761SOL     OW19744   2.481   0.117   5.297  0.2479 -0.6393  0.1664
 2761SOL    HW119745   2.479   0.023   5.318  0.3893 -0.4265  1.1322
 2761SOL    HW219746   2.570   0.126   5.262  0.3375  1.7478  1.0613
 2762SOL     OW19747   3.986   1.666   6.589  0.0646  0.0831 -0.0999
 2762SOL    HW119748   3.985   1.619   6.673 -0.3698 -2.0254 -1.2753
 2762SOL    HW219749   3.960   1.597   6.527  0.3531  0.3286 -0.4903
 2763SOL     OW19750   2.452   1.829   2.059  0.1373  0.0146 -0.0350
 2763SOL    HW119751   2.523   1.834   1.995 -1.0236  2.7428 -1.1111
 2763SOL    HW219752   2.372   1.803   2.012 -0.0108  1.1058 -0.3747
 2764SOL     OW19753   2.082   0.048   3.773 -0.3134 -0.0239  0.4525
 2764SOL    HW119754   2.059   0.007   3.690 -2.1556 -1.0702  1.4771
 2764SOL    HW219755   2.168   0.073   3.738 -0.1311 -1.2427  0.0378
 2765SOL     OW19756   4.384   0.163   5.487 -0.5114  0.2441  0.2057
 2765SOL    HW119757   4.327   0.195   5.418  0.4449 -3.0194 -2.0844
 2765SOL    HW219758   4.471   0.161   5.448 -0.7120  0.1252 -0.2327
 2766SOL     OW19759   2.930   0.505   1.605  0.3320 -0.2884  0.0335
 2766SOL    HW119760   2.981   0.426   1.617  3.0650  1.2909 -1.3075
 2766SOL    HW219761   2.928   0.540   1.694 -1.8943 -0.5581  0.0984
 2767SOL     OW19762   0.541   0.089  12.303 -0.4552  0.3308 -0.1780
 2767SOL    HW119763   0.559   0.006  12.348 -0.3625 -0.6028 -1.9140
 2767SOL    HW219764   0.622   0.137  12.316  0.1054 -0.7980  0.5319
 2768SOL     OW19765   2.107   2.429   0.004 -0.3155 -0.4919 -0.1138
 2768SOL    HW119766   2.139   2.454  17.615 -1.5193  1.4991  0.0069
 2768SOL    HW219767   2.161   2.351   0.018  0.4118  0.0990  0.3819
 2769SOL     OW19768   0.968   1.697   9.422 -0.3171  0.0226  0.7111
 2769SOL    HW119769   0.880   1.671   9.393  0.8209 -1.2559 -1.5132
 2769SOL    HW219770   0.941   1.784   9.452 -1.8875 -0.5202  0.9033
 2770SOL     OW19771   2.530   0.997   4.698 -0.1701 -0.2249 -0.0198
 2770SOL    HW119772   2.490   1.080   4.676  2.0854  0.5492 -1.2181
 2770SOL    HW219773   2.456   0.951   4.737 -0.6665  0.7421  0.1585
 2771SOL     OW19774   3.460   1.158   5.958  0.3161 -0.1035 -0.1083
 2771SOL    HW119775   3.556   1.160   5.958  0.2974  0.6695  0.0217
 2771SOL    HW219776   3.440   1.238   6.006  1.2101 -0.3708  0.7136
 2772SOL     OW19777   3.918   3.346   1.644  0.0271  0.2946 -0.3115
 2772SOL    HW119778   3.944   3.262   1.606  0.0204 -0.3127  1.0389
 2772SOL    HW219779   3.988   3.367   1.706 -0.3074  1.2799 -0.2607
 2773SOL     OW19780   1.861   4.131  12.317  0.6187  0.0779 -0.2469
 2773SOL    HW119781   1.904   4.157  12.399  2.3855 -0.2769 -1.0702
 2773SOL    HW219782   1.770   4.150  12.343  0.8606  0.6536  0.1766
 2774SOL     OW19783   2.892   0.698   6.132 -0.5132 -0.4868 -0.7481
 2774SOL    HW119784   2.849   0.687   6.217  2.7696  1.9159  1.2247
 2774SOL    HW219785   2.867   0.618   6.087  0.7851 -0.5387 -1.3615
 2775SOL     OW19786   1.724   0.857   7.253  0.1289 -0.2140 -0.6573
 2775SOL    HW119787   1.805   0.808   7.237 -1.2481 -2.6779 -0.0999
 2775SOL    HW219788   1.745   0.909   7.331 -0.7970  1.5650 -1.6201
 2776SOL     OW19789   0.802   1.996   2.986  0.2825 -0.5092 -0.3459
 2776SOL    HW119790   0.813   1.946   3.067 -2.6969 -1.2627 -0.3957
 2776SOL    HW219791   0.748   2.067   3.022 -1.1904 -1.5601 -0.4678
 2777SOL     OW19792   0.928   3.089   1.334 -0.8343  0.0320  0.1890
 2777SOL    HW119793   0.838   3.070   1.306 -0.1930 -1.6690 -0.7482
 2777SOL    HW219794   0.909   3.177   1.367 -0.3802  1.1936 -2.6643
 2778SOL     OW19795   1.756   3.048   0.703 -0.1691  0.0925  0.2126
 2778SOL    HW119796   1.822   3.113   0.680 -0.9857 -0.3948 -3.5830
 2778SOL    HW219797   1.757   3.069   0.796  0.6838 -0.8838  0.4275
 2779SOL     OW19798   2.309   4.160   2.668 -0.8893 -0.1787  0.6453
 2779SOL    HW119799   2.224   4.203   2.670 -1.1422 -0.5626 -2.3509
 2779SOL    HW219800   2.357   4.211   2.734 -0.8759 -1.7580  1.8590
 2780SOL     OW19801   0.982   3.476   2.306  0.2606  0.1293 -0.4032
 2780SOL    HW119802   0.951   3.555   2.262 -0.7885  0.0428  0.1689
 2780SOL    HW219803   0.931   3.478   2.387  0.8942 -0.9940  0.0192
 2781SOL     OW19804   4.654   1.647   5.160 -0.2178  0.0061  0.0667
 2781SOL    HW119805   4.563   1.669   5.137 -0.3074 -1.5884 -1.1459
 2781SOL    HW219806   4.683   1.730   5.196  1.6030 -0.7620  0.3842
 2782SOL     OW19807   3.879   3.523   7.270 -0.6127  0.2475  0.0345
 2782SOL    HW119808   3.936   3.448   7.252 -1.4773 -0.0155 -1.6526
 2782SOL    HW219809   3.805   3.520   7.209 -1.5507 -1.2100  1.2350
 2783SOL     OW19810   4.302   3.754   4.443  0.0381 -0.2232  0.3309
 2783SOL    HW119811   4.362   3.801   4.386 -1.4109 -0.9410 -1.7714
 2783SOL    HW219812   4.225   3.731   4.391 -1.0046  1.0423  1.3015
 2784SOL     OW19813   3.727   0.812  12.461  0.6959 -0.2169  0.4801
 2784SOL    HW119814   3.751   0.720  12.449  0.6718  0.0131 -1.2726
 2784SOL    HW219815   3.724   0.847  12.372  0.5995 -0.4986  0.3740
 2785SOL     OW19816   4.564   1.603   3.350 -0.2676 -0.1207 -0.3977
 2785SOL    HW119817   4.650   1.593   3.392  0.5186  1.0739 -1.7372
 2785SOL    HW219818   4.550   1.514   3.317  0.1728  0.0381 -1.0024
 2786SOL     OW19819   2.575   1.685   3.370 -0.3834 -0.5328 -0.1294
 2786SOL    HW119820   2.615   1.744   3.306 -0.4078  0.0778  0.4138
 2786SOL    HW219821   2.639   1.679   3.440  0.6544 -1.9984 -1.2049
 2787SOL     OW19822   3.492   4.160  16.997 -0.4338 -0.2633 -0.0447
 2787SOL    HW119823   3.495   4.232  16.933 -0.2010 -1.3230 -1.2193
 2787SOL    HW219824   3.402   4.164  17.029 -0.7851 -0.2210 -1.0237
 2788SOL     OW19825   2.291   3.025  10.493 -0.1943 -0.3166  0.0117
 2788SOL    HW119826   2.207   3.031  10.449  0.3556  0.9000 -0.8907
 2788SOL    HW219827   2.260   3.082  10.563  0.3128  2.4500 -2.0315
 2789SOL     OW19828   0.778   1.385  16.914 -0.4809 -0.2969  0.3266
 2789SOL    HW119829   0.784   1.413  17.006  0.8972 -1.4352  0.5852
 2789SOL    HW219830   0.711   1.447  16.884  0.4652  0.3723 -0.4245
 2790SOL     OW19831   2.447   1.060  12.795 -0.2201 -0.2220  0.1921
 2790SOL    HW119832   2.473   1.145  12.830  1.5202 -0.8879  0.5130
 2790SOL    HW219833   2.354   1.075  12.778 -0.4437 -2.3596 -0.4081
 2791SOL     OW19834   1.875   2.979  11.076 -0.3319 -0.5246 -0.4928
 2791SOL    HW119835   1.871   3.061  11.126 -0.5329  0.0756 -1.4831
 2791SOL    HW219836   1.784   2.952  11.065 -0.0165 -2.2168  1.1645
 2792SOL     OW19837   3.546   3.427  13.086  0.2297 -0.4421 -0.1032
 2792SOL    HW119838   3.451   3.418  13.096  0.1098 -0.4111 -1.2648
 2792SOL    HW219839   3.563   3.519  13.107  2.1281 -0.7327 -0.3117
 2793SOL     OW19840   3.990   2.412  11.426  0.7756  0.2434  0.1912
 2793SOL    HW119841   3.950   2.414  11.339 -1.5944 -3.4059  1.2043
 2793SOL    HW219842   4.080   2.415  11.395  0.0051  0.9562 -1.9333
 2794SOL     OW19843   3.386   4.487   6.805  0.3513  0.0465 -0.6856
 2794SOL    HW119844   3.459   4.428   6.822  0.5741  0.3165 -0.6909
 2794SOL    HW219845   3.391   4.544   6.883 -1.8008 -1.5789  0.6114
 2795SOL     OW19846   1.253   4.698   2.634  0.4601  0.3629  0.6973
 2795SOL    HW119847   1.310   4.627   2.605 -1.4874 -0.3132 -1.4026
 2795SOL    HW219848   1.214   4.712   2.548 -0.2218  0.9978  1.1138
 2796SOL     OW19849   0.547   4.656   4.887 -0.4012 -0.1977  0.5066
 2796SOL    HW119850   0.456   4.647   4.858 -0.1559 -2.5225  0.4787
 2796SOL    HW219851   0.556   4.573   4.933 -0.4765  0.1142  1.0787
 2797SOL     OW19852   0.787   4.449   1.121 -0.5241  0.1363  0.1403
 2797SOL    HW119853   0.822   4.408   1.041 -0.6022 -0.5123  0.4454
 2797SOL    HW219854   0.773   4.374   1.178  0.8332  0.3231  0.7246
 2798SOL     OW19855   4.070   0.396  14.640  1.1668 -0.1315  0.0052
 2798SOL    HW119856   4.135   0.407  14.710 -0.0028  0.1228  1.0445
 2798SOL    HW219857   3.995   0.451  14.662  0.2622 -1.1299 -0.6078
 2799SOL     OW19858   2.378   4.206  15.817 -0.3660  0.1563 -0.4243
 2799SOL    HW119859   2.414   4.287  15.854 -0.1203 -0.4233  0.5955
 2799SOL    HW219860   2.294   4.243  15.789  0.5212  3.1444  0.7687
 2800SOL     OW19861   3.079   4.003   5.753  0.3255 -0.2395  0.7232
 2800SOL    HW119862   3.096   3.910   5.768  3.8842  0.4609  1.0505
 2800SOL    HW219863   3.159   4.031   5.707 -1.4970 -0.0671 -2.3750
 2801SOL     OW19864   4.268   4.713   5.731  0.3278  0.2371 -0.0595
 2801SOL    HW119865   4.306   0.051   5.668 -0.0609 -0.4235 -0.9433
 2801SOL    HW219866   4.333   0.003   5.799 -0.1129  0.9586  0.2090
 2802SOL     OW19867   2.775   3.603   8.490  0.3603 -0.0405 -0.1207
 2802SOL    HW119868   2.697   3.563   8.452 -0.6730 -0.8329  2.8548
 2802SOL    HW219869   2.801   3.528   8.544 -1.8617 -1.0368 -0.4314
 2803SOL     OW19870   0.101   2.458   0.958  0.8000 -0.0765 -0.2256
 2803SOL    HW119871   0.119   2.398   0.886 -0.6851  0.2946 -0.8897
 2803SOL    HW219872   0.046   2.395   1.005 -0.5090  0.2527 -1.3366
 2804SOL     OW19873   1.241   1.345   6.246  0.0037  0.7676 -0.4740
 2804SOL    HW119874   1.213   1.328   6.336 -0.4696 -0.4052 -0.8371
 2804SOL    HW219875   1.157   1.381   6.219 -0.8952 -2.7678 -2.3352
 2805SOL     OW19876   2.794   0.071   4.973 -0.8370  0.0125  0.1394
 2805SOL    HW119877   2.859   0.139   4.955  2.4752 -2.4690  2.8441
 2805SOL    HW219878   2.715   0.105   4.931 -0.0752 -0.9288 -2.0562
 2806SOL     OW19879   1.007   2.421   8.600 -0.4885 -0.5807 -0.0770
 2806SOL    HW119880   1.065   2.356   8.640  0.5997 -0.5712 -1.6186
 2806SOL    HW219881   0.919   2.390   8.619 -0.2578 -0.0294  1.8238
 2807SOL     OW19882   1.802   3.424   2.122 -0.4401  0.2232  0.3458
 2807SOL    HW119883   1.730   3.465   2.074  1.1865  2.7443  0.0369
 2807SOL    HW219884   1.873   3.453   2.064 -0.8639  0.1672 -0.2064
 2808SOL     OW19885   4.146   1.831   8.450  0.3970 -0.0899  0.1336
 2808SOL    HW119886   4.124   1.856   8.360 -0.0483 -0.3028  0.1841
 2808SOL    HW219887   4.091   1.892   8.498  1.4310  1.5864 -0.8266
 2809SOL     OW19888   2.595   2.695   5.048 -0.4372  0.0731 -0.3250
 2809SOL    HW119889   2.672   2.712   4.994  0.3084 -1.6347  0.1987
 2809SOL    HW219890   2.562   2.615   5.007  0.7963 -0.0493 -1.0537
 2810SOL     OW19891   2.660   1.770  10.991  0.5055 -0.1518  0.3302
 2810SOL    HW119892   2.728   1.708  10.967 -1.6898 -2.2033 -0.5367
 2810SOL    HW219893   2.588   1.716  11.024  0.0776 -0.6915 -1.4817
 2811SOL     OW19894   2.691   2.854   9.093 -0.0306 -0.6629  0.1211
 2811SOL    HW119895   2.738   2.810   9.164  3.0915  1.0869 -0.8598
 2811SOL    HW219896   2.614   2.882   9.142 -0.3513  0.4835 -1.0087
 2812SOL     OW19897   0.364   2.764  14.219 -0.1932 -0.1933  0.1473
 2812SOL    HW119898   0.447   2.801  14.190  0.1109 -0.0955  1.1455
 2812SOL    HW219899   0.334   2.831  14.281 -3.2769 -0.3813 -1.1088
 2813SOL     OW19900   3.385   2.769   8.988 -0.1161 -0.1830  0.0100
 2813SOL    HW119901   3.402   2.862   9.001 -0.7728  0.4599 -3.6031
 2813SOL    HW219902   3.387   2.737   9.078 -0.6128  0.9602  0.4174
 2814SOL     OW19903   1.318   2.760   8.863  0.4429  0.4863  0.2087
 2814SOL    HW119904   1.324   2.747   8.958 -3.1744 -2.1268  0.0960
 2814SOL    HW219905   1.228   2.729   8.852  0.8514 -0.5193 -0.2978
 2815SOL     OW19906   3.271   2.224   5.194  0.0985  0.2345  0.4958
 2815SOL    HW119907   3.312   2.138   5.179 -0.5427  0.0417 -0.1807
 2815SOL    HW219908   3.352   2.269   5.218 -0.3256 -0.1427  2.6198
 2816SOL     OW19909   4.047   4.339   6.719  0.0413 -0.0170  0.1809
 2816SOL    HW119910   4.044   4.315   6.626  2.0322 -0.6656  0.2901
 2816SOL    HW219911   3.954   4.330   6.741 -0.4848  0.5127 -1.8029
 2817SOL     OW19912   2.282   0.102   8.916 -0.4308  0.0538 -0.1171
 2817SOL    HW119913   2.191   0.128   8.901 -0.8829  0.5679  3.4408
 2817SOL    HW219914   2.276   0.076   9.008 -2.3377 -0.9928 -0.5393
 2818SOL     OW19915   1.548   3.250   5.826 -0.3196  0.1471  0.1426
 2818SOL    HW119916   1.542   3.246   5.922 -1.0180 -1.5311  0.0287
 2818SOL    HW219917   1.640   3.273   5.819 -0.2468 -0.7726 -1.9840
 2819SOL     OW19918   2.654   1.239   8.023  0.1015 -0.2809 -0.7098
 2819SOL    HW119919   2.707   1.242   7.943  0.0954 -1.5054 -0.7533
 2819SOL    HW219920   2.565   1.259   7.992 -0.0015  0.2952 -0.0434
 2820SOL     OW19921   1.146   1.676   4.898 -0.1004 -0.3407  0.2919
 2820SOL    HW119922   1.136   1.628   4.980 -0.6318 -0.8339 -0.0675
 2820SOL    HW219923   1.158   1.598   4.844  1.8341 -1.0646  1.7468
 2821SOL     OW19924   2.641   0.508   7.109  0.2485 -0.2962  0.3102
 2821SOL    HW119925   2.599   0.479   7.190  0.5231 -1.3692  0.0770
 2821SOL    HW219926   2.702   0.436   7.089 -0.9613 -0.7306 -1.8144
 2822SOL     OW19927   1.990   0.154   2.195  0.5364 -0.2576  0.0182
 2822SOL    HW119928   2.055   0.210   2.153 -0.6813  0.8407 -0.4237
 2822SOL    HW219929   1.983   0.191   2.283  1.0464  0.8174 -0.3938
 2823SOL     OW19930   2.701   2.675   0.192  0.3140 -0.0450 -0.2379
 2823SOL    HW119931   2.728   2.690   0.101 -0.8602 -0.0334 -0.5840
 2823SOL    HW219932   2.645   2.749   0.214  0.6926  0.2367 -0.2239
 2824SOL     OW19933   1.120   3.528  17.422 -0.0921 -0.2326  0.2771
 2824SOL    HW119934   1.141   3.511  17.514 -0.1530  0.8387  0.4880
 2824SOL    HW219935   1.027   3.548  17.424 -0.8031 -3.4603 -0.2320
 2825SOL     OW19936   1.942   2.340   4.556 -0.0577 -0.1594 -0.0480
 2825SOL    HW119937   2.002   2.268   4.577  1.6262  1.5403  0.9706
 2825SOL    HW219938   1.951   2.401   4.629 -2.9709 -0.8385  0.8740
 2826SOL     OW19939   2.292   0.813   5.244  0.1474  0.2414 -0.2237
 2826SOL    HW119940   2.202   0.783   5.247  0.3785 -0.4520 -0.1882
 2826SOL    HW219941   2.336   0.739   5.202 -0.6796 -0.9511  1.0168
 2827SOL     OW19942   3.485   2.707  16.985  0.6545 -0.0797 -0.6372
 2827SOL    HW119943   3.529   2.732  17.066  1.2327  0.5269 -1.1327
 2827SOL    HW219944   3.468   2.613  16.993 -1.1473  0.2844 -0.2905
 2828SOL     OW19945   3.331   2.834  12.860  0.5467 -0.0502  0.4181
 2828SOL    HW119946   3.400   2.775  12.830 -0.5312 -0.7722 -0.6286
 2828SOL    HW219947   3.379   2.917  12.864  0.1677  0.1555  0.8120
 2829SOL     OW19948   1.856   4.386   6.330 -0.3318  0.0635 -0.0813
 2829SOL    HW119949   1.864   4.293   6.352  0.5267 -0.2109 -1.6125
 2829SOL    HW219950   1.765   4.387   6.363  0.7854 -2.6925  3.1438
 2830SOL     OW19951   1.673   0.248  13.571 -0.2545  0.0309 -0.2483
 2830SOL    HW119952   1.717   0.202  13.642 -1.2178 -0.7668 -0.1624
 2830SOL    HW219953   1.709   0.210  13.490 -0.6898  0.5137 -0.6692
 2831SOL     OW19954   4.043   1.019   1.570 -0.6009  0.0898  0.2336
 2831SOL    HW119955   4.053   1.061   1.655  0.0682  0.9996 -0.2950
 2831SOL    HW219956   3.993   0.941   1.593  0.0931 -0.3786  0.1616
 2832SOL     OW19957   4.182   4.113  15.377  0.2534 -0.6050 -0.4910
 2832SOL    HW119958   4.108   4.054  15.393 -1.3073  1.1688 -1.3192
 2832SOL    HW219959   4.182   4.159  15.461  0.3932 -1.4069 -0.0446
 2833SOL     OW19960   2.904   3.806   6.308  0.5841  0.3183  0.2995
 2833SOL    HW119961   2.894   3.878   6.370  0.8631  0.8118 -0.2246
 2833SOL    HW219962   2.962   3.745   6.352  1.0518 -0.6988 -1.7007
 2834SOL     OW19963   3.243   2.890  15.317  0.1581  0.0240 -0.6211
 2834SOL    HW119964   3.217   2.799  15.303  1.9825 -0.4998 -0.6526
 2834SOL    HW219965   3.185   2.916  15.389 -0.0891 -0.9204 -0.4842
 2835SOL     OW19966   0.606   1.603   4.897 -0.5870  0.4484  0.3817
 2835SOL    HW119967   0.648   1.519   4.917  1.2763  0.6859 -2.6715
 2835SOL    HW219968   0.553   1.588   4.818 -0.5072 -2.3397  0.8410
 2836SOL     OW19969   4.623   1.254  12.209 -0.1895  0.2280 -1.0473
 2836SOL    HW119970   4.565   1.305  12.266  0.4709 -1.5971  1.2568
 2836SOL    HW219971   4.615   1.290  12.121  0.2148  0.8432 -0.8327
 2837SOL     OW19972   3.541   0.611  12.830  0.4052 -0.3016 -0.0532
 2837SOL    HW119973   3.634   0.634  12.843  0.3404 -0.3014  0.3946
 2837SOL    HW219974   3.531   0.653  12.745  0.7233 -0.1491 -0.0176
 2838SOL     OW19975   1.608   4.439  12.527 -0.5368  0.5056  0.6410
 2838SOL    HW119976   1.673   4.509  12.524 -0.1894  0.2064  1.1094
 2838SOL    HW219977   1.620   4.411  12.618  1.5471  0.7824  0.4612
 2839SOL     OW19978   1.718   3.175  17.370 -0.5311  0.1356  0.9243
 2839SOL    HW119979   1.712   3.264  17.336 -2.1317 -0.9307 -1.5301
 2839SOL    HW219980   1.805   3.182  17.409  0.1608  4.2221 -1.3269
 2840SOL     OW19981   0.515   4.308   5.111  0.4640  0.5599 -0.3715
 2840SOL    HW119982   0.535   4.301   5.205  1.1503 -1.0685 -0.6260
 2840SOL    HW219983   0.603   4.322   5.079  0.4512 -0.8679 -1.0555
 2841SOL     OW19984   3.699   1.027  16.309  0.5629 -0.7414 -0.5737
 2841SOL    HW119985   3.715   0.957  16.246 -1.3701 -0.5313 -1.3099
 2841SOL    HW219986   3.609   0.998  16.326 -0.0144  1.8470  0.8256
 2842SOL     OW19987   0.589   2.185  14.357 -0.7170 -0.6060  0.0409
 2842SOL    HW119988   0.604   2.256  14.420  0.6705 -1.9013  1.1838
 2842SOL    HW219989   0.509   2.222  14.320  0.2419  0.4918 -0.9256
 2843SOL     OW19990   4.551   1.192   2.697  0.1057 -0.1897  0.0102
 2843SOL    HW119991   4.568   1.144   2.778 -0.9356  0.3250  0.5382
 2843SOL    HW219992   4.555   1.280   2.733 -0.6031  0.4682 -1.5248
 2844SOL     OW19993   3.221   2.842   8.790 -0.5100 -0.3076  0.1630
 2844SOL    HW119994   3.260   2.813   8.873  0.7126  2.6531  0.6179
 2844SOL    HW219995   3.128   2.854   8.810 -0.4612 -2.0184  1.4371
 2845SOL     OW19996   1.534   4.055   8.840  0.0847  0.3241 -1.2653
 2845SOL    HW119997   1.543   4.147   8.816 -1.1230  0.5606 -0.8441
 2845SOL    HW219998   1.592   4.010   8.779  2.0815  2.0416 -0.6136
 2846SOL     OW19999   0.617   0.979  13.626  0.2785  0.3087  0.2296
 2846SOL    HW120000   0.539   0.926  13.609 -0.3399  1.5765 -0.9385
 2846SOL    HW220001   0.684   0.915  13.606 -0.6783 -0.4144 -0.7038
 2847SOL     OW20002   4.043   2.940  10.446  0.0086  0.2336  0.0953
 2847SOL    HW120003   4.000   3.024  10.433 -0.1919  0.0550 -0.3891
 2847SOL    HW220004   4.134   2.960  10.426 -0.0199 -0.1119 -0.3706
 2848SOL     OW20005   0.833   3.638  15.505 -1.0912 -0.3641 -0.1011
 2848SOL    HW120006   0.904   3.574  15.509 -1.8393 -1.2113 -0.3587
 2848SOL    HW220007   0.780   3.622  15.427 -0.9898 -0.4736 -0.1491
 2849SOL     OW20008   1.408   0.494   8.712 -0.2714 -0.2148  0.3896
 2849SOL    HW120009   1.472   0.564   8.702 -0.0652 -0.1433  2.0643
 2849SOL    HW220010   1.389   0.485   8.806 -0.9779 -2.5071  0.0222
 2850SOL     OW20011   2.519   1.308   5.075  0.3303  0.5574  0.1915
 2850SOL    HW120012   2.521   1.214   5.089  3.2911  0.7219  0.8307
 2850SOL    HW220013   2.473   1.313   4.991 -1.7429  1.7552  1.3799
 2851SOL     OW20014   1.917   2.803   4.712  0.0967 -0.4259  0.5259
 2851SOL    HW120015   1.980   2.849   4.768 -2.0583  0.4592  2.1910
 2851SOL    HW220016   1.982   2.766   4.652  0.0398 -1.9985  1.4313
 2852SOL     OW20017   0.736   0.728  17.683 -0.6036  0.1480  0.3725
 2852SOL    HW120018   0.669   0.677   0.032  0.6657 -2.5191 -0.7467
 2852SOL    HW220019   0.734   0.811   0.033 -1.3943  0.7761 -0.7464
 2853SOL     OW20020   4.482   4.517   8.856 -0.0028 -0.2018 -0.2000
 2853SOL    HW120021   4.440   4.432   8.862  0.1985 -0.1474  2.0198
 2853SOL    HW220022   4.544   4.503   8.784  0.3176  0.5802 -0.0812
 2854SOL     OW20023   1.823   2.314   3.746 -0.2648 -0.5740  0.1581
 2854SOL    HW120024   1.894   2.351   3.693 -0.2638 -0.5606  0.1688
 2854SOL    HW220025   1.764   2.283   3.676 -0.9450  1.7652 -0.3029
 2855SOL     OW20026   1.781   4.057   0.217  0.3165 -0.0078  0.8832
 2855SOL    HW120027   1.727   4.028   0.144  0.6677  0.0839  0.5833
 2855SOL    HW220028   1.767   4.151   0.205  0.4598 -0.3900 -2.3434
 2856SOL     OW20029   0.380   2.014  17.538 -0.2580  0.4947  0.1063
 2856SOL    HW120030   0.421   2.007  17.452  0.3274 -0.0046  0.4345
 2856SOL    HW220031   0.366   2.109  17.544 -0.8232  0.4224 -0.0776
 2857SOL     OW20032   4.045   1.138  17.624  0.1340 -0.2991 -0.0744
 2857SOL    HW120033   3.971   1.095  17.581 -0.2581  0.7580 -0.4432
 2857SOL    HW220034   3.991   1.159   0.002  0.9301 -0.3309  0.5071
 2858SOL     OW20035   2.048   3.801   2.088  0.5391  0.1630 -0.7696
 2858SOL    HW120036   2.069   3.709   2.077 -0.1445 -0.0314 -0.4584
 2858SOL    HW220037   1.962   3.793   2.048  0.2661  1.3923 -0.4495
 2859SOL     OW20038   1.212   0.103  16.803 -0.3309  0.1227 -0.2662
 2859SOL    HW120039   1.151   0.030  16.812 -4.3344  3.6857  1.8096
 2859SOL    HW220040   1.242   0.103  16.894  2.0136  1.7912 -1.0517
 2860SOL     OW20041   3.278   2.411   5.516 -0.1118  0.2711 -0.0565
 2860SOL    HW120042   3.260   2.454   5.432 -0.8598 -0.5197 -0.2972
 2860SOL    HW220043   3.198   2.359   5.525 -0.8438  1.6504  1.4110
 2861SOL     OW20044   1.887   0.836   4.052 -0.1097 -0.0006 -0.0745
 2861SOL    HW120045   1.895   0.747   4.017 -1.7928  0.1317 -0.7799
 2861SOL    HW220046   1.947   0.884   3.995 -0.8344 -1.6416 -2.1911
 2862SOL     OW20047   2.381   1.393  15.772 -0.1599 -1.0612  0.0832
 2862SOL    HW120048   2.357   1.467  15.827  2.2752  1.2999 -2.0149
 2862SOL    HW220049   2.324   1.404  15.695 -0.8755  0.5006  0.8438
 2863SOL     OW20050   1.773   0.986   6.710  0.0250  0.0294 -0.6272
 2863SOL    HW120051   1.678   0.992   6.715 -0.0702 -1.1033 -0.9383
 2863SOL    HW220052   1.786   0.975   6.615 -3.1112 -0.1750 -1.0193
 2864SOL     OW20053   1.631   4.439   7.119 -0.5786  0.1470  0.4904
 2864SOL    HW120054   1.705   4.469   7.172  0.7053 -1.4433 -0.3823
 2864SOL    HW220055   1.568   4.509   7.136 -0.5536  0.5015 -0.9353
 2865SOL     OW20056   1.422   3.971   2.780 -0.0318  0.2585 -0.5465
 2865SOL    HW120057   1.358   4.028   2.824  0.5476 -0.5752  1.3893
 2865SOL    HW220058   1.428   4.003   2.690  2.6603  1.8046  0.1589
 2866SOL     OW20059   4.007   3.713   3.883 -0.2701 -0.2201 -0.4526
 2866SOL    HW120060   4.019   3.799   3.922 -1.2573  1.1590 -3.2464
 2866SOL    HW220061   4.003   3.741   3.792 -0.9888 -3.6543 -1.4998
 2867SOL     OW20062   1.444   2.762   1.071 -1.2131  0.3236 -0.2102
 2867SOL    HW120063   1.533   2.748   1.041 -0.1991  2.9249  1.6315
 2867SOL    HW220064   1.422   2.847   1.033  1.0876  1.0172  0.0714
 2868SOL     OW20065   1.931   2.093   4.937  0.0509 -0.0570 -0.6620
 2868SOL    HW120066   1.842   2.113   4.966 -0.4120 -0.5403 -1.7437
 2868SOL    HW220067   1.920   2.000   4.915 -0.4137 -0.9189  3.2052
 2869SOL     OW20068   1.218   0.678   8.513  0.2399 -0.2664  0.6122
 2869SOL    HW120069   1.266   0.611   8.463 -2.6608 -1.3886 -0.6939
 2869SOL    HW220070   1.171   0.633   8.584  1.2874  0.7375  1.9202
 2870SOL     OW20071   2.143   3.872   1.246  0.1203  0.1150 -0.2401
 2870SOL    HW120072   2.224   3.892   1.199 -0.2040  2.0783  0.0450
 2870SOL    HW220073   2.076   3.874   1.179 -2.6544  0.7126  2.5656
 2871SOL     OW20074   2.276   0.958   5.862  0.3791 -0.5203 -0.0833
 2871SOL    HW120075   2.251   1.040   5.819 -0.2886 -0.1052  1.0808
 2871SOL    HW220076   2.368   0.967   5.837  0.4264  0.3005  0.3710
 2872SOL     OW20077   3.786   1.978   5.242  0.1277 -0.0305  0.1908
 2872SOL    HW120078   3.826   1.927   5.312  0.8785  0.5786  0.2009
 2872SOL    HW220079   3.825   1.941   5.163 -0.0479 -0.0474  0.1112
 2873SOL     OW20080   0.495   1.817   5.045 -0.1112  0.7663  0.0358
 2873SOL    HW120081   0.532   1.787   4.962 -1.4226 -1.6164  0.3154
 2873SOL    HW220082   0.464   1.734   5.082 -0.0662 -0.3841 -2.5642
 2874SOL     OW20083   0.347   0.626   8.082  0.1706 -0.4148 -0.3872
 2874SOL    HW120084   0.255   0.653   8.079  0.5871  0.9868 -0.3327
 2874SOL    HW220085   0.352   0.570   8.159  0.5510  1.3176  0.8249
 2875SOL     OW20086   0.953   4.638   2.667  0.0537 -0.0386 -0.1038
 2875SOL    HW120087   1.015   4.711   2.669 -0.3474  0.3267 -1.1954
 2875SOL    HW220088   0.976   4.587   2.589 -0.1374 -1.3851  0.7224
 2876SOL     OW20089   0.818   3.474   4.248 -0.2680  0.3009  0.0873
 2876SOL    HW120090   0.820   3.565   4.281  2.8126 -0.2397  1.4116
 2876SOL    HW220091   0.858   3.431   4.324 -4.2443 -1.8591  0.9404
 2877SOL     OW20092   4.332   3.837  14.301  0.1901  0.4872 -0.4142
 2877SOL    HW120093   4.303   3.771  14.364 -1.3392  1.8994  0.3870
 2877SOL    HW220094   4.277   3.906  14.339  0.0418 -0.2091  0.6338
 2878SOL     OW20095   0.143   3.791   5.374  0.2551 -0.1067 -0.6831
 2878SOL    HW120096   0.211   3.725   5.361  2.1073  1.5917  0.3113
 2878SOL    HW220097   0.192   3.868   5.406  0.4963 -1.6893  2.7364
 2879SOL     OW20098   3.363   1.890  16.967 -0.1489 -0.0994  0.1037
 2879SOL    HW120099   3.422   1.822  16.936 -1.6562 -0.9476 -0.8895
 2879SOL    HW220100   3.306   1.845  17.030 -0.3644  1.4061  0.9838
 2880SOL     OW20101   2.171   1.192   2.064 -0.2787 -0.2307 -0.4444
 2880SOL    HW120102   2.198   1.177   2.155 -0.7776  3.1890  0.2442
 2880SOL    HW220103   2.243   1.245   2.032 -1.3028  0.8537 -0.9688
 2881SOL     OW20104   2.339   1.640  13.877  0.4844  0.0351 -0.1388
 2881SOL    HW120105   2.334   1.549  13.907  0.7804 -0.5579 -1.9059
 2881SOL    HW220106   2.412   1.644  13.816  1.1298  2.3645  0.8054
 2882SOL     OW20107   2.808   3.879   8.725  0.5967  0.6386  0.3285
 2882SOL    HW120108   2.838   3.938   8.794 -1.3005  1.5509  0.3653
 2882SOL    HW220109   2.764   3.810   8.775  0.5051 -1.3504 -2.4498
 2883SOL     OW20110   1.411   0.266   5.296 -0.3758  0.1165  0.1694
 2883SOL    HW120111   1.499   0.298   5.313  0.2973 -1.3839 -0.4284
 2883SOL    HW220112   1.411   0.252   5.201 -2.3560 -0.8647  0.3140
 2884SOL     OW20113   1.650   1.126   3.019  0.3188  0.3568  0.4063
 2884SOL    HW120114   1.680   1.216   3.030  1.5049 -0.1848  1.5447
 2884SOL    HW220115   1.577   1.135   2.957  2.1157  0.3038 -1.6869
 2885SOL     OW20116   3.544   4.555  16.728 -0.4407 -0.5579 -0.0312
 2885SOL    HW120117   3.525   4.647  16.743  2.3736  0.2286 -1.3113
 2885SOL    HW220118   3.626   4.566  16.681 -1.0582  0.0741 -0.9552
 2886SOL     OW20119   4.704   0.353   1.717  0.3768  0.2144 -0.7624
 2886SOL    HW120120   0.005   0.279   1.661 -0.5528 -1.5609  1.1700
 2886SOL    HW220121   4.682   0.306   1.798 -1.9746  1.4837 -0.6703
 2887SOL     OW20122   0.786   3.629   7.267 -0.0646 -0.3268  0.1109
 2887SOL    HW120123   0.850   3.688   7.307 -0.3586  0.2454 -0.2501
 2887SOL    HW220124   0.703   3.651   7.309  1.5635  2.2580  2.0095
 2888SOL     OW20125   1.806   3.445   8.623 -0.1706 -0.1206 -0.2697
 2888SOL    HW120126   1.857   3.524   8.640 -3.1768  1.7858 -0.0320
 2888SOL    HW220127   1.818   3.391   8.702 -1.6275  0.9765  0.7226
 2889SOL     OW20128   3.886   2.558   5.928  0.1178 -0.4374 -0.5561
 2889SOL    HW120129   3.839   2.547   6.011  2.1746 -1.0695  0.4977
 2889SOL    HW220130   3.859   2.478   5.882 -0.5066 -0.5980  0.0877
 2890SOL     OW20131   1.478   3.781   7.716  0.4283  0.3443 -0.1446
 2890SOL    HW120132   1.413   3.837   7.673  1.1156  1.4326  0.2370
 2890SOL    HW220133   1.471   3.816   7.805  0.6821  1.8682 -0.7257
 2891SOL     OW20134   4.021   2.677   0.692 -0.1319 -0.0211  0.1954
 2891SOL    HW120135   3.931   2.681   0.661 -0.9266 -1.8667  2.2481
 2891SOL    HW220136   4.016   2.667   0.787  1.0768  1.6953  0.4399
 2892SOL     OW20137   2.372   3.926  15.892 -0.2191  0.0323  0.3857
 2892SOL    HW120138   2.306   3.954  15.955 -0.8527 -0.7961  0.0869
 2892SOL    HW220139   2.353   3.982  15.817  0.6524 -1.1920 -0.7552
 2893SOL     OW20140   0.557   2.104  12.380 -0.1038 -0.0811 -0.0074
 2893SOL    HW120141   0.562   2.101  12.285 -0.2733 -1.7515  0.0363
 2893SOL    HW220142   0.605   2.024  12.403 -0.0028 -0.2154 -0.6915
 2894SOL     OW20143   3.303   4.715  11.902 -0.3942 -0.2925  0.2374
 2894SOL    HW120144   3.381   4.659  11.905  0.9668  1.6455  1.6304
 2894SOL    HW220145   3.235   4.653  11.928 -0.6177 -0.0127  0.3127
 2895SOL     OW20146   3.546   1.208   9.144 -0.5514  0.0811  0.1455
 2895SOL    HW120147   3.641   1.213   9.153 -0.6247 -1.0933  1.5899
 2895SOL    HW220148   3.516   1.177   9.230 -0.0129 -0.7884  0.0222
 2896SOL     OW20149   0.107   1.032   7.070  0.2100 -0.0991  0.5883
 2896SOL    HW120150   0.062   0.954   7.102  0.3066  1.2363  3.9963
 2896SOL    HW220151   0.035   1.079   7.028  1.8859  0.3175 -1.8211
 2897SOL     OW20152   3.580   0.599   6.584 -0.1516  0.3553 -0.0622
 2897SOL    HW120153   3.643   0.540   6.544 -0.6718  0.3026 -0.8174
 2897SOL    HW220154   3.553   0.543   6.657  2.2323  0.3560  0.7945
 2898SOL     OW20155   1.908   2.210   0.862  0.4062 -0.0910  0.0841
 2898SOL    HW120156   1.819   2.182   0.840 -0.0440  2.8658 -1.8586
 2898SOL    HW220157   1.959   2.129   0.867  1.1659  0.4929  1.7844
 2899SOL     OW20158   1.191   3.710   8.357 -0.0777  0.5727  0.2909
 2899SOL    HW120159   1.229   3.633   8.398 -0.4532  0.0505 -0.3461
 2899SOL    HW220160   1.104   3.717   8.397  1.1359  0.8889  2.8923
 2900SOL     OW20161   1.276   0.256   8.183  0.0478 -0.5348  0.3984
 2900SOL    HW120162   1.229   0.191   8.131 -0.5042  1.6084 -1.8123
 2900SOL    HW220163   1.212   0.327   8.190  0.7360  0.0952  0.3517
 2901SOL     OW20164   2.100   3.414  16.061 -0.1754  0.1084 -0.3877
 2901SOL    HW120165   2.024   3.398  16.005  0.2662  1.6259 -1.4298
 2901SOL    HW220166   2.093   3.343  16.125 -1.3656  1.5583  1.0720
 2902SOL     OW20167   3.146   4.337   8.178 -0.0675  0.0142  0.3265
 2902SOL    HW120168   3.238   4.359   8.164 -0.8345  1.3098 -2.5541
 2902SOL    HW220169   3.112   4.359   8.091 -0.4742 -0.2906  0.4100
 2903SOL     OW20170   3.617   1.020   4.314  0.0828 -0.6982 -0.0575
 2903SOL    HW120171   3.601   1.075   4.237  0.3216  1.3025  1.3162
 2903SOL    HW220172   3.535   1.029   4.362  0.5439  0.9171  0.4437
 2904SOL     OW20173   2.201   3.335   3.407 -0.2593 -0.4491  0.5741
 2904SOL    HW120174   2.191   3.402   3.339 -1.8191  0.0580  1.2929
 2904SOL    HW220175   2.117   3.347   3.451  0.4253  0.0339  1.7535
 2905SOL     OW20176   0.317   2.526   4.970 -0.1696 -0.7909  0.3632
 2905SOL    HW120177   0.399   2.532   4.922  0.6218  1.2252  1.9815
 2905SOL    HW220178   0.328   2.436   5.002  2.8618 -1.3716 -2.3137
 2906SOL     OW20179   3.242   0.399  12.073 -0.4245  0.4386 -0.4473
 2906SOL    HW120180   3.212   0.426  11.986  2.2813 -1.4027 -1.9529
 2906SOL    HW220181   3.314   0.340  12.050  0.2774  1.5223 -0.9916
 2907SOL     OW20182   3.031   1.226   4.377 -0.4635  0.4449  0.7413
 2907SOL    HW120183   3.110   1.180   4.405 -1.0801 -0.4102  1.0485
 2907SOL    HW220184   2.996   1.169   4.308 -0.7838  0.8220  0.5923
 2908SOL     OW20185   1.403   4.228  14.454 -0.8061  0.1219  0.3537
 2908SOL    HW120186   1.406   4.140  14.416  0.5186  0.3150  0.0440
 2908SOL    HW220187   1.488   4.231  14.497 -1.5059  0.6344  1.7064
 2909SOL     OW20188   3.803   0.064   9.475 -0.0488  0.3940  0.0728
 2909SOL    HW120189   3.742   4.714   9.472 -1.4737  1.6879 -3.2073
 2909SOL    HW220190   3.865   0.044   9.545 -1.5400 -5.5797 -0.2861
 2910SOL     OW20191   3.868   0.795   7.860 -0.2136 -0.9571 -0.3751
 2910SOL    HW120192   3.807   0.730   7.895 -0.0950 -0.2561  1.1422
 2910SOL    HW220193   3.892   0.758   7.775  2.7352  2.1310 -0.8870
 2911SOL     OW20194   3.927   0.689   8.654  0.1143  0.4082  0.0943
 2911SOL    HW120195   3.999   0.753   8.653 -0.4217  1.0322  1.1585
 2911SOL    HW220196   3.872   0.727   8.585 -0.9931 -2.6055 -0.6821
 2912SOL     OW20197   3.483   0.425  12.583 -0.2631  0.0816 -0.0775
 2912SOL    HW120198   3.528   0.342  12.571 -0.8874 -0.2472 -0.1323
 2912SOL    HW220199   3.560   0.482  12.577 -0.6771  0.5695 -0.6927
 2913SOL     OW20200   0.175   2.272   7.322  0.7914  0.2198  0.1308
 2913SOL    HW120201   0.248   2.324   7.356 -1.0057  3.2805 -0.6659
 2913SOL    HW220202   0.128   2.274   7.405  1.1798  0.8299  0.3363
 2914SOL     OW20203   3.268   0.790  12.712 -0.2248  0.0217 -0.1061
 2914SOL    HW120204   3.309   0.874  12.734  0.6342  0.0553 -1.8764
 2914SOL    HW220205   3.308   0.775  12.627  0.0188  0.5515 -0.0864
 2915SOL     OW20206   1.392   1.146  15.466  0.0583 -0.0870 -0.1106
 2915SOL    HW120207   1.461   1.080  15.457  0.4998  0.3464  0.1640
 2915SOL    HW220208   1.417   1.211  15.401  1.5268  1.4579  2.0476
 2916SOL     OW20209   0.026   1.592   6.113 -0.4757 -0.1532 -0.0921
 2916SOL    HW120210   0.021   1.677   6.070 -0.0758  1.0665  2.2461
 2916SOL    HW220211   0.111   1.561   6.082 -0.3035 -0.1946  0.4158
 2917SOL     OW20212   0.322   0.221  16.101 -0.2779  0.4951 -0.7085
 2917SOL    HW120213   0.236   0.239  16.064  0.1726 -0.0381 -2.0004
 2917SOL    HW220214   0.306   0.245  16.192  1.1299 -1.7520  0.1188
 2918SOL     OW20215   0.639   4.195   4.197  0.6005  0.0946 -0.2622
 2918SOL    HW120216   0.685   4.271   4.161  1.3452  0.4380  1.4076
 2918SOL    HW220217   0.553   4.234   4.184  0.5868  0.4437  0.8892
 2919SOL     OW20218   0.527   0.341   6.809  0.0299  0.0913 -0.0968
 2919SOL    HW120219   0.506   0.350   6.902  0.2533 -0.7058  0.0373
 2919SOL    HW220220   0.589   0.414   6.806  0.5198 -0.3813 -1.4976
 2920SOL     OW20221   1.693   1.109   7.105 -0.0153 -0.1631  0.2836
 2920SOL    HW120222   1.611   1.088   7.061 -0.8107  0.6385  1.3916
 2920SOL    HW220223   1.739   1.026   7.120  1.1469  0.2382 -0.9999
 2921SOL     OW20224   1.516   2.944   9.674  0.6526 -0.1390 -0.2583
 2921SOL    HW120225   1.599   2.946   9.721  0.9606 -0.7147 -0.7694
 2921SOL    HW220226   1.513   3.027   9.627  1.8648  0.0626  0.0042
 2922SOL     OW20227   2.740   1.916   2.612 -0.0317  0.0908  0.3986
 2922SOL    HW120228   2.689   1.849   2.656  0.8377 -1.3925 -0.8539
 2922SOL    HW220229   2.809   1.939   2.676  0.0299  1.4898 -0.1632
 2923SOL     OW20230   3.450   2.745   6.845 -0.6022  0.3796 -0.0351
 2923SOL    HW120231   3.520   2.799   6.882 -1.6519  0.9353  1.1297
 2923SOL    HW220232   3.380   2.748   6.910 -0.7358  1.6513 -0.2204
 2924SOL     OW20233   0.935   2.531   5.569 -0.4786  0.4605 -0.1124
 2924SOL    HW120234   0.880   2.462   5.606  1.5901 -1.1442 -0.0796
 2924SOL    HW220235   0.880   2.554   5.494 -0.0182  1.3662 -0.1679
 2925SOL     OW20236   4.175   0.887   9.812 -0.5237 -0.0241  0.0368
 2925SOL    HW120237   4.206   0.915   9.726  1.1803 -0.3489  0.5579
 2925SOL    HW220238   4.122   0.812   9.784 -0.8813 -0.0537  0.7875
 2926SOL     OW20239   2.582   2.062   6.656  0.2071  0.4414 -0.8164
 2926SOL    HW120240   2.555   1.982   6.699 -0.0606  0.6478 -0.5983
 2926SOL    HW220241   2.586   2.040   6.563  0.6283 -0.9518 -0.4578
 2927SOL     OW20242   4.518   3.228   4.138  0.7666 -0.0045 -0.1163
 2927SOL    HW120243   4.518   3.165   4.210 -2.1549 -0.4336 -0.4989
 2927SOL    HW220244   4.458   3.297   4.166 -0.5123 -1.4993  0.7920
 2928SOL     OW20245   0.333   3.402   2.755 -0.1821 -0.1827 -0.1065
 2928SOL    HW120246   0.386   3.474   2.722  1.0254  0.2019  2.6187
 2928SOL    HW220247   0.284   3.390   2.674  0.3618  2.8427 -0.8613
 2929SOL     OW20248   3.610   4.455   8.404 -0.9964 -0.2036  0.2173
 2929SOL    HW120249   3.659   4.375   8.384 -1.7751 -1.2579  2.5429
 2929SOL    HW220250   3.638   4.462   8.495  1.3485 -2.3701 -0.3147
 2930SOL     OW20251   2.653   3.289   8.231 -0.4004 -0.0663 -0.0284
 2930SOL    HW120252   2.583   3.324   8.176  0.3027  0.0311 -0.8523
 2930SOL    HW220253   2.732   3.294   8.177  0.5082 -0.6908  1.2334
 2931SOL     OW20254   4.139   1.995   2.999 -0.1832  0.7025 -0.5213
 2931SOL    HW120255   4.171   1.920   2.948 -0.3581  0.9663 -1.0174
 2931SOL    HW220256   4.058   1.962   3.036 -0.9210  3.3316  0.2164
 2932SOL     OW20257   4.028   2.849   4.784  0.5247  0.0067  0.4412
 2932SOL    HW120258   4.029   2.944   4.776 -3.2094  0.2869  3.6714
 2932SOL    HW220259   4.078   2.825   4.705 -1.2649  0.5400 -0.8495
 2933SOL     OW20260   4.148   1.641   8.621  0.1258 -0.2098 -0.1591
 2933SOL    HW120261   4.059   1.621   8.593 -0.2468 -1.1813  1.6771
 2933SOL    HW220262   4.168   1.692   8.544  2.9992 -0.1413  0.6327
 2934SOL     OW20263   1.441   0.579   3.930  0.4098  0.2880 -0.0812
 2934SOL    HW120264   1.523   0.547   3.893  0.6652  1.0746 -0.2061
 2934SOL    HW220265   1.413   0.506   3.985  1.6222 -1.3251 -1.6035
 2935SOL     OW20266   0.798   3.324   1.439  0.4134  0.1174  0.4803
 2935SOL    HW120267   0.724   3.315   1.500  0.1543  0.3624  0.2000
 2935SOL    HW220268   0.791   3.418   1.422  2.6687  0.3124  0.6600
 2936SOL     OW20269   3.281   1.309  13.319  0.1806  0.0683 -0.0045
 2936SOL    HW120270   3.272   1.389  13.267 -0.9671 -0.0397  0.0160
 2936SOL    HW220271   3.340   1.327  13.391 -0.7104  0.6987  0.5788
 2937SOL     OW20272   3.678   0.012   5.105  0.3554  0.0109  0.0566
 2937SOL    HW120273   3.673   0.075   5.033  0.5740  0.7990  0.7188
 2937SOL    HW220274   3.596   4.690   5.085  0.4542 -0.4744  0.7727
 2938SOL     OW20275   3.453   0.565   9.112  0.2745  0.1125 -0.1113
 2938SOL    HW120276   3.545   0.564   9.139  0.4678  2.8495 -0.7029
 2938SOL    HW220277   3.416   0.641   9.158  0.1254  0.9654 -1.6486
 2939SOL     OW20278   2.248   4.431   1.437 -0.1599 -0.0405  0.7547
 2939SOL    HW120279   2.276   4.376   1.511  3.1793  0.4678 -0.1190
 2939SOL    HW220280   2.153   4.420   1.442 -0.0291 -0.7479  1.8911
 2940SOL     OW20281   0.237   1.214  12.642 -0.2315  0.5289  0.7102
 2940SOL    HW120282   0.162   1.174  12.597 -0.7323  0.9107  1.2076
 2940SOL    HW220283   0.275   1.139  12.687 -3.5974 -1.2193  0.6488
 2941SOL     OW20284   1.439   2.307   9.743 -0.1216  0.0151  0.1984
 2941SOL    HW120285   1.507   2.367   9.774 -0.9925  1.0429  0.0837
 2941SOL    HW220286   1.373   2.367   9.708  0.1943 -0.7591 -1.7478
 2942SOL     OW20287   1.206   3.264   8.998 -0.4616 -0.4898 -0.1796
 2942SOL    HW120288   1.280   3.203   9.003  0.6651  0.9804  0.7500
 2942SOL    HW220289   1.247   3.342   8.961  0.2438 -0.6588  0.2593
 2943SOL     OW20290   2.127   0.139   9.347 -0.9562  0.1880  0.3822
 2943SOL    HW120291   2.090   0.223   9.375  0.1222  0.6750  0.3761
 2943SOL    HW220292   2.178   0.129   9.427  1.4134 -1.5478 -1.3391
 2944SOL     OW20293   0.738   2.787   8.178 -0.1933  0.4043  0.2219
 2944SOL    HW120294   0.707   2.877   8.183  1.0650  0.8120  0.8538
 2944SOL    HW220295   0.722   2.771   8.085  1.6503 -0.4031  0.0401
 2945SOL     OW20296   3.811   2.741  14.772 -0.4266 -0.3209  0.4681
 2945SOL    HW120297   3.740   2.783  14.724 -1.0815 -2.9820 -0.8884
 2945SOL    HW220298   3.757   2.720  14.848 -2.3185  1.0353 -0.5102
 2946SOL     OW20299   1.169   2.956   3.077  0.7129  0.2824 -0.3269
 2946SOL    HW120300   1.229   2.950   3.151  0.4629 -0.9073 -0.2195
 2946SOL    HW220301   1.115   3.033   3.094  0.5006 -0.0235  0.3658
 2947SOL     OW20302   2.017   1.582   9.025  0.3419  0.1142 -0.6806
 2947SOL    HW120303   1.938   1.574   8.970 -0.3021  1.9977 -0.0114
 2947SOL    HW220304   2.016   1.500   9.075 -1.2320  0.4506 -0.1655
 2948SOL     OW20305   0.199   4.116  11.799 -0.6499 -0.1783  0.1260
 2948SOL    HW120306   0.133   4.047  11.793 -0.1019 -0.5945 -1.1967
 2948SOL    HW220307   0.273   4.071  11.839  1.0057  1.4983 -1.0138
 2949SOL     OW20308   0.816   3.664   3.147 -0.0775  0.4544 -0.0502
 2949SOL    HW120309   0.893   3.718   3.161  1.2712 -1.4483 -0.1838
 2949SOL    HW220310   0.763   3.697   3.220  0.0104 -0.3467  0.3715
 2950SOL     OW20311   0.178   0.017  16.540  0.4531  0.5198 -0.1845
 2950SOL    HW120312   0.172   0.111  16.521 -1.0493  0.5217  0.3740
 2950SOL    HW220313   0.206   4.715  16.452 -0.7181  1.9541 -0.9783
 2951SOL     OW20314   2.452   2.551  17.621  0.5394  0.7591 -0.5058
 2951SOL    HW120315   2.489   2.501  17.694  2.7073  3.0623 -0.0150
 2951SOL    HW220316   2.356   2.555  17.626  0.4706  1.5230 -2.3338
 2952SOL     OW20317   3.685   4.464  11.852 -0.8355  0.0535  0.2374
 2952SOL    HW120318   3.675   4.554  11.885  0.5843  0.3232 -0.1024
 2952SOL    HW220319   3.616   4.466  11.786 -0.0326  0.8462 -0.5656
 2953SOL     OW20320   2.732   2.455  13.593  0.2792 -0.3075 -0.0465
 2953SOL    HW120321   2.743   2.550  13.603  0.2511 -0.4823  1.7974
 2953SOL    HW220322   2.639   2.452  13.615  0.4362 -0.2963  0.6309
 2954SOL     OW20323   1.244   2.410  16.938  0.0229 -0.7497  0.0687
 2954SOL    HW120324   1.210   2.433  17.025  0.5336  1.1731 -0.2661
 2954SOL    HW220325   1.182   2.339  16.919  0.0099 -0.4911 -0.8077
 2955SOL     OW20326   3.692   2.666   3.180 -0.4831  0.3907  0.6903
 2955SOL    HW120327   3.678   2.742   3.237 -3.8757 -0.1728  0.6335
 2955SOL    HW220328   3.772   2.679   3.130 -1.1564 -1.1034 -0.7839
 2956SOL     OW20329   2.611   1.282   3.051 -0.0683 -0.9675 -0.7101
 2956SOL    HW120330   2.528   1.268   3.004 -1.2221  2.8055  0.2289
 2956SOL    HW220331   2.599   1.375   3.071  2.3225 -0.4646 -1.6884
 2957SOL     OW20332   1.601   1.427   8.420 -0.3283  1.0902 -0.0573
 2957SOL    HW120333   1.630   1.495   8.359  0.9505  0.9468  0.3804
 2957SOL    HW220334   1.550   1.480   8.481  0.2679  1.7395 -0.1167
 2958SOL     OW20335   4.305   3.186   8.130 -0.6316  0.5296  0.4065
 2958SOL    HW120336   4.300   3.177   8.225  2.3366 -0.3859  0.4656
 2958SOL    HW220337   4.394   3.216   8.113 -0.6289  0.1842 -0.2035
 2959SOL     OW20338   4.052   2.040   2.561 -0.2276  0.0625  0.0147
 2959SOL    HW120339   4.097   1.957   2.546 -1.0458 -0.4041  0.1162
 2959SOL    HW220340   4.012   2.057   2.476  0.2267 -1.5687 -0.5287
 2960SOL     OW20341   1.181   2.219   7.140  0.6709  0.6911  0.2218
 2960SOL    HW120342   1.226   2.250   7.218 -0.3350 -1.2436  1.5694
 2960SOL    HW220343   1.210   2.127   7.138  0.2212  0.5098  2.9765
 2961SOL     OW20344   1.998   4.309   7.865 -0.3702 -0.1413  0.0648
 2961SOL    HW120345   2.044   4.278   7.787 -0.1905 -0.9771  0.4948
 2961SOL    HW220346   2.071   4.313   7.927 -1.1324  1.2809  0.8686
 2962SOL     OW20347   3.431   3.697   8.717  0.0276 -0.4718 -0.2372
 2962SOL    HW120348   3.473   3.618   8.752  0.9639  0.8397  1.5888
 2962SOL    HW220349   3.359   3.647   8.679  0.1810  0.9383 -2.3413
 2963SOL     OW20350   0.146   1.601   0.149 -0.1457  0.9542 -0.1338
 2963SOL    HW120351   0.210   1.554   0.095  0.5817  2.8428 -0.9176
 2963SOL    HW220352   0.099   1.660   0.091  1.0244  1.6176 -0.4134
 2964SOL     OW20353   1.805   1.472   5.624  0.5195 -0.2334 -0.3722
 2964SOL    HW120354   1.774   1.405   5.685  0.3379 -1.5897 -1.9526
 2964SOL    HW220355   1.742   1.453   5.555 -0.8939  1.6704  0.3820
 2965SOL     OW20356   3.677   4.559   5.516 -0.0934 -0.1838 -0.5019
 2965SOL    HW120357   3.624   4.611   5.456 -0.4487  0.8353  0.7076
 2965SOL    HW220358   3.695   4.489   5.453  0.6654 -1.1846  0.8212
 2966SOL     OW20359   4.414   0.597   3.918 -0.0253 -0.3085  0.7945
 2966SOL    HW120360   4.381   0.634   3.837 -1.7622 -1.8377  0.8014
 2966SOL    HW220361   4.487   0.652   3.947  2.3084 -2.4591 -1.0630
 2967SOL     OW20362   2.637   3.112   2.234 -0.1284 -0.1854  0.1958
 2967SOL    HW120363   2.598   3.077   2.154 -1.2095  1.3511  0.0511
 2967SOL    HW220364   2.730   3.089   2.237 -0.0676 -0.2650 -2.2149
 2968SOL     OW20365   4.016   4.022  13.537 -0.8538 -0.0238 -0.6925
 2968SOL    HW120366   3.943   3.982  13.491 -0.4183 -2.5899  0.8492
 2968SOL    HW220367   4.093   3.989  13.490 -0.4766 -0.0580 -0.0484
 2969SOL     OW20368   2.360   0.068  16.044 -0.1485 -0.5668 -0.1617
 2969SOL    HW120369   2.289   0.024  16.090 -1.5363  0.4719 -1.3207
 2969SOL    HW220370   2.385   0.007  15.975  0.5966  0.5365 -0.8647
 2970SOL     OW20371   4.072   0.824  12.255 -0.5210  0.9206 -0.0843
 2970SOL    HW120372   4.013   0.898  12.267  0.2746  1.7238 -1.1199
 2970SOL    HW220373   4.154   0.861  12.286 -0.7619  1.2910  0.1087
 2971SOL     OW20374   4.466   1.712  13.489  0.1819 -0.3288  0.2374
 2971SOL    HW120375   4.507   1.786  13.533  3.4321 -1.6885 -0.4972
 2971SOL    HW220376   4.392   1.755  13.447  0.6539  2.4374  2.1930
 2972SOL     OW20377   0.236   2.118  13.854 -0.1278 -0.0979  0.6192
 2972SOL    HW120378   0.216   2.107  13.947  0.1403 -1.0533  0.5667
 2972SOL    HW220379   0.312   2.176  13.855 -1.6688  1.9598 -1.1661
 2973SOL     OW20380   0.645   3.486   2.463 -0.4785  0.0017  0.7123
 2973SOL    HW120381   0.670   3.481   2.556 -1.7157 -0.3524  1.0342
 2973SOL    HW220382   0.663   3.578   2.443  0.0608 -0.3628 -0.4838
 2974SOL     OW20383   3.367   3.943   5.076  0.2530 -0.5879  0.3550
 2974SOL    HW120384   3.421   3.967   5.151 -1.7951 -0.7999  1.9036
 2974SOL    HW220385   3.340   3.857   5.108  0.7982 -1.3258 -1.2064
 2975SOL     OW20386   1.919   1.572  13.163 -0.5020  0.4362  0.1660
 2975SOL    HW120387   1.904   1.569  13.258 -2.1343  1.7850 -0.0496
 2975SOL    HW220388   2.013   1.590  13.161 -0.3896 -0.1470  0.2963
 2976SOL     OW20389   1.648   0.832   8.635 -0.3187 -0.1800  0.3931
 2976SOL    HW120390   1.729   0.842   8.685  1.4201  0.7391 -2.5787
 2976SOL    HW220391   1.627   0.922   8.610 -0.5228  0.3393  2.5027
 2977SOL     OW20392   2.006   3.653   4.520  0.5263  0.2943  0.3556
 2977SOL    HW120393   2.051   3.729   4.556  1.4409  2.0419 -4.5053
 2977SOL    HW220394   2.075   3.614   4.467 -0.2688  0.4308 -0.7792
 2978SOL     OW20395   2.676   2.272  10.252  0.4770 -0.2325 -0.0436
 2978SOL    HW120396   2.754   2.280  10.197  1.1132  0.5440  0.9604
 2978SOL    HW220397   2.623   2.346  10.222 -0.4388 -0.1755  1.7141
 2979SOL     OW20398   4.238   1.572   9.077  0.3361 -0.2975 -0.8201
 2979SOL    HW120399   4.301   1.531   9.137 -1.0423 -1.5704 -0.2605
 2979SOL    HW220400   4.256   1.666   9.086  1.3518 -0.8347  2.8251
 2980SOL     OW20401   3.993   3.256   0.245  0.3613 -0.0048  0.9947
 2980SOL    HW120402   4.083   3.232   0.221 -0.1380 -1.5326  0.6358
 2980SOL    HW220403   3.980   3.315   0.171  1.4958  0.4057  1.1154
 2981SOL     OW20404   0.489   4.106  15.398  0.2062 -0.3132  0.0242
 2981SOL    HW120405   0.578   4.077  15.416 -0.3382 -1.7235  0.4798
 2981SOL    HW220406   0.465   4.029  15.346  1.1280 -0.0849 -0.7198
 2982SOL     OW20407   4.710   0.655  13.954 -0.4779  0.0129 -0.0599
 2982SOL    HW120408   4.684   0.699  13.873 -1.3538  1.3635  0.9709
 2982SOL    HW220409   4.633   0.598  13.960 -1.2828  1.1978  0.7558
 2983SOL     OW20410   1.070   1.636   2.521  0.0726 -0.0918  0.0151
 2983SOL    HW120411   1.071   1.545   2.551 -2.6706 -0.0024  0.3942
 2983SOL    HW220412   1.022   1.620   2.439  0.1677  1.2702 -0.3154
 2984SOL     OW20413   2.408   4.503   7.784 -0.1890 -0.1518  0.4721
 2984SOL    HW120414   2.387   4.433   7.722  0.1324  0.6685 -0.5539
 2984SOL    HW220415   2.430   4.452   7.863 -0.3554  0.1855  0.7361
 2985SOL     OW20416   3.438   0.141  13.966  0.1149 -0.0254  0.3808
 2985SOL    HW120417   3.523   0.142  13.922 -1.2027 -0.4804 -2.1206
 2985SOL    HW220418   3.462   0.104  14.051  0.4596 -0.6588  0.0099
 2986SOL     OW20419   2.417   0.548   5.152  0.3319 -0.2097  0.5001
 2986SOL    HW120420   2.499   0.506   5.126  0.5702  0.4680  0.1843
 2986SOL    HW220421   2.417   0.532   5.246 -0.1166  0.4254  0.6083
 2987SOL     OW20422   2.370   3.078   8.449  0.0759  0.1640 -0.6396
 2987SOL    HW120423   2.331   3.165   8.449 -0.6136 -0.1384  1.2406
 2987SOL    HW220424   2.390   3.075   8.543  0.7203  2.0790 -0.7144
 2988SOL     OW20425   1.154   0.232   2.007  0.0310  0.2023  0.7227
 2988SOL    HW120426   1.204   0.150   2.012 -1.5918 -0.7660  0.9995
 2988SOL    HW220427   1.108   0.233   2.091  1.1748  0.3218  1.3498
 2989SOL     OW20428   4.523   0.749   5.100 -0.1265  0.2819  0.3191
 2989SOL    HW120429   4.537   0.682   5.034 -0.7595  0.7811 -0.3226
 2989SOL    HW220430   4.589   0.814   5.074  1.0282 -1.0838 -0.1450
 2990SOL     OW20431   1.142   3.481   7.174 -0.0685  0.0202 -0.1430
 2990SOL    HW120432   1.112   3.392   7.153  1.0182 -0.1532 -0.9326
 2990SOL    HW220433   1.126   3.536   7.098  3.1296  0.9653 -0.1291
 2991SOL     OW20434   3.407   0.484   8.843 -0.7321  0.3346 -0.4594
 2991SOL    HW120435   3.430   0.496   8.935 -1.6911 -0.7065 -0.0701
 2991SOL    HW220436   3.485   0.524   8.806  1.0055 -0.7354  2.1139
 2992SOL     OW20437   1.250   2.859   9.623 -0.0718  0.5604  0.7200
 2992SOL    HW120438   1.340   2.887   9.639 -0.7236  2.8733  0.2970
 2992SOL    HW220439   1.201   2.939   9.605  2.0365  1.3294 -1.6462
 2993SOL     OW20440   1.589   0.070   7.587  0.0574  0.3597  0.1102
 2993SOL    HW120441   1.659   0.060   7.523 -0.1267  0.2983 -0.0822
 2993SOL    HW220442   1.611   0.162   7.597  0.7052  0.0045  1.9840
 2994SOL     OW20443   2.671   2.492  17.432  0.0551 -0.3508  0.1350
 2994SOL    HW120444   2.593   2.516  17.482  0.6664 -0.5609  1.1911
 2994SOL    HW220445   2.642   2.484  17.341  1.5728  0.5591 -0.4143
 2995SOL     OW20446   2.471   0.082   2.846 -0.2887 -0.0693  0.1714
 2995SOL    HW120447   2.389   0.047   2.810  0.4224 -0.5166 -1.0130
 2995SOL    HW220448   2.442   0.155   2.900 -0.3603  1.6198 -2.1318
 2996SOL     OW20449   3.171   2.651   7.380  0.4024  0.1464  0.1588
 2996SOL    HW120450   3.090   2.618   7.421  0.0380  2.0380  0.9305
 2996SOL    HW220451   3.240   2.626   7.441 -1.0205 -1.5804  1.0707
 2997SOL     OW20452   3.907   4.478   7.694  0.0807 -0.4969  0.3189
 2997SOL    HW120453   3.949   4.560   7.666 -1.0090 -0.1537 -0.2941
 2997SOL    HW220454   3.987   4.426   7.704  1.5523  1.1439 -2.9667
 2998SOL     OW20455   3.213   4.174  13.918 -0.3955 -0.2160  0.5031
 2998SOL    HW120456   3.211   4.254  13.865  0.0766 -0.4594  0.1129
 2998SOL    HW220457   3.175   4.208  13.999 -0.1506 -0.6372  0.7930
 2999SOL     OW20458   4.705   4.070   8.352  0.2304  0.1815 -0.2724
 2999SOL    HW120459   0.028   3.990   8.375 -1.4492 -0.6227  0.3182
 2999SOL    HW220460   4.651   4.079   8.430  3.3742  0.6813  1.8577
 3000SOL     OW20461   2.059   3.821  14.676  0.1384  0.1549 -0.1060
 3000SOL    HW120462   1.986   3.783  14.725  0.3311 -0.4953 -0.3164
 3000SOL    HW220463   2.093   3.883  14.740 -0.1266 -0.7048  0.8698
 3001SOL     OW20464   0.046   0.379   2.609 -0.1468 -0.2368  0.6882
 3001SOL    HW120465   4.693   0.426   2.576  2.1740  3.1992  0.2015
 3001SOL    HW220466   0.058   0.324   2.531 -0.2659  0.8163 -0.0836
 3002SOL     OW20467   1.941   2.790   8.647 -0.2395  0.0275 -0.2022
 3002SOL    HW120468   1.997   2.751   8.714 -0.7015 -1.1233 -0.4870
 3002SOL    HW220469   1.955   2.742   8.566  0.2516 -0.6443  0.2841
 3003SOL     OW20470   0.440   1.937  13.982  0.6043 -0.1962 -0.8908
 3003SOL    HW120471   0.347   1.926  13.960  0.2692  0.7592  0.0378
 3003SOL    HW220472   0.444   2.032  13.986  4.7804 -0.3242 -1.8317
 3004SOL     OW20473   0.159   1.204   2.852  0.0717  0.2240  0.0542
 3004SOL    HW120474   0.152   1.297   2.873 -0.3695  0.7035 -2.1749
 3004SOL    HW220475   0.230   1.185   2.914 -0.2423 -0.2519  0.2694
 3005SOL     OW20476   1.665   2.036   4.016 -0.3400  0.0921 -0.0877
 3005SOL    HW120477   1.671   1.976   3.942  1.0265  1.4702 -1.1175
 3005SOL    HW220478   1.663   1.974   4.088  0.1325  0.4360  0.2247
 3006SOL     OW20479   4.437   2.462   6.374  0.1780 -0.0651 -0.6295
 3006SOL    HW120480   4.428   2.464   6.279  2.1300 -0.7829 -0.8395
 3006SOL    HW220481   4.410   2.374   6.401 -1.7169  0.2432 -1.5783
 3007SOL     OW20482   2.564   3.449   8.789 -0.1445 -0.1054 -0.5568
 3007SOL    HW120483   2.635   3.436   8.726  0.1765  0.0047 -0.2123
 3007SOL    HW220484   2.606   3.448   8.875  0.7621 -1.9172 -1.0245
 3008SOL     OW20485   1.325   2.182   6.002  0.3412 -0.1255  0.2383
 3008SOL    HW120486   1.404   2.169   6.054 -0.2241  0.5184  1.2594
 3008SOL    HW220487   1.268   2.225   6.067 -0.0631  0.3142 -0.4141
 3009SOL     OW20488   2.050   2.612  11.966 -0.3183 -0.0478  0.2426
 3009SOL    HW120489   2.128   2.561  11.989  0.2953  1.1944  0.8576
 3009SOL    HW220490   2.085   2.696  11.995 -2.5815  1.6240 -1.8777
 3010SOL     OW20491   0.031   1.031   6.606  0.2155  0.1819  0.2312
 3010SOL    HW120492   4.701   0.983   6.669 -0.2703  0.9267  0.3701
 3010SOL    HW220493   4.721   1.120   6.612 -0.3361  0.0282 -0.5814
 3011SOL     OW20494   4.562   1.724   0.261  0.3755 -0.3304  0.4509
 3011SOL    HW120495   4.553   1.674   0.180 -2.6151  0.5530  0.2130
 3011SOL    HW220496   4.562   1.814   0.229 -0.8125  0.7198  3.3954
 3012SOL     OW20497   0.403   2.440   3.549 -0.2078  0.2458  0.5542
 3012SOL    HW120498   0.481   2.400   3.589  0.4030 -0.9221 -1.7922
 3012SOL    HW220499   0.337   2.372   3.558 -0.5281  0.1422 -2.4065
 3013SOL     OW20500   2.742   3.654   4.319 -0.4074 -0.2088 -0.7980
 3013SOL    HW120501   2.828   3.691   4.301 -0.5723  0.5884  0.0671
 3013SOL    HW220502   2.688   3.706   4.259  1.3274  0.9976 -1.3169
 3014SOL     OW20503   3.912   2.957   5.258 -0.0899  0.0587 -0.4604
 3014SOL    HW120504   3.985   3.019   5.256  1.9115 -2.1612  2.1584
 3014SOL    HW220505   3.964   2.886   5.297 -0.7017 -1.4631 -2.4166
 3015SOL     OW20506   2.124   2.718   5.613  0.2861  0.3301 -0.0458
 3015SOL    HW120507   2.113   2.625   5.630 -1.9307  0.1020 -2.6792
 3015SOL    HW220508   2.199   2.710   5.555  0.5040 -0.8709  0.4163
 3016SOL     OW20509   0.896   2.842   2.095  0.0304 -0.0728 -0.0221
 3016SOL    HW120510   0.896   2.938   2.089 -2.4741 -0.0561  0.1294
 3016SOL    HW220511   0.840   2.834   2.172 -0.6653 -2.7984 -0.8091
 3017SOL     OW20512   4.156   4.391   7.721  0.6587 -0.2088  0.3188
 3017SOL    HW120513   4.168   4.303   7.684 -2.0353 -0.2472 -0.4769
 3017SOL    HW220514   4.206   4.446   7.660  2.1229 -3.8092 -1.7527
 3018SOL     OW20515   1.443   1.529   9.560  0.1387  0.0212 -0.0029
 3018SOL    HW120516   1.384   1.604   9.548 -3.0103 -1.9370  3.2778
 3018SOL    HW220517   1.497   1.565   9.630  0.3885 -1.3631  0.5236
 3019SOL     OW20518   2.705   1.922   8.413 -0.0858 -0.0357 -0.1404
 3019SOL    HW120519   2.713   1.915   8.318  0.3723  2.7772 -0.3098
 3019SOL    HW220520   2.634   1.860   8.428  1.8206 -1.8556  1.2845
 3020SOL     OW20521   0.500   2.902   8.497 -0.3255 -0.0538  0.1446
 3020SOL    HW120522   0.546   2.959   8.435  1.0391 -1.0685  0.2150
 3020SOL    HW220523   0.576   2.869   8.546 -0.0648  1.9086  1.0814
 3021SOL     OW20524   2.882   1.514   4.027  0.3776 -0.5171  0.1794
 3021SOL    HW120525   2.877   1.482   3.937  1.3224  0.1568 -0.1120
 3021SOL    HW220526   2.852   1.437   4.076 -2.0100 -0.2298 -0.8417
 3022SOL     OW20527   1.976   0.347   3.017  0.2078 -0.3939 -0.6317
 3022SOL    HW120528   1.907   0.356   2.950  0.6500  0.1237 -1.0119
 3022SOL    HW220529   2.034   0.289   2.967  0.9166 -1.3302  1.2869
 3023SOL     OW20530   1.398   3.467   6.786 -0.1676  0.3231 -0.1568
 3023SOL    HW120531   1.396   3.525   6.710  0.0266  1.8011  0.9509
 3023SOL    HW220532   1.474   3.510   6.824  0.1161  1.2127 -1.7589
 3024SOL     OW20533   0.462   4.609   5.614  0.4195  0.1139  0.1554
 3024SOL    HW120534   0.435   4.675   5.678 -0.7619 -0.4540  0.2487
 3024SOL    HW220535   0.392   4.547   5.636  1.7501 -1.6977 -0.7230
 3025SOL     OW20536   1.729   2.108   4.578 -0.0654 -0.2053 -0.2885
 3025SOL    HW120537   1.696   2.197   4.580 -1.8684 -0.9141  0.8986
 3025SOL    HW220538   1.737   2.103   4.673 -1.1383  1.7899 -0.0978
 3026SOL     OW20539   3.886   1.691   3.759 -0.2557 -0.5009 -0.3913
 3026SOL    HW120540   3.954   1.753   3.732 -1.2029  1.2360  1.2581
 3026SOL    HW220541   3.837   1.671   3.679 -1.3917 -1.3921  0.5300
 3027SOL     OW20542   4.053   4.661  17.617  0.4679  0.4192  0.4110
 3027SOL    HW120543   4.117   4.592  17.602  2.3063  1.7801  1.9487
 3027SOL    HW220544   4.104   0.015  17.594  3.2408 -1.2562  0.9760
 3028SOL     OW20545   0.226   1.002   4.917 -0.3896 -0.2606 -0.1390
 3028SOL    HW120546   0.320   1.001   4.935 -0.1200  2.0126 -1.4746
 3028SOL    HW220547   0.216   1.060   4.842 -0.5243 -0.5167 -0.3173
 3029SOL     OW20548   1.970   2.631   8.407  0.5286 -0.0128  0.1341
 3029SOL    HW120549   1.921   2.681   8.341  1.1899  3.1890  2.0632
 3029SOL    HW220550   2.055   2.625   8.362 -0.2002 -0.5135 -1.1688
 3030SOL     OW20551   1.300   1.778   9.500 -0.2793 -0.1139  0.3755
 3030SOL    HW120552   1.212   1.785   9.464 -0.7162 -0.9665  1.2573
 3030SOL    HW220553   1.298   1.854   9.559 -1.2012 -1.8399  2.5844
 3031SOL     OW20554   0.682   0.518   1.340  0.3593 -0.1664  0.2092
 3031SOL    HW120555   0.669   0.503   1.247  0.5047  0.0563  0.1537
 3031SOL    HW220556   0.772   0.485   1.350  1.1725  0.8093 -3.8747
 3032SOL     OW20557   0.075   0.045   5.167 -0.4163  0.3699 -0.5193
 3032SOL    HW120558   0.038   0.114   5.113 -0.0786  1.2606  0.3861
 3032SOL    HW220559   0.132   0.099   5.222 -0.0573 -0.0608 -0.4598
 3033SOL     OW20560   2.020   4.406   2.976  0.0367  0.0141  0.2379
 3033SOL    HW120561   2.052   4.495   2.963 -0.3901 -0.1647 -2.0365
 3033SOL    HW220562   1.963   4.423   3.051  2.5029  3.4843  1.3254
 3034SOL     OW20563   4.126   0.371   6.615 -0.1592  0.2900  0.1110
 3034SOL    HW120564   4.163   0.379   6.528  0.4643  0.8751  0.4344
 3034SOL    HW220565   4.037   0.403   6.600  0.6931  3.5746  2.0447
 3035SOL     OW20566   2.903   3.538  11.556  0.1906 -0.3852  0.2830
 3035SOL    HW120567   2.808   3.532  11.562  0.2556 -0.8728  0.8089
 3035SOL    HW220568   2.926   3.474  11.488  1.9089 -0.6160  1.0774
 3036SOL     OW20569   2.487   4.180  13.971 -0.4446  0.2437 -0.2375
 3036SOL    HW120570   2.550   4.240  14.011  1.4703  0.3506 -3.4215
 3036SOL    HW220571   2.506   4.195  13.878  0.1772 -1.1392 -0.3289
 3037SOL     OW20572   4.155   2.177   3.448 -0.3783 -0.1505  0.0473
 3037SOL    HW120573   4.111   2.094   3.430 -0.3195  0.0463 -0.9768
 3037SOL    HW220574   4.237   2.162   3.400  0.1462  0.7720  0.6606
 3038SOL     OW20575   4.102   0.161   4.327 -0.3053  0.0250 -0.4539
 3038SOL    HW120576   4.022   0.208   4.302  0.0446  0.4012 -0.8591
 3038SOL    HW220577   4.062   0.096   4.385 -2.1504  0.6365 -1.0583
 3039SOL     OW20578   2.987   2.318   3.920 -0.3593 -0.0500 -0.9240
 3039SOL    HW120579   2.983   2.413   3.908  0.4838 -0.0733 -1.4200
 3039SOL    HW220580   3.079   2.312   3.946 -0.6585  0.7411  0.3233
 3040SOL     OW20581   1.280   3.658   8.981 -0.0800 -0.0069  0.0773
 3040SOL    HW120582   1.337   3.584   9.002  1.3196  2.3055  4.4481
 3040SOL    HW220583   1.317   3.738   9.021 -3.3135  1.0209  0.9960
 3041SOL     OW20584   3.203   1.046   8.661 -0.7273  0.2340  0.0711
 3041SOL    HW120585   3.208   0.974   8.597 -1.1766 -0.6448  1.0229
 3041SOL    HW220586   3.266   1.008   8.723 -0.2485  0.5569 -0.2177
 3042SOL     OW20587   4.277   3.567  12.222 -0.1400 -0.4577 -0.3987
 3042SOL    HW120588   4.258   3.483  12.262 -1.5297 -1.2238 -2.6461
 3042SOL    HW220589   4.229   3.563  12.139  1.5789  1.7097 -1.5150
 3043SOL     OW20590   1.717   3.905  11.858 -0.1814  0.3803  0.3782
 3043SOL    HW120591   1.669   3.983  11.885 -2.0440 -0.7256  0.3005
 3043SOL    HW220592   1.809   3.928  11.863  0.2246 -1.5133  1.7472
 3044SOL     OW20593   1.809   3.846   4.240 -0.1809 -0.0660 -0.3359
 3044SOL    HW120594   1.837   3.892   4.161 -0.2769  0.5925  0.0135
 3044SOL    HW220595   1.853   3.892   4.311  2.3857 -1.3317 -1.0982
 3045SOL     OW20596   1.183   3.529   3.230  0.3826 -0.6169 -0.3664
 3045SOL    HW120597   1.134   3.605   3.199 -2.2202 -0.7078  3.5487
 3045SOL    HW220598   1.258   3.573   3.271  1.9929  0.3545 -4.3532
 3046SOL     OW20599   2.956   4.098   5.420 -0.0417 -0.3030  0.3123
 3046SOL    HW120600   3.022   4.107   5.351 -1.2839 -0.9224 -0.9702
 3046SOL    HW220601   2.945   4.003   5.430  1.1430 -0.5790 -1.0048
 3047SOL     OW20602   4.453   3.000   6.902 -0.4944  0.3667 -0.0884
 3047SOL    HW120603   4.407   3.009   6.986  0.2988 -0.7302  0.4613
 3047SOL    HW220604   4.438   3.077   6.848 -2.0188  0.6169  0.6704
 3048SOL     OW20605   2.850   2.350   0.802 -0.0204  0.0344 -0.9180
 3048SOL    HW120606   2.870   2.334   0.894 -0.4873  0.8859 -0.6589
 3048SOL    HW220607   2.808   2.270   0.770 -1.1752  0.3894 -0.2719
 3049SOL     OW20608   0.109   3.031   7.461 -0.0313  0.0796 -0.2639
 3049SOL    HW120609   0.181   2.976   7.493  0.1834 -0.2139 -1.2366
 3049SOL    HW220610   0.132   3.100   7.522 -1.2259 -0.6777  1.0365
 3050SOL     OW20611   3.167   3.273   5.247  0.3766 -0.4806 -0.2314
 3050SOL    HW120612   3.248   3.231   5.216  1.6714  1.1849  0.8744
 3050SOL    HW220613   3.105   3.207   5.217 -0.0743  0.6085 -1.6967
 3051SOL     OW20614   2.314   4.340  13.540 -0.3323 -0.6356 -0.6390
 3051SOL    HW120615   2.248   4.276  13.566 -0.3432  0.2458  1.5535
 3051SOL    HW220616   2.375   4.318  13.610  2.4059  3.6468 -1.6816
 3052SOL     OW20617   2.638   1.646   5.033  0.1853  0.7631  0.3317
 3052SOL    HW120618   2.719   1.673   5.077 -1.2382  3.1681  1.4215
 3052SOL    HW220619   2.581   1.621   5.105  0.0193  1.3871  0.4094
 3053SOL     OW20620   4.394   2.317  11.806  0.7977  0.4614 -0.2326
 3053SOL    HW120621   4.356   2.272  11.731  0.8357  0.7046 -0.3989
 3053SOL    HW220622   4.328   2.284  11.867  1.9119 -0.7310  0.3184
 3054SOL     OW20623   0.801   2.981   1.001 -0.6284  0.1745  0.6832
 3054SOL    HW120624   0.791   3.000   0.908  0.8268  1.1000  0.7174
 3054SOL    HW220625   0.823   3.066   1.039  0.8017  0.6295 -1.2055
 3055SOL     OW20626   2.624   2.642  13.368  0.3200  0.3320  0.7009
 3055SOL    HW120627   2.671   2.648  13.451 -2.9371  2.3544  2.4192
 3055SOL    HW220628   2.535   2.653  13.401  0.3666 -2.1295  1.6714
 3056SOL     OW20629   2.122   2.653   4.403  0.0901  0.2087  0.1039
 3056SOL    HW120630   2.158   2.590   4.341 -2.9653 -1.3633 -0.0637
 3056SOL    HW220631   2.076   2.715   4.347 -1.2498 -1.9584 -1.1970
 3057SOL     OW20632   3.280   0.348   5.367  0.2993  0.3472  0.7030
 3057SOL    HW120633   3.275   0.300   5.450  1.1221 -0.9998 -0.0364
 3057SOL    HW220634   3.354   0.400   5.398  1.4238 -1.3487  0.9099
 3058SOL     OW20635   2.611   2.912   4.737 -0.0950 -0.1662 -0.1421
 3058SOL    HW120636   2.696   2.957   4.742 -1.1503  1.6636  1.5225
 3058SOL    HW220637   2.577   2.933   4.824  2.5463 -0.2092  0.8872
 3059SOL     OW20638   0.901   3.840  13.759  0.6480  0.4699 -0.0442
 3059SOL    HW120639   0.985   3.807  13.791  0.2780  0.1895  0.6308
 3059SOL    HW220640   0.861   3.888  13.831 -0.7525 -1.7891  0.6974
 3060SOL     OW20641   3.440   3.627  10.716 -0.3336 -0.3871 -0.1617
 3060SOL    HW120642   3.413   3.718  10.731  2.2478  0.2772  0.4125
 3060SOL    HW220643   3.423   3.617  10.622 -0.6733  2.6375 -0.4059
 3061SOL     OW20644   0.164   3.755   7.263  0.4903 -0.5914  0.6281
 3061SOL    HW120645   0.254   3.746   7.234 -0.2738 -0.9124 -1.6587
 3061SOL    HW220646   0.177   3.771   7.356 -0.3002 -2.4095  1.0492
 3062SOL     OW20647   2.460   1.793  14.174  0.3456 -0.3613 -0.4055
 3062SOL    HW120648   2.368   1.818  14.173  1.2827  3.0459 -0.0510
 3062SOL    HW220649   2.484   1.762  14.087  0.6953 -0.8993 -0.1184
 3063SOL     OW20650   0.982   2.489   2.604  0.2350 -0.5320  0.0915
 3063SOL    HW120651   1.004   2.560   2.665 -0.4629 -1.1898  1.1163
 3063SOL    HW220652   1.055   2.429   2.614  0.1977 -0.2649  1.9772
 3064SOL     OW20653   4.077   2.778  16.939 -0.0055  0.2607  0.3001
 3064SOL    HW120654   3.999   2.784  16.994  0.2948 -0.4434  0.8053
 3064SOL    HW220655   4.034   2.766  16.854  0.6299 -1.3818  0.2174
 3065SOL     OW20656   1.641   3.956   4.883  0.3367 -0.3693 -0.1228
 3065SOL    HW120657   1.646   4.010   4.962  1.7278 -0.1722 -0.3400
 3065SOL    HW220658   1.656   4.013   4.809 -1.6127  0.0282 -0.2116
 3066SOL     OW20659   1.381   0.795   9.095  0.2345  0.1644 -0.6072
 3066SOL    HW120660   1.315   0.800   9.026  1.2314 -0.8377 -1.6356
 3066SOL    HW220661   1.389   0.888   9.118 -0.6662  0.5476 -1.8548
 3067SOL     OW20662   2.777   3.560   1.932 -0.5739  0.8717  0.1333
 3067SOL    HW120663   2.710   3.603   1.880 -1.3312 -0.4719 -0.0086
 3067SOL    HW220664   2.783   3.475   1.888 -0.2241  0.8071  0.3050
 3068SOL     OW20665   0.253   3.772   4.172  0.1515 -0.2406 -0.6624
 3068SOL    HW120666   0.316   3.819   4.227 -1.3963  0.8202  0.2076
 3068SOL    HW220667   0.171   3.774   4.221  0.3207  1.4876 -0.4523
 3069SOL     OW20668   3.600   1.214   5.587  0.2025  0.3172 -0.2729
 3069SOL    HW120669   3.509   1.191   5.571  0.0402  0.3808  0.5426
 3069SOL    HW220670   3.591   1.286   5.650  0.1790 -1.8438  2.2000
 3070SOL     OW20671   4.502   3.986   3.828  0.4957  0.1374  0.3293
 3070SOL    HW120672   4.590   4.017   3.807  0.8272 -1.0833 -0.0511
 3070SOL    HW220673   4.493   3.916   3.764 -0.6305 -0.7134  1.3988
 3071SOL     OW20674   1.529   2.929  15.146 -0.1007 -0.1532  0.0347
 3071SOL    HW120675   1.593   2.907  15.214  0.3624  0.5361 -0.1793
 3071SOL    HW220676   1.569   2.890  15.068 -1.1234  0.3655 -0.7431
 3072SOL     OW20677   4.636   1.482   9.136 -0.8853  0.1408  0.2933
 3072SOL    HW120678   4.550   1.444   9.154 -0.7737  0.2755  1.1289
 3072SOL    HW220679   4.617   1.574   9.154  1.1733  0.6527 -0.1728
 3073SOL     OW20680   1.538   2.820  14.253  0.1721  0.4176  0.0359
 3073SOL    HW120681   1.620   2.861  14.227  0.5136  0.0128  0.4896
 3073SOL    HW220682   1.492   2.867  14.183 -0.0910  1.2883  0.8017
 3074SOL     OW20683   0.538   4.101  17.631  0.0024  0.6317 -0.0301
 3074SOL    HW120684   0.522   4.162  17.559  0.7781 -1.0054 -1.5890
 3074SOL    HW220685   0.475   4.033  17.606  1.6053 -0.1075 -2.0407
 3075SOL     OW20686   3.737   0.315   7.539  0.1247 -0.1203  0.2269
 3075SOL    HW120687   3.748   0.220   7.531 -2.3039 -0.6246  3.0141
 3075SOL    HW220688   3.784   0.339   7.618 -0.0014 -2.8038  1.1136
 3076SOL     OW20689   0.130   2.677   3.836 -0.4110  0.1654 -0.3760
 3076SOL    HW120690   0.103   2.744   3.899  2.2788  0.7804  0.1492
 3076SOL    HW220691   0.225   2.691   3.837 -0.0224 -2.5018 -1.3139
 3077SOL     OW20692   2.131   3.472   7.790  0.6092 -0.1354 -0.1382
 3077SOL    HW120693   2.224   3.459   7.809  0.3760 -1.6636  0.0132
 3077SOL    HW220694   2.123   3.567   7.784 -3.4538 -0.5128 -0.1928
 3078SOL     OW20695   4.435   2.575  16.410  0.1315  0.1744 -0.4201
 3078SOL    HW120696   4.425   2.599  16.318 -0.9668 -1.7897 -0.8109
 3078SOL    HW220697   4.478   2.489  16.412  0.9487  0.5859  0.1031
 3079SOL     OW20698   2.851   3.579   8.961 -0.5184 -0.1768  1.2262
 3079SOL    HW120699   2.771   3.628   8.947 -0.8827 -1.6539 -1.7418
 3079SOL    HW220700   2.880   3.620   9.043  1.0525 -1.2817  1.2327
 3080SOL     OW20701   1.102   3.104  10.664  0.2612 -0.2837  0.2824
 3080SOL    HW120702   1.165   3.174  10.643  0.1337 -0.2413  0.0487
 3080SOL    HW220703   1.038   3.157  10.712  0.4928 -1.4761  1.9134
 3081SOL     OW20704   4.411   0.428   6.730 -0.0087 -0.0053 -0.1252
 3081SOL    HW120705   4.446   0.352   6.684 -1.0434  0.1900 -1.2111
 3081SOL    HW220706   4.319   0.407   6.744 -0.0700 -0.6667 -1.5393
 3082SOL     OW20707   4.421   3.593   9.133  0.8597 -0.2681  0.3142
 3082SOL    HW120708   4.477   3.602   9.210  0.7457  0.2951  0.3259
 3082SOL    HW220709   4.380   3.679   9.132  1.3777 -0.0232  0.5225
 3083SOL     OW20710   3.217   0.304   2.684  0.2086  0.3971 -0.0307
 3083SOL    HW120711   3.216   0.357   2.764 -0.4810  0.7553 -0.2802
 3083SOL    HW220712   3.303   0.332   2.651 -0.3960  2.5256  0.2209
 3084SOL     OW20713   3.891   2.954  11.547  0.1632  0.5566  0.3982
 3084SOL    HW120714   3.903   2.868  11.505 -5.3286 -0.6483  1.2707
 3084SOL    HW220715   3.951   2.950  11.622  1.6690 -0.9270 -0.8769
 3085SOL     OW20716   1.747   1.051   5.057  0.4545  0.2322 -0.3233
 3085SOL    HW120717   1.762   0.988   4.986  0.7390 -0.7773  0.6173
 3085SOL    HW220718   1.840   1.062   5.076 -0.1193  1.2445  1.8421
 3086SOL     OW20719   0.528   1.233  15.340  0.1524  0.2829  0.1354
 3086SOL    HW120720   0.454   1.232  15.279  0.7765 -2.8860 -0.5341
 3086SOL    HW220721   0.511   1.317  15.382  2.8016  0.1574  1.4723
 3087SOL     OW20722   2.969   4.242   6.244  0.4590  0.2585  0.0061
 3087SOL    HW120723   2.962   4.329   6.204 -1.4709 -0.0845 -0.3693
 3087SOL    HW220724   3.001   4.186   6.173  0.6104 -1.8902  1.7722
 3088SOL     OW20725   1.440   4.450   3.333  0.0184 -0.6096 -0.2970
 3088SOL    HW120726   1.417   4.495   3.252  1.0974 -1.1728 -0.9146
 3088SOL    HW220727   1.501   4.517   3.366  0.6334 -1.6368  0.6478
 3089SOL     OW20728   3.941   4.397   2.224  0.2468 -0.4518  0.6244
 3089SOL    HW120729   3.992   4.406   2.304  1.8273  1.3358 -0.5873
 3089SOL    HW220730   3.868   4.456   2.245 -0.8405 -0.5618 -2.7344
 3090SOL     OW20731   3.733   4.169   8.063 -0.2268  0.1345  0.1891
 3090SOL    HW120732   3.687   4.093   8.028 -0.2932  0.8175 -1.2044
 3090SOL    HW220733   3.724   4.241   8.001 -2.3406  2.3016  3.0059
 3091SOL     OW20734   1.063   0.759  17.138  0.4042 -0.2904 -0.0507
 3091SOL    HW120735   1.154   0.790  17.140 -0.5008  2.3380  0.4377
 3091SOL    HW220736   1.079   0.670  17.171 -2.1314 -0.2771  1.2396
 3092SOL     OW20737   0.351   2.240   3.244 -0.7174  0.4379  0.3790
 3092SOL    HW120738   0.303   2.200   3.316  1.3773  0.6053  1.8921
 3092SOL    HW220739   0.307   2.325   3.240 -2.6084 -0.6076 -0.8908
 3093SOL     OW20740   3.467   1.575   8.865 -0.0929 -0.6487 -0.4880
 3093SOL    HW120741   3.375   1.551   8.866  0.5879 -3.2653 -1.5644
 3093SOL    HW220742   3.499   1.489   8.838  0.3805 -0.9987  1.2184
 3094SOL     OW20743   1.653   1.659   8.334 -0.3077  0.5205 -0.4343
 3094SOL    HW120744   1.710   1.680   8.261 -1.3641  2.0293 -0.8289
 3094SOL    HW220745   1.648   1.743   8.380  0.9428  0.5301 -0.3133
 3095SOL     OW20746   4.596   2.071   7.550 -0.0636  0.3367 -0.2498
 3095SOL    HW120747   4.583   2.165   7.559  0.0005  0.2333  0.8887
 3095SOL    HW220748   4.516   2.044   7.506  0.2131  1.7658 -1.6444
 3096SOL     OW20749   4.067   3.008  13.164  0.4582  0.0766 -0.2212
 3096SOL    HW120750   3.976   2.980  13.165  1.1173 -2.0092  0.0452
 3096SOL    HW220751   4.107   2.922  13.152  0.2329 -0.2832  1.6302
 3097SOL     OW20752   1.462   0.979  10.353 -0.2919  0.0501 -1.0756
 3097SOL    HW120753   1.490   0.904  10.301  1.3842  0.0131 -0.1259
 3097SOL    HW220754   1.418   1.034  10.289 -1.5598  0.5193  0.1985
 3098SOL     OW20755   4.264   3.814  14.679 -0.0759  0.2112  0.0217
 3098SOL    HW120756   4.329   3.764  14.629 -0.3763  2.4510 -2.6408
 3098SOL    HW220757   4.186   3.810  14.623  0.9102  0.0013 -1.3416
 3099SOL     OW20758   1.965   2.805  12.935  0.1675  0.2908  0.2580
 3099SOL    HW120759   1.976   2.711  12.948  1.4230  0.1974 -1.5718
 3099SOL    HW220760   1.931   2.824  13.023 -2.1111 -1.4031 -0.2370
 3100SOL     OW20761   1.527   3.377  11.993  0.2316  0.0996 -0.0033
 3100SOL    HW120762   1.603   3.436  11.989 -2.3038  3.4544  1.6517
 3100SOL    HW220763   1.517   3.349  11.902  2.5580  0.6350 -0.4178
 3101SOL     OW20764   0.223   1.453  12.770 -0.3972  0.6488  0.0384
 3101SOL    HW120765   0.198   1.376  12.718  0.7963  0.9242 -0.9268
 3101SOL    HW220766   0.288   1.487  12.709  1.0381 -0.2404  1.0792
 3102SOL     OW20767   2.604   2.049   3.305 -0.1900 -0.4404 -0.7777
 3102SOL    HW120768   2.555   2.061   3.386  1.6761 -1.0539  0.4562
 3102SOL    HW220769   2.691   2.060   3.344 -1.2238 -1.6430  1.9090
 3103SOL     OW20770   2.837   3.457  13.228 -0.3650  0.3573 -0.6548
 3103SOL    HW120771   2.773   3.411  13.283  0.4168 -3.1025 -2.6173
 3103SOL    HW220772   2.918   3.409  13.244 -2.2275 -2.1485  1.4558
 3104SOL     OW20773   0.259   0.437   2.038 -0.0137 -0.4687 -0.3258
 3104SOL    HW120774   0.164   0.432   2.024 -0.0291  1.0137 -0.6981
 3104SOL    HW220775   0.279   0.452   1.946  1.1470 -0.0888 -0.0022
 3105SOL     OW20776   3.494   0.407   5.001  0.4579 -0.5597 -0.2870
 3105SOL    HW120777   3.532   0.471   4.941 -1.1133  0.7541  0.1331
 3105SOL    HW220778   3.504   0.451   5.085  2.2664 -3.8781  1.2441
 3106SOL     OW20779   3.710   0.847   6.909  0.3415 -0.1366  0.1373
 3106SOL    HW120780   3.798   0.882   6.922  0.3687  0.0239 -0.5172
 3106SOL    HW220781   3.657   0.896   6.973  1.8723  0.6934  0.7600
 3107SOL     OW20782   3.383   2.457   7.891 -0.2918  0.6343  0.2105
 3107SOL    HW120783   3.315   2.399   7.857  0.6658  0.7525 -1.8471
 3107SOL    HW220784   3.335   2.489   7.969  0.4214 -2.9675  2.1358
 3108SOL     OW20785   3.015   0.043  12.752  0.6148 -0.1455 -0.2687
 3108SOL    HW120786   3.009   0.068  12.844  1.3755 -2.1476  0.3388
 3108SOL    HW220787   3.094   0.094  12.736  1.6083  0.0138  5.0317
 3109SOL     OW20788   4.002   1.671  12.613 -0.0835 -0.1350 -0.4678
 3109SOL    HW120789   4.047   1.680  12.696  1.6751 -1.1519 -1.3197
 3109SOL    HW220790   3.941   1.745  12.610 -0.4763 -0.4609 -0.6281
 3110SOL     OW20791   0.499   1.159   8.692  0.2741  0.5115 -0.2558
 3110SOL    HW120792   0.594   1.172   8.692  0.2523  0.5884  3.4810
 3110SOL    HW220793   0.472   1.191   8.605 -2.4499 -2.6720 -0.5777
 3111SOL     OW20794   3.199   0.446  15.602 -0.8430 -0.4800 -0.0238
 3111SOL    HW120795   3.169   0.534  15.581  0.5312 -0.0756 -0.3441
 3111SOL    HW220796   3.163   0.432  15.689  0.8852  0.4980  0.8428
 3112SOL     OW20797   0.438   2.460   5.806 -0.0047  0.2332  0.6825
 3112SOL    HW120798   0.352   2.425   5.782  0.9627  0.2319 -2.8137
 3112SOL    HW220799   0.460   2.465   5.713  0.4116  1.9804  0.8690
 3113SOL     OW20800   2.956   0.795  13.349  0.3898  0.0857  0.3610
 3113SOL    HW120801   2.890   0.727  13.364 -0.0778  0.2776 -0.8829
 3113SOL    HW220802   3.035   0.749  13.319 -0.7711 -2.8185  1.7204
 3114SOL     OW20803   1.591   2.107   8.623 -0.0392 -1.0143 -0.2253
 3114SOL    HW120804   1.541   2.130   8.701  0.4649  0.8372 -0.4376
 3114SOL    HW220805   1.578   2.183   8.565  2.5365 -0.1562  0.3283
 3115SOL     OW20806   3.841   0.965  12.699 -0.0175 -0.3675 -0.6397
 3115SOL    HW120807   3.828   0.897  12.633  0.1026 -1.0930  0.0960
 3115SOL    HW220808   3.893   1.033  12.656  1.7419 -1.7552 -0.6955
 3116SOL     OW20809   1.335   4.241  16.252  0.2695  0.1821  0.3196
 3116SOL    HW120810   1.354   4.335  16.250  0.2645  0.1867  0.4863
 3116SOL    HW220811   1.421   4.204  16.269 -1.8391 -4.3160  1.3788
 3117SOL     OW20812   1.140   1.240  10.283 -0.2409 -0.2611 -0.0749
 3117SOL    HW120813   1.142   1.167  10.221 -1.6118 -0.7374  0.4384
 3117SOL    HW220814   1.056   1.214  10.321 -0.4788  0.2421 -0.2525
 3118SOL     OW20815   3.138   2.159   3.304  0.3163 -0.3921  0.1396
 3118SOL    HW120816   3.160   2.108   3.226  1.7461 -0.4151  0.5602
 3118SOL    HW220817   3.226   2.178   3.337  0.4303  1.4282 -1.2232
 3119SOL     OW20818   1.864   1.235   0.501  0.2577  0.4792 -0.5278
 3119SOL    HW120819   1.929   1.305   0.497  0.4538  0.4425  1.8209
 3119SOL    HW220820   1.824   1.254   0.587 -1.3646 -1.2095 -0.8976
 3120SOL     OW20821   1.019   1.004   8.924 -0.3633 -0.2301  0.0221
 3120SOL    HW120822   0.960   0.988   8.851  0.1415 -1.2996 -0.1582
 3120SOL    HW220823   1.104   0.970   8.897 -0.3474 -0.2092  0.0452
 3121SOL     OW20824   4.505   2.672   3.222 -0.2091  0.2715 -0.2407
 3121SOL    HW120825   4.520   2.639   3.311 -0.2768  1.7480  0.3272
 3121SOL    HW220826   4.429   2.620   3.196  0.4014 -1.8698  2.1677
 3122SOL     OW20827   2.681   2.240   7.108 -0.0219 -0.5758  0.0907
 3122SOL    HW120828   2.621   2.255   7.035 -0.4456  0.2693  0.6047
 3122SOL    HW220829   2.620   2.268   7.176 -0.3633 -0.6613 -0.1772
 3123SOL     OW20830   0.125   4.430   3.042  0.1110 -0.0037  0.5907
 3123SOL    HW120831   0.174   4.505   3.075  1.1613 -0.3557 -0.1870
 3123SOL    HW220832   0.050   4.470   2.997  1.1893  1.7965  0.4293
 3124SOL     OW20833   2.026   2.941  11.497  0.0284 -0.0454 -0.4116
 3124SOL    HW120834   1.992   2.890  11.571 -1.7423  0.9107 -0.5695
 3124SOL    HW220835   1.990   2.889  11.425  1.1702 -0.3241 -0.7694
 3125SOL     OW20836   0.243   0.603   2.818  0.1488  0.6141  0.0319
 3125SOL    HW120837   0.232   0.696   2.837 -1.5213  0.0326  1.9633
 3125SOL    HW220838   0.301   0.574   2.888  1.1418 -0.0160 -1.0600
 3126SOL     OW20839   2.905   1.320   9.381 -0.2192  0.0396  0.5062
 3126SOL    HW120840   2.849   1.323   9.303  0.4661 -0.6772 -0.0229
 3126SOL    HW220841   2.841   1.282   9.442 -1.2251  0.9570  0.0193
 3127SOL     OW20842   2.747   2.585  10.390  0.0919  0.6875 -0.3511
 3127SOL    HW120843   2.819   2.622  10.339 -0.5984 -0.3750 -2.0745
 3127SOL    HW220844   2.679   2.650  10.374  0.2039  1.2628  1.4552
 3128SOL     OW20845   0.995   1.014   2.309 -0.0052 -0.0164  0.5415
 3128SOL    HW120846   1.018   1.005   2.217  1.0736 -0.0114  0.8024
 3128SOL    HW220847   0.900   1.003   2.306  0.2317 -2.3490  2.0749
 3129SOL     OW20848   2.215   4.575  16.563  0.7220  0.0864 -0.3176
 3129SOL    HW120849   2.303   4.588  16.599 -0.1899  2.6260  0.9628
 3129SOL    HW220850   2.166   4.560  16.644 -2.5256  1.9314 -1.9392
 3130SOL     OW20851   1.712   2.615  14.735 -0.4235 -0.5044  0.5076
 3130SOL    HW120852   1.668   2.531  14.725 -0.3987 -0.5635  0.8986
 3130SOL    HW220853   1.714   2.637  14.642  3.3377 -1.0576  0.4725
 3131SOL     OW20854   4.056   1.458  10.846  0.3445 -0.1910  0.1347
 3131SOL    HW120855   4.057   1.452  10.942  0.0146  0.0837  0.1546
 3131SOL    HW220856   4.111   1.534  10.832 -0.5447  0.3314 -0.5118
 3132SOL     OW20857   3.427   3.483   6.602 -0.1541  0.7273  0.2678
 3132SOL    HW120858   3.382   3.566   6.589 -1.0719  0.1832 -0.0182
 3132SOL    HW220859   3.381   3.425   6.542  0.4094  1.4526 -0.8575
 3133SOL     OW20860   2.290   3.589   3.265  0.7178  0.2461 -0.2900
 3133SOL    HW120861   2.282   3.680   3.296  2.1046  0.8194 -1.6319
 3133SOL    HW220862   2.204   3.568   3.229  1.7912 -2.7040 -1.0923
 3134SOL     OW20863   0.767   2.577   0.470  0.1054  0.0336 -0.3030
 3134SOL    HW120864   0.733   2.577   0.380  0.4595  0.8620 -0.4379
 3134SOL    HW220865   0.814   2.659   0.480  0.1425 -0.1202  0.8006
 3135SOL     OW20866   3.895   1.898   2.277 -1.1082  0.7198 -0.2154
 3135SOL    HW120867   3.917   1.831   2.213 -0.0273  0.6325  0.2438
 3135SOL    HW220868   3.841   1.853   2.342 -0.6407  0.8155  0.2461
 3136SOL     OW20869   3.999   4.454   8.340  0.4571 -0.1338 -0.5863
 3136SOL    HW120870   4.009   4.380   8.280  1.3199 -1.9868  1.8374
 3136SOL    HW220871   3.917   4.493   8.312  0.4324  0.0467 -0.2592
 3137SOL     OW20872   2.664   1.388   0.705  0.0291 -0.5353 -0.0597
 3137SOL    HW120873   2.731   1.325   0.732 -0.1013 -1.2436 -1.3938
 3137SOL    HW220874   2.712   1.469   0.719 -0.7904 -0.3171  1.5943
 3138SOL     OW20875   3.230   4.275   8.606 -0.4362 -0.1086  0.1929
 3138SOL    HW120876   3.277   4.295   8.687  1.5042 -3.9336  0.0185
 3138SOL    HW220877   3.234   4.180   8.598 -1.9645 -0.3384  2.3269
 3139SOL     OW20878   0.276   0.686  14.590  0.6415  0.0600  0.2626
 3139SOL    HW120879   0.352   0.692  14.649  1.2393  1.4211 -0.6519
 3139SOL    HW220880   0.322   0.637  14.523  0.7904 -1.4990  1.4934
 3140SOL     OW20881   1.131   4.212  15.365 -0.4259 -0.0357  0.6976
 3140SOL    HW120882   1.154   4.255  15.448  0.9032  0.6648 -0.0422
 3140SOL    HW220883   1.074   4.148  15.408 -1.5917  1.0505  0.7873
 3141SOL     OW20884   4.207   2.521   9.251 -0.0805  0.1033 -0.1287
 3141SOL    HW120885   4.282   2.469   9.222 -1.0704 -1.1309 -0.4528
 3141SOL    HW220886   4.245   2.609   9.256  0.6539 -0.1129 -2.0669
 3142SOL     OW20887   2.185   2.613   5.996  0.2748  0.0989 -0.1481
 3142SOL    HW120888   2.272   2.585   6.023 -0.2834  0.0405  1.5706
 3142SOL    HW220889   2.132   2.574   6.066 -1.0253  0.0239 -1.1649
 3143SOL     OW20890   1.500   3.549   7.587  0.3690  0.1355  0.0899
 3143SOL    HW120891   1.501   3.633   7.632  0.5191  0.5562 -0.7069
 3143SOL    HW220892   1.588   3.536   7.552  0.5322 -2.2388  1.4008
 3144SOL     OW20893   0.450   0.366   6.319  0.0597 -0.0435 -0.3701
 3144SOL    HW120894   0.537   0.341   6.348 -0.5679 -0.3481  1.2337
 3144SOL    HW220895   0.412   0.400   6.400 -0.9537 -1.1763 -0.3777
 3145SOL     OW20896   2.029   3.758   0.505  0.2569 -0.1855  0.3836
 3145SOL    HW120897   1.977   3.838   0.494 -0.3750 -0.5704  0.5986
 3145SOL    HW220898   2.077   3.784   0.584 -1.9624  2.2304  0.9557
 3146SOL     OW20899   2.065   0.499   5.994 -0.0540 -0.2810 -0.0858
 3146SOL    HW120900   2.004   0.441   5.949  0.1194  0.3800 -1.1672
 3146SOL    HW220901   2.145   0.466   5.952 -1.3503 -1.4935 -1.5997
 3147SOL     OW20902   1.754   3.167   7.242 -0.1278  0.0338 -0.4336
 3147SOL    HW120903   1.759   3.145   7.335 -0.4414  0.2177 -0.3740
 3147SOL    HW220904   1.707   3.250   7.240 -1.2223 -0.5797  0.0032
 3148SOL     OW20905   1.795   3.431   8.258  0.5763  0.0111 -0.3966
 3148SOL    HW120906   1.800   3.343   8.295  0.5226  0.3366  0.4062
 3148SOL    HW220907   1.765   3.412   8.170 -1.7173 -0.6385  0.5228
 3149SOL     OW20908   2.746   1.363   7.593  0.8535  0.1621 -0.3402
 3149SOL    HW120909   2.672   1.375   7.534 -2.5732 -1.4208  3.6499
 3149SOL    HW220910   2.819   1.409   7.551 -0.0509  0.1361 -1.9403
 3150SOL     OW20911   2.977   2.035  11.438  0.4966  0.5551 -0.0014
 3150SOL    HW120912   2.910   2.031  11.505 -1.8655  1.3908 -2.3228
 3150SOL    HW220913   3.039   2.080  11.495  1.7715 -0.6570 -0.3957
 3151SOL     OW20914   3.136   3.967   4.908  0.3636  0.1727  0.3674
 3151SOL    HW120915   3.123   3.879   4.871  0.4482  0.1696  0.3443
 3151SOL    HW220916   3.218   3.957   4.956  0.4445  0.0232  0.1985
 3152SOL     OW20917   1.998   0.203   6.196  0.0169  0.3961 -0.7083
 3152SOL    HW120918   2.084   0.240   6.215  0.7256 -0.8136 -1.5145
 3152SOL    HW220919   2.015   0.142   6.124  0.7381 -1.2349  0.8386
 3153SOL     OW20920   0.633   1.876   7.168 -0.0681 -0.2065  0.0629
 3153SOL    HW120921   0.719   1.870   7.209 -0.6424 -1.3534  1.0985
 3153SOL    HW220922   0.626   1.785   7.139  2.1099  0.5625 -2.8830
 3154SOL     OW20923   2.895   1.399   8.888  0.1340  0.2313 -0.3475
 3154SOL    HW120924   2.974   1.348   8.908  0.7643  1.4435  0.2712
 3154SOL    HW220925   2.831   1.394   8.958  0.6301  0.9147  0.1553
 3155SOL     OW20926   0.301   3.206   0.509 -0.1425  0.0851  0.4401
 3155SOL    HW120927   0.283   3.289   0.553  1.2355  0.6558 -0.0954
 3155SOL    HW220928   0.396   3.195   0.515 -0.1765  0.0416  0.9304
 3156SOL     OW20929   1.074   1.236   5.466  0.1928  0.0941 -0.0164
 3156SOL    HW120930   1.115   1.240   5.379 -0.0675  1.1803 -0.0914
 3156SOL    HW220931   1.001   1.177   5.451 -0.4876  0.8854  0.1949
 3157SOL     OW20932   1.451   4.377   6.259 -0.0201  0.1771  0.2413
 3157SOL    HW120933   1.372   4.334   6.228 -1.4616  1.6988  1.7532
 3157SOL    HW220934   1.431   4.392   6.352 -2.3532  1.6051 -0.5039
 3158SOL     OW20935   2.110   0.362  14.476 -0.1792  0.1010 -0.1441
 3158SOL    HW120936   2.055   0.347  14.398  0.6815 -0.1060 -0.7119
 3158SOL    HW220937   2.063   0.414  14.540  0.1050 -2.1327  1.8967
 3159SOL     OW20938   0.654   1.739   8.758 -0.8254 -0.2038  0.8782
 3159SOL    HW120939   0.571   1.715   8.798 -1.2871  1.3571  0.8406
 3159SOL    HW220940   0.711   1.749   8.834 -1.5636 -0.0520  1.4118
 3160SOL     OW20941   2.972   3.793   4.660  0.4445  0.1219 -0.1664
 3160SOL    HW120942   2.889   3.760   4.694 -0.4026  3.3003  0.8530
 3160SOL    HW220943   2.945   3.800   4.569 -0.7341 -1.4885  0.0639
 3161SOL     OW20944   2.371   0.320   3.937 -0.1050  0.0835  0.0693
 3161SOL    HW120945   2.464   0.300   3.925 -1.0436 -2.7614 -2.4918
 3161SOL    HW220946   2.345   0.246   3.992 -0.5064  0.2367  0.0884
 3162SOL     OW20947   4.107   1.018  11.478 -0.4149  0.5134  0.2429
 3162SOL    HW120948   4.180   0.988  11.532  1.0001  0.9785 -1.4189
 3162SOL    HW220949   4.123   1.112  11.479  0.1452  0.4142  0.8418
 3163SOL     OW20950   0.421   4.255   6.219 -0.2868 -0.4025 -0.2392
 3163SOL    HW120951   0.443   4.332   6.272 -2.0440  0.7151 -1.1671
 3163SOL    HW220952   0.437   4.187   6.285 -2.4814  0.0630  0.7642
 3164SOL     OW20953   0.103   1.052  12.476 -0.4231 -0.5574  0.1516
 3164SOL    HW120954   0.095   0.963  12.511 -0.6077 -0.8892 -0.7370
 3164SOL    HW220955   0.099   1.043  12.381  0.9367 -2.0785  0.2433
 3165SOL     OW20956   2.654   2.226  10.531 -0.1283  0.7244 -0.2376
 3165SOL    HW120957   2.748   2.205  10.527 -0.2877 -0.0390 -0.0202
 3165SOL    HW220958   2.656   2.259  10.441 -2.7718  1.4509 -0.0261
 3166SOL     OW20959   1.461   0.441   6.619 -0.7230  0.2598  0.9127
 3166SOL    HW120960   1.491   0.528   6.645  1.0486 -0.8650  2.5591
 3166SOL    HW220961   1.438   0.401   6.703  0.8983 -0.0100  1.2284
 3167SOL     OW20962   3.407   4.402   8.770  0.2477 -0.0586 -0.4790
 3167SOL    HW120963   3.373   4.373   8.855 -0.4956  0.1462 -0.7075
 3167SOL    HW220964   3.492   4.358   8.770  0.0257 -0.4909 -1.1432
 3168SOL     OW20965   2.060   2.693   0.710 -0.1314  0.1542  0.0189
 3168SOL    HW120966   2.041   2.710   0.618 -1.6686  0.9049  0.4856
 3168SOL    HW220967   2.150   2.725   0.706 -0.7844  2.2491  2.5260
 3169SOL     OW20968   3.921   1.563   8.904 -0.2341 -0.3420 -0.6741
 3169SOL    HW120969   3.883   1.538   8.988 -1.5439  1.4096 -0.7311
 3169SOL    HW220970   3.987   1.497   8.887  0.9881  0.8641 -0.6276
 3170SOL     OW20971   1.125   1.072   3.355 -0.3174 -0.0053 -0.4062
 3170SOL    HW120972   1.041   1.029   3.337 -1.1907  1.2768  0.6232
 3170SOL    HW220973   1.125   1.072   3.451 -0.7407 -0.5906 -0.4003
 3171SOL     OW20974   1.078   1.874   2.140 -0.1193  0.1742 -0.3521
 3171SOL    HW120975   1.059   1.875   2.047  2.0294  0.1448 -0.8019
 3171SOL    HW220976   1.114   1.786   2.154 -0.8856 -0.0266  0.3361
 3172SOL     OW20977   4.559   0.302   0.775 -0.2252  0.7236  0.5624
 3172SOL    HW120978   4.502   0.376   0.797  2.4094  2.4589  1.5796
 3172SOL    HW220979   4.591   0.330   0.690 -1.4981 -0.2807 -0.2327
 3173SOL     OW20980   4.381   2.623  17.452  0.0172 -0.0720 -0.0190
 3173SOL    HW120981   4.309   2.676  17.485  0.1055  1.2148 -1.9225
 3173SOL    HW220982   4.442   2.696  17.440  0.8617 -0.3767  2.2850
 3174SOL     OW20983   1.122   0.612   2.229 -0.1865 -0.1821 -0.5478
 3174SOL    HW120984   1.119   0.574   2.142 -1.1231 -1.0348 -0.1349
 3174SOL    HW220985   1.197   0.668   2.209 -1.7081  2.5526  1.2506
 3175SOL     OW20986   3.744   0.571  10.048  0.0332 -0.1028  0.4687
 3175SOL    HW120987   3.677   0.564   9.980 -0.2311  0.2441  0.6932
 3175SOL    HW220988   3.764   0.478  10.054 -1.7934 -0.4709  0.5915
 3176SOL     OW20989   4.699   2.275   3.689  0.2555  0.4510 -0.0376
 3176SOL    HW120990   0.013   2.346   3.638  1.0074  0.1718  0.1248
 3176SOL    HW220991   4.610   2.282   3.655 -0.0366  0.0019  0.6390
 3177SOL     OW20992   3.648   3.242   6.082 -0.4469 -0.1394 -0.3588
 3177SOL    HW120993   3.585   3.188   6.129 -0.6261 -0.0259 -0.4687
 3177SOL    HW220994   3.584   3.272   6.018 -2.4366 -3.6229 -0.0042
 3178SOL     OW20995   3.967   2.587   3.591 -0.6846 -0.4315 -0.3121
 3178SOL    HW120996   4.036   2.607   3.528 -2.1152  1.8650 -1.1611
 3178SOL    HW220997   4.024   2.588   3.668  0.3018 -1.0343 -1.0409
 3179SOL     OW20998   1.216   0.870   5.010 -0.6886 -0.1443 -0.4346
 3179SOL    HW120999   1.311   0.865   5.020 -0.8188 -0.3660  0.6592
 3179SOL    HW221000   1.186   0.783   5.036  0.1685 -0.2930  0.0382
 3180SOL     OW21001   2.968   2.669  15.750 -0.1203  0.0812  0.1174
 3180SOL    HW121002   2.907   2.695  15.681 -0.0353 -0.0795 -0.0182
 3180SOL    HW221003   2.947   2.737  15.814  1.9244 -1.1833  2.1145
 3181SOL     OW21004   0.393   2.582   7.684  0.1795  0.0688  0.2941
 3181SOL    HW121005   0.441   2.512   7.728 -0.4478 -0.8053 -0.3927
 3181SOL    HW221006   0.467   2.640   7.666  0.3181 -0.1809  0.0554
 3182SOL     OW21007   3.995   1.414   5.158  0.2111 -0.5212 -0.2913
 3182SOL    HW121008   4.020   1.375   5.242 -0.6390 -0.4313 -0.0012
 3182SOL    HW221009   3.904   1.386   5.149 -1.3859  4.0992  1.6114
 3183SOL     OW21010   4.007   1.199   9.477  0.0875 -0.6615  0.0691
 3183SOL    HW121011   3.993   1.195   9.572  0.1073 -1.1978  0.0504
 3183SOL    HW221012   4.034   1.290   9.470 -0.3699 -0.7372 -2.4349
 3184SOL     OW21013   0.094   2.689   1.106 -0.4997  0.2249 -0.6499
 3184SOL    HW121014   0.004   2.660   1.095 -0.3908 -0.7442  0.9463
 3184SOL    HW221015   0.138   2.626   1.048 -0.9694 -0.5999 -0.1191
 3185SOL     OW21016   2.808   1.040  17.628  0.0420  0.5855  0.3146
 3185SOL    HW121017   2.819   1.113  17.567  0.4919  0.8574  0.7272
 3185SOL    HW221018   2.826   1.094   0.007 -1.3324  0.5150  0.6972
 3186SOL     OW21019   1.066   1.903   4.750  0.3928 -0.0296  0.1857
 3186SOL    HW121020   1.116   1.829   4.784  0.5492  0.2696  0.6197
 3186SOL    HW221021   1.130   1.966   4.718 -1.2721  1.0053 -1.0997
 3187SOL     OW21022   2.719   0.989  14.541 -0.1574 -0.4635 -0.2626
 3187SOL    HW121023   2.814   0.981  14.554 -0.0445 -0.7531 -1.2589
 3187SOL    HW221024   2.702   0.901  14.575  1.9795 -1.3258 -1.4125
 3188SOL     OW21025   1.509   0.908   7.055  0.0725  0.0463 -0.4878
 3188SOL    HW121026   1.477   0.977   7.113  1.6215 -1.6913  2.4030
 3188SOL    HW221027   1.572   0.869   7.115 -0.5938  0.4322  0.4547
 3189SOL     OW21028   2.741   2.563  11.994  1.0598  0.2100  0.5432
 3189SOL    HW121029   2.716   2.594  11.907  0.4066 -1.1814  0.2383
 3189SOL    HW221030   2.688   2.626  12.043 -0.4760 -1.5297  1.1304
 3190SOL     OW21031   1.743   2.777   6.681 -0.0061 -0.0450  0.9909
 3190SOL    HW121032   1.803   2.843   6.717 -0.5864  0.3742  1.1806
 3190SOL    HW221033   1.793   2.695   6.678  1.0023  0.6100  0.0877
 3191SOL     OW21034   4.708   3.642   6.610  0.0486  0.4311 -0.3128
 3191SOL    HW121035   0.017   3.615   6.524 -1.2546  0.7635 -0.9054
 3191SOL    HW221036   4.617   3.666   6.593 -0.4244 -1.3998 -0.2785
 3192SOL     OW21037   0.163   3.328  11.898  0.0402  0.1555 -0.4151
 3192SOL    HW121038   0.234   3.352  11.838 -1.3262  0.5459 -1.8886
 3192SOL    HW221039   0.090   3.299  11.843  0.3841  0.3632 -0.9843
 3193SOL     OW21040   0.917   2.768   8.384  0.8046 -0.1117  0.4311
 3193SOL    HW121041   0.852   2.798   8.447  0.6045  3.0322 -1.2800
 3193SOL    HW221042   0.862   2.780   8.307 -1.8985 -2.4532  2.0269
 3194SOL     OW21043   4.202   4.719   2.922 -0.2278 -0.4873 -0.0207
 3194SOL    HW121044   4.268   0.063   2.932  1.2586 -1.4274 -3.3837
 3194SOL    HW221045   4.128   0.033   2.969 -1.2107 -0.1831 -1.8317
 3195SOL     OW21046   0.317   1.283  17.067  0.4254 -0.4465  0.0729
 3195SOL    HW121047   0.320   1.268  17.161  2.1704  0.6217  0.1853
 3195SOL    HW221048   0.396   1.337  17.060  1.2524 -1.5545  0.8804
 3196SOL     OW21049   0.513   4.145   3.670 -0.0159  0.3870  0.1406
 3196SOL    HW121050   0.520   4.050   3.679 -0.0441  0.3893  0.1876
 3196SOL    HW221051   0.585   4.157   3.608 -0.1289 -0.5301 -0.1574
 3197SOL     OW21052   0.075   0.653  15.105  0.8234 -0.3476 -0.2670
 3197SOL    HW121053   0.123   0.647  15.022 -0.0889 -1.6316 -0.6940
 3197SOL    HW221054   0.143   0.616  15.161  2.2607  1.1866 -1.0072
 3198SOL     OW21055   3.319   3.008   6.976  1.0900 -0.2523 -0.4510
 3198SOL    HW121056   3.242   2.977   7.024  1.3336  1.7646  1.2346
 3198SOL    HW221057   3.302   3.011   6.881 -0.2886 -1.2367 -0.2356
 3199SOL     OW21058   1.433   1.277   7.357  0.6606 -0.1117  1.0444
 3199SOL    HW121059   1.492   1.347   7.385  0.7907 -0.1529  0.8756
 3199SOL    HW221060   1.455   1.207   7.418 -1.5496 -0.0822  1.8615
 3200SOL     OW21061   1.140   3.501   4.656  0.5817  0.6602  0.5475
 3200SOL    HW121062   1.133   3.416   4.699  0.5521  0.4214  0.0710
 3200SOL    HW221063   1.132   3.561   4.731 -0.0381  1.3713 -0.0905
 3201SOL     OW21064   3.645   3.290  12.294  0.5102 -0.0771 -0.1274
 3201SOL    HW121065   3.570   3.268  12.350 -0.0938  1.9162 -0.1536
 3201SOL    HW221066   3.634   3.384  12.281 -2.1378 -0.3415  0.0969
 3202SOL     OW21067   4.451   2.365   9.219  0.2117  0.0992 -0.4448
 3202SOL    HW121068   4.450   2.284   9.270 -0.9436  0.2880 -0.1566
 3202SOL    HW221069   4.495   2.420   9.283 -1.7884  0.0952  0.9209
 3203SOL     OW21070   1.511   3.004  13.440  0.2763  0.3831  0.1375
 3203SOL    HW121071   1.424   2.973  13.462  0.8961 -0.4638  1.4175
 3203SOL    HW221072   1.511   2.993  13.345 -1.2150  0.0972  0.1793
 3204SOL     OW21073   2.186   1.239   7.291  0.2786 -0.2094 -0.0147
 3204SOL    HW121074   2.160   1.153   7.258  0.8527 -0.4673  0.2020
 3204SOL    HW221075   2.281   1.242   7.296  0.2253 -1.0420  1.4817
 3205SOL     OW21076   3.627   2.503   5.627 -0.2286  0.4997 -0.4720
 3205SOL    HW121077   3.697   2.509   5.562  0.6354 -0.7405  0.3517
 3205SOL    HW221078   3.626   2.592   5.662 -2.0029  0.7921 -1.2224
 3206SOL     OW21079   1.325   1.793   4.390  0.2251  0.0255 -0.1718
 3206SOL    HW121080   1.415   1.817   4.411  0.8171 -3.0371  0.7126
 3206SOL    HW221081   1.285   1.774   4.475  0.0565  1.5371  0.0984
 3207SOL     OW21082   2.331   0.832   6.317  0.4244 -0.1392  1.1845
 3207SOL    HW121083   2.405   0.797   6.266 -0.5340  1.4176 -1.2628
 3207SOL    HW221084   2.351   0.797   6.403 -0.6015  0.6755  1.7472
 3208SOL     OW21085   4.514   3.620   8.006 -0.6052 -0.1473  0.7564
 3208SOL    HW121086   4.540   3.680   7.937 -0.1482 -0.4731  0.6453
 3208SOL    HW221087   4.588   3.619   8.068 -0.1410  0.9712  0.2192
 3209SOL     OW21088   1.005   0.457   4.416 -0.3893  0.2580  0.0834
 3209SOL    HW121089   1.047   0.480   4.499  1.5573 -1.4511 -0.4055
 3209SOL    HW221090   0.934   0.520   4.406 -1.1077 -0.9711 -2.6386
 3210SOL     OW21091   2.610   2.343   3.902  0.0212 -0.0774  0.3459
 3210SOL    HW121092   2.533   2.392   3.931 -0.4868 -2.1977  2.5727
 3210SOL    HW221093   2.573   2.256   3.918 -1.1383 -0.0136 -2.1180
 3211SOL     OW21094   2.607   1.514   3.919  0.5332  0.0080  0.3244
 3211SOL    HW121095   2.615   1.601   3.956  0.7088 -0.4521  1.3724
 3211SOL    HW221096   2.584   1.526   3.827  0.6719 -1.3998  0.0964
 3212SOL     OW21097   1.516   2.288   3.304 -0.2066 -0.2000 -0.4709
 3212SOL    HW121098   1.439   2.330   3.342 -2.6538 -0.6545 -4.9340
 3212SOL    HW221099   1.524   2.332   3.219 -2.2304  2.3474  0.6699
 3213SOL     OW21100   1.544   1.042   9.382 -0.2527 -0.1843 -0.0319
 3213SOL    HW121101   1.548   1.065   9.475 -0.8045 -1.8588  0.4147
 3213SOL    HW221102   1.454   1.072   9.370  0.1350  0.5409 -1.0123
 3214SOL     OW21103   0.881   1.456   3.382 -0.1475 -0.4291  0.9003
 3214SOL    HW121104   0.926   1.539   3.400  1.7080 -0.9063 -1.5384
 3214SOL    HW221105   0.827   1.472   3.305  0.3743 -1.5515  0.3054
 3215SOL     OW21106   1.488   2.810   6.084  0.3713  0.5365 -0.5048
 3215SOL    HW121107   1.548   2.884   6.094  1.1870 -0.0738 -0.8325
 3215SOL    HW221108   1.475   2.807   5.990  1.1565  0.5059 -0.6168
 3216SOL     OW21109   0.392   3.958   2.774  0.0552 -0.2963  0.4719
 3216SOL    HW121110   0.435   4.043   2.785 -0.7352  0.1988 -0.3529
 3216SOL    HW221111   0.474   3.910   2.770  0.7043  0.7084  1.4953
 3217SOL     OW21112   3.647   2.723  16.593 -0.2977  0.0377  0.6113
 3217SOL    HW121113   3.701   2.648  16.616  1.9923  1.1146 -1.1750
 3217SOL    HW221114   3.635   2.705  16.500 -0.4521 -0.8139  0.7978
 3218SOL     OW21115   3.865   3.219   2.101 -0.4942 -0.0398  0.0139
 3218SOL    HW121116   3.869   3.133   2.144 -0.0225  0.5031  1.0536
 3218SOL    HW221117   3.918   3.203   2.022 -0.8533  1.5010 -0.5412
 3219SOL     OW21118   2.322   1.777   3.278 -0.4025 -0.1698  0.2974
 3219SOL    HW121119   2.406   1.754   3.317  0.4646  0.6644 -1.0836
 3219SOL    HW221120   2.326   1.868   3.308  0.5383 -0.0034 -0.3322
 3220SOL     OW21121   2.058   3.517   7.368 -0.2347 -0.2348  0.6294
 3220SOL    HW121122   2.127   3.575   7.400  1.8164 -1.9256 -0.6969
 3220SOL    HW221123   2.069   3.439   7.422 -0.1777 -0.0003  0.9580
 3221SOL     OW21124   3.349   2.306   6.008  0.5666  0.1164  0.3445
 3221SOL    HW121125   3.342   2.384   5.953  1.9798 -0.8528 -1.1778
 3221SOL    HW221126   3.422   2.260   5.968 -1.1857 -1.6361 -0.8254
 3222SOL     OW21127   2.057   3.472   0.581 -0.1837  0.3740 -0.2546
 3222SOL    HW121128   2.023   3.555   0.548 -0.6884  0.0571 -0.5454
 3222SOL    HW221129   2.111   3.437   0.510 -0.9848 -1.6548  0.1288
 3223SOL     OW21130   2.892   2.308   8.301 -0.0411 -0.2223 -0.2031
 3223SOL    HW121131   2.925   2.329   8.214 -0.1698 -1.4623 -0.5416
 3223SOL    HW221132   2.964   2.265   8.347  0.0413  1.3165  1.1156
 3224SOL     OW21133   3.494   4.613   2.939  0.3385 -0.0742 -0.4477
 3224SOL    HW121134   3.405   4.632   2.969  0.4643 -1.1691  0.5947
 3224SOL    HW221135   3.504   4.692   2.886 -1.2996  0.5091  0.1270
 3225SOL     OW21136   1.732   1.577   9.577 -0.9038  0.0121 -0.1217
 3225SOL    HW121137   1.691   1.661   9.556 -2.2598 -0.2398  1.5811
 3225SOL    HW221138   1.668   1.518   9.538 -0.5027  0.2377 -1.1259
 3226SOL     OW21139   3.690   4.581  11.598  0.0082 -0.1928  0.0280
 3226SOL    HW121140   3.731   4.503  11.561 -0.0764 -0.3941  0.3721
 3226SOL    HW221141   3.759   4.608  11.658 -1.2543  2.6796  0.2002
 3227SOL     OW21142   4.426   4.645   4.796  0.0120  0.0453 -0.3658
 3227SOL    HW121143   4.333   4.623   4.794  0.1277 -0.5831  1.0440
 3227SOL    HW221144   4.453   4.648   4.704  0.5989 -0.1729 -0.2023
 3228SOL     OW21145   3.190   2.943   7.371  0.5663  0.2804 -0.2267
 3228SOL    HW121146   3.207   2.976   7.460  1.5697  0.0161 -0.3241
 3228SOL    HW221147   3.148   2.857   7.378  1.0798  0.1603  1.4749
 3229SOL     OW21148   0.869   3.815  15.123 -0.4778  0.4856  0.2731
 3229SOL    HW121149   0.881   3.844  15.213 -0.3502  0.4479  0.2691
 3229SOL    HW221150   0.776   3.823  15.106 -0.3460  0.8910 -0.2410
 3230SOL     OW21151   0.255   3.538   4.616  0.3400 -0.3897  0.0514
 3230SOL    HW121152   0.187   3.507   4.676  0.7906 -1.1617  0.1642
 3230SOL    HW221153   0.332   3.506   4.662 -0.2657 -2.1422 -0.1568
 3231SOL     OW21154   2.856   2.756   8.504 -0.0094  0.3766  0.4287
 3231SOL    HW121155   2.881   2.845   8.531  0.8923  0.9893 -2.3892
 3231SOL    HW221156   2.931   2.698   8.507 -2.2962 -2.6712 -0.9875
 3232SOL     OW21157   1.797   2.317  13.239 -0.8503  0.0663  0.1368
 3232SOL    HW121158   1.857   2.257  13.285 -0.5438  0.9987  0.9492
 3232SOL    HW221159   1.722   2.317  13.300 -0.5069  0.0829  0.5625
 3233SOL     OW21160   3.518   3.697  13.197  0.7337  0.0736  0.2646
 3233SOL    HW121161   3.527   3.774  13.253 -1.2825  0.1671  0.4559
 3233SOL    HW221162   3.554   3.733  13.117 -2.2909 -0.0729 -1.1567
 3234SOL     OW21163   1.966   0.397   9.422 -0.1851  0.2684 -0.4359
 3234SOL    HW121164   1.973   0.372   9.514 -0.2060  0.7904 -0.2893
 3234SOL    HW221165   2.009   0.482   9.411  0.9203 -0.0774  1.2154
 3235SOL     OW21166   4.134   0.881   1.279 -0.1535 -0.4540 -0.0169
 3235SOL    HW121167   4.141   0.951   1.344 -4.5177  0.2938 -0.3509
 3235SOL    HW221168   4.227   0.862   1.265  0.6140  1.1488  2.9099
 3236SOL     OW21169   1.129   0.518   8.228  0.0966 -0.0855 -1.0075
 3236SOL    HW121170   1.091   0.606   8.237  0.5758 -0.0547  0.6201
 3236SOL    HW221171   1.053   0.465   8.205 -0.8329  0.0704  1.7215
 3237SOL     OW21172   1.737   4.476   8.716  0.0208 -0.4735 -0.0505
 3237SOL    HW121173   1.777   4.518   8.640 -0.8014  1.2434  0.4744
 3237SOL    HW221174   1.820   4.468   8.764  0.2311  1.7754 -0.0482
 3238SOL     OW21175   1.479   2.175   7.631  0.5507 -0.5837  0.5792
 3238SOL    HW121176   1.482   2.165   7.726  2.1700 -0.6341  0.5155
 3238SOL    HW221177   1.482   2.270   7.624  0.5851 -0.5829  0.6050
 3239SOL     OW21178   2.911   0.394  12.202 -0.0992  0.0971  0.3709
 3239SOL    HW121179   2.829   0.410  12.250  1.2547  2.6808  1.8353
 3239SOL    HW221180   2.885   0.412  12.112  1.0406  0.7272  0.1685
 3240SOL     OW21181   2.116   2.995  12.568  0.1346  0.0993  0.1760
 3240SOL    HW121182   2.085   3.070  12.517  1.4172  0.3883 -0.1798
 3240SOL    HW221183   2.031   2.955  12.588  2.2825 -5.2196 -1.2091
 3241SOL     OW21184   0.683   0.740  15.760  0.0458  0.9701 -0.6860
 3241SOL    HW121185   0.700   0.833  15.775  0.3181  1.0387 -1.4356
 3241SOL    HW221186   0.593   0.726  15.786 -0.0883  0.3746 -1.4668
 3242SOL     OW21187   3.139   1.820   6.372  0.0124  0.8295  0.2755
 3242SOL    HW121188   3.218   1.766   6.386  0.6212  1.9695  1.2248
 3242SOL    HW221189   3.075   1.761   6.412  1.0889  0.9466  2.1928
 3243SOL     OW21190   0.653   4.533   8.516  0.3281 -0.2560  0.2100
 3243SOL    HW121191   0.668   4.440   8.496  1.1245 -1.0875  4.7505
 3243SOL    HW221192   0.708   4.578   8.452 -0.0325 -0.5239 -0.2969
 3244SOL     OW21193   2.317   4.299   6.569 -0.3776  0.2492  0.1404
 3244SOL    HW121194   2.266   4.256   6.499 -0.0466  2.0870 -1.2226
 3244SOL    HW221195   2.375   4.229   6.600 -1.7583 -1.1751 -0.4575
 3245SOL     OW21196   3.084   0.265   6.243  0.2220  0.7603  0.0187
 3245SOL    HW121197   3.167   0.253   6.289  0.2183  1.3412  0.1728
 3245SOL    HW221198   3.033   0.294   6.318  2.5022  0.3170  1.7459
 3246SOL     OW21199   2.258   3.552  11.076  0.1540  0.1719 -1.1646
 3246SOL    HW121200   2.288   3.615  11.011 -1.1736  1.2397 -0.7594
 3246SOL    HW221201   2.186   3.599  11.118  0.4672  0.9522 -1.5123
 3247SOL     OW21202   0.347   3.276   7.916  0.0197 -0.1261  0.0017
 3247SOL    HW121203   0.434   3.313   7.903  0.0252 -0.4746 -0.9486
 3247SOL    HW221204   0.382   3.187   7.905  1.3426  0.1829  1.7724
 3248SOL     OW21205   2.124   0.683   2.439  0.0324 -0.9981 -0.1262
 3248SOL    HW121206   2.054   0.620   2.456  1.0499 -1.6960  1.4702
 3248SOL    HW221207   2.095   0.747   2.504 -2.5241 -2.3022  0.0499
 3249SOL     OW21208   1.760   3.970  15.142 -0.3268 -0.1592  0.1887
 3249SOL    HW121209   1.755   4.006  15.053  2.2364  0.8372  0.4256
 3249SOL    HW221210   1.788   4.050  15.186 -3.2495  0.1952  1.3756
 3250SOL     OW21211   4.616   3.524  13.761  0.0957  0.4511  0.0152
 3250SOL    HW121212   4.679   3.499  13.693 -0.0492 -1.0073  0.4194
 3250SOL    HW221213   4.543   3.556  13.709  0.6865  0.0390 -1.0736
 3251SOL     OW21214   4.055   4.458   8.788 -0.3357 -0.0776 -0.4344
 3251SOL    HW121215   4.143   4.473   8.752  0.1880  0.0048  0.8535
 3251SOL    HW221216   4.031   4.379   8.741  1.5941 -0.0743 -1.4448
 3252SOL     OW21217   1.367   3.341   2.071 -0.0762 -0.2282 -0.2882
 3252SOL    HW121218   1.379   3.260   2.022 -0.5671 -1.0815  1.0106
 3252SOL    HW221219   1.447   3.392   2.065 -1.2523  1.4848 -1.3454
 3253SOL     OW21220   4.395   3.671   3.776 -0.2279 -0.0021 -0.2657
 3253SOL    HW121221   4.372   3.705   3.689  1.3175  1.4018 -0.1285
 3253SOL    HW221222   4.484   3.637   3.771 -0.1146  0.6076 -2.2862
 3254SOL     OW21223   3.193   3.180  14.613  0.6415 -0.0990 -0.3377
 3254SOL    HW121224   3.124   3.246  14.609 -0.6373 -1.2866  1.8658
 3254SOL    HW221225   3.236   3.208  14.533 -2.0172 -0.7813 -2.0346
 3255SOL     OW21226   2.213   3.280  14.170 -0.3586 -0.7188  0.5402
 3255SOL    HW121227   2.271   3.353  14.189  1.2898 -2.1429  0.9263
 3255SOL    HW221228   2.152   3.284  14.244 -1.1066 -1.9817 -0.0079
 3256SOL     OW21229   4.243   2.761   2.947  0.2468 -0.0809  0.6061
 3256SOL    HW121230   4.319   2.731   2.897 -0.1540  0.7636 -0.5314
 3256SOL    HW221231   4.194   2.808   2.879  0.2466 -0.5898  0.2573
 3257SOL     OW21232   2.668   4.050  11.460  0.1164  0.2407  0.1172
 3257SOL    HW121233   2.678   4.123  11.521 -2.4665  0.0182  0.7976
 3257SOL    HW221234   2.757   4.039  11.425 -0.9753 -0.8079 -2.3257
 3258SOL     OW21235   2.482   1.569   5.247 -0.4677  0.3255 -0.3938
 3258SOL    HW121236   2.496   1.621   5.325 -0.7785 -0.7902  0.4050
 3258SOL    HW221237   2.387   1.555   5.246 -0.3934 -0.1000 -2.9779
 3259SOL     OW21238   3.041   3.527   3.065 -0.0575  0.7549  0.1043
 3259SOL    HW121239   2.991   3.596   3.020 -1.4011 -0.9329 -0.9833
 3259SOL    HW221240   3.131   3.561   3.060 -0.7189  2.2714 -1.5946
 3260SOL     OW21241   0.208   1.343  15.460 -0.0974  0.7284 -0.0531
 3260SOL    HW121242   0.175   1.328  15.371 -1.0999  1.3461  0.2121
 3260SOL    HW221243   0.165   1.424  15.486  0.0942  0.6935  0.3685
 3261SOL     OW21244   1.150   1.767   6.795  0.0884  0.4516  0.2421
 3261SOL    HW121245   1.157   1.684   6.842 -2.4100 -1.8468 -3.3635
 3261SOL    HW221246   1.116   1.829   6.859  1.1659  1.7606 -0.4527
 3262SOL     OW21247   4.320   1.455  14.252  0.1712 -0.4397  0.5319
 3262SOL    HW121248   4.302   1.422  14.341  2.2830 -0.4153  0.9738
 3262SOL    HW221249   4.276   1.391  14.197 -0.0107 -0.8872  1.1882
 3263SOL     OW21250   1.983   0.703   5.236 -0.0392 -0.0223 -0.4761
 3263SOL    HW121251   1.914   0.740   5.291 -0.2904 -0.9180 -0.2003
 3263SOL    HW221252   2.002   0.617   5.273  1.3866 -0.0238 -1.2248
 3264SOL     OW21253   0.981   1.288   2.527 -0.8775 -0.2540  0.1454
 3264SOL    HW121254   1.037   1.270   2.451 -1.7359 -2.5913  0.0637
 3264SOL    HW221255   0.892   1.283   2.494 -0.6882 -0.7689 -0.2878
 3265SOL     OW21256   0.772   2.755   9.104  0.0130  0.7473 -0.3885
 3265SOL    HW121257   0.732   2.836   9.073  4.1975  2.1852 -2.0267
 3265SOL    HW221258   0.706   2.712   9.159  0.6111 -1.0907 -1.1303
 3266SOL     OW21259   1.836   0.231   5.653 -0.4310  0.2591  0.7218
 3266SOL    HW121260   1.745   0.214   5.627 -0.6026  1.0769  0.7911
 3266SOL    HW221261   1.878   0.152   5.619  1.5976  2.7624 -2.6432
 3267SOL     OW21262   0.710   4.026   7.802  0.2562  0.2242  0.1558
 3267SOL    HW121263   0.723   4.110   7.758  0.2829  0.6701  1.0237
 3267SOL    HW221264   0.643   4.058   7.862 -0.7375  1.0983 -1.4380
 3268SOL     OW21265   3.180   4.416   3.526 -0.2433 -0.5304 -0.5174
 3268SOL    HW121266   3.158   4.338   3.475 -0.4018  0.4431 -1.9271
 3268SOL    HW221267   3.276   4.413   3.517  0.2941 -0.1649  5.0676
 3269SOL     OW21268   1.461   1.338   4.480  0.1560 -0.0174 -0.2055
 3269SOL    HW121269   1.424   1.286   4.409 -0.2877  0.5233 -0.3647
 3269SOL    HW221270   1.519   1.398   4.433 -1.8359  1.8990 -0.1983
 3270SOL     OW21271   2.167   4.267   7.399 -0.2447  0.2034  0.0584
 3270SOL    HW121272   2.132   4.292   7.314  1.0634  1.1326 -0.2192
 3270SOL    HW221273   2.105   4.305   7.461 -0.9061 -1.2867  0.3078
 3271SOL     OW21274   2.028   2.889   9.358 -0.4606 -0.2596  0.7196
 3271SOL    HW121275   1.995   2.822   9.297 -1.3437  0.6013  0.2585
 3271SOL    HW221276   1.978   2.964   9.328  0.9163  0.1734 -0.5015
 3272SOL     OW21277   1.990   3.835   2.974  0.0367  0.4371 -0.4077
 3272SOL    HW121278   2.036   3.776   3.035 -0.5175  0.3328 -0.0915
 3272SOL    HW221279   2.058   3.884   2.929  0.0104  0.7338 -0.1292
 3273SOL     OW21280   0.324   0.786  10.275  0.0232  0.0291  0.5626
 3273SOL    HW121281   0.382   0.734  10.220 -2.2364 -0.5680 -1.2122
 3273SOL    HW221282   0.384   0.852  10.311 -0.5628  0.5336  0.6232
 3274SOL     OW21283   2.343   3.323   2.171 -0.4664 -0.1477  0.4891
 3274SOL    HW121284   2.404   3.283   2.233 -0.2316 -1.2619 -0.4633
 3274SOL    HW221285   2.267   3.337   2.227  0.5071  1.1379  1.4924
 3275SOL     OW21286   2.848   1.444   5.507 -0.1096 -0.5107  0.3482
 3275SOL    HW121287   2.799   1.392   5.571  0.1649 -0.4239  0.6293
 3275SOL    HW221288   2.845   1.383   5.433 -1.1517  0.4533 -0.4058
 3276SOL     OW21289   4.080   2.743   5.047  0.1891 -0.1848  0.2299
 3276SOL    HW121290   4.056   2.809   4.982 -0.2935 -0.7965 -0.2136
 3276SOL    HW221291   4.175   2.733   5.043  0.2740 -0.1409  1.9140
 3277SOL     OW21292   0.989   2.632   6.165  0.3003 -0.2485 -0.2142
 3277SOL    HW121293   0.950   2.693   6.103 -0.1106  0.3765  0.6501
 3277SOL    HW221294   1.031   2.690   6.230  1.6286 -0.6447 -0.7108
 3278SOL     OW21295   0.479   0.835   6.764  0.0804 -0.2498 -0.0057
 3278SOL    HW121296   0.457   0.872   6.678 -2.5757 -0.0691  0.7626
 3278SOL    HW221297   0.430   0.894   6.821 -1.4023  0.4036 -1.9759
 3279SOL     OW21298   0.864   3.566  17.310 -0.2638  0.3062  0.0783
 3279SOL    HW121299   0.869   3.656  17.278  0.7962  0.4932  0.7392
 3279SOL    HW221300   0.881   3.517  17.230  0.6818 -0.3680  0.6824
 3280SOL     OW21301   3.819   3.664   4.510 -0.3195  0.7331 -0.3790
 3280SOL    HW121302   3.781   3.732   4.566  0.4011  1.1054 -0.3485
 3280SOL    HW221303   3.882   3.703   4.449  0.7010 -0.3440 -0.0027
 3281SOL     OW21304   0.347   3.534  16.680 -0.0907 -0.3112  0.0462
 3281SOL    HW121305   0.437   3.530  16.647  0.3567  0.8906  1.1299
 3281SOL    HW221306   0.315   3.462  16.626  0.9431 -0.3571 -0.5064
 3282SOL     OW21307   3.299   0.969   7.962 -0.2877  0.3401  0.5163
 3282SOL    HW121308   3.258   0.888   7.991  0.3510 -0.3652 -0.5670
 3282SOL    HW221309   3.225   1.030   7.963  0.4113  1.1480  3.0525
 3283SOL     OW21310   3.056   2.070   2.523 -0.1138  0.1157 -0.5315
 3283SOL    HW121311   2.975   2.104   2.485 -0.5119 -0.4458 -0.1958
 3283SOL    HW221312   3.116   2.129   2.478  1.1500 -0.0437  0.9344
 3284SOL     OW21313   4.229   4.056   2.806  0.2125 -0.1181 -0.5133
 3284SOL    HW121314   4.208   3.963   2.814  0.7456 -0.2238 -0.3731
 3284SOL    HW221315   4.324   4.049   2.808  0.3823  2.4109  0.7577
 3285SOL     OW21316   1.097   2.040   3.902 -0.3024 -0.3235  0.5462
 3285SOL    HW121317   1.156   1.966   3.890  1.2076  0.7585  1.3085
 3285SOL    HW221318   1.151   2.096   3.959 -0.1453 -0.8782  0.9401
 3286SOL     OW21319   1.411   2.339  15.228 -0.7291  0.0309  0.0560
 3286SOL    HW121320   1.346   2.275  15.201  0.3753 -1.1816  0.2805
 3286SOL    HW221321   1.477   2.317  15.162  0.1009  0.3393  0.7779
 3287SOL     OW21322   2.865   1.735   2.003  0.0242 -0.2176  0.3982
 3287SOL    HW121323   2.956   1.739   2.032  0.0699  0.5724  0.1459
 3287SOL    HW221324   2.843   1.642   2.009  0.4275 -0.1519  2.6190
 3288SOL     OW21325   2.859   1.249   5.291 -0.2821  0.0180  0.4103
 3288SOL    HW121326   2.774   1.205   5.293  0.9462 -2.4595 -1.8592
 3288SOL    HW221327   2.852   1.281   5.201 -0.7959  1.3120  0.9227
 3289SOL     OW21328   0.547   2.508  11.402  0.1793  0.5097  0.4984
 3289SOL    HW121329   0.530   2.439  11.338 -0.6893  0.3611  0.8941
 3289SOL    HW221330   0.615   2.464  11.453 -0.1216  0.0784  0.5238
 3290SOL     OW21331   4.456   2.230   6.009  0.4470 -0.1088  0.1283
 3290SOL    HW121332   4.379   2.200   6.058 -0.9034 -0.9388 -2.4914
 3290SOL    HW221333   4.431   2.323   6.018  0.4430 -0.0597 -0.4095
 3291SOL     OW21334   0.024   1.339   5.485 -0.4636  0.0851  0.0636
 3291SOL    HW121335   0.052   1.269   5.544 -0.6459  0.0107  0.0629
 3291SOL    HW221336   0.039   1.296   5.401  1.0817  0.3484  0.2032
 3292SOL     OW21337   0.568   2.551   1.532  0.2205 -0.4098  0.5868
 3292SOL    HW121338   0.590   2.543   1.439  0.5509  1.4570  0.5046
 3292SOL    HW221339   0.479   2.514   1.525  0.8290 -1.5746 -1.0406
 3293SOL     OW21340   3.289   2.679   7.082  0.1564  0.1121 -0.1027
 3293SOL    HW121341   3.338   2.671   7.164  2.0525  0.5987 -1.1899
 3293SOL    HW221342   3.219   2.733   7.120 -0.5223 -1.0437  0.3158
 3294SOL     OW21343   2.259   2.399  17.028 -0.3457 -0.0001 -0.1086
 3294SOL    HW121344   2.264   2.495  17.023 -2.3338  0.1266  0.5065
 3294SOL    HW221345   2.340   2.370  16.985  0.3736 -0.1810  1.3552
 3295SOL     OW21346   4.645   0.881   8.499  0.5706 -0.0680  0.0963
 3295SOL    HW121347   4.598   0.805   8.464  0.2710  0.5007 -0.7318
 3295SOL    HW221348   4.657   0.861   8.592 -1.0831  2.3838  0.8399
 3296SOL     OW21349   4.277   1.283   6.597 -0.6865 -0.3231 -0.4912
 3296SOL    HW121350   4.283   1.357   6.536 -1.1811 -1.7638 -2.2842
 3296SOL    HW221351   4.330   1.220   6.548 -0.8922 -0.3246 -0.7086
 3297SOL     OW21352   3.221   2.216   1.378 -0.5533 -0.1203  0.2275
 3297SOL    HW121353   3.130   2.226   1.406 -0.1386 -1.0215  1.8900
 3297SOL    HW221354   3.219   2.280   1.307 -0.0834 -0.5945 -0.2028
 3298SOL     OW21355   1.583   2.786  14.924 -0.0167  0.6845 -0.2353
 3298SOL    HW121356   1.501   2.782  14.876  0.8009  2.3162 -1.8025
 3298SOL    HW221357   1.643   2.749  14.859 -0.0870  0.4513 -0.1650
 3299SOL     OW21358   0.145   3.105  10.084 -0.1591 -0.1976  0.1971
 3299SOL    HW121359   0.109   3.192  10.096  1.0588  0.6080 -1.9572
 3299SOL    HW221360   0.215   3.116  10.148 -1.8335  1.4241  1.7515
 3300SOL     OW21361   1.459   2.734   2.919  0.6889 -0.0129  0.4052
 3300SOL    HW121362   1.386   2.734   2.857  1.0919 -0.7401 -0.0691
 3300SOL    HW221363   1.414   2.725   3.003  1.1261  0.2368  0.6658
 3301SOL     OW21364   2.016   4.055   0.918 -0.2255  0.0500 -0.0786
 3301SOL    HW121365   1.948   4.047   0.985 -0.4485 -1.7738 -0.5372
 3301SOL    HW221366   2.093   4.087   0.966 -1.0247  0.6514  0.7899
 3302SOL     OW21367   3.606   4.511   8.047 -0.2278  0.8566  0.1110
 3302SOL    HW121368   3.651   4.474   7.971  1.1066 -1.2759  1.9445
 3302SOL    HW221369   3.585   4.596   8.008 -2.8382  0.5995  0.9874
 3303SOL     OW21370   0.421   3.794   1.311  0.0346  0.1188  0.0535
 3303SOL    HW121371   0.365   3.736   1.260 -0.9187 -0.1332  1.3966
 3303SOL    HW221372   0.423   3.737   1.387 -0.5605  0.2905  0.1973
 3304SOL     OW21373   1.938   2.046   1.548 -0.0283  0.3597  0.1703
 3304SOL    HW121374   1.899   1.990   1.481 -0.8165  1.9774 -0.7075
 3304SOL    HW221375   1.877   2.119   1.558  0.2412  0.6642 -0.4237
 3305SOL     OW21376   3.757   0.523   1.160  0.4223 -0.5205 -0.0092
 3305SOL    HW121377   3.738   0.536   1.067 -1.8616  1.8705  0.7835
 3305SOL    HW221378   3.799   0.608   1.176  1.3629 -0.9224 -0.3083
 3306SOL     OW21379   2.411   1.747   2.657  0.1737 -0.4526  0.0314
 3306SOL    HW121380   2.337   1.802   2.683  0.0212 -0.4152 -0.4827
 3306SOL    HW221381   2.468   1.782   2.726 -1.1626 -3.4447  2.6482
 3307SOL     OW21382   2.571   1.681  17.156 -0.0517 -0.3612  0.1935
 3307SOL    HW121383   2.585   1.661  17.063 -0.1657  0.1795  0.0584
 3307SOL    HW221384   2.563   1.776  17.155 -1.2251 -0.4454  1.2637
 3308SOL     OW21385   2.587   3.917   5.342 -0.3461  0.0318 -0.0709
 3308SOL    HW121386   2.665   3.937   5.291  1.1240  2.6000  3.2570
 3308SOL    HW221387   2.590   3.821   5.348 -1.9642  0.0758  1.5467
 3309SOL     OW21388   2.585   0.010   8.014  0.5003  0.1200  0.6741
 3309SOL    HW121389   2.621   0.067   8.083 -0.7024  0.1568  1.2640
 3309SOL    HW221390   2.550   4.660   8.064  1.8702 -1.3376 -0.5290
 3310SOL     OW21391   3.588   3.481   4.084 -0.4787 -0.2196 -0.5392
 3310SOL    HW121392   3.649   3.480   4.010  2.6220 -0.0869  1.9945
 3310SOL    HW221393   3.589   3.576   4.097 -0.2319 -0.4856  1.3433
 3311SOL     OW21394   3.229   2.372  12.596  0.6216 -0.6341  0.2220
 3311SOL    HW121395   3.225   2.327  12.680  0.4455 -0.1903  0.4499
 3311SOL    HW221396   3.217   2.458  12.635 -0.0593 -1.2260  1.3037
 3312SOL     OW21397   1.429   2.566  12.593  0.1571 -0.0654 -0.3418
 3312SOL    HW121398   1.353   2.507  12.591 -0.0368  0.2849 -2.8089
 3312SOL    HW221399   1.474   2.549  12.676  0.0459  2.3589  0.1985
 3313SOL     OW21400   1.198   2.011  10.993  0.1896  0.4292 -0.2256
 3313SOL    HW121401   1.195   2.028  11.087 -0.8991 -4.8514  0.7035
 3313SOL    HW221402   1.281   1.963  10.989 -1.9191 -3.1512 -0.8341
 3314SOL     OW21403   0.295   0.694   7.364  0.1230  0.5481 -0.1573
 3314SOL    HW121404   0.220   0.681   7.422  0.6490  0.6789  0.5460
 3314SOL    HW221405   0.307   0.788   7.378 -0.7025  0.3457  1.9075
 3315SOL     OW21406   1.826   1.495  13.424  0.6167  0.3236 -0.4755
 3315SOL    HW121407   1.755   1.470  13.365  0.3764 -2.9958  1.2301
 3315SOL    HW221408   1.787   1.502  13.511  3.6795  3.4714  0.6509
 3316SOL     OW21409   4.165   1.327   7.389  0.0640  0.0624  0.0707
 3316SOL    HW121410   4.180   1.233   7.376  0.0722  0.3522 -2.1092
 3316SOL    HW221411   4.231   1.339   7.457 -0.4131  3.2412 -0.0210
 3317SOL     OW21412   1.487   4.713   6.768  0.0575 -0.1510  0.4608
 3317SOL    HW121413   1.575   0.025   6.777 -0.0333 -0.4721  2.7271
 3317SOL    HW221414   1.465   0.000   6.676  0.0411  2.4420  0.7841
 3318SOL     OW21415   3.045   3.179   2.380 -0.1748  0.6709 -0.2450
 3318SOL    HW121416   3.104   3.117   2.425  1.2394 -0.3692 -3.5168
 3318SOL    HW221417   3.099   3.256   2.361  1.2068 -0.6419 -1.7359
 3319SOL     OW21418   1.482   4.296   4.307  0.0253  0.3020 -0.1211
 3319SOL    HW121419   1.518   4.208   4.295  0.9370  0.8419 -1.2644
 3319SOL    HW221420   1.502   4.327   4.219  0.3710 -0.9635 -0.4968
 3320SOL     OW21421   1.953   1.793  13.415  0.5997 -0.4047  0.1601
 3320SOL    HW121422   2.005   1.825  13.490 -0.4287  0.2568  0.5828
 3320SOL    HW221423   2.016   1.774  13.345 -1.9679 -0.8231 -2.0075
 3321SOL     OW21424   2.900   2.461   6.513  0.0701  0.0137  0.3772
 3321SOL    HW121425   2.891   2.504   6.429 -0.1499  1.3010  1.0550
 3321SOL    HW221426   2.984   2.498   6.541 -0.7860  0.9817  1.6579
 3322SOL     OW21427   0.221   2.963   0.608 -0.4367  0.4018  0.8351
 3322SOL    HW121428   0.210   3.049   0.568 -0.6836 -0.0669 -0.1173
 3322SOL    HW221429   0.299   2.981   0.661  0.1756  0.7872 -0.2013
 3323SOL     OW21430   2.272   3.931  11.847  0.2993  0.2259  0.1054
 3323SOL    HW121431   2.304   4.015  11.879  0.6864 -0.3534  1.2392
 3323SOL    HW221432   2.299   3.871  11.916 -0.8484 -0.8498 -0.3669
 3324SOL     OW21433   3.994   2.947  14.730 -0.3450  0.3853  0.2910
 3324SOL    HW121434   3.937   2.870  14.734  0.3715 -0.0682  1.7211
 3324SOL    HW221435   3.990   2.991  14.815  2.0697 -1.2485  1.2505
 3325SOL     OW21436   0.933   0.707   8.209  0.4225 -0.1276  0.4044
 3325SOL    HW121437   0.867   0.638   8.209 -1.8966  2.1097  1.4197
 3325SOL    HW221438   0.872   0.779   8.193 -0.1736 -0.4459  1.2246
 3326SOL     OW21439   0.808   2.388  10.653 -0.1566  0.2561  0.5722
 3326SOL    HW121440   0.890   2.341  10.637 -0.4997  1.0999 -3.6350
 3326SOL    HW221441   0.833   2.461  10.710  1.0861  0.8687 -0.7814
 3327SOL     OW21442   3.985   0.076  15.551 -0.0855 -0.5029  0.1175
 3327SOL    HW121443   4.043   0.002  15.530 -1.5090 -0.8490 -2.6382
 3327SOL    HW221444   4.012   0.090  15.641  0.1757 -1.0635  0.1294
 3328SOL     OW21445   0.119   0.424   3.368 -0.4343  0.0960 -0.6710
 3328SOL    HW121446   0.153   0.395   3.284  1.9181 -1.5712  0.8425
 3328SOL    HW221447   0.028   0.401   3.349 -0.6184 -0.5229  0.9182
 3329SOL     OW21448   1.806   1.612  14.605 -0.0940  0.1817  0.7491
 3329SOL    HW121449   1.895   1.609  14.640  0.4565  1.3551 -0.5229
 3329SOL    HW221450   1.763   1.550  14.663 -1.8321  0.4097 -0.2806
 3330SOL     OW21451   2.231   3.475   2.900  0.1832 -0.4139 -0.0989
 3330SOL    HW121452   2.323   3.498   2.901  0.1576 -0.2478 -1.3233
 3330SOL    HW221453   2.186   3.555   2.871  1.7117  0.7590  0.7986
 3331SOL     OW21454   3.707   2.860   2.574 -0.0079 -0.3110  0.0847
 3331SOL    HW121455   3.783   2.822   2.619 -0.7207 -1.8262 -0.0011
 3331SOL    HW221456   3.743   2.942   2.541 -2.3729  0.6626 -0.0431
 3332SOL     OW21457   3.819   3.143   4.856  0.4415 -0.6697 -0.4740
 3332SOL    HW121458   3.914   3.136   4.857  0.3411 -1.9270 -0.8087
 3332SOL    HW221459   3.795   3.063   4.902  1.0874 -0.8396 -0.4355
 3333SOL     OW21460   4.612   1.559  17.253 -0.2904  0.0768 -0.0654
 3333SOL    HW121461   4.653   1.528  17.333  0.7985  0.6956 -0.3871
 3333SOL    HW221462   4.536   1.603  17.293  0.3636  0.2788  0.9460
 3334SOL     OW21463   3.903   4.486   3.094 -0.0111  0.0125 -0.0036
 3334SOL    HW121464   3.939   4.510   3.180  0.1978 -0.6966  0.1083
 3334SOL    HW221465   3.986   4.495   3.047  0.2617  0.1388  0.5043
 3335SOL     OW21466   1.080   4.438   6.508  0.1468  0.5478 -0.0932
 3335SOL    HW121467   1.070   4.533   6.508 -0.6159  0.4676 -0.9062
 3335SOL    HW221468   1.170   4.421   6.538  0.2641 -0.7156 -1.1731
 3336SOL     OW21469   3.872   3.551   5.242  0.0343 -0.5896 -0.1810
 3336SOL    HW121470   3.961   3.587   5.241 -0.6171  0.9988  0.0749
 3336SOL    HW221471   3.883   3.485   5.310  0.7176 -0.6557 -0.3525
 3337SOL     OW21472   0.401   3.706   6.727  0.5671 -0.2937  0.2318
 3337SOL    HW121473   0.495   3.687   6.732  0.4296 -1.2445 -0.8327
 3337SOL    HW221474   0.377   3.617   6.702  2.2235 -0.5806 -0.3832
 3338SOL     OW21475   0.237   3.192   7.245  0.6211 -0.3460  0.1369
 3338SOL    HW121476   0.241   3.185   7.150 -0.3488  0.3331  0.0544
 3338SOL    HW221477   0.168   3.129   7.266 -1.8015  1.5990 -2.0819
 3339SOL     OW21478   1.553   3.866  14.103 -0.7102  0.5381 -0.2168
 3339SOL    HW121479   1.521   3.807  14.171 -2.2734  0.6546 -0.8308
 3339SOL    HW221480   1.638   3.893  14.138 -0.0552 -3.4749  1.2568
 3340SOL     OW21481   1.493   3.455   1.741 -0.3835 -0.4194 -0.4063
 3340SOL    HW121482   1.485   3.420   1.653  1.1732 -2.8569  0.4026
 3340SOL    HW221483   1.533   3.382   1.789 -0.8428 -0.8492 -0.6777
 3341SOL     OW21484   0.450   4.410   6.459  0.6470 -0.2090 -0.0361
 3341SOL    HW121485   0.503   4.428   6.536  0.5135 -1.6475  0.3853
 3341SOL    HW221486   0.468   4.316   6.464 -0.2742 -0.3609  0.4466
 3342SOL     OW21487   4.350   3.683  10.201  0.2562 -0.1970  0.0395
 3342SOL    HW121488   4.416   3.663  10.135  2.1190 -0.2101  1.8680
 3342SOL    HW221489   4.378   3.649  10.286 -2.6119 -1.3270  0.5380
 3343SOL     OW21490   1.006   1.793  11.293  0.1504  0.2701 -0.0360
 3343SOL    HW121491   0.976   1.708  11.262  1.5745 -0.7985  1.4678
 3343SOL    HW221492   1.099   1.788  11.270 -0.1851 -0.3758 -1.2108
 3344SOL     OW21493   0.735   2.761   1.685 -0.1606  0.1274  0.1868
 3344SOL    HW121494   0.655   2.708   1.690  0.0990 -0.1471  1.4657
 3344SOL    HW221495   0.750   2.754   1.591 -1.1181  2.2138 -0.1187
 3345SOL     OW21496   2.175   3.945   2.306 -0.2494  0.8639 -0.1502
 3345SOL    HW121497   2.095   3.902   2.276  1.8201 -1.7596 -1.7963
 3345SOL    HW221498   2.237   3.873   2.303  0.2455  1.3204 -0.7449
 3346SOL     OW21499   4.157   3.359   6.748 -0.5233 -1.0186 -0.1125
 3346SOL    HW121500   4.161   3.454   6.735 -0.0682 -0.7520  1.9620
 3346SOL    HW221501   4.164   3.351   6.843  4.4908  0.6277 -0.3083
 3347SOL     OW21502   4.713   1.200   5.813  0.3699  0.7584  0.0726
 3347SOL    HW121503   0.033   1.164   5.890  1.1971 -0.7838 -1.1309
 3347SOL    HW221504   0.031   1.160   5.737 -1.2811 -0.1319 -0.3750
 3348SOL     OW21505   4.142   0.768   7.959  0.7498  0.3223  0.0129
 3348SOL    HW121506   4.156   0.695   8.020 -0.5977  0.6190  0.6837
 3348SOL    HW221507   4.053   0.747   7.931  1.1615 -0.9154 -0.3531
 3349SOL     OW21508   2.091   3.082   4.645 -0.2066 -0.4477 -0.0160
 3349SOL    HW121509   2.053   3.168   4.632 -0.4603 -0.4250  0.8420
 3349SOL    HW221510   2.118   3.053   4.558 -0.8725  0.1747 -0.4247
 3350SOL     OW21511   2.147   0.910   2.663  0.2028  0.7401  0.2438
 3350SOL    HW121512   2.225   0.950   2.626  0.1677  1.0269  0.4828
 3350SOL    HW221513   2.092   0.978   2.626  0.4946  0.4198 -0.7851
 3351SOL     OW21514   0.884   4.345   4.097  0.1765 -0.5123 -0.0919
 3351SOL    HW121515   0.915   4.258   4.072  0.8115 -0.5362  0.7624
 3351SOL    HW221516   0.856   4.382   4.014  0.2431  0.1327  0.1710
 3352SOL     OW21517   4.701   4.009   4.042 -0.4702  0.3147  0.7852
 3352SOL    HW121518   4.691   4.102   4.022  1.8575  0.4931  0.5060
 3352SOL    HW221519   4.608   3.986   4.037 -0.5792  0.9725 -0.1816
 3353SOL     OW21520   1.642   2.431   3.933 -0.4169 -0.1477  0.4928
 3353SOL    HW121521   1.700   2.382   3.876 -1.2530  0.6277 -1.0115
 3353SOL    HW221522   1.554   2.405   3.906  0.0886 -0.1223 -1.1690
 3354SOL     OW21523   1.052   1.622  12.539 -0.2772  0.5186 -0.1433
 3354SOL    HW121524   1.095   1.659  12.463  2.4695 -1.3303  0.5151
 3354SOL    HW221525   1.101   1.540  12.543 -1.8504 -0.4848 -1.2549
 3355SOL     OW21526   3.224   0.848   8.484  0.0600  0.1133 -0.2427
 3355SOL    HW121527   3.163   0.879   8.417 -2.1529  0.0964  1.7599
 3355SOL    HW221528   3.297   0.835   8.423  0.3267  0.8046 -0.0753
 3356SOL     OW21529   4.623   2.428   7.774  0.3384  0.2949 -0.0745
 3356SOL    HW121530   4.638   2.383   7.857  1.5367 -3.2231 -2.1647
 3356SOL    HW221531   4.606   2.515   7.811  1.8982  0.7285 -0.3720
 3357SOL     OW21532   3.133   0.578   4.371 -0.5386  0.3621  0.3908
 3357SOL    HW121533   3.065   0.538   4.424  0.7506 -0.8194  1.1437
 3357SOL    HW221534   3.152   0.657   4.421 -1.0808 -0.3319  1.6972
 3358SOL     OW21535   3.868   0.449   7.155  0.0332  0.6824 -0.0684
 3358SOL    HW121536   3.800   0.488   7.209  1.6176 -1.2554  3.3396
 3358SOL    HW221537   3.822   0.423   7.075  1.3480 -1.1910 -0.2154
 3359SOL     OW21538   2.137   4.286   5.038  0.4257 -0.0502  0.1141
 3359SOL    HW121539   2.196   4.325   4.973  0.6290  2.0773  1.5798
 3359SOL    HW221540   2.159   4.193   5.032 -1.4262 -0.4153 -1.1268
 3360SOL     OW21541   3.121   0.787   9.098  0.4455  0.0160  0.6452
 3360SOL    HW121542   3.216   0.781   9.108  0.6711  0.1380 -1.2601
 3360SOL    HW221543   3.093   0.791   9.189 -0.6989 -0.5900  0.3254
 3361SOL     OW21544   2.065   1.668  11.915 -0.1972  0.4596 -0.0118
 3361SOL    HW121545   2.124   1.594  11.919  0.5552  1.0086 -0.8647
 3361SOL    HW221546   2.002   1.645  11.983  1.2716  0.5130  1.3719
 3362SOL     OW21547   2.414   4.569   6.611 -0.2827 -0.4649 -0.9325
 3362SOL    HW121548   2.390   4.479   6.588 -1.1973  0.0320 -1.9233
 3362SOL    HW221549   2.379   4.615   6.534  0.9894  0.3096 -1.0600
 3363SOL     OW21550   2.460   2.813   6.221 -0.0162 -0.1522  0.0727
 3363SOL    HW121551   2.433   2.866   6.296  2.2486 -0.3169  1.0168
 3363SOL    HW221552   2.465   2.882   6.154  0.1368 -0.1043  0.1340
 3364SOL     OW21553   4.153   0.331  12.801 -0.8386 -0.1203  0.3860
 3364SOL    HW121554   4.239   0.373  12.806 -1.4234  1.1377 -0.1959
 3364SOL    HW221555   4.177   0.253  12.852 -2.7643  0.8299  2.7887
 3365SOL     OW21556   0.394   4.662   8.500 -0.1769 -0.1704 -0.6656
 3365SOL    HW121557   0.481   4.626   8.518 -0.6019 -0.1618  1.3933
 3365SOL    HW221558   0.334   4.646   8.573 -0.0809 -3.7248 -1.3534
 3366SOL     OW21559   3.369   2.231  14.303 -0.0459  0.3171  0.2536
 3366SOL    HW121560   3.296   2.284  14.269 -0.7200 -0.9293 -0.2558
 3366SOL    HW221561   3.426   2.306  14.317  1.0445 -0.5777  0.5374
 3367SOL     OW21562   3.149   4.078   0.597 -0.1829  0.3562 -0.7482
 3367SOL    HW121563   3.094   4.005   0.625 -0.2312  0.2519 -1.1080
 3367SOL    HW221564   3.106   4.085   0.511  0.1368 -0.3747 -0.9665
 3368SOL     OW21565   2.806   1.759   8.990  0.5360 -0.3753 -0.1264
 3368SOL    HW121566   2.789   1.665   9.001 -3.5311  0.6480  2.0562
 3368SOL    HW221567   2.833   1.778   9.080  1.4409  1.8898 -0.8752
 3369SOL     OW21568   4.440   0.612   2.101  0.2085 -0.4807  0.3034
 3369SOL    HW121569   4.485   0.696   2.093  0.4474 -0.7289 -1.0876
 3369SOL    HW221570   4.385   0.604   2.023 -2.4535  3.5606  1.7747
 3370SOL     OW21571   1.780   3.808   9.075 -0.0036  0.0012  0.1648
 3370SOL    HW121572   1.841   3.776   9.008 -2.1236 -0.0689 -1.7601
 3370SOL    HW221573   1.804   3.755   9.151  0.2924 -0.3488 -0.1759
 3371SOL     OW21574   0.447   0.093   3.350 -0.1838  0.2342  0.2541
 3371SOL    HW121575   0.423   0.135   3.432  0.5183  0.5891  0.2762
 3371SOL    HW221576   0.537   0.125   3.353  0.4203 -1.3576 -0.5073
 3372SOL     OW21577   2.667   1.274   5.650 -0.0529  0.2945  0.6690
 3372SOL    HW121578   2.732   1.230   5.704  1.3079 -0.0411 -1.2382
 3372SOL    HW221579   2.661   1.363   5.686  0.0942 -0.0451  1.5379
 3373SOL     OW21580   3.227   3.031   7.629 -0.8075 -0.3190 -0.1074
 3373SOL    HW121581   3.162   2.987   7.684 -0.0621  0.5033  1.4144
 3373SOL    HW221582   3.304   3.025   7.684 -1.1299 -1.2750  0.2425
 3374SOL     OW21583   3.285   1.467  16.926 -0.5163  0.0627 -0.4127
 3374SOL    HW121584   3.235   1.474  16.845  0.3776  0.3369 -0.9330
 3374SOL    HW221585   3.245   1.533  16.984 -1.2702 -0.1224 -0.7182
 3375SOL     OW21586   4.648   2.035   4.755  0.0525 -0.3890  0.2483
 3375SOL    HW121587   4.599   1.988   4.822  0.3828 -1.3453 -0.1773
 3375SOL    HW221588   4.694   1.971   4.700 -2.3557 -0.2745 -1.9205
 3376SOL     OW21589   4.043   0.189   9.424  0.0386 -0.2455 -0.1844
 3376SOL    HW121590   3.976   0.123   9.438 -1.5073  1.5851  1.1053
 3376SOL    HW221591   4.122   0.137   9.413  2.3502  3.4474 -0.9851
 3377SOL     OW21592   0.632   2.517   0.215  0.7670 -0.0714 -0.3961
 3377SOL    HW121593   0.638   2.423   0.202  0.7621  0.0335 -1.1547
 3377SOL    HW221594   0.537   2.527   0.219  0.8266  0.4147 -0.0799
 3378SOL     OW21595   3.395   3.214   5.665 -0.1822  0.3214  0.5611
 3378SOL    HW121596   3.461   3.192   5.599 -0.5076 -1.9288  0.9952
 3378SOL    HW221597   3.326   3.251   5.609 -1.0665 -0.1400  1.3404
 3379SOL     OW21598   2.541   4.658   7.116 -0.6091 -0.1397 -0.5231
 3379SOL    HW121599   2.470   4.641   7.054 -2.2412 -1.4296  1.7319
 3379SOL    HW221600   2.503   0.018   7.141 -0.4191 -0.0950 -0.3842
 3380SOL     OW21601   3.521   0.903  16.855 -0.4843 -0.1425  0.1504
 3380SOL    HW121602   3.533   0.981  16.801  1.9897  0.0912  1.0244
 3380SOL    HW221603   3.593   0.924  16.914  0.2415  0.7438 -1.0597
 3381SOL     OW21604   4.473   3.897   7.537 -0.5077  0.3827  0.7797
 3381SOL    HW121605   4.429   3.837   7.476  3.2813 -0.2801 -1.3531
 3381SOL    HW221606   4.405   3.888   7.603  0.0175  0.4561  1.3330
 3382SOL     OW21607   1.174   2.427  10.883  0.1250 -0.0769  0.5661
 3382SOL    HW121608   1.250   2.472  10.846  1.1316 -1.3242  1.0673
 3382SOL    HW221609   1.191   2.338  10.852 -1.0580 -0.5152  1.1695
 3383SOL     OW21610   4.528   4.015   8.917 -0.0425  0.0789 -0.7847
 3383SOL    HW121611   4.573   4.031   9.001 -1.7230 -0.3192  0.1769
 3383SOL    HW221612   4.567   4.081   8.859 -1.8338  1.3466 -0.5533
 3384SOL     OW21613   3.912   0.315  15.037 -0.1237 -0.0357  0.6362
 3384SOL    HW121614   4.003   0.295  15.061  0.5855 -0.7091 -2.5007
 3384SOL    HW221615   3.937   0.407  15.034  1.4012 -0.4647 -0.2903
 3385SOL     OW21616   3.496   0.434   7.688 -0.0859 -0.0963 -0.1690
 3385SOL    HW121617   3.556   0.386   7.632 -0.5854  0.7455 -1.4280
 3385SOL    HW221618   3.411   0.401   7.658 -1.1552  0.4671  2.2122
 3386SOL     OW21619   1.396   0.943  14.524 -0.3713 -0.5639  0.2163
 3386SOL    HW121620   1.486   0.915  14.510  0.0298  1.1776 -0.6638
 3386SOL    HW221621   1.413   1.006  14.594 -3.2930 -1.3757  1.6633
 3387SOL     OW21622   4.224   3.112   0.141 -0.3343 -0.0254 -0.2545
 3387SOL    HW121623   4.257   3.041   0.085  0.6334 -0.0893  0.4005
 3387SOL    HW221624   4.267   3.182   0.092  1.5715 -1.0241 -0.0130
 3388SOL     OW21625   2.010   3.149  12.392 -0.5817  0.3397 -0.2054
 3388SOL    HW121626   1.915   3.135  12.381 -1.0761  1.1060  3.2108
 3388SOL    HW221627   2.035   3.182  12.306  2.3825 -1.3549  0.0010
 3389SOL     OW21628   2.930   1.915   8.570 -0.1524 -0.2310 -0.1549
 3389SOL    HW121629   2.994   1.884   8.506 -0.5301  0.1882 -0.7396
 3389SOL    HW221630   2.853   1.896   8.516 -1.2443  2.8852  0.3091
 3390SOL     OW21631   3.388   0.483   1.054 -0.5299 -0.0366 -0.7700
 3390SOL    HW121632   3.375   0.503   0.962 -1.8347 -0.1656 -0.6187
 3390SOL    HW221633   3.484   0.486   1.058 -0.4816 -1.5912 -0.7360
 3391SOL     OW21634   4.077   2.092   2.149  0.2589  0.2235  0.4020
 3391SOL    HW121635   4.013   2.024   2.171  0.3172  0.1667  0.3937
 3391SOL    HW221636   4.027   2.172   2.167 -0.0663  0.6059 -2.1980
 3392SOL     OW21637   2.486   4.579   5.339  0.0299 -0.5729  0.3113
 3392SOL    HW121638   2.441   4.516   5.283  2.1129 -1.4976 -0.3453
 3392SOL    HW221639   2.490   4.523   5.417 -2.5581 -1.3156 -0.0792
 3393SOL     OW21640   3.208   0.401   4.906  0.0958  0.0401 -0.3613
 3393SOL    HW121641   3.176   0.340   4.973  0.1216  1.2003  0.7036
 3393SOL    HW221642   3.296   0.403   4.943 -0.2348  1.1662  0.3887
 3394SOL     OW21643   1.282   3.293   3.107 -0.6698 -0.2241 -0.3445
 3394SOL    HW121644   1.241   3.364   3.156 -0.4652 -0.4434  0.1461
 3394SOL    HW221645   1.239   3.310   3.023 -0.2787  0.2166 -0.4514
 3395SOL     OW21646   3.754   3.566  11.240  0.1471 -1.0218  0.6266
 3395SOL    HW121647   3.696   3.593  11.169  0.9412  1.1540  0.8152
 3395SOL    HW221648   3.716   3.605  11.318  3.9103  0.0692  1.9291
 3396SOL     OW21649   3.722   0.036   1.563  0.6543 -0.2474  0.4635
 3396SOL    HW121650   3.648   0.038   1.503  0.3858  1.7790  0.8585
 3396SOL    HW221651   3.749   4.669   1.576  1.0638  0.1493  2.4219
 3397SOL     OW21652   0.211   1.813   2.862  0.6318 -0.0678  0.2211
 3397SOL    HW121653   0.132   1.766   2.888  0.5834  0.6298  1.3119
 3397SOL    HW221654   0.275   1.800   2.932  2.8197 -0.9839 -1.9474
 3398SOL     OW21655   3.712   3.463   6.588 -0.4878 -0.0884  0.6310
 3398SOL    HW121656   3.619   3.483   6.585 -0.5127 -0.3415 -0.4516
 3398SOL    HW221657   3.706   3.372   6.617  2.0778 -0.1186  1.1259
 3399SOL     OW21658   0.622   3.896   3.738 -0.0295  0.3070  0.5390
 3399SOL    HW121659   0.634   3.936   3.825 -2.1783 -0.4727  1.1991
 3399SOL    HW221660   0.658   3.807   3.750 -2.8640 -0.6633  1.8985
 3400SOL     OW21661   0.735   0.734   1.766 -0.2436  0.0605 -0.3754
 3400SOL    HW121662   0.758   0.645   1.794 -0.4352 -0.7637 -2.8345
 3400SOL    HW221663   0.712   0.709   1.677 -1.1772  3.1885 -0.9903
 3401SOL     OW21664   0.831   1.256   5.224 -0.0785 -0.1068 -0.1521
 3401SOL    HW121665   0.833   1.242   5.319 -2.5260 -3.3046 -0.5645
 3401SOL    HW221666   0.838   1.166   5.195 -0.4108 -0.4602  0.8442
 3402SOL     OW21667   1.515   3.177   0.631  0.0388  0.4982 -0.2244
 3402SOL    HW121668   1.533   3.182   0.537 -0.8835 -1.0467 -0.4826
 3402SOL    HW221669   1.574   3.103   0.641 -2.0229 -1.5037 -2.8931
 3403SOL     OW21670   3.927   3.425   7.804  0.3594  0.1477 -0.3083
 3403SOL    HW121671   3.915   3.469   7.720  0.6406  2.4165  0.8434
 3403SOL    HW221672   3.934   3.501   7.862 -1.1144 -0.2777  0.4230
 3404SOL     OW21673   0.108   3.915  12.429 -0.0558  0.0969 -0.1007
 3404SOL    HW121674   0.120   3.821  12.417  0.3927  0.0092  1.0320
 3404SOL    HW221675   0.090   3.927  12.336 -0.8769 -2.2956 -0.2329
 3405SOL     OW21676   2.530   2.620  15.530 -0.1127 -1.1381 -0.4191
 3405SOL    HW121677   2.547   2.561  15.456 -0.7966 -0.9022 -0.7736
 3405SOL    HW221678   2.556   2.567  15.605  0.3453  2.2509  1.8294
 3406SOL     OW21679   3.386   1.476   6.822  0.1592 -0.2325  0.4655
 3406SOL    HW121680   3.379   1.381   6.823  1.0213 -0.3190 -0.8991
 3406SOL    HW221681   3.460   1.495   6.764 -0.9593  1.8779 -0.2674
 3407SOL     OW21682   1.296   4.382   5.973 -0.2961 -0.1583  0.4603
 3407SOL    HW121683   1.284   4.303   6.025 -1.2494 -0.6710 -0.5431
 3407SOL    HW221684   1.389   4.382   5.952 -0.3556  1.4712  0.2104
 3408SOL     OW21685   0.003   1.811   2.104 -0.1960 -0.5629 -0.1426
 3408SOL    HW121686   0.008   1.718   2.082 -1.1211 -0.4687 -0.7454
 3408SOL    HW221687   0.043   1.811   2.191 -0.1463  0.7243 -0.1639
 3409SOL     OW21688   1.081   0.790   2.477 -0.6191  0.0979  0.1047
 3409SOL    HW121689   1.031   0.858   2.431 -1.2095 -1.3104 -1.3480
 3409SOL    HW221690   1.121   0.743   2.404  0.2031  0.3335  0.4039
 3410SOL     OW21691   1.948   0.011   5.579 -0.2820  0.6193  0.2073
 3410SOL    HW121692   1.897   4.696   5.508 -0.7236 -0.3728  1.0628
 3410SOL    HW221693   1.959   4.657   5.633 -0.5551  0.5792  0.2033
 3411SOL     OW21694   4.162   1.048   7.352 -0.1402  0.0775 -0.0450
 3411SOL    HW121695   4.141   1.027   7.443 -1.6937  1.7583 -0.0009
 3411SOL    HW221696   4.095   0.998   7.306 -2.3360  3.5427 -0.6946
 3412SOL     OW21697   1.309   1.457   0.476  0.1422  0.7890 -0.5515
 3412SOL    HW121698   1.324   1.487   0.566  2.1993 -0.2081 -0.5550
 3412SOL    HW221699   1.216   1.435   0.477  0.1709  0.7249  2.3040
 3413SOL     OW21700   4.550   4.662   7.948  0.1744  0.1679 -0.8362
 3413SOL    HW121701   4.470   4.615   7.972 -1.3520  1.5913 -3.1522
 3413SOL    HW221702   4.591   4.600   7.888  0.7479 -0.4226  0.1679
 3414SOL     OW21703   0.330   1.751   4.473  0.3963 -0.1049 -0.1327
 3414SOL    HW121704   0.361   1.778   4.386  0.7552 -0.0933 -0.0031
 3414SOL    HW221705   0.398   1.692   4.504 -0.4655 -1.4084 -0.7631
 3415SOL     OW21706   3.121   4.310   1.559 -0.4157 -0.1474 -0.4239
 3415SOL    HW121707   3.081   4.322   1.472 -0.6295 -1.5003 -0.5129
 3415SOL    HW221708   3.165   4.226   1.547 -0.3034 -0.0354 -0.8071
 3416SOL     OW21709   4.110   3.143  16.919 -0.4274  0.0306 -0.5088
 3416SOL    HW121710   4.026   3.113  16.954  0.2780 -0.7223  0.5374
 3416SOL    HW221711   4.102   3.238  16.924 -1.9470 -0.0838 -0.5183
 3417SOL     OW21712   2.206   3.663  16.058  0.5135  0.1551 -0.2753
 3417SOL    HW121713   2.250   3.695  16.136 -0.0037 -1.2487  0.5868
 3417SOL    HW221714   2.198   3.569  16.073  0.2542  0.1269 -0.5820
 3418SOL     OW21715   2.848   0.744   7.097  0.2948  0.3500  0.1492
 3418SOL    HW121716   2.790   0.669   7.096 -0.4671  0.9575 -2.2102
 3418SOL    HW221717   2.873   0.754   7.189  1.9157 -1.0468 -0.1379
 3419SOL     OW21718   4.429   3.520   3.127 -0.9773  0.3043  0.2696
 3419SOL    HW121719   4.423   3.438   3.078  0.2973  1.1348 -1.2892
 3419SOL    HW221720   4.513   3.513   3.174 -1.6693  2.5390  1.8592
 3420SOL     OW21721   2.279   2.381  13.105  0.0239 -0.4203 -0.1087
 3420SOL    HW121722   2.370   2.351  13.109  0.2228  0.1641 -0.2078
 3420SOL    HW221723   2.294   2.474  13.123 -0.6496 -0.4593  0.6651
 3421SOL     OW21724   3.250   2.045   0.024 -0.4843  0.6233  0.0582
 3421SOL    HW121725   3.300   2.127   0.023 -0.0226  0.3443  0.1852
 3421SOL    HW221726   3.229   2.032   0.116 -3.5696  0.5023 -0.6567
 3422SOL     OW21727   4.429   2.078  16.157  0.2545 -0.2648 -0.0026
 3422SOL    HW121728   4.510   2.033  16.181  0.8319 -0.3005 -2.0013
 3422SOL    HW221729   4.411   2.116  16.243  0.9398  0.0876 -0.0128
 3423SOL     OW21730   0.272   3.507   7.744 -0.0241  0.0606  0.1467
 3423SOL    HW121731   0.229   3.592   7.751  1.7821  0.8797  1.1209
 3423SOL    HW221732   0.355   3.527   7.787 -1.1372  1.1770  1.7859
 3424SOL     OW21733   2.323   1.918   4.084  0.2968 -0.3974 -0.4586
 3424SOL    HW121734   2.409   1.929   4.043  1.2713 -1.9954  1.1794
 3424SOL    HW221735   2.323   1.833   4.127 -0.2598 -0.2736 -0.2175
 3425SOL     OW21736   2.550   2.051   3.909 -0.2941 -0.4812 -0.0059
 3425SOL    HW121737   2.509   2.022   3.827  2.1677 -1.3767 -0.8981
 3425SOL    HW221738   2.641   2.026   3.896 -0.3926  0.1793 -1.8976
 3426SOL     OW21739   3.849   3.004   4.367  1.0639 -0.2683  0.2902
 3426SOL    HW121740   3.829   3.088   4.409 -1.0139 -0.8485  0.4339
 3426SOL    HW221741   3.894   3.040   4.291  1.7447 -1.1313  0.2860
 3427SOL     OW21742   3.235   3.846   8.451 -0.6292  0.3815  0.2318
 3427SOL    HW121743   3.143   3.820   8.444 -0.1678 -1.4542  1.2384
 3427SOL    HW221744   3.278   3.762   8.433 -0.6048  0.6687 -1.1193
 3428SOL     OW21745   1.464   1.709  10.501  0.1195 -0.0639 -0.2505
 3428SOL    HW121746   1.494   1.649  10.570  0.5478  1.4503  0.8771
 3428SOL    HW221747   1.390   1.652  10.479  0.5694 -0.4132 -0.8419
 3429SOL     OW21748   1.422   1.783   7.460  0.1624 -0.3351  0.3072
 3429SOL    HW121749   1.481   1.716   7.427  1.2724  0.4576  0.6875
 3429SOL    HW221750   1.482   1.856   7.447 -1.3285  0.9681  0.7081
 3430SOL     OW21751   3.436   2.848  13.631 -0.1475  0.0762 -0.2630
 3430SOL    HW121752   3.375   2.922  13.622  0.5145  0.2368 -3.3632
 3430SOL    HW221753   3.484   2.881  13.707 -1.8374  1.8783  0.0463
 3431SOL     OW21754   2.356   2.813   1.463 -0.4795 -0.8157  0.0332
 3431SOL    HW121755   2.427   2.803   1.399  1.2691  1.9182  1.5346
 3431SOL    HW221756   2.314   2.891   1.429  0.5737 -0.3156 -0.1340
 3432SOL     OW21757   0.013   3.597   0.637  0.4397  0.2305 -0.0697
 3432SOL    HW121758   0.019   3.558   0.724 -2.1814  0.5384  0.2707
 3432SOL    HW221759   0.018   3.688   0.667 -2.1447  0.2001  0.5055
 3433SOL     OW21760   2.715   2.431  16.971  0.0644  0.4790  0.2776
 3433SOL    HW121761   2.711   2.497  16.901 -1.3881 -2.4730 -2.3767
 3433SOL    HW221762   2.808   2.412  16.988 -0.2229  0.2083  1.5806
 3434SOL     OW21763   4.679   0.715   9.660  0.2845 -0.1967 -0.5233
 3434SOL    HW121764   0.043   0.677   9.655  0.1993 -0.3873 -0.5449
 3434SOL    HW221765   4.653   0.672   9.741 -0.3445  0.0358 -0.6040
 3435SOL     OW21766   1.920   2.962   6.796  0.2615  0.0686  0.4260
 3435SOL    HW121767   1.855   2.975   6.866 -2.1486 -0.0547 -1.7955
 3435SOL    HW221768   2.001   2.996   6.835  0.6231 -2.0023  1.4680
 3436SOL     OW21769   2.890   1.643   5.999 -0.3058 -0.4997 -0.4318
 3436SOL    HW121770   2.851   1.731   5.997 -1.2004 -0.9199 -1.4490
 3436SOL    HW221771   2.907   1.631   6.093  1.7898  0.2019 -0.7348
 3437SOL     OW21772   2.470   3.335   5.301 -0.7591  0.2475 -0.2341
 3437SOL    HW121773   2.455   3.241   5.301 -2.3891  0.5063 -1.2958
 3437SOL    HW221774   2.438   3.353   5.389  2.0173  1.5585  0.5160
 3438SOL     OW21775   0.935   1.124  12.387  0.4636  0.2101 -0.1600
 3438SOL    HW121776   0.875   1.198  12.381 -2.0503 -1.8550 -0.2916
 3438SOL    HW221777   0.949   1.128  12.482 -0.6709 -2.2233  0.1191
 3439SOL     OW21778   2.768   4.000   7.451 -0.1144 -0.7224  0.0733
 3439SOL    HW121779   2.831   3.949   7.501 -0.7742 -0.5867  1.0538
 3439SOL    HW221780   2.687   3.972   7.493  0.7326 -0.4743  1.8429
 3440SOL     OW21781   2.867   2.800  11.172  0.4769  0.2204 -0.2489
 3440SOL    HW121782   2.956   2.782  11.203  0.8264 -0.0940 -1.4475
 3440SOL    HW221783   2.847   2.738  11.101 -0.2804 -0.2424  0.3597
 3441SOL     OW21784   3.924   3.873  11.191 -0.0428  0.0899 -0.1370
 3441SOL    HW121785   3.920   3.850  11.098  0.9313  1.6452 -0.5586
 3441SOL    HW221786   3.950   3.784  11.214  1.6493  0.2306 -1.4405
 3442SOL     OW21787   2.960   3.775   8.057  0.5048  0.1661  0.1185
 3442SOL    HW121788   3.039   3.821   8.085  0.7801 -0.2314 -0.0037
 3442SOL    HW221789   2.894   3.824   8.106  0.8692  1.8787 -1.0967
 3443SOL     OW21790   3.368   2.419  15.135  0.0595  0.3629 -0.6953
 3443SOL    HW121791   3.361   2.324  15.140 -1.8729  0.7172  3.2249
 3443SOL    HW221792   3.321   2.437  15.053  2.1940  1.2868 -1.7183
 3444SOL     OW21793   2.687   1.422   8.240  0.1344 -0.1656  0.2519
 3444SOL    HW121794   2.678   1.345   8.183 -1.3849 -0.4738  0.9133
 3444SOL    HW221795   2.781   1.438   8.231  0.4593 -2.4846 -0.4944
 3445SOL     OW21796   1.534   4.702  14.533  0.4610 -0.4209 -0.0033
 3445SOL    HW121797   1.568   4.652  14.608  1.2251 -0.8732 -0.6484
 3445SOL    HW221798   1.560   4.641  14.464  1.1833 -0.7942  0.6013
 3446SOL     OW21799   1.028   2.353   7.926  0.1571 -0.3044 -1.0707
 3446SOL    HW121800   1.057   2.262   7.920  1.6102  0.2307 -2.0853
 3446SOL    HW221801   1.052   2.398   7.845 -0.1542 -1.6864 -1.9290
 3447SOL     OW21802   1.028   2.671   1.836 -0.0538 -0.0390 -0.2175
 3447SOL    HW121803   0.992   2.590   1.871 -2.1400  1.1270  0.3544
 3447SOL    HW221804   1.046   2.632   1.751 -0.6805  1.2872 -0.9691
 3448SOL     OW21805   3.359   0.290   9.108  0.1487  0.1949 -0.0762
 3448SOL    HW121806   3.421   0.310   9.038  0.4369  0.8691  0.3722
 3448SOL    HW221807   3.362   0.371   9.158  0.2725 -1.6915  2.9992
 3449SOL     OW21808   2.600   1.034   5.067  0.0265 -0.2009  0.1655
 3449SOL    HW121809   2.630   0.997   5.150  1.1865  2.4847  0.9291
 3449SOL    HW221810   2.686   1.050   5.027  0.8447 -0.2960  1.8982
 3450SOL     OW21811   0.839   1.447   7.175  0.5802 -0.2292 -0.4820
 3450SOL    HW121812   0.830   1.355   7.147 -0.4690  0.0158 -0.9376
 3450SOL    HW221813   0.754   1.458   7.219  0.1011 -0.6089 -1.3156
 3451SOL     OW21814   3.520   0.872   4.942 -0.3059 -0.0779 -0.1011
 3451SOL    HW121815   3.496   0.960   4.972 -1.3414 -0.4872  0.2621
 3451SOL    HW221816   3.581   0.842   5.009  1.5490 -2.0807 -2.7038
 3452SOL     OW21817   0.394   3.341   8.512  0.6514  0.3333  0.0465
 3452SOL    HW121818   0.408   3.254   8.549  1.0162  0.7433  0.8732
 3452SOL    HW221819   0.435   3.388   8.584 -0.2068  0.2682  0.5821
 3453SOL     OW21820   2.018   4.459   5.730  0.2064  0.1302  0.3369
 3453SOL    HW121821   2.057   4.377   5.762  2.0462  1.2066  0.8744
 3453SOL    HW221822   2.063   4.473   5.647  0.4205 -0.4510  0.3500
 3454SOL     OW21823   3.867   2.825  13.306 -0.3431 -0.3256  0.4426
 3454SOL    HW121824   3.787   2.801  13.352 -0.7845  0.3232  0.0057
 3454SOL    HW221825   3.861   2.761  13.234  2.2744 -0.8514  0.6980
 3455SOL     OW21826   0.833   2.487  12.930 -0.1930 -0.2168 -0.2489
 3455SOL    HW121827   0.888   2.489  12.852  0.7015 -1.1915  0.3610
 3455SOL    HW221828   0.748   2.521  12.902 -0.1786  0.7192  0.8601
 3456SOL     OW21829   1.966   0.435   7.061  0.2595  0.1879  0.2353
 3456SOL    HW121830   1.884   0.481   7.081  0.4266 -0.1885  1.7760
 3456SOL    HW221831   1.926   0.350   7.039  2.2025 -0.5565 -0.4106
 3457SOL     OW21832   1.344   1.221  11.947 -0.4239  0.5837 -0.0635
 3457SOL    HW121833   1.340   1.317  11.953  0.2861  0.5519  0.9175
 3457SOL    HW221834   1.363   1.207  11.854  0.2766  0.1516  0.1431
 3458SOL     OW21835   0.331   2.726   1.305 -0.4872  0.4879  0.2290
 3458SOL    HW121836   0.250   2.683   1.276  0.1589  0.2693 -1.2753
 3458SOL    HW221837   0.401   2.662   1.293  0.5191  1.1861  2.3190
 3459SOL     OW21838   3.040   2.326   5.276  0.3820  0.1372 -0.1486
 3459SOL    HW121839   3.112   2.263   5.280  0.4497  0.2278  0.0406
 3459SOL    HW221840   3.000   2.329   5.362  0.7342 -1.1020  0.0566
 3460SOL     OW21841   2.002   2.394   8.533  0.2404 -0.1701 -0.2709
 3460SOL    HW121842   1.973   2.337   8.461 -2.4441  1.2964 -0.3365
 3460SOL    HW221843   1.995   2.479   8.490 -1.5785 -1.5142 -2.6323
 3461SOL     OW21844   4.263   2.299   2.078 -0.0521  0.4136  0.1727
 3461SOL    HW121845   4.216   2.216   2.081  1.4340 -0.4080  0.7844
 3461SOL    HW221846   4.302   2.310   2.164  0.5020 -1.0517  0.1137
 3462SOL     OW21847   4.689   2.726  17.607  0.5478  0.1263 -0.0525
 3462SOL    HW121848   4.642   2.748  17.527  0.3860  0.2650  0.0836
 3462SOL    HW221849   0.057   2.741  17.585  0.1703  1.7334 -0.4977
 3463SOL     OW21850   1.145   1.290   6.511 -0.1200 -0.1143  0.0846
 3463SOL    HW121851   1.115   1.199   6.510  1.8499 -0.7824  0.9175
 3463SOL    HW221852   1.159   1.309   6.604  2.2617  1.7686 -0.6641
 3464SOL     OW21853   2.995   2.657   1.427 -0.1370  0.2465 -0.2247
 3464SOL    HW121854   2.978   2.566   1.401 -3.5222  0.2159  2.0569
 3464SOL    HW221855   2.948   2.668   1.511 -0.8501  0.5232 -0.6587
 3465SOL     OW21856   0.875   2.643  11.164 -0.3879  0.3578  0.0679
 3465SOL    HW121857   0.801   2.668  11.108 -1.6001  0.3702  1.6785
 3465SOL    HW221858   0.949   2.680  11.116 -0.4655  0.8142  0.3048
 3466SOL     OW21859   0.084   1.912   2.385  0.3934 -0.1191 -0.3276
 3466SOL    HW121860   0.153   1.918   2.452 -0.0584  0.7039  0.0589
 3466SOL    HW221861   0.130   1.964   2.319 -0.2552 -1.2501 -1.6788
 3467SOL     OW21862   3.149   0.021   2.086 -0.6998  0.4438  0.1886
 3467SOL    HW121863   3.089   0.028   2.160  0.5463  0.6587  1.1751
 3467SOL    HW221864   3.114   0.078   2.017 -0.6597 -0.4607 -0.5832
 3468SOL     OW21865   2.934   4.553   1.204  0.1873 -0.3085 -0.3086
 3468SOL    HW121866   2.848   4.525   1.236  0.0345  0.0891 -0.3759
 3468SOL    HW221867   2.917   4.573   1.112 -0.6556 -2.0421 -0.5201
 3469SOL     OW21868   1.157   0.022   7.130  0.0132  0.1600  0.1227
 3469SOL    HW121869   1.123   0.110   7.147  1.0861  0.0954  2.4903
 3469SOL    HW221870   1.102   4.693   7.188 -1.0712  1.6457  0.4461
 3470SOL     OW21871   1.493   0.946  13.643  0.2276  0.2274  0.7334
 3470SOL    HW121872   1.532   1.034  13.640  1.8196 -0.4972  0.1208
 3470SOL    HW221873   1.549   0.907  13.710  1.6438 -1.3670 -1.3636
 3471SOL     OW21874   3.184   0.002   3.805 -0.1840  0.1967  0.3526
 3471SOL    HW121875   3.260   4.691   3.851 -0.4574  1.4052  1.7008
 3471SOL    HW221876   3.228   0.079   3.768  1.7135 -0.0681  2.0580
 3472SOL     OW21877   3.896   0.265  11.189 -0.4169  0.1167 -0.1948
 3472SOL    HW121878   3.875   0.176  11.216  1.8184 -0.4490 -0.3910
 3472SOL    HW221879   3.871   0.254  11.097 -0.3752  0.5268 -0.2586
 3473SOL     OW21880   1.618   3.621   2.932  0.3973  0.4854  0.3567
 3473SOL    HW121881   1.657   3.696   2.887 -1.2716 -0.0266 -1.9432
 3473SOL    HW221882   1.535   3.604   2.887  0.9877 -0.8957 -0.2024
 3474SOL     OW21883   3.285   2.637   7.642  0.0830  0.0066  0.3259
 3474SOL    HW121884   3.311   2.642   7.734  1.0218  0.2620  0.0428
 3474SOL    HW221885   3.191   2.643   7.659 -0.1930 -1.3355 -0.7113
 3475SOL     OW21886   0.499   0.470  14.499 -0.0599 -0.8775  0.1387
 3475SOL    HW121887   0.433   0.489  14.432  0.2360  0.5837  0.2764
 3475SOL    HW221888   0.446   0.429  14.567 -0.3344 -1.0676 -0.1879
 3476SOL     OW21889   1.395   4.198  14.982  0.6138 -0.6205 -0.3709
 3476SOL    HW121890   1.479   4.230  15.016  0.1346 -0.4072  0.6199
 3476SOL    HW221891   1.426   4.151  14.905  1.4632 -0.6124 -0.0372
 3477SOL     OW21892   0.319   0.318   2.792  0.0403  0.0819 -0.4917
 3477SOL    HW121893   0.246   0.280   2.842 -0.0061  2.2949  1.1158
 3477SOL    HW221894   0.393   0.313   2.852 -0.4763 -0.1046  0.1312
 3478SOL     OW21895   0.292   3.803   8.956 -0.5217  0.4298  0.0396
 3478SOL    HW121896   0.235   3.813   9.032  0.7923 -1.3268  1.2609
 3478SOL    HW221897   0.371   3.784   9.007 -1.1347 -0.1043  0.7830
 3479SOL     OW21898   1.296   2.638   4.439 -0.1141 -0.0571 -0.0932
 3479SOL    HW121899   1.302   2.675   4.527 -1.8865 -1.0566  0.4721
 3479SOL    HW221900   1.351   2.692   4.383 -0.5716  0.3759 -0.1211
 3480SOL     OW21901   1.949   0.574   3.962  0.6859 -0.0949  0.1503
 3480SOL    HW121902   1.909   0.564   3.876  0.6131  1.3705  0.0045
 3480SOL    HW221903   2.042   0.577   3.940  0.5869 -1.9965 -0.4780
 3481SOL     OW21904   1.139   3.135   1.172 -0.1532  0.0390 -0.2022
 3481SOL    HW121905   1.067   3.128   1.234 -1.6023  2.4535 -1.6468
 3481SOL    HW221906   1.102   3.198   1.110 -0.3997 -1.1998 -1.3339
 3482SOL     OW21907   2.184   2.138   8.420  0.1396  0.0209 -0.2424
 3482SOL    HW121908   2.092   2.135   8.395  0.1402  2.9962 -0.6482
 3482SOL    HW221909   2.210   2.046   8.413 -0.3059 -0.1496  0.3536
 3483SOL     OW21910   0.496   0.729   7.131  0.2336 -0.1635  0.5250
 3483SOL    HW121911   0.503   0.723   7.226  0.8904  1.2766  0.5712
 3483SOL    HW221912   0.461   0.815   7.108  0.1469 -0.1054  0.8790
 3484SOL     OW21913   2.239   3.698   7.455 -0.2319  0.1171  0.2353
 3484SOL    HW121914   2.250   3.791   7.433  1.5282  0.3238  1.9770
 3484SOL    HW221915   2.182   3.702   7.531  1.6206 -2.1739  1.7358
 3485SOL     OW21916   3.313   2.145  16.867  0.0600  0.0169  0.2675
 3485SOL    HW121917   3.226   2.136  16.907 -0.0283 -0.7497 -0.0898
 3485SOL    HW221918   3.353   2.067  16.905 -0.7526 -0.6828 -0.3100
 3486SOL     OW21919   4.418   3.479   4.216 -0.1666  0.1476 -0.0605
 3486SOL    HW121920   4.364   3.490   4.137 -2.0502 -1.1494  1.0552
 3486SOL    HW221921   4.481   3.551   4.214  0.6236 -0.5414  0.3719
 3487SOL     OW21922   1.147   1.864  17.632 -0.3363  0.2447  0.0149
 3487SOL    HW121923   1.152   1.790  17.571  1.3648 -0.7520  1.3728
 3487SOL    HW221924   1.053   1.866  17.654 -0.7804  1.3153 -2.0048
 3488SOL     OW21925   2.942   4.350   8.631  0.1958 -0.2621 -0.2104
 3488SOL    HW121926   2.926   4.259   8.657  3.1973 -0.8122 -0.2603
 3488SOL    HW221927   3.036   4.338   8.617  0.4644  1.1895  0.2812
 3489SOL     OW21928   2.378   1.041   6.539 -0.2817  0.4561  0.1512
 3489SOL    HW121929   2.348   1.131   6.552 -1.6947 -0.0580  0.4479
 3489SOL    HW221930   2.421   1.059   6.455 -1.0850 -2.0333 -0.8064
 3490SOL     OW21931   0.869   4.688   5.781  0.3261  0.5962  0.3926
 3490SOL    HW121932   0.820   0.037   5.818 -1.3461  0.8324 -2.2347
 3490SOL    HW221933   0.807   4.667   5.711  1.3152 -3.6368  0.7417
 3491SOL     OW21934   1.672   2.343   6.941 -0.5592  0.4047  0.0113
 3491SOL    HW121935   1.613   2.317   7.011  2.6735 -0.3731  2.4425
 3491SOL    HW221936   1.680   2.438   6.947 -0.5998  0.2709  2.1132
 3492SOL     OW21937   3.094   4.423   2.025 -0.3991  0.2621  0.2234
 3492SOL    HW121938   3.172   4.474   2.002 -0.8375  1.2226  0.8701
 3492SOL    HW221939   3.098   4.424   2.121 -1.0114  1.3568  0.2321
 3493SOL     OW21940   3.078   3.718   5.116  0.0983  0.3427  0.0928
 3493SOL    HW121941   3.114   3.711   5.027 -0.0533 -0.2069  0.0749
 3493SOL    HW221942   3.118   3.636   5.145 -1.1948 -0.3674 -0.1629
 3494SOL     OW21943   0.612   3.827   4.287  0.4641  0.0171 -0.0461
 3494SOL    HW121944   0.539   3.890   4.286  1.7773  1.5887  4.5608
 3494SOL    HW221945   0.667   3.866   4.355 -0.2163 -0.0517  0.5463
 3495SOL     OW21946   1.739   3.359   8.007 -0.1353  0.0169  0.3893
 3495SOL    HW121947   1.704   3.405   7.930 -2.9074 -1.7412  0.5841
 3495SOL    HW221948   1.823   3.335   7.969 -0.5799 -1.6608  0.4844
 3496SOL     OW21949   4.145   4.289   3.750  0.0424  0.0448  0.2998
 3496SOL    HW121950   4.148   4.300   3.845  1.8748 -0.4136  0.2886
 3496SOL    HW221951   4.223   4.339   3.726  0.5326 -0.0893  1.6446
 3497SOL     OW21952   0.235   1.551   3.231 -0.1778  0.7601  0.1026
 3497SOL    HW121953   0.239   1.611   3.305  2.1002  0.7033  0.0348
 3497SOL    HW221954   0.299   1.588   3.169  0.1998  1.3282  0.8377
 3498SOL     OW21955   3.778   3.813   7.358  0.2971 -0.4390  0.4318
 3498SOL    HW121956   3.741   3.803   7.446 -1.1041 -0.3656 -0.1463
 3498SOL    HW221957   3.756   3.728   7.322 -2.2688 -0.8089  2.7884
 3499SOL     OW21958   0.773   4.060   8.847  0.2028  1.3930 -0.8108
 3499SOL    HW121959   0.690   4.036   8.805 -0.5107 -2.3753  2.7478
 3499SOL    HW221960   0.750   4.086   8.936 -0.0081 -1.5664 -0.0201
 3500SOL     OW21961   4.144   3.407   8.148  0.0197  0.1818  0.2649
 3500SOL    HW121962   4.151   3.311   8.146  1.5779  0.2821  1.5732
 3500SOL    HW221963   4.173   3.431   8.060 -0.5620 -0.7564 -0.1885
 3501SOL     OW21964   2.913   1.756  13.524 -0.0778 -0.3386  0.6258
 3501SOL    HW121965   2.817   1.758  13.525 -0.0765  0.0873  0.2484
 3501SOL    HW221966   2.922   1.728  13.433  0.0731  0.1328  0.4949
 3502SOL     OW21967   3.806   0.031   6.656  0.0950 -0.3185  0.7984
 3502SOL    HW121968   3.742   4.721   6.593  0.8696  2.1588 -1.3140
 3502SOL    HW221969   3.757   0.032   6.738  2.0346  0.6933  1.9395
 3503SOL     OW21970   4.411   3.833  11.311 -0.5379 -0.2209  0.4159
 3503SOL    HW121971   4.405   3.904  11.247  0.6960 -0.7276 -0.2850
 3503SOL    HW221972   4.459   3.769  11.257 -0.5431 -0.2710  0.4707
 3504SOL     OW21973   3.686   1.103  17.384  0.2179 -0.3985  0.8940
 3504SOL    HW121974   3.743   1.092  17.460  0.1802  1.8571  1.2253
 3504SOL    HW221975   3.753   1.131  17.322 -2.1948 -1.9256 -2.4213
 3505SOL     OW21976   2.107   4.711   4.101  0.0431  0.2674  0.3496
 3505SOL    HW121977   2.075   0.062   4.053  2.2856  0.7795 -0.3559
 3505SOL    HW221978   2.023   4.701   4.145 -0.8871  2.3794 -0.9552
 3506SOL     OW21979   1.837   0.322  12.457 -0.3585  0.2317 -0.5491
 3506SOL    HW121980   1.758   0.271  12.438  0.1462 -0.0102 -2.0208
 3506SOL    HW221981   1.906   0.278  12.407 -2.5575 -2.6963 -1.0264
 3507SOL     OW21982   2.165   2.437   4.231 -0.7178 -0.0292 -0.0655
 3507SOL    HW121983   2.223   2.392   4.292 -0.8880  0.9911  0.8339
 3507SOL    HW221984   2.094   2.374   4.241 -0.9657  0.5228  1.6146
 3508SOL     OW21985   3.120   2.680   6.039  0.0712 -0.4432  0.1682
 3508SOL    HW121986   3.123   2.735   5.961 -1.6425  0.3359  0.6442
 3508SOL    HW221987   3.102   2.596   5.997 -0.2739 -1.0092  1.4214
 3509SOL     OW21988   1.517   0.243   5.970  0.5996  0.1367  0.2754
 3509SOL    HW121989   1.580   0.303   6.009 -1.8550  2.5837  0.4132
 3509SOL    HW221990   1.577   0.190   5.917  0.0718 -0.4305  0.2493
 3510SOL     OW21991   3.218   0.278   7.051  0.0319 -0.6983  0.4451
 3510SOL    HW121992   3.186   0.324   7.128 -1.1678 -0.8217  0.0147
 3510SOL    HW221993   3.177   0.339   6.990  1.5080  0.1431  0.2896
 3511SOL     OW21994   1.008   4.129   2.915  0.0604 -0.0321 -0.3192
 3511SOL    HW121995   0.972   4.198   2.860 -0.1261 -0.0499 -0.2201
 3511SOL    HW221996   0.942   4.117   2.984 -0.4393  3.0853 -0.2361
 3512SOL     OW21997   1.820   4.334   4.989  0.2850 -0.0705  0.1315
 3512SOL    HW121998   1.895   4.353   4.933 -0.0240  1.3547  0.1873
 3512SOL    HW221999   1.848   4.262   5.045  0.3673 -0.2700 -0.1654
 3513SOL     OW22000   4.349   1.362  15.556 -0.0735 -0.5998 -0.8604
 3513SOL    HW122001   4.406   1.425  15.512  0.3170 -0.9638 -0.8753
 3513SOL    HW222002   4.401   1.332  15.631 -1.1560 -2.4032 -0.8230
 3514SOL     OW22003   0.128   3.992   2.793 -0.3373  0.1495 -0.0197
 3514SOL    HW122004   0.222   3.974   2.789 -0.5023 -0.6207 -0.4290
 3514SOL    HW222005   0.107   3.949   2.710 -2.2673  1.6279 -0.2916
 3515SOL     OW22006   0.343   1.353   8.108  0.0424 -0.1925 -0.4104
 3515SOL    HW122007   0.385   1.405   8.039 -0.4556  3.4135  1.9994
 3515SOL    HW222008   0.355   1.265   8.074 -3.0475 -0.1818 -1.5182
 3516SOL     OW22009   4.143   4.135  13.758 -0.5212 -0.0067  0.0443
 3516SOL    HW122010   4.229   4.132  13.716  1.4891  0.6108  4.1903
 3516SOL    HW222011   4.107   4.069  13.698 -1.2248  1.2312 -0.8742
 3517SOL     OW22012   1.995   4.704  17.138 -0.3697  0.1148  0.2361
 3517SOL    HW122013   1.984   0.029  17.219 -1.9238 -1.8197  1.1986
 3517SOL    HW222014   2.030   0.035  17.068  0.1769 -2.4863 -1.5163
 3518SOL     OW22015   3.620   0.954  15.974 -0.4183 -0.5478 -0.2800
 3518SOL    HW122016   3.683   0.900  16.022  1.4118  1.1623 -0.7445
 3518SOL    HW222017   3.550   0.889  15.968 -0.8016 -0.1733  0.1276
 3519SOL     OW22018   2.467   0.383   8.317  0.6817  0.5867  0.0099
 3519SOL    HW122019   2.561   0.367   8.324  0.6294 -0.7093 -2.2728
 3519SOL    HW222020   2.474   0.469   8.359 -0.9905  0.9170 -0.4014
 3520SOL     OW22021   1.653   2.134  14.654 -0.3584 -0.1925  0.1422
 3520SOL    HW122022   1.598   2.064  14.619 -0.7151  0.6656 -1.0477
 3520SOL    HW222023   1.727   2.135  14.592  0.5685  3.6774  1.3143
 3521SOL     OW22024   3.953   3.874   4.905  0.0933 -0.4411  0.3393
 3521SOL    HW122025   4.047   3.858   4.917  0.4747  2.4152  1.2747
 3521SOL    HW222026   3.913   3.790   4.929 -1.2161  0.2368  0.4978
 3522SOL     OW22027   0.588   1.588   8.079  0.1587  0.5254 -0.1871
 3522SOL    HW122028   0.544   1.534   8.014 -0.1489  0.1457  0.3288
 3522SOL    HW222029   0.667   1.537   8.098 -0.5656 -0.9342 -1.0612
 3523SOL     OW22030   4.020   0.771   2.609 -0.0640  0.2809  0.5530
 3523SOL    HW122031   3.926   0.755   2.601 -0.2241  1.2504  0.4113
 3523SOL    HW222032   4.062   0.690   2.579  0.3501  0.5243  0.4703
 3524SOL     OW22033   3.695   0.746  17.569 -0.0626 -0.2065  0.4461
 3524SOL    HW122034   3.638   0.814  17.532 -0.0055 -0.7024 -0.5516
 3524SOL    HW222035   3.647   0.731  17.650 -0.8344 -1.3887 -0.2281
 3525SOL     OW22036   1.977   4.017   2.718 -0.1367  0.0018 -0.1925
 3525SOL    HW122037   2.007   4.090   2.772  1.3918 -0.9978  0.3019
 3525SOL    HW222038   1.896   4.059   2.689 -1.9952 -3.4743 -0.0347
 3526SOL     OW22039   1.143   4.334   3.705 -0.1914 -0.8659  0.3696
 3526SOL    HW122040   1.198   4.405   3.671 -0.0740  0.7063  3.8591
 3526SOL    HW222041   1.057   4.369   3.681  0.7038  0.9282 -0.2193
 3527SOL     OW22042   3.098   1.157  16.018 -0.2775  0.5727  0.1041
 3527SOL    HW122043   3.156   1.138  16.092 -0.9801 -1.1003  0.2300
 3527SOL    HW222044   3.088   1.071  15.977 -0.7951  1.8114 -2.3196
 3528SOL     OW22045   2.026   1.615  16.695  0.2483 -0.4380  0.4733
 3528SOL    HW122046   2.033   1.534  16.745  0.9071 -0.4303  0.4039
 3528SOL    HW222047   2.119   1.637  16.694 -0.1949  1.5381  2.6596
 3529SOL     OW22048   2.994   2.180   6.481  0.6214  0.1241  0.3357
 3529SOL    HW122049   3.027   2.223   6.402  1.0956 -1.4250 -0.3042
 3529SOL    HW222050   2.998   2.257   6.538 -1.0799  0.2466  0.2985
 3530SOL     OW22051   3.392   2.275   0.025 -0.6241 -0.2633 -0.6770
 3530SOL    HW122052   3.346   2.344  17.675  0.1918  0.5399 -0.2978
 3530SOL    HW222053   3.483   2.302   0.037 -0.3506 -1.2393 -0.5299
 3531SOL     OW22054   0.686   0.111  15.791  0.2299  0.1976  0.1252
 3531SOL    HW122055   0.670   0.060  15.870  0.4310 -2.1407 -1.3476
 3531SOL    HW222056   0.601   0.150  15.769  1.3733  3.2242  1.0060
 3532SOL     OW22057   3.969   1.680  10.217 -0.0441 -0.0390  0.3705
 3532SOL    HW122058   4.027   1.756  10.213 -0.4554  0.2022 -1.0361
 3532SOL    HW222059   4.039   1.616  10.228 -0.1285  0.0698  1.4945
 3533SOL     OW22060   2.005   3.977  11.808 -0.1378 -0.3246 -0.3053
 3533SOL    HW122061   1.976   4.013  11.892 -0.2053  1.6344 -1.1729
 3533SOL    HW222062   2.100   3.971  11.820 -0.0958 -0.8836 -0.9470
 3534SOL     OW22063   4.322   0.621   6.577 -0.1015  0.1699 -0.0129
 3534SOL    HW122064   4.235   0.634   6.614 -1.3437 -0.2865 -2.8096
 3534SOL    HW222065   4.353   0.545   6.627  0.5727  1.5610  1.6677
 3535SOL     OW22066   3.738   2.171   5.024 -0.0141  0.1441 -0.3795
 3535SOL    HW122067   3.813   2.184   4.965  0.6452  1.5232  0.7638
 3535SOL    HW222068   3.773   2.133   5.104 -0.7446 -0.4839 -0.3592
 3536SOL     OW22069   4.560   0.622   9.879  0.0171 -0.2904 -0.2154
 3536SOL    HW122070   4.558   0.539   9.926 -0.0076 -0.5717 -0.7152
 3536SOL    HW222071   4.505   0.604   9.804 -0.0149  2.8408 -0.9417
 3537SOL     OW22072   3.707   1.750   1.651 -0.2511  0.1879  0.1171
 3537SOL    HW122073   3.693   1.658   1.628 -0.3346  0.9837 -3.1075
 3537SOL    HW222074   3.677   1.803   1.576 -0.4570  0.0177  0.0795
 3538SOL     OW22075   4.339   2.564   5.861  0.1888  0.5663 -0.1812
 3538SOL    HW122076   4.354   2.539   5.770 -4.0953 -0.5883 -0.6035
 3538SOL    HW222077   4.292   2.647   5.860  0.9738  1.0267  1.4035
 3539SOL     OW22078   1.588   1.404   5.169 -0.5119 -0.3630 -0.7109
 3539SOL    HW122079   1.679   1.404   5.139 -0.2729 -1.0592  0.0190
 3539SOL    HW222080   1.554   1.329   5.120  1.1412 -1.0390 -0.8231
 3540SOL     OW22081   1.928   4.328   4.134  0.6984 -0.4442  0.3627
 3540SOL    HW122082   1.978   4.247   4.140  0.5244 -0.5712  0.1021
 3540SOL    HW222083   1.908   4.363   4.221 -1.1161  2.1073 -1.0579
 3541SOL     OW22084   3.734   3.472   3.138  0.3765  0.2681  0.5694
 3541SOL    HW122085   3.679   3.400   3.167  0.8056  0.9556  3.1196
 3541SOL    HW222086   3.730   3.473   3.042  1.3568 -2.6664  0.5000
 3542SOL     OW22087   3.365   2.964   6.350  0.7124 -0.1869 -0.1658
 3542SOL    HW122088   3.269   2.962   6.339  0.6133 -2.4477  1.2205
 3542SOL    HW222089   3.391   2.978   6.259  1.1550  0.0534  0.0005
 3543SOL     OW22090   4.624   1.438   1.790  0.6354 -0.4295 -0.5305
 3543SOL    HW122091   4.573   1.367   1.829  2.7671  0.0940  3.2333
 3543SOL    HW222092   4.560   1.483   1.736  2.2434  2.2182 -0.2348
 3544SOL     OW22093   2.342   2.141   6.698 -0.1868 -0.3760 -0.1509
 3544SOL    HW122094   2.304   2.073   6.642 -2.2954  1.2647 -0.6644
 3544SOL    HW222095   2.433   2.117   6.680 -0.1360 -0.5738  0.3453
 3545SOL     OW22096   2.136   4.586   2.779 -1.0474 -0.2112  0.0410
 3545SOL    HW122097   2.110   4.644   2.850 -0.1173 -0.3626  0.5047
 3545SOL    HW222098   2.106   4.635   2.702  0.3960  1.9198  0.8601
 3546SOL     OW22099   2.970   2.326   1.048  0.3832 -0.7201  0.4834
 3546SOL    HW122100   2.977   2.246   1.101  0.3013 -1.2088 -0.2461
 3546SOL    HW222101   3.046   2.377   1.076 -0.2316  0.7837 -0.6657
 3547SOL     OW22102   1.348   1.351   0.042  0.6506  0.2057 -0.2342
 3547SOL    HW122103   1.325   1.443   0.054  3.5225  0.6339  1.9130
 3547SOL    HW222104   1.434   1.359   0.001  1.1761 -0.2585  0.7928
 3548SOL     OW22105   1.107   1.139   0.389 -0.0784  0.0670 -0.1318
 3548SOL    HW122106   1.148   1.144   0.303 -0.1192  3.2765  0.0346
 3548SOL    HW222107   1.183   1.129   0.446 -0.6066 -1.0264  0.3855
 3549SOL     OW22108   2.253   2.740   2.053  0.3332 -0.6253 -0.0074
 3549SOL    HW122109   2.251   2.687   1.973 -1.7271 -2.7469  1.4608
 3549SOL    HW222110   2.233   2.827   2.020 -2.8986 -1.3054  0.1395
 3550SOL     OW22111   3.694   2.038  11.752  0.1682  0.2040 -0.5257
 3550SOL    HW122112   3.639   2.115  11.768 -0.4996 -0.3610 -0.1186
 3550SOL    HW222113   3.620   1.977  11.755 -0.3831  0.8471 -0.7827
 3551SOL     OW22114   0.172   3.281   8.842  0.1726  0.0504  1.2431
 3551SOL    HW122115   0.095   3.304   8.789  1.5228 -0.2787 -0.8625
 3551SOL    HW222116   0.203   3.367   8.871 -2.1166  1.9451 -1.9290
 3552SOL     OW22117   1.418   3.060   1.984  0.0095  0.0699  0.4004
 3552SOL    HW122118   1.409   2.965   1.997  1.2051 -0.0382  0.4710
 3552SOL    HW222119   1.332   3.081   1.948  0.5185  2.2424  0.5100
 3553SOL     OW22120   1.629   1.475  13.678  0.2254 -0.1322 -0.3237
 3553SOL    HW122121   1.572   1.539  13.635  0.3165 -0.7429 -1.3615
 3553SOL    HW222122   1.666   1.526  13.750 -0.5886 -0.4691  0.3259
 3554SOL     OW22123   0.404   1.427  15.624 -0.4328  0.2670 -0.1681
 3554SOL    HW122124   0.344   1.388  15.561 -0.9738  1.2974 -0.2936
 3554SOL    HW222125   0.448   1.484  15.561  1.6843  0.4350  1.4694
 3555SOL     OW22126   2.678   4.067   2.714  0.1154  0.2090  0.8591
 3555SOL    HW122127   2.663   4.157   2.742 -0.4040  0.8423 -1.3918
 3555SOL    HW222128   2.661   4.030   2.800  2.7893 -1.8098  0.5235
 3556SOL     OW22129   4.152   0.573   7.473 -0.4025  0.1189  0.8825
 3556SOL    HW122130   4.238   0.550   7.509  0.5012  1.1614 -0.5989
 3556SOL    HW222131   4.177   0.579   7.381  1.5496  2.5385  1.5747
 3557SOL     OW22132   4.571   4.575   3.812 -0.3346  0.8302 -0.0742
 3557SOL    HW122133   4.626   4.647   3.781 -1.2607  0.9489 -1.4187
 3557SOL    HW222134   4.522   4.611   3.886  0.2793  0.0967  0.6918
 3558SOL     OW22135   1.923   1.880   2.081  0.2439 -0.1791 -0.0065
 3558SOL    HW122136   1.983   1.935   2.130  3.4324 -2.3502 -1.4780
 3558SOL    HW222137   1.918   1.937   2.004 -1.0373 -0.5523 -0.2025
 3559SOL     OW22138   3.731   4.627   3.414  0.5846  0.6939 -0.2837
 3559SOL    HW122139   3.794   4.556   3.398  0.2728  0.8542 -2.2388
 3559SOL    HW222140   3.689   4.604   3.331 -0.5805  1.0386  0.2090
 3560SOL     OW22141   4.231   3.762   7.976  0.0878  0.4999 -0.0669
 3560SOL    HW122142   4.285   3.744   8.053 -0.8460 -2.0950 -0.0115
 3560SOL    HW222143   4.239   3.678   7.929 -1.3414  0.5701 -0.4486
 3561SOL     OW22144   3.090   1.613  14.240  0.0666 -0.1346  0.0700
 3561SOL    HW122145   2.996   1.622  14.226 -0.0214 -0.4056  0.4878
 3561SOL    HW222146   3.092   1.551  14.312  0.7385  0.5709  0.6530
 3562SOL     OW22147   2.367   1.156   9.483  0.3829  0.4015 -0.1085
 3562SOL    HW122148   2.340   1.216   9.414 -1.3953  1.1262  1.2196
 3562SOL    HW222149   2.329   1.076   9.445  0.0854 -0.2753  1.6263
 3563SOL     OW22150   0.453   2.990   6.376 -0.0165 -0.6417  0.5663
 3563SOL    HW122151   0.514   2.917   6.378  1.7981  0.8783  0.2354
 3563SOL    HW222152   0.493   3.059   6.428 -1.3982  1.6115 -1.3582
 3564SOL     OW22153   2.783   0.884   2.232  0.0179 -0.5132 -0.0699
 3564SOL    HW122154   2.688   0.876   2.227 -0.0661  0.9847 -0.6596
 3564SOL    HW222155   2.809   0.893   2.140  0.9002 -2.6596 -0.0310
 3565SOL     OW22156   2.602   2.787  17.609 -0.7632  0.4331 -0.5777
 3565SOL    HW122157   2.531   2.726  17.591 -0.6575 -0.3617  1.7395
 3565SOL    HW222158   2.564   2.844  17.676  1.5810  0.7812  0.4288
 3566SOL     OW22159   4.071   2.763  10.763 -0.0969 -0.0742 -0.2455
 3566SOL    HW122160   4.092   2.807  10.845 -1.4964  0.1635 -0.0129
 3566SOL    HW222161   4.157   2.766  10.721 -0.2875  0.7402 -0.5742
 3567SOL     OW22162   1.603   0.033   8.686  0.1379 -0.0667  0.0749
 3567SOL    HW122163   1.532   0.092   8.710 -0.5412 -1.5932  1.8544
 3567SOL    HW222164   1.572   4.672   8.718 -1.5680  0.8100  0.7371
 3568SOL     OW22165   2.915   1.413   3.717 -0.1258 -0.2262  0.5512
 3568SOL    HW122166   2.917   1.350   3.645  0.8620  0.3138  0.1080
 3568SOL    HW222167   2.981   1.478   3.693  0.0015 -1.7618 -3.2144
 3569SOL     OW22168   0.312   0.194  11.489 -0.5466  0.0461 -0.3094
 3569SOL    HW122169   0.357   0.276  11.465  0.0801 -0.2931 -0.3068
 3569SOL    HW222170   0.343   0.140  11.416 -0.8393 -1.6524  0.8209
 3570SOL     OW22171   4.368   0.733   8.720  0.1189 -0.3522  0.5467
 3570SOL    HW122172   4.400   0.664   8.662 -1.1169 -0.6425  0.2034
 3570SOL    HW222173   4.445   0.758   8.771  1.1569 -0.9551 -0.7293
 3571SOL     OW22174   2.495   1.603   8.113  0.7509 -0.1283 -0.4326
 3571SOL    HW122175   2.555   1.553   8.168 -0.6568 -0.2271  1.0154
 3571SOL    HW222176   2.475   1.681   8.164 -0.5572 -1.9938  1.9397
 3572SOL     OW22177   4.500   3.452   1.724 -0.6601  0.7967  0.0706
 3572SOL    HW122178   4.561   3.401   1.670 -1.2177  1.3625 -1.1115
 3572SOL    HW222179   4.538   3.539   1.713 -3.3616  2.0750  1.0510
 3573SOL     OW22180   1.634   1.274  16.025  0.3025 -0.2284 -0.3872
 3573SOL    HW122181   1.556   1.251  15.974  1.3106  0.0218 -2.0381
 3573SOL    HW222182   1.682   1.191  16.029 -0.5872 -0.7978 -1.2817
 3574SOL     OW22183   3.537   1.418  17.043 -0.4545 -0.2099 -0.0903
 3574SOL    HW122184   3.522   1.337  17.093  1.4191  0.2314  1.2075
 3574SOL    HW222185   3.463   1.411  16.984 -1.7970 -0.9447  1.6886
 3575SOL     OW22186   3.005   3.683   4.352  0.2462 -0.2102  0.2930
 3575SOL    HW122187   3.068   3.753   4.367  0.2797 -0.1802  0.0049
 3575SOL    HW222188   3.059   3.609   4.379  0.3474 -0.7620 -1.4212
 3576SOL     OW22189   0.569   4.290  11.910  0.4066  0.1122  0.1320
 3576SOL    HW122190   0.533   4.319  11.826  2.9005  2.2934 -0.2077
 3576SOL    HW222191   0.545   4.198  11.915 -0.5222  0.3489  0.0600
 3577SOL     OW22192   0.068   1.450  11.338 -0.1700 -0.2470  0.1047
 3577SOL    HW122193   0.010   1.497  11.397 -2.2508 -0.3191 -1.9044
 3577SOL    HW222194   0.129   1.412  11.401 -0.1888  0.3519  0.4862
 3578SOL     OW22195   0.080   1.909   3.631  0.4849 -0.1266 -0.4839
 3578SOL    HW122196   0.027   1.832   3.652  3.0667 -2.0069 -0.8927
 3578SOL    HW222197   0.056   1.958   3.709  2.3071  1.0109 -0.6444
 3579SOL     OW22198   3.899   3.176   5.992 -0.4660 -0.1324 -0.3570
 3579SOL    HW122199   3.884   3.088   6.026  0.2232  0.1969  0.7750
 3579SOL    HW222200   3.819   3.223   6.014 -0.5072  0.4597 -1.7591
 3580SOL     OW22201   2.851   3.673   0.687 -0.1402  0.3333  0.0439
 3580SOL    HW122202   2.809   3.623   0.617  1.8107  1.0199 -1.6174
 3580SOL    HW222203   2.811   3.623   0.758  1.3361 -1.8979 -0.7191
 3581SOL     OW22204   0.879   1.842   1.032  0.5933 -0.5795 -0.3045
 3581SOL    HW122205   0.849   1.787   0.959 -1.9651 -0.1699  0.4311
 3581SOL    HW222206   0.824   1.799   1.098  1.2068  0.4303  0.8634
 3582SOL     OW22207   4.123   3.506   0.705  0.0474  0.2718  0.2161
 3582SOL    HW122208   4.216   3.481   0.701  0.3455  1.0961  1.7781
 3582SOL    HW222209   4.105   3.496   0.612  1.5099  4.4255 -0.5004
 3583SOL     OW22210   1.250   4.441   7.559  0.1348 -0.1081  0.2031
 3583SOL    HW122211   1.304   4.397   7.494  1.9031  2.6743 -0.2080
 3583SOL    HW222212   1.264   4.533   7.535  0.0637  0.2619  1.5968
 3584SOL     OW22213   1.130   2.650  12.400  0.2874 -0.4503  0.0931
 3584SOL    HW122214   1.081   2.657  12.318  0.1592 -1.0309  0.1222
 3584SOL    HW222215   1.205   2.595  12.376  0.6378  0.2749 -0.5159
 3585SOL     OW22216   4.720   3.840   3.293 -0.3198 -0.5917  0.6293
 3585SOL    HW122217   0.073   3.874   3.337 -0.4548  0.6033 -0.0424
 3585SOL    HW222218   0.021   3.867   3.205  2.0146  0.9753  1.7914
 3586SOL     OW22219   2.831   1.702  12.842 -0.1098 -0.0673  0.3896
 3586SOL    HW122220   2.882   1.665  12.914 -0.7255 -0.1423  0.7884
 3586SOL    HW222221   2.899   1.759  12.806 -0.0304 -0.0195  0.6117
 3587SOL     OW22222   3.780   3.291  13.811 -0.0032  0.3047  0.0887
 3587SOL    HW122223   3.787   3.386  13.817 -0.7925  0.2904  1.2255
 3587SOL    HW222224   3.852   3.270  13.751  0.1242  0.7616  0.0840
 3588SOL     OW22225   2.787   0.177   5.249  0.2384 -0.1734  0.2836
 3588SOL    HW122226   2.864   0.225   5.218  0.4801 -1.0793 -0.5366
 3588SOL    HW222227   2.766   0.122   5.173  2.1270  0.2903 -0.5867
 3589SOL     OW22228   4.704   4.182   9.829  0.4275  0.0967 -0.7644
 3589SOL    HW122229   4.626   4.128   9.846  2.0689 -2.2108 -0.5212
 3589SOL    HW222230   4.712   4.165   9.735 -0.9467 -3.8384 -0.2075
 3590SOL     OW22231   4.653   3.543  17.585  0.4595 -0.1376 -0.4531
 3590SOL    HW122232   4.576   3.598  17.602 -0.7543 -1.9599 -0.0874
 3590SOL    HW222233   4.724   3.606  17.597  1.5350 -1.5325  0.4803
 3591SOL     OW22234   2.558   1.639   2.472 -0.0645 -0.6057 -0.1808
 3591SOL    HW122235   2.494   1.670   2.536  0.0421 -0.1421 -0.3000
 3591SOL    HW222236   2.544   1.545   2.481 -1.2426 -0.2676  1.5909
 3592SOL     OW22237   4.414   2.120  14.042 -0.0573  0.1618 -0.9139
 3592SOL    HW122238   4.426   2.055  13.974 -4.2560 -1.2488 -0.2841
 3592SOL    HW222239   4.383   2.078  14.122  2.0469 -1.4336 -0.9551
 3593SOL     OW22240   3.217   1.268  15.064  0.4583 -0.1455 -0.6513
 3593SOL    HW122241   3.173   1.183  15.064  0.3848 -0.1073 -0.6938
 3593SOL    HW222242   3.135   1.317  15.068  0.9399  0.3826  2.8899
 3594SOL     OW22243   2.516   2.132   2.125 -0.1150  0.1260 -0.6457
 3594SOL    HW122244   2.497   2.045   2.161  1.1703  0.4267  0.7506
 3594SOL    HW222245   2.499   2.130   2.031  0.2238 -2.2196 -0.6471
 3595SOL     OW22246   4.655   3.697  10.088 -0.4811  0.4154 -0.3784
 3595SOL    HW122247   4.647   3.603  10.105 -0.7689  0.0669 -2.3829
 3595SOL    HW222248   0.020   3.707  10.054  0.0993  0.7012  1.2598
 3596SOL     OW22249   4.090   2.780   8.579 -0.0550  0.4575  0.2114
 3596SOL    HW122250   4.071   2.702   8.527  0.6017  1.1749 -1.1022
 3596SOL    HW222251   4.157   2.823   8.526  0.3073 -2.1544 -1.4336
 3597SOL     OW22252   0.607   1.996   7.462  0.0834  0.1466  0.1825
 3597SOL    HW122253   0.580   1.930   7.398 -1.0391 -0.0609  0.8795
 3597SOL    HW222254   0.528   2.046   7.479  0.6557  1.1078  0.0326
 3598SOL     OW22255   1.626   1.750   7.676  0.1544  0.1646 -0.3822
 3598SOL    HW122256   1.554   1.808   7.703 -0.7056 -0.1243 -2.0518
 3598SOL    HW222257   1.660   1.807   7.607 -2.0297 -0.1047 -1.6942
 3599SOL     OW22258   0.535   4.627  12.125  0.5126  0.1331  0.4840
 3599SOL    HW122259   0.444   4.604  12.107  0.6730 -2.1294  2.6147
 3599SOL    HW222260   0.522   4.702  12.182  1.2100  0.9275 -0.4059
 3600SOL     OW22261   1.883   2.418   5.752  0.2187  0.9058 -0.2129
 3600SOL    HW122262   1.977   2.430   5.739  0.4399 -2.2321 -1.5466
 3600SOL    HW222263   1.869   2.404   5.846  1.6287  2.2356  0.1979
 3601SOL     OW22264   0.272   0.602   3.576 -0.1554  0.0654  0.1740
 3601SOL    HW122265   0.235   0.537   3.516  0.5595 -0.9746  0.8678
 3601SOL    HW222266   0.199   0.614   3.637 -1.0028  2.2332 -1.2672
 3602SOL     OW22267   2.265   3.083   6.643 -0.2787 -0.1037  0.0076
 3602SOL    HW122268   2.229   3.169   6.666  1.3928  1.2293 -2.2806
 3602SOL    HW222269   2.223   3.040   6.717  2.0493  2.4514  2.8323
 3603SOL     OW22270   3.314   1.473  14.880  0.0381  0.1948 -0.0788
 3603SOL    HW122271   3.381   1.532  14.916 -0.7870 -0.5388  2.6380
 3603SOL    HW222272   3.283   1.427  14.959  0.9381  0.7338  0.5896
 3604SOL     OW22273   1.006   0.816   1.533 -0.2431 -0.5075  0.4340
 3604SOL    HW122274   0.941   0.749   1.553 -1.1100  0.6881  1.6214
 3604SOL    HW222275   1.019   0.815   1.438  0.1209 -2.1188  0.4993
 3605SOL     OW22276   1.949   0.678  16.859  0.2529  0.1275 -0.4451
 3605SOL    HW122277   2.024   0.626  16.831  0.0764 -0.2678 -0.1836
 3605SOL    HW222278   1.879   0.651  16.799 -0.8958 -0.4293  1.1625
 3606SOL     OW22279   3.975   0.056   3.569  0.7054  0.4004  0.2436
 3606SOL    HW122280   3.904   0.049   3.505  0.5445 -0.4286  0.5074
 3606SOL    HW222281   3.980   0.150   3.581  0.5842  0.2920  1.1044
 3607SOL     OW22282   2.338   1.501   6.239 -0.4473 -0.1040  0.1992
 3607SOL    HW122283   2.351   1.564   6.310  3.1259  0.5462 -1.0375
 3607SOL    HW222284   2.247   1.472   6.249 -0.8903  1.0544 -0.4059
 3608SOL     OW22285   1.564   2.403  14.674  0.4968 -0.0338 -0.1590
 3608SOL    HW122286   1.578   2.311  14.652 -0.4545 -0.5913  1.6182
 3608SOL    HW222287   1.548   2.438  14.586 -1.9756  2.0094  1.1115
 3609SOL     OW22288   0.378   2.132  12.089 -0.2792  0.0741 -0.9755
 3609SOL    HW122289   0.329   2.151  12.009 -1.5459  1.0591  0.0253
 3609SOL    HW222290   0.332   2.184  12.156  0.3542 -2.0891  1.1392
 3610SOL     OW22291   0.549   2.975   7.138  0.0161 -0.1118  0.5697
 3610SOL    HW122292   0.465   2.958   7.180 -0.9468  1.1705 -0.8200
 3610SOL    HW222293   0.534   2.960   7.045  1.2899  1.7292  0.0521
 3611SOL     OW22294   1.424   3.526   2.419  0.3098  0.0258 -0.7411
 3611SOL    HW122295   1.397   3.507   2.509  0.5208 -0.7846 -0.8572
 3611SOL    HW222296   1.476   3.450   2.393 -0.2166 -0.2790 -0.9035
 3612SOL     OW22297   2.917   0.241   3.704  0.0505  0.3120  0.0430
 3612SOL    HW122298   2.999   0.272   3.664 -1.0404  0.0306 -2.3801
 3612SOL    HW222299   2.944   0.171   3.763 -0.8245  0.3739  0.5103
 3613SOL     OW22300   1.191   4.456   3.154  0.1516  0.5042 -0.9118
 3613SOL    HW122301   1.141   4.433   3.075 -0.9914 -0.0112 -0.0411
 3613SOL    HW222302   1.261   4.507   3.114  0.9151  0.1904  0.0482
 3614SOL     OW22303   2.290   2.781   2.637  0.0780 -0.6033  0.0415
 3614SOL    HW122304   2.297   2.854   2.699 -1.3206 -0.5042  0.0868
 3614SOL    HW222305   2.272   2.823   2.553  2.1425 -0.3690 -0.2828
 3615SOL     OW22306   2.172   0.873   3.710 -0.2367 -0.2742  0.1978
 3615SOL    HW122307   2.230   0.946   3.689 -0.9114  0.0896 -0.3961
 3615SOL    HW222308   2.128   0.903   3.790 -1.3560 -2.4345  0.4093
 3616SOL     OW22309   3.329   4.147   7.550 -0.0737  0.0079  0.2937
 3616SOL    HW122310   3.336   4.078   7.485 -1.3326 -0.4073  0.6056
 3616SOL    HW222311   3.258   4.108   7.602 -0.1855 -1.7463 -1.2102
 3617SOL     OW22312   0.627   0.424   8.718  0.1990 -0.2496 -0.0305
 3617SOL    HW122313   0.573   0.501   8.732 -1.8189 -1.6139 -0.2330
 3617SOL    HW222314   0.555   0.370   8.685 -1.1308  1.1068  0.6946
 3618SOL     OW22315   1.709   3.351   4.353 -0.7947 -0.1261 -0.6941
 3618SOL    HW122316   1.796   3.324   4.323 -1.3135 -1.5206 -0.9493
 3618SOL    HW222317   1.725   3.442   4.375  0.7907 -0.5154 -0.1829
 3619SOL     OW22318   3.814   2.691   5.591 -0.2008  0.0101  0.5636
 3619SOL    HW122319   3.755   2.756   5.553 -0.6860 -0.2764  0.8296
 3619SOL    HW222320   3.821   2.714   5.684  0.7216 -1.3149  0.8189
 3620SOL     OW22321   3.810   3.055   6.304  0.2625  0.4522 -0.2194
 3620SOL    HW122322   3.835   3.146   6.287  0.8930  0.4060  0.4030
 3620SOL    HW222323   3.732   3.059   6.359 -0.3741 -3.0604 -0.8479
 3621SOL     OW22324   1.485   3.526   5.311 -0.3465 -0.4035  0.4594
 3621SOL    HW122325   1.400   3.515   5.353 -0.9730 -1.0379 -0.9878
 3621SOL    HW222326   1.535   3.460   5.360  0.7959 -1.0565 -1.5936
 3622SOL     OW22327   0.755   3.970   2.448  0.0505  0.1658  0.2168
 3622SOL    HW122328   0.739   4.064   2.456 -0.2865 -0.0848  2.6028
 3622SOL    HW222329   0.666   3.936   2.451 -0.6159  1.6759 -3.2642
 3623SOL     OW22330   3.741   1.316   8.421  0.0569  0.1157 -0.2608
 3623SOL    HW122331   3.677   1.263   8.468 -0.5539  2.3001  1.3550
 3623SOL    HW222332   3.794   1.252   8.375  0.6065  0.2641  0.1609
 3624SOL     OW22333   2.559   2.456  17.186  0.8165  0.6552  0.3774
 3624SOL    HW122334   2.597   2.447  17.098  0.0644 -0.7813  0.2009
 3624SOL    HW222335   2.532   2.548  17.193 -1.0401  0.0354  1.3478
 3625SOL     OW22336   1.304   0.931  16.781 -0.3778 -0.1829  0.4300
 3625SOL    HW122337   1.222   0.976  16.762  0.8460  1.7250 -0.4123
 3625SOL    HW222338   1.352   1.001  16.826 -1.1172  0.9432 -0.5310
 3626SOL     OW22339   2.002   3.676   3.459 -0.7067 -0.0273  0.3276
 3626SOL    HW122340   1.939   3.732   3.504 -2.6028 -0.5078 -1.7035
 3626SOL    HW222341   2.053   3.742   3.412  0.4775 -0.0082  1.6548
 3627SOL     OW22342   0.144   0.307   8.132  0.2266  0.7356  0.6131
 3627SOL    HW122343   0.176   0.370   8.196 -1.4384  3.7120 -1.5013
 3627SOL    HW222344   0.169   0.223   8.171  0.2865  1.8147  2.9262
 3628SOL     OW22345   2.248   0.064   8.430  0.0092  0.4174 -0.1328
 3628SOL    HW122346   2.232   0.023   8.515 -0.7231  0.1826 -0.3852
 3628SOL    HW222347   2.295   0.139   8.465  0.4943  0.1233 -0.1501
 3629SOL     OW22348   0.263   4.709   4.890  0.1974 -0.6842  0.5574
 3629SOL    HW122349   0.192   4.649   4.870 -2.1187  1.8649  1.1837
 3629SOL    HW222350   0.239   0.059   4.834 -1.2185 -0.8609  0.9482
 3630SOL     OW22351   3.738   0.003  17.189  0.0665 -0.1252 -0.4217
 3630SOL    HW122352   3.646   0.001  17.213  0.5261 -0.8453  1.2680
 3630SOL    HW222353   3.737   0.099  17.187  0.9095 -0.0797  0.9091
 3631SOL     OW22354   0.921   2.442  15.640  0.0819 -0.2755  0.2861
 3631SOL    HW122355   0.981   2.370  15.657  0.1011 -0.0544  1.1423
 3631SOL    HW222356   0.895   2.420  15.551 -0.8918  2.7703 -0.1906
 3632SOL     OW22357   1.405   0.700   6.230  0.2176  0.1814 -0.0152
 3632SOL    HW122358   1.475   0.765   6.232 -0.3756  0.7796  1.3527
 3632SOL    HW222359   1.461   0.624   6.214 -1.2166 -1.0700  0.9704
 3633SOL     OW22360   0.246   2.140   2.985 -0.1299  0.4411 -0.2545
 3633SOL    HW122361   0.165   2.141   3.035 -0.6409  0.7128 -1.0943
 3633SOL    HW222362   0.306   2.198   3.033 -0.1791  0.5292 -0.2992
 3634SOL     OW22363   0.309   0.452  10.198 -0.0830  0.2037  0.2956
 3634SOL    HW122364   0.272   0.364  10.186 -1.3072  0.8454 -0.5424
 3634SOL    HW222365   0.385   0.425  10.146  0.0676 -0.5625  0.8966
 3635SOL     OW22366   3.645   1.544   2.753  0.2286 -0.0982 -0.7733
 3635SOL    HW122367   3.574   1.481   2.746  1.2341 -0.8296 -4.1538
 3635SOL    HW222368   3.620   1.605   2.823  1.2772 -0.0313 -0.4595
 3636SOL     OW22369   4.060   0.900   1.935 -0.3156 -0.1582  0.2625
 3636SOL    HW122370   4.030   0.976   1.985  3.3313  2.0195 -0.8663
 3636SOL    HW222371   4.074   0.839   2.008 -0.1219 -0.6703 -0.2073
 3637SOL     OW22372   0.767   4.208  10.376  0.0890  0.1105 -0.1135
 3637SOL    HW122373   0.851   4.167  10.353  0.0080  0.3988 -0.9307
 3637SOL    HW222374   0.756   4.264  10.299 -2.3484  0.2136  0.3035
 3638SOL     OW22375   0.703   2.338   5.623 -0.2554  0.0039  0.2543
 3638SOL    HW122376   0.697   2.256   5.672 -0.4237 -1.8339 -2.8356
 3638SOL    HW222377   0.610   2.354   5.605  0.4425  1.3412 -2.2089
 3639SOL     OW22378   3.987   1.132   2.059  0.2763 -0.7643 -0.1698
 3639SOL    HW122379   3.925   1.159   1.991 -0.5243 -1.1535  0.3926
 3639SOL    HW222380   4.031   1.211   2.092 -1.0252 -0.6641  1.3396
 3640SOL     OW22381   2.926   3.052   6.041  0.4099  0.3071 -0.4251
 3640SOL    HW122382   2.876   2.998   5.980  0.5078 -0.2159 -0.0395
 3640SOL    HW222383   2.886   3.139   6.031 -0.0359  0.0651 -0.7563
 3641SOL     OW22384   3.898   3.877  15.485 -0.3156 -0.0335 -0.3175
 3641SOL    HW122385   3.825   3.900  15.428  0.5205  2.2551 -0.4722
 3641SOL    HW222386   3.899   3.787  15.451  1.0795 -0.0555 -0.2190
 3642SOL     OW22387   0.743   2.683  15.466  0.2717  0.2898  0.0690
 3642SOL    HW122388   0.761   2.765  15.421 -1.3940  0.6861  0.1170
 3642SOL    HW222389   0.649   2.667  15.465  0.5768 -1.6710  1.6586
 3643SOL     OW22390   3.997   3.800   6.531  0.3478 -0.2789 -0.5690
 3643SOL    HW122391   3.973   3.718   6.487  1.4190 -0.4918 -0.7602
 3643SOL    HW222392   4.024   3.771   6.618  1.5633  1.2445 -0.4306
 3644SOL     OW22393   3.201   4.113   3.787  0.0620 -0.2590  0.7530
 3644SOL    HW122394   3.217   4.021   3.806  0.1769 -0.8405 -2.1719
 3644SOL    HW222395   3.256   4.156   3.852  1.1059  1.8305 -1.4618
 3645SOL     OW22396   3.410   2.504   3.148 -0.6308 -0.4291 -0.0697
 3645SOL    HW122397   3.433   2.594   3.128  0.8133 -0.5165  1.1459
 3645SOL    HW222398   3.442   2.481   3.236 -0.0049  0.5064 -0.0599
 3646SOL     OW22399   4.506   1.784   8.006 -0.5595 -0.5013 -0.1499
 3646SOL    HW122400   4.576   1.816   8.062 -1.7479  0.4752  0.7595
 3646SOL    HW222401   4.462   1.740   8.079 -1.7206  1.2452  0.1969
 3647SOL     OW22402   3.138   1.997   4.377 -0.0557 -0.0997  0.0210
 3647SOL    HW122403   3.198   1.928   4.349  1.0047  0.9250 -0.2248
 3647SOL    HW222404   3.076   1.944   4.428  0.8485  0.9869  2.2615
 3648SOL     OW22405   3.231   1.823   7.400  0.7360 -0.1853  0.5917
 3648SOL    HW122406   3.272   1.884   7.461 -0.4749  1.2982 -0.0802
 3648SOL    HW222407   3.241   1.866   7.315  1.2260 -0.5305  0.4752
 3649SOL     OW22408   4.039   3.403   3.343 -0.2850  0.1451 -0.6534
 3649SOL    HW122409   4.086   3.334   3.296 -1.3192 -1.0430  0.0803
 3649SOL    HW222410   4.021   3.358   3.425  1.7716  1.6195  0.6172
 3650SOL     OW22411   1.812   2.078  10.772 -0.1307 -0.1973 -0.2057
 3650SOL    HW122412   1.861   2.012  10.722 -0.0622 -0.0269 -0.3635
 3650SOL    HW222413   1.736   2.098  10.717 -0.6606  0.9783  0.9748
 3651SOL     OW22414   2.058   1.724  15.424  0.3488  0.1865 -0.2834
 3651SOL    HW122415   2.113   1.656  15.464  0.2933  0.0291 -0.4727
 3651SOL    HW222416   1.982   1.706  15.478  0.7460  2.2825  0.9402
 3652SOL     OW22417   0.814   0.375   0.312  0.4073 -0.2405 -0.2539
 3652SOL    HW122418   0.868   0.453   0.328 -0.6934  0.6109 -0.7643
 3652SOL    HW222419   0.737   0.423   0.284  0.1134  0.7932  2.2752
 3653SOL     OW22420   4.058   3.651   4.310 -0.1110  0.0958 -0.4922
 3653SOL    HW122421   4.042   3.579   4.248  0.7050 -1.4394  1.0616
 3653SOL    HW222422   4.071   3.727   4.254  2.3376 -0.8335 -1.1864
 3654SOL     OW22423   0.296   0.312   2.468  0.3302  0.0937 -0.2641
 3654SOL    HW122424   0.340   0.323   2.384  1.8211 -0.6884  0.4073
 3654SOL    HW222425   0.322   0.221   2.483 -0.1659  0.1666  1.0275
 3655SOL     OW22426   1.136   3.001  16.596  0.4960 -0.0946 -0.0953
 3655SOL    HW122427   1.094   2.970  16.676  1.5227 -1.8255 -0.2283
 3655SOL    HW222428   1.122   3.095  16.603 -1.8840 -0.4841  0.3355
 3656SOL     OW22429   3.027   0.038  12.225 -0.1832 -0.7657  0.4936
 3656SOL    HW122430   3.075   0.016  12.305  2.2268  0.2455 -0.6541
 3656SOL    HW222431   2.960   0.082  12.276 -1.2973 -0.6624 -1.0343
 3657SOL     OW22432   0.424   0.177   8.417  0.4569  0.1068  0.4350
 3657SOL    HW122433   0.413   0.223   8.501 -3.5280 -0.4348  0.2103
 3657SOL    HW222434   0.403   0.089   8.446  2.9134 -0.9220 -0.9338
 3658SOL     OW22435   1.483   3.171   4.632 -0.2884  0.2832 -0.1151
 3658SOL    HW122436   1.552   3.195   4.694  0.4684 -0.9108 -0.4780
 3658SOL    HW222437   1.436   3.254   4.623  2.2334  1.9743  2.5369
 3659SOL     OW22438   3.744   2.891  16.290  0.5044 -0.1100  0.0200
 3659SOL    HW122439   3.700   2.825  16.345  1.2652 -1.5130 -1.0533
 3659SOL    HW222440   3.707   2.968  16.333  2.9357  0.1523  1.5803
 3660SOL     OW22441   2.710   0.200   7.736  0.5415  0.0977 -0.2038
 3660SOL    HW122442   2.760   0.227   7.813  1.8830 -0.3427 -0.9294
 3660SOL    HW222443   2.780   0.166   7.681  1.2840  2.7679 -0.9271
 3661SOL     OW22444   2.044   4.393   0.736  0.1321 -0.1308 -1.1214
 3661SOL    HW122445   2.071   4.480   0.763  3.2348 -1.3269 -0.3853
 3661SOL    HW222446   2.100   4.344   0.796 -0.6751 -1.2720 -1.2829
 3662SOL     OW22447   0.186   1.631   3.878 -0.8210  0.0724  0.3756
 3662SOL    HW122448   0.215   1.614   3.789  0.3038  0.0197  0.7507
 3662SOL    HW222449   0.221   1.549   3.912 -2.7126 -0.3394  1.3310
 3663SOL     OW22450   3.486   3.593   7.380  0.7736  0.5257 -0.3915
 3663SOL    HW122451   3.402   3.639   7.380  0.1834 -0.5670  1.9420
 3663SOL    HW222452   3.497   3.546   7.297 -0.0881 -0.9169  0.3100
 3664SOL     OW22453   1.364   0.179  15.428  0.3337 -0.4832 -0.0367
 3664SOL    HW122454   1.335   0.168  15.337 -0.6193 -1.3854  0.3716
 3664SOL    HW222455   1.276   0.171  15.466  0.7380  0.8598  1.1404
 3665SOL     OW22456   3.746   3.336   0.610  0.7264 -0.8605  0.2109
 3665SOL    HW122457   3.802   3.396   0.559 -3.3923  1.2875 -1.7955
 3665SOL    HW222458   3.667   3.384   0.585 -0.0092 -1.7958  0.7747
 3666SOL     OW22459   2.351   4.265   8.340  0.2408 -0.3708 -0.0136
 3666SOL    HW122460   2.385   4.316   8.267  0.8862 -1.6284 -0.6013
 3666SOL    HW222461   2.420   4.273   8.405 -2.8516  0.2991  3.2077
 3667SOL     OW22462   1.986   3.250  11.862 -0.1849  0.0535  0.0138
 3667SOL    HW122463   2.035   3.328  11.838  1.5773 -1.2577 -0.6242
 3667SOL    HW222464   2.040   3.185  11.816 -1.7023 -3.0959  2.6488
 3668SOL     OW22465   3.237   0.816   1.498 -0.8810 -0.0553 -0.6568
 3668SOL    HW122466   3.170   0.816   1.429 -0.0943  0.0501 -1.4103
 3668SOL    HW222467   3.229   0.904   1.533  2.2631  0.7323 -1.9783
 3669SOL     OW22468   1.337   2.933  14.107 -0.2309 -0.1791 -0.1338
 3669SOL    HW122469   1.268   2.896  14.162 -0.4573  0.0863 -0.2400
 3669SOL    HW222470   1.305   2.918  14.018  0.0966 -1.9747  0.0474
 3670SOL     OW22471   3.225   2.074   6.041 -0.4836 -0.0516  0.0267
 3670SOL    HW122472   3.263   2.162   6.033 -0.8731  0.3006  2.0206
 3670SOL    HW222473   3.303   2.027   6.073  0.6443  1.9052  0.1611
 3671SOL     OW22474   3.610   2.385   0.872 -0.6583 -0.3364 -0.2049
 3671SOL    HW122475   3.678   2.320   0.889 -0.6203 -0.3346 -0.3496
 3671SOL    HW222476   3.658   2.441   0.811 -1.3041 -2.1361 -2.3415
 3672SOL     OW22477   1.490   2.532   7.156  0.1836 -0.6994  0.5334
 3672SOL    HW122478   1.532   2.581   7.086  2.5705 -1.6264  1.3165
 3672SOL    HW222479   1.411   2.524   7.102  0.9354  2.9973 -1.0915
 3673SOL     OW22480   2.703   4.137   4.112 -0.1981 -0.3218  0.5458
 3673SOL    HW122481   2.672   4.159   4.200  4.3671  0.9208  1.8586
 3673SOL    HW222482   2.768   4.207   4.122 -0.3905 -0.0809  0.1355
 3674SOL     OW22483   2.219   1.114   5.300 -0.4445  0.1942 -0.0873
 3674SOL    HW122484   2.250   1.067   5.223 -0.3618  1.4537 -0.8288
 3674SOL    HW222485   2.300   1.157   5.326 -0.0029 -1.5606  1.3583
 3675SOL     OW22486   0.044   3.061   8.905  0.4686 -0.1517 -0.4022
 3675SOL    HW122487   0.103   3.136   8.911 -2.7380  2.4658 -2.4032
 3675SOL    HW222488   0.109   2.998   8.875  1.3623  1.1848 -1.2589
 3676SOL     OW22489   1.837   2.212   3.122 -0.1125  0.1952  0.0357
 3676SOL    HW122490   1.773   2.240   3.056 -0.7427 -0.5732  0.3294
 3676SOL    HW222491   1.798   2.134   3.159  1.5815  0.2058  1.8169
 3677SOL     OW22492   1.988   2.054  14.354  0.0609  0.2439 -0.2536
 3677SOL    HW122493   1.946   1.986  14.406  1.3241 -1.0288 -0.8950
 3677SOL    HW222494   1.966   2.134  14.401  0.2076  0.1959 -0.1047
 3678SOL     OW22495   4.406   1.758  16.291 -0.2283 -0.1229  0.2255
 3678SOL    HW122496   4.340   1.792  16.230  0.3862 -0.9680 -0.8906
 3678SOL    HW222497   4.446   1.689  16.238 -1.8151 -0.6581 -0.2644
 3679SOL     OW22498   0.978   1.393   2.786 -0.1748  0.1063 -0.0196
 3679SOL    HW122499   1.052   1.366   2.840 -0.0344  1.3338  0.3903
 3679SOL    HW222500   0.993   1.352   2.701 -0.0111 -0.6806  0.3879
 3680SOL     OW22501   4.404   4.137  14.862 -0.6310  0.1926 -0.3949
 3680SOL    HW122502   4.400   4.229  14.837 -1.2904  0.2396 -0.1139
 3680SOL    HW222503   4.323   4.145  14.913 -0.1791  2.1042  0.0395
 3681SOL     OW22504   4.716   2.501   1.925 -0.4489  0.2248  0.1142
 3681SOL    HW122505   0.056   2.477   1.992 -0.4458 -1.3486 -0.4415
 3681SOL    HW222506   4.662   2.423   1.930  3.6930 -2.6099  0.8081
 3682SOL     OW22507   4.484   2.249   3.528 -0.2079  0.1706 -0.7651
 3682SOL    HW122508   4.523   2.166   3.499  0.6021 -0.1315  1.1880
 3682SOL    HW222509   4.448   2.275   3.443  0.0699  1.2447 -0.5457
 3683SOL     OW22510   1.799   3.403   3.866 -0.4002  0.1433 -0.8038
 3683SOL    HW122511   1.817   3.467   3.934  0.2905 -0.3124 -0.5617
 3683SOL    HW222512   1.763   3.332   3.919 -1.0275  1.7600  0.9140
 3684SOL     OW22513   1.407   3.182  12.394  0.1494  0.1402  0.4081
 3684SOL    HW122514   1.489   3.225  12.416 -1.6539  3.1797  1.1527
 3684SOL    HW222515   1.370   3.237  12.325  0.3663  0.9424  0.9274
 3685SOL     OW22516   2.241   2.333   8.610 -0.4243 -0.0950  0.1574
 3685SOL    HW122517   2.245   2.269   8.539 -2.3185  0.8786 -0.8026
 3685SOL    HW222518   2.147   2.351   8.602 -0.2176  1.1546  0.4778
 3686SOL     OW22519   1.451   1.141  11.649 -0.1311 -0.3972  0.1875
 3686SOL    HW122520   1.436   1.218  11.593 -1.2211 -1.3098 -0.7674
 3686SOL    HW222521   1.545   1.144  11.630  0.4998 -3.1622  2.9747
 3687SOL     OW22522   2.252   4.249   5.394 -0.0699 -0.4159 -0.4246
 3687SOL    HW122523   2.172   4.201   5.415 -0.4237 -0.6991 -2.3876
 3687SOL    HW222524   2.309   4.216   5.463 -1.6430 -1.7092  0.2592
 3688SOL     OW22525   1.023   1.907   8.239  0.0318  0.2036 -0.1510
 3688SOL    HW122526   1.024   1.820   8.279 -0.2361  0.1886 -0.1766
 3688SOL    HW222527   1.082   1.943   8.305 -0.8119  0.4900  0.4476
 3689SOL     OW22528   2.512   2.341  11.147  0.0744  0.4399  0.3521
 3689SOL    HW122529   2.606   2.326  11.137 -0.0747 -0.6257  0.5961
 3689SOL    HW222530   2.515   2.437  11.154 -0.3780  0.3751  1.4148
 3690SOL     OW22531   3.119   4.566   9.069 -0.4862  0.5246 -0.6943
 3690SOL    HW122532   3.161   4.583   9.153  0.5555 -0.1571 -1.0816
 3690SOL    HW222533   3.146   4.638   9.013  2.6077 -0.6995 -0.7489
 3691SOL     OW22534   1.146   2.287  15.691 -0.0434 -1.0341 -0.1389
 3691SOL    HW122535   1.188   2.287  15.776 -1.1776  2.2269  0.4183
 3691SOL    HW222536   1.191   2.358  15.646  3.2580 -1.9114  1.8101
 3692SOL     OW22537   4.234   1.311  15.063  0.1210 -0.4103 -0.0156
 3692SOL    HW122538   4.208   1.295  15.154  0.0144  2.4553  0.4808
 3692SOL    HW222539   4.310   1.256  15.048  0.1525 -0.9797  2.2727
 3693SOL     OW22540   1.467   0.241  12.674  0.0813 -0.0052 -0.2582
 3693SOL    HW122541   1.548   0.193  12.666 -0.2413 -0.8761  1.6283
 3693SOL    HW222542   1.488   0.291  12.753  0.4010  1.1254 -1.0514
 3694SOL     OW22543   3.585   1.588  15.706 -0.2035  0.3290  0.1680
 3694SOL    HW122544   3.655   1.617  15.648  0.8085 -1.7478  0.3477
 3694SOL    HW222545   3.573   1.670  15.754 -1.0405  2.4627 -3.7190
 3695SOL     OW22546   3.748   3.914   4.208 -0.7003  0.8012 -0.8670
 3695SOL    HW122547   3.843   3.925   4.210 -0.4451 -1.6030 -0.1203
 3695SOL    HW222548   3.730   3.954   4.123  0.3931  1.6821 -0.6852
 3696SOL     OW22549   1.992   1.793   7.743  0.6156  0.2291 -0.0787
 3696SOL    HW122550   1.898   1.805   7.750  0.7440  1.0471  0.2205
 3696SOL    HW222551   2.026   1.794   7.832 -0.8236  0.9334  0.4519
 3697SOL     OW22552   0.982   0.964  14.311 -0.1490  0.5489  0.4492
 3697SOL    HW122553   1.063   0.917  14.334 -1.6611 -2.5341 -0.4851
 3697SOL    HW222554   0.990   0.958  14.216  1.6258  0.1172  0.6130
 3698SOL     OW22555   4.165   3.274   1.433 -0.0672 -0.2508  0.5462
 3698SOL    HW122556   4.180   3.191   1.387  1.1180 -1.4602  3.1528
 3698SOL    HW222557   4.073   3.291   1.412 -0.1778 -1.8541 -0.2944
 3699SOL     OW22558   1.152   0.566  12.658 -0.1763 -0.6072 -0.1135
 3699SOL    HW122559   1.199   0.648  12.645 -0.6203 -0.0610  1.6345
 3699SOL    HW222560   1.203   0.510  12.600 -0.3627 -3.2881  2.2537
 3700SOL     OW22561   0.194   2.011   8.623 -0.1150  0.2360 -0.3672
 3700SOL    HW122562   0.286   1.986   8.610 -1.1713 -3.9717  0.1076
 3700SOL    HW222563   0.160   2.039   8.538 -0.0916 -1.5954 -0.9837
 3701SOL     OW22564   0.822   1.459   5.069 -0.3426 -0.6972  0.4571
 3701SOL    HW122565   0.850   1.388   5.126  0.1611 -0.5932  0.3320
 3701SOL    HW222566   0.876   1.538   5.077 -3.1447  1.3581 -0.5649
 3702SOL     OW22567   1.718   0.229   3.597  0.0716 -0.0626 -0.1729
 3702SOL    HW122568   1.653   0.272   3.542  1.0655  0.6089 -0.8343
 3702SOL    HW222569   1.763   0.186   3.524  1.2764 -0.9720  1.1036
 3703SOL     OW22570   2.157   1.981  15.200 -0.4875 -0.3179  0.4032
 3703SOL    HW122571   2.228   1.935  15.154 -0.8006 -2.2527  1.8758
 3703SOL    HW222572   2.161   2.066  15.155 -2.7839 -1.3934 -1.8348
 3704SOL     OW22573   1.459   1.158  12.356 -0.3772  0.0547  0.1901
 3704SOL    HW122574   1.507   1.098  12.300 -0.3399 -0.6318  0.9563
 3704SOL    HW222575   1.371   1.121  12.354 -0.5804  0.6788 -1.9774
 3705SOL     OW22576   1.464   1.229   8.575  0.4818  0.4077  0.0452
 3705SOL    HW122577   1.495   1.274   8.497  0.7755  1.8727  1.0199
 3705SOL    HW222578   1.550   1.197   8.604  0.8541  2.4020  1.0931
 3706SOL     OW22579   4.416   0.508  14.644 -0.3094 -0.4119 -0.5494
 3706SOL    HW122580   4.475   0.563  14.695  0.0908 -0.1972 -1.2340
 3706SOL    HW222581   4.362   0.579  14.608  0.4852  1.2798  1.6184
 3707SOL     OW22582   0.567   0.818   7.371 -0.8579  0.9104 -0.3847
 3707SOL    HW122583   0.605   0.906   7.368  2.4995 -0.5593 -0.1249
 3707SOL    HW222584   0.542   0.805   7.462 -0.2946  0.6813 -0.2674
 3708SOL     OW22585   4.020   1.572   9.447 -0.2123  0.1734  0.0083
 3708SOL    HW122586   4.015   1.623   9.367  0.3208  0.3879  0.1123
 3708SOL    HW222587   4.112   1.554   9.464  0.0713  1.3193 -0.3184
 3709SOL     OW22588   0.969   1.010   2.701 -0.6972  0.2102  0.1606
 3709SOL    HW122589   0.964   1.033   2.794  1.3147 -0.2363  0.3860
 3709SOL    HW222590   1.062   1.023   2.681 -1.2606  1.5113 -1.5988
 3710SOL     OW22591   2.834   3.266  10.093  0.1584 -0.4728  0.1324
 3710SOL    HW122592   2.819   3.210  10.016  3.1588 -1.2036  0.1112
 3710SOL    HW222593   2.875   3.340  10.048 -0.7247 -1.0132 -1.5879
 3711SOL     OW22594   1.548   1.486   2.758  0.0593 -0.3442 -0.0113
 3711SOL    HW122595   1.484   1.430   2.714  0.2941 -0.4341 -0.2364
 3711SOL    HW222596   1.629   1.464   2.712  2.1144  2.1159  2.4352
 3712SOL     OW22597   1.021   1.050   6.469  0.2131  0.6954  0.1681
 3712SOL    HW122598   0.949   1.017   6.522 -2.0332  0.6285 -2.8859
 3712SOL    HW222599   1.004   1.001   6.388  1.3148 -2.6510  1.9794
 3713SOL     OW22600   4.376   2.850  11.733 -0.0270  0.8626  0.4540
 3713SOL    HW122601   4.348   2.762  11.759  0.7413  0.4671 -0.0699
 3713SOL    HW222602   4.428   2.890  11.802 -0.5158  1.8885  0.2314
 3714SOL     OW22603   3.860   3.230  11.540  0.1151 -0.4796 -0.1479
 3714SOL    HW122604   3.840   3.140  11.515 -2.1374 -0.4233  1.3976
 3714SOL    HW222605   3.856   3.266  11.452  0.4142 -0.6590 -0.2351
 3715SOL     OW22606   4.299   0.017   7.746 -0.0049  0.3675 -0.1647
 3715SOL    HW122607   4.327   4.686   7.672  1.8853  0.1341  0.7301
 3715SOL    HW222608   4.371   0.003   7.807 -0.4552  1.2201  0.5620
 3716SOL     OW22609   3.286   3.479  13.094  0.3272 -0.3408 -0.4605
 3716SOL    HW122610   3.276   3.451  13.003 -1.0172  1.1064 -0.7670
 3716SOL    HW222611   3.210   3.534  13.113  1.6581  1.1432  0.6005
 3717SOL     OW22612   4.059   2.032   4.562 -0.0975  0.0072  0.7871
 3717SOL    HW122613   4.139   2.045   4.613 -0.3605  1.9356  0.7356
 3717SOL    HW222614   4.054   1.937   4.566  0.2781 -0.0577 -0.3964
 3718SOL     OW22615   2.339   1.682  10.796  0.0542  0.0183  0.1813
 3718SOL    HW122616   2.390   1.754  10.759 -3.8565  2.3708 -0.5802
 3718SOL    HW222617   2.399   1.608  10.788 -4.8020 -3.6762 -2.4038
 3719SOL     OW22618   4.391   4.182   6.809 -0.6173 -0.1821 -0.5134
 3719SOL    HW122619   4.372   4.243   6.737 -1.8113  1.4568  1.1939
 3719SOL    HW222620   4.345   4.111   6.765  1.1566 -1.3757 -0.4829
 3720SOL     OW22621   3.461   1.898  12.117 -1.1320  0.1569  0.3513
 3720SOL    HW122622   3.556   1.905  12.118 -1.2620  2.0054  0.3896
 3720SOL    HW222623   3.443   1.834  12.048 -0.9747 -0.2171  0.6592
 3721SOL     OW22624   0.611   2.764  13.566 -0.4009  0.0229 -0.2118
 3721SOL    HW122625   0.567   2.805  13.492 -0.3631  0.2016 -0.1346
 3721SOL    HW222626   0.587   2.819  13.641 -1.1294  0.3875 -0.7108
 3722SOL     OW22627   3.087   0.951   8.285 -0.0964 -0.4326  0.4654
 3722SOL    HW122628   3.058   0.912   8.202  0.0778  2.1955 -0.8122
 3722SOL    HW222629   3.034   1.030   8.290  0.9446  0.1727  1.9189
 3723SOL     OW22630   4.418   1.979   3.925  0.6477 -0.9111  0.2862
 3723SOL    HW122631   4.382   2.067   3.939 -2.3143 -2.1085  0.3064
 3723SOL    HW222632   4.500   1.999   3.881  0.5418  1.3991  1.1436
 3724SOL     OW22633   0.329   1.382   0.047  0.1467 -0.4040  0.0569
 3724SOL    HW122634   0.408   1.418   0.007 -0.6954  2.5321  1.0772
 3724SOL    HW222635   0.365   1.302   0.084 -0.0810 -1.3345 -1.6933
 3725SOL     OW22636   2.931   3.862   8.441 -0.0695  0.3139  0.3308
 3725SOL    HW122637   2.901   3.851   8.531  2.4676  0.6395  1.2077
 3725SOL    HW222638   2.961   3.952   8.454 -0.9456  0.9560 -2.0827
 3726SOL     OW22639   4.278   3.972  10.079  0.5375 -0.0040 -0.4797
 3726SOL    HW122640   4.285   3.880  10.107 -0.1750  1.0993  3.3382
 3726SOL    HW222641   4.184   3.983  10.094  0.0172 -1.1381 -2.8849
 3727SOL     OW22642   0.717   2.754  14.895  0.1481  0.3715  0.1014
 3727SOL    HW122643   0.795   2.700  14.906  0.6360  1.1336  0.4129
 3727SOL    HW222644   0.750   2.836  14.859 -2.5517  1.6443  0.4525
 3728SOL     OW22645   4.665   4.578   8.171  0.1043 -0.3147  0.1824
 3728SOL    HW122646   4.625   4.628   8.100 -0.0976  0.6110  0.9612
 3728SOL    HW222647   4.676   4.500   8.116 -1.2029 -0.3432 -0.0337
 3729SOL     OW22648   1.557   1.524  11.038 -0.1411  0.0902  0.0820
 3729SOL    HW122649   1.602   1.564  11.111  0.3272 -0.9934  0.3806
 3729SOL    HW222650   1.614   1.549  10.965 -1.5794  1.2363 -0.6581
 3730SOL     OW22651   0.081   4.512   7.469 -0.0626 -0.1911  0.1812
 3730SOL    HW122652   0.133   4.439   7.501  0.4897  0.4642  0.7621
 3730SOL    HW222653   4.718   4.471   7.471  0.3326 -1.0571 -0.1559
 3731SOL     OW22654   2.917   2.847   5.205  0.2527 -0.5809  0.6662
 3731SOL    HW122655   2.932   2.893   5.122  3.2790 -1.3595  0.7726
 3731SOL    HW222656   2.943   2.757   5.186 -0.2079 -0.7071  0.6342
 3732SOL     OW22657   3.217   3.863   4.402  0.2679  0.1656  0.1288
 3732SOL    HW122658   3.229   3.939   4.459  0.3523 -0.2956  0.7310
 3732SOL    HW222659   3.301   3.821   4.418  1.0928  0.7260 -2.8314
 3733SOL     OW22660   3.213   3.999   6.425 -0.0445 -0.6201 -1.0245
 3733SOL    HW122661   3.283   4.063   6.411  0.3498 -0.2454  2.6464
 3733SOL    HW222662   3.143   4.063   6.439  0.9810  0.3228 -0.1840
 3734SOL     OW22663   4.247   1.893   1.244 -0.4309  0.4708 -0.0097
 3734SOL    HW122664   4.255   1.921   1.336  2.4243 -0.6154  0.0907
 3734SOL    HW222665   4.182   1.959   1.219  0.7426  2.2989  1.6645
 3735SOL     OW22666   2.831   1.013   4.727  0.1309  0.2229 -0.8690
 3735SOL    HW122667   2.875   1.053   4.802 -0.9202 -0.1245 -0.0690
 3735SOL    HW222668   2.741   1.044   4.735  0.1457  0.1544 -0.4249
 3736SOL     OW22669   4.305   1.910   5.841  0.0533 -0.3749  0.7209
 3736SOL    HW122670   4.337   1.825   5.872  1.1152 -0.2240  0.0185
 3736SOL    HW222671   4.393   1.948   5.834 -0.9265  1.7738  0.1629
 3737SOL     OW22672   4.372   0.712   6.249 -0.0667 -0.1886 -0.5085
 3737SOL    HW122673   4.377   0.719   6.344 -2.6244  0.1762 -0.4155
 3737SOL    HW222674   4.429   0.637   6.234  0.3450  0.2046 -0.9243
 3738SOL     OW22675   2.225   3.975   7.477 -0.1527 -0.0315  0.1372
 3738SOL    HW122676   2.224   4.069   7.459  0.7495 -0.2801 -1.1758
 3738SOL    HW222677   2.136   3.958   7.509  0.0230  1.1354  1.2690
 3739SOL     OW22678   3.194   4.406   1.057 -0.3016 -0.0660 -0.5325
 3739SOL    HW122679   3.201   4.481   0.998  1.2068 -0.4543 -0.8214
 3739SOL    HW222680   3.253   4.343   1.017  1.6695  2.1655 -1.1523
 3740SOL     OW22681   0.066   0.646   4.532  0.0514 -0.1384  0.1528
 3740SOL    HW122682   0.091   0.629   4.441 -0.5943 -0.4408  0.0307
 3740SOL    HW222683   0.144   0.687   4.568 -0.0759 -0.2816  0.5988
 3741SOL     OW22684   3.901   1.875   6.169  0.6069 -0.0548  0.3848
 3741SOL    HW122685   3.942   1.934   6.107  0.1487 -0.9990 -0.8078
 3741SOL    HW222686   3.903   1.932   6.247  0.1492 -0.3285  0.5971
 3742SOL     OW22687   4.561   1.390  11.986  0.0618 -0.2798 -0.1298
 3742SOL    HW122688   4.466   1.405  11.986  0.1030  0.0994  2.3916
 3742SOL    HW222689   4.590   1.436  11.908  0.5477  1.3843  1.0207
 3743SOL     OW22690   2.283   3.223   2.787  0.3169 -0.6491  0.2526
 3743SOL    HW122691   2.252   3.304   2.827 -1.1899 -0.3955 -1.3940
 3743SOL    HW222692   2.329   3.264   2.714 -0.6599 -0.1082 -0.0610
 3744SOL     OW22693   0.422   0.623   2.207 -0.3351  0.2317  0.5608
 3744SOL    HW122694   0.345   0.661   2.165  1.1096 -1.2865 -3.4472
 3744SOL    HW222695   0.395   0.533   2.189  0.3522  0.1630 -0.0908
 3745SOL     OW22696   3.557   0.300   5.735 -0.3083  0.2167  0.1696
 3745SOL    HW122697   3.561   0.395   5.725 -1.1024  0.1652 -0.6655
 3745SOL    HW222698   3.478   0.278   5.686 -1.3505  0.4011  1.7614
 3746SOL     OW22699   1.706   3.376   2.775 -0.1124 -0.5769  0.3629
 3746SOL    HW122700   1.679   3.450   2.829  0.5129 -0.8910  1.1086
 3746SOL    HW222701   1.635   3.316   2.797 -0.1886 -1.3329 -1.9229
 3747SOL     OW22702   1.176   1.261   3.158 -0.4057 -0.2203 -0.1638
 3747SOL    HW122703   1.269   1.272   3.181 -0.5237 -0.0328  0.2257
 3747SOL    HW222704   1.155   1.199   3.229  0.0422 -1.0462 -0.7423
 3748SOL     OW22705   4.597   3.803   5.629  0.1282  0.4104 -0.4720
 3748SOL    HW122706   4.585   3.726   5.685 -0.3550 -0.7683 -2.2059
 3748SOL    HW222707   4.689   3.829   5.633 -0.1092  0.8622  2.0477
 3749SOL     OW22708   4.304   0.224   7.942  0.1162 -0.1956  0.0965
 3749SOL    HW122709   4.390   0.234   7.902 -0.2262  1.5981 -0.2219
 3749SOL    HW222710   4.259   0.161   7.886 -0.3158 -0.4409  0.7171
 3750SOL     OW22711   2.837   4.597   4.639  0.5103 -0.5290  0.4373
 3750SOL    HW122712   2.741   4.593   4.641  0.6014 -2.3945  0.6073
 3750SOL    HW222713   2.858   4.599   4.546 -1.0764  0.3323  0.0843
 3751SOL     OW22714   0.290   3.831   8.368  0.6529  0.0810 -0.1266
 3751SOL    HW122715   0.343   3.764   8.412  0.1348 -1.1384 -1.3864
 3751SOL    HW222716   0.282   3.794   8.280  1.1585 -2.2533  0.8027
 3752SOL     OW22717   1.505   4.022  11.015 -0.3529  0.1802  0.0160
 3752SOL    HW122718   1.502   4.007  10.920  0.9225 -0.5863  0.0975
 3752SOL    HW222719   1.421   4.066  11.021 -0.2736  0.4725 -0.9322
 3753SOL     OW22720   2.989   0.819   0.803  0.0384 -0.4903  0.1940
 3753SOL    HW122721   2.980   0.724   0.809 -0.3731 -0.3589  1.6126
 3753SOL    HW222722   2.989   0.843   0.710  1.3619  0.9098  0.5365
 3754SOL     OW22723   1.552   2.492  12.818  0.4895  0.5841 -0.8358
 3754SOL    HW122724   1.610   2.511  12.892 -1.6411 -1.6022  1.4415
 3754SOL    HW222725   1.593   2.411  12.788 -0.7434  0.0197 -1.0114
 3755SOL     OW22726   3.924   3.288  12.096  0.4877  0.4009 -0.0495
 3755SOL    HW122727   3.962   3.244  12.172 -0.5466 -0.3482  0.0334
 3755SOL    HW222728   3.940   3.233  12.020 -0.9352  1.1010 -0.8605
 3756SOL     OW22729   3.215   2.010   3.099 -0.7410 -0.4813  0.3764
 3756SOL    HW122730   3.293   1.957   3.116 -1.3713 -1.7570 -0.7545
 3756SOL    HW222731   3.208   2.002   3.004  1.2294  0.0226  0.1758
 3757SOL     OW22732   4.510   1.962  14.325  0.2754 -0.2208  0.6274
 3757SOL    HW122733   4.500   1.881  14.376  0.2705 -0.6813 -0.1078
 3757SOL    HW222734   4.420   1.981  14.297  0.4848 -0.0543  0.0774
 3758SOL     OW22735   1.275   3.946   2.121 -0.1461 -0.5865  0.2573
 3758SOL    HW122736   1.266   3.920   2.212 -2.6190 -3.5007 -0.8406
 3758SOL    HW222737   1.273   3.863   2.075  2.7522 -0.9421  0.7802
 3759SOL     OW22738   2.035   4.636  12.228 -0.4133  0.1898 -0.2343
 3759SOL    HW122739   1.959   4.606  12.179 -0.5899  0.0050  0.1527
 3759SOL    HW222740   2.038   4.565  12.292  1.6465 -0.6293 -1.2410
 3760SOL     OW22741   0.155   2.406   8.637 -0.0321  0.2838 -0.1235
 3760SOL    HW122742   0.178   2.389   8.546  1.9701 -0.0793  0.4686
 3760SOL    HW222743   0.154   2.502   8.646 -2.7743  0.3383 -0.8142
 3761SOL     OW22744   4.302   2.207   9.436  1.0456  0.2341 -0.8591
 3761SOL    HW122745   4.345   2.123   9.418 -1.9606 -0.9586 -2.5063
 3761SOL    HW222746   4.321   2.212   9.530 -1.8616 -2.7092 -0.0928
 3762SOL     OW22747   2.925   1.725   9.238  0.8977 -0.1338 -1.0123
 3762SOL    HW122748   2.884   1.678   9.311  3.0788 -0.2794  0.0997
 3762SOL    HW222749   2.928   1.816   9.269 -0.1241 -0.0033 -1.2954
 3763SOL     OW22750   0.028   1.017   5.090 -0.2197 -0.3068 -0.2322
 3763SOL    HW122751   4.693   1.063   5.030 -0.4550 -0.4312 -0.0984
 3763SOL    HW222752   0.097   0.989   5.030  0.1119  1.4028 -0.6460
 3764SOL     OW22753   2.486   3.661   6.862  0.1218  0.4968 -0.2268
 3764SOL    HW122754   2.491   3.755   6.877 -2.9604  0.9547 -2.1644
 3764SOL    HW222755   2.562   3.632   6.913  0.8439  1.9070 -0.5145
 3765SOL     OW22756   4.480   4.274  12.596  0.0239  0.2130 -0.1125
 3765SOL    HW122757   4.543   4.206  12.573  0.9742  1.4777 -1.2372
 3765SOL    HW222758   4.419   4.276  12.522  0.3841 -0.5010 -0.4313
 3766SOL     OW22759   4.434   0.571   5.628  0.1118  0.1180  0.2769
 3766SOL    HW122760   4.480   0.569   5.544  1.8724 -0.2977  1.2397
 3766SOL    HW222761   4.446   0.664   5.646 -3.2908  0.7551 -0.6989
 3767SOL     OW22762   0.226   3.283  14.786  0.2646 -0.1979  0.0159
 3767SOL    HW122763   0.150   3.225  14.778 -1.4279  2.1661 -0.8520
 3767SOL    HW222764   0.191   3.366  14.820  0.6114 -0.5567  1.2503
 3768SOL     OW22765   4.398   1.596   2.033  0.0749  0.1775 -0.0409
 3768SOL    HW122766   4.317   1.644   2.019  0.2636  0.5676  0.1637
 3768SOL    HW222767   4.469   1.656   2.057 -1.0601  0.8729  1.5907
 3769SOL     OW22768   4.321   0.443   8.988 -0.0076  0.3994 -0.4143
 3769SOL    HW122769   4.299   0.399   8.906 -0.2946 -1.9763  0.9061
 3769SOL    HW222770   4.239   0.417   9.032 -0.1068  0.8340 -0.3492
 3770SOL     OW22771   0.816   4.584  11.041 -0.4507 -0.1614  0.3222
 3770SOL    HW122772   0.871   4.617  11.113 -0.8511 -1.4963  1.2431
 3770SOL    HW222773   0.888   4.541  10.995 -1.4141 -0.8527 -0.5571
 3771SOL     OW22774   0.996   4.238  11.840  0.1751  0.6093 -0.7297
 3771SOL    HW122775   0.965   4.147  11.844  1.5204  0.2271  0.9053
 3771SOL    HW222776   1.088   4.238  11.813  0.4595 -1.1679  0.2248
 3772SOL     OW22777   0.349   2.828  14.594  0.4703 -0.1347  0.1721
 3772SOL    HW122778   0.336   2.902  14.652 -2.3922  1.4659 -2.4766
 3772SOL    HW222779   0.328   2.861  14.506 -0.4415 -2.8489 -0.6546
 3773SOL     OW22780   0.640   2.557  12.712  0.4240 -0.3251  0.2764
 3773SOL    HW122781   0.577   2.628  12.698  0.3080 -0.5035 -0.0918
 3773SOL    HW222782   0.711   2.610  12.675  0.7086 -0.1823  1.0172
 3774SOL     OW22783   0.682   3.551   2.744 -0.9605  0.3020 -0.3562
 3774SOL    HW122784   0.681   3.520   2.835  1.5147  2.2896  0.3329
 3774SOL    HW222785   0.651   3.641   2.755  2.1682  1.1115  1.9987
 3775SOL     OW22786   2.517   0.405   3.218  0.4490  0.0525  0.1517
 3775SOL    HW122787   2.509   0.472   3.286  1.3526 -0.2984  0.6141
 3775SOL    HW222788   2.452   0.426   3.152 -0.2021 -1.9592  0.1748
 3776SOL     OW22789   2.212   1.773   5.928  0.3586 -0.4545 -0.5699
 3776SOL    HW122790   2.153   1.730   5.991  0.0702  0.7887  0.0143
 3776SOL    HW222791   2.168   1.857   5.917 -1.7865 -1.4987  0.0350
 3777SOL     OW22792   1.051   4.717   6.660 -0.6172  0.7617 -0.1778
 3777SOL    HW122793   1.097   0.043   6.727  2.6290 -1.2974 -0.8596
 3777SOL    HW222794   1.003   4.662   6.722 -0.0703 -0.1359 -0.5441
 3778SOL     OW22795   2.894   1.247  17.251 -0.5556  0.5937  0.1221
 3778SOL    HW122796   2.931   1.222  17.335 -3.4079  0.0144  1.1771
 3778SOL    HW222797   2.800   1.249  17.267 -0.8584 -1.0469 -1.2873
 3779SOL     OW22798   0.339   4.344   5.965 -0.3734  0.1804 -0.5682
 3779SOL    HW122799   0.404   4.400   5.923  0.1379  0.0221  0.0144
 3779SOL    HW222800   0.374   4.328   6.052 -0.0886 -2.9862 -1.2593
 3780SOL     OW22801   0.968   2.950   8.819 -0.0041  0.1605 -0.0319
 3780SOL    HW122802   0.918   2.976   8.896  1.1134 -0.2425  0.8405
 3780SOL    HW222803   1.048   2.923   8.864 -0.7170 -1.4295  0.2754
 3781SOL     OW22804   3.298   0.578  11.677  0.2045 -0.2225 -0.0837
 3781SOL    HW122805   3.368   0.513  11.673 -1.1182 -1.6992  0.7000
 3781SOL    HW222806   3.220   0.525  11.658 -0.0265 -0.2640  0.9666
 3782SOL     OW22807   4.547   0.936   4.272 -0.1592  0.5521 -0.3446
 3782SOL    HW122808   4.470   0.943   4.328 -0.0873  3.2999 -0.6063
 3782SOL    HW222809   4.615   0.937   4.340 -1.9971 -3.0743  1.5311
 3783SOL     OW22810   2.289   1.583   9.725 -0.0554  0.2315 -0.2416
 3783SOL    HW122811   2.332   1.560   9.643 -2.1861 -0.0272 -1.2977
 3783SOL    HW222812   2.342   1.523   9.777  1.2534 -0.0322 -1.8842
 3784SOL     OW22813   0.960   0.446   2.872  0.1052  0.5162  0.6180
 3784SOL    HW122814   0.998   0.467   2.957 -0.4852  1.6363  0.6030
 3784SOL    HW222815   1.003   0.513   2.820 -0.7019  1.6564  1.4347
 3785SOL     OW22816   2.925   0.622   9.781  0.5058  0.3764 -0.3017
 3785SOL    HW122817   2.865   0.695   9.772 -0.9882 -0.5516  2.4311
 3785SOL    HW222818   2.879   0.572   9.848 -0.2937  0.5213 -0.7508
 3786SOL     OW22819   4.391   3.087   2.712 -0.4391  0.2330  0.1683
 3786SOL    HW122820   4.471   3.123   2.675 -1.0303  0.9946 -0.3914
 3786SOL    HW222821   4.431   3.035   2.782 -0.0791  0.6853  0.2982
 3787SOL     OW22822   1.786   0.581   3.441 -0.0820  0.1734  0.2097
 3787SOL    HW122823   1.768   0.599   3.349  0.4879 -1.7019 -0.2612
 3787SOL    HW222824   1.871   0.625   3.435 -0.8727  1.7584  0.5674
 3788SOL     OW22825   1.931   0.705   8.420  0.0091  0.3142 -0.3038
 3788SOL    HW122826   1.884   0.635   8.374  1.7317 -1.6836  0.9827
 3788SOL    HW222827   1.855   0.759   8.443 -0.4793  0.0407 -1.2581
 3789SOL     OW22828   1.112   2.481   2.910  0.1001 -0.0811 -0.1108
 3789SOL    HW122829   1.161   2.541   2.966 -0.1295 -0.2223  0.2468
 3789SOL    HW222830   1.178   2.473   2.841  0.0851  0.0548 -0.1412
 3790SOL     OW22831   2.703   2.384  16.628 -0.0879 -0.0745 -0.2918
 3790SOL    HW122832   2.628   2.392  16.569 -0.1790 -1.2301 -0.3304
 3790SOL    HW222833   2.698   2.474  16.661 -1.2925 -1.1615  2.4330
 3791SOL     OW22834   0.498   3.805   4.616 -0.0649  0.0437  0.0625
 3791SOL    HW122835   0.539   3.766   4.693  0.3423  1.2513  0.4443
 3791SOL    HW222836   0.572   3.825   4.560  0.3823  0.8557  0.9457
 3792SOL     OW22837   3.324   4.213   4.029 -0.2512 -0.1591  0.0770
 3792SOL    HW122838   3.282   4.300   4.026 -0.5350 -0.1579  4.1312
 3792SOL    HW222839   3.414   4.246   4.033 -0.6244  1.0464 -1.4984
 3793SOL     OW22840   0.960   2.298   6.956 -1.1310 -0.1881 -0.1409
 3793SOL    HW122841   1.035   2.283   7.013 -0.1113  2.7819 -0.6947
 3793SOL    HW222842   0.900   2.230   6.988 -2.3765  0.8376 -0.2590
 3794SOL     OW22843   0.958   0.120   3.289 -0.4587  0.5004 -0.3670
 3794SOL    HW122844   0.977   0.029   3.315  1.8583  0.9112 -0.5902
 3794SOL    HW222845   1.003   0.123   3.205  0.5794 -1.5514  0.1159
 3795SOL     OW22846   0.731   1.220  13.610 -0.0364  0.5073  0.2777
 3795SOL    HW122847   0.826   1.210  13.597 -0.1891 -0.3791 -0.1518
 3795SOL    HW222848   0.695   1.131  13.608  0.3801  0.3343  0.3623
 3796SOL     OW22849   1.999   1.064   9.112  0.7653  0.1251  0.5610
 3796SOL    HW122850   1.976   0.973   9.131 -1.2655  0.1440 -1.7724
 3796SOL    HW222851   1.974   1.084   9.022  2.2714 -0.3621  0.0341
 3797SOL     OW22852   0.339   2.542  16.109 -0.7068 -0.1962 -0.4467
 3797SOL    HW122853   0.383   2.578  16.186  1.3293 -0.6898 -1.3783
 3797SOL    HW222854   0.401   2.498  16.051  1.7290  0.0547  1.9410
 3798SOL     OW22855   1.224   1.045   2.639 -0.3411  0.1879  0.4596
 3798SOL    HW122856   1.319   1.040   2.649 -0.5784 -0.4401  2.3660
 3798SOL    HW222857   1.207   0.969   2.582  0.4087  0.9606 -0.7835
 3799SOL     OW22858   2.263   1.217  14.399  0.2196 -0.0728  0.0231
 3799SOL    HW122859   2.316   1.275  14.453 -0.0303 -0.0497  0.2396
 3799SOL    HW222860   2.173   1.230  14.429  0.6032  0.8902  0.7268
 3800SOL     OW22861   2.923   3.679   1.596 -0.1184  0.3513  0.1256
 3800SOL    HW122862   2.927   3.769   1.627 -2.1342 -0.2686  2.1481
 3800SOL    HW222863   2.830   3.659   1.604 -0.3206  1.2266 -0.1016
 3801SOL     OW22864   2.556   4.393   5.542 -0.5645  0.2659  0.5445
 3801SOL    HW122865   2.648   4.418   5.530 -0.2486 -0.6838  0.9253
 3801SOL    HW222866   2.555   4.299   5.522 -2.9367 -0.1577  2.7625
 3802SOL     OW22867   4.460   1.311   3.278 -0.9688  0.3948  0.1172
 3802SOL    HW122868   4.495   1.286   3.192  1.0905 -1.1763  1.4075
 3802SOL    HW222869   4.371   1.280   3.266 -1.3408  1.9295 -1.2167
 3803SOL     OW22870   2.749   0.050   5.932  0.1956  0.2340  0.1078
 3803SOL    HW122871   2.672   4.717   5.935  0.9071 -0.8293 -2.3735
 3803SOL    HW222872   2.718   0.120   5.875 -1.8019 -0.3737  0.4497
 3804SOL     OW22873   0.277   2.450  10.888 -0.2288  0.4392  0.0749
 3804SOL    HW122874   0.364   2.437  10.926 -0.7275  0.8743  1.3518
 3804SOL    HW222875   0.317   2.455  10.800 -0.0426 -0.0450  0.1320
 3805SOL     OW22876   4.522   2.725   2.869 -0.3255  0.1201  0.3375
 3805SOL    HW122877   4.489   2.639   2.841 -0.2172 -0.8854  3.2789
 3805SOL    HW222878   4.616   2.707   2.869 -0.0319  1.5856 -3.0222
 3806SOL     OW22879   3.803   4.640   2.232  0.2412 -0.1440 -0.6844
 3806SOL    HW122880   3.811   4.710   2.167  0.3161 -1.9386 -2.6220
 3806SOL    HW222881   3.752   4.675   2.305 -0.4233 -2.0450 -0.2431
 3807SOL     OW22882   1.086   2.076   7.511  0.3361  0.3749  0.8832
 3807SOL    HW122883   1.155   2.141   7.497  0.6932 -0.3467 -0.7265
 3807SOL    HW222884   1.120   1.998   7.468 -0.2247 -0.0427  1.2116
 3808SOL     OW22885   1.545   1.103   4.742  0.3419 -0.3304 -0.0343
 3808SOL    HW122886   1.603   1.040   4.698  2.7598  0.8319  1.5216
 3808SOL    HW222887   1.546   1.183   4.689  1.9456 -0.6607 -0.5020
 3809SOL     OW22888   3.125   3.773   3.509  0.2412 -0.2723 -0.4056
 3809SOL    HW122889   3.177   3.801   3.584 -0.9747 -0.7502  0.6308
 3809SOL    HW222890   3.189   3.789   3.440 -0.2361 -1.5805 -1.1456
 3810SOL     OW22891   0.605   2.160  11.651 -0.0508  0.1832 -0.1721
 3810SOL    HW122892   0.631   2.068  11.659  1.0111  0.4874 -0.0766
 3810SOL    HW222893   0.534   2.163  11.715  0.5277  0.5435  0.4627
 3811SOL     OW22894   3.379   4.354   5.132 -0.6469  0.6246 -0.1504
 3811SOL    HW122895   3.296   4.380   5.093  0.2677  2.8504 -0.5899
 3811SOL    HW222896   3.393   4.275   5.079 -0.5740  1.0903 -0.8279
 3812SOL     OW22897   4.291   4.088   6.207 -0.0730 -0.2312  0.2232
 3812SOL    HW122898   4.374   4.103   6.253  0.4766 -0.5014 -0.6717
 3812SOL    HW222899   4.330   4.054   6.127 -2.0016 -2.3914  0.2052
 3813SOL     OW22900   1.539   4.645  16.497 -0.2509  0.6549  0.3977
 3813SOL    HW122901   1.608   4.710  16.477 -0.9715  1.4785  0.5790
 3813SOL    HW222902   1.457   4.690  16.516 -1.3812 -2.1567  2.0992
 3814SOL     OW22903   3.525   2.211  14.648 -0.1537 -0.0976  0.1249
 3814SOL    HW122904   3.448   2.155  14.655 -1.3080  1.3210 -1.0642
 3814SOL    HW222905   3.490   2.299  14.663  1.3043  0.8670 -2.0016
 3815SOL     OW22906   3.954   3.644   7.954  0.0536 -0.1340  0.0983
 3815SOL    HW122907   4.017   3.716   7.968  1.0041 -0.6937 -1.3073
 3815SOL    HW222908   3.875   3.685   7.989  0.0633 -0.1120  0.0949
 3816SOL     OW22909   0.080   4.505   4.539  0.5033 -0.0188  0.4059
 3816SOL    HW122910   0.154   4.521   4.480 -0.6162  0.1869 -0.9501
 3816SOL    HW222911   0.043   4.425   4.503 -0.0964 -0.2500  1.5473
 3817SOL     OW22912   3.084   0.315   5.862 -0.7179  0.0602  0.6043
 3817SOL    HW122913   3.163   0.262   5.872 -0.3726  0.6699  1.1564
 3817SOL    HW222914   3.100   0.372   5.787 -2.0789 -1.8357 -1.1216
 3818SOL     OW22915   1.166   1.262   2.035 -0.0681 -0.2254 -0.2798
 3818SOL    HW122916   1.256   1.235   2.017 -0.4165 -0.5805 -1.5235
 3818SOL    HW222917   1.131   1.175   2.015  0.0431 -1.1590  3.6794
 3819SOL     OW22918   4.040   3.588   1.588  1.0900  0.4307 -0.3801
 3819SOL    HW122919   4.014   3.602   1.679  2.3365  1.2189 -0.1410
 3819SOL    HW222920   4.012   3.497   1.575  2.3201 -0.1863  1.3502
 3820SOL     OW22921   2.110   0.556   8.787  0.2615 -0.0075  0.4718
 3820SOL    HW122922   2.088   0.477   8.737  1.3215 -1.1504  1.8250
 3820SOL    HW222923   2.156   0.531   8.867  1.5414  0.1118 -0.2176
 3821SOL     OW22924   0.545   2.455  12.989  0.5838  0.1663 -0.8042
 3821SOL    HW122925   0.525   2.545  12.963 -2.0579 -0.0080  0.6572
 3821SOL    HW222926   0.592   2.467  13.072 -0.4205 -0.1899 -0.1821
 3822SOL     OW22927   2.150   0.637   1.726 -0.2630 -0.7873  0.2741
 3822SOL    HW122928   2.106   0.687   1.657  1.2948 -0.2782 -0.3374
 3822SOL    HW222929   2.178   0.704   1.788  0.7145  1.1983 -2.2982
 3823SOL     OW22930   4.262   0.597   2.314 -0.2881  0.1015  0.2397
 3823SOL    HW122931   4.242   0.526   2.374  1.0985 -0.8155 -0.3609
 3823SOL    HW222932   4.323   0.565   2.246 -0.3954 -1.0656  0.6868
 3824SOL     OW22933   0.031   1.818   0.427  0.1321 -0.3106 -0.1639
 3824SOL    HW122934   4.701   1.751   0.384 -1.6612  1.9036 -1.3320
 3824SOL    HW222935   0.092   1.754   0.464  0.6989  0.2985 -0.0500
 3825SOL     OW22936   0.650   2.002   1.790 -0.2447  0.4450  0.2506
 3825SOL    HW122937   0.607   2.023   1.707  0.1492  0.2222 -0.0076
 3825SOL    HW222938   0.699   2.082   1.806  0.9835 -0.3535  0.4822
 3826SOL     OW22939   0.318   3.490   7.487  0.1294  0.4652 -0.1688
 3826SOL    HW122940   0.229   3.490   7.452 -0.0850  2.7599  0.3805
 3826SOL    HW222941   0.308   3.498   7.582 -0.5110 -1.8153 -0.0547
 3827SOL     OW22942   2.449   2.722   4.680 -0.2446  0.2894  0.1021
 3827SOL    HW122943   2.519   2.787   4.693  0.7898 -0.7694 -0.1526
 3827SOL    HW222944   2.474   2.656   4.745  3.6591  2.9601  1.3159
 3828SOL     OW22945   0.089   3.135   2.381 -0.2750  0.2671 -0.0632
 3828SOL    HW122946   4.718   3.134   2.369 -0.2536  0.9359 -0.3305
 3828SOL    HW222947   0.108   3.050   2.421  2.4689  0.2048 -1.5038
 3829SOL     OW22948   0.622   2.618   5.443  0.0773 -0.3779  0.1846
 3829SOL    HW122949   0.704   2.641   5.399  0.7167  1.0361  2.1088
 3829SOL    HW222950   0.608   2.528   5.415  3.0989 -1.3982  2.0085
 3830SOL     OW22951   0.102   3.762  10.608  0.1088 -0.5079 -0.1084
 3830SOL    HW122952   0.072   3.815  10.534  1.0895  1.9714  1.2941
 3830SOL    HW222953   0.039   3.782  10.677  0.4967 -0.7152  0.3057
 3831SOL     OW22954   1.397   3.229   2.374 -0.1599  0.4759 -0.1664
 3831SOL    HW122955   1.347   3.289   2.318  1.4307  2.2261  0.2887
 3831SOL    HW222956   1.447   3.176   2.313 -0.3721 -2.3842  2.1554
 3832SOL     OW22957   0.289   0.647   2.446 -0.7084 -0.1831  0.0053
 3832SOL    HW122958   0.367   0.656   2.391  0.9743  1.8652  2.7193
 3832SOL    HW222959   0.259   0.737   2.438  2.5182  0.9666  0.7334
 3833SOL     OW22960   1.065   0.019  13.206  0.1550 -0.4865  0.1802
 3833SOL    HW122961   1.122   4.684  13.156 -0.4598 -1.7275  0.9343
 3833SOL    HW222962   1.116   0.030  13.286 -0.6414 -0.0376  0.6214
 3834SOL     OW22963   0.415   1.776   4.211  0.4142  0.3257  0.0224
 3834SOL    HW122964   0.414   1.688   4.174  0.6079 -0.0583  0.9355
 3834SOL    HW222965   0.416   1.831   4.133  0.1058  0.2428 -0.0373
 3835SOL     OW22966   1.914   1.712   0.121  0.0309  0.3130  0.0551
 3835SOL    HW122967   1.937   1.679   0.034  0.8700  3.7350 -1.0000
 3835SOL    HW222968   1.828   1.746   0.098  0.2644  0.9536  0.1403
 3836SOL     OW22969   1.766   1.057  15.949  0.1070  0.4323  0.4924
 3836SOL    HW122970   1.756   0.964  15.930  0.8603  0.8844 -2.1905
 3836SOL    HW222971   1.751   1.104  15.867  0.8276 -0.9582 -0.4300
 3837SOL     OW22972   3.091   1.694   8.185  0.2756  0.1767 -0.1780
 3837SOL    HW122973   3.176   1.678   8.145  0.1677 -0.0892 -0.3019
 3837SOL    HW222974   3.045   1.693   8.101 -2.0881  0.1681  1.0921
 3838SOL     OW22975   1.686   2.701   2.212  0.0182 -0.0110 -0.2105
 3838SOL    HW122976   1.721   2.696   2.123  1.5205 -0.6720  0.4269
 3838SOL    HW222977   1.654   2.610   2.215 -0.5177  0.1853 -0.0104
 3839SOL     OW22978   0.088   3.248   0.808  0.2602  1.0407 -0.9156
 3839SOL    HW122979   0.077   3.343   0.808 -0.1620  0.9901  0.5889
 3839SOL    HW222980   0.022   3.220   0.871  0.4997  1.0531 -0.6562
 3840SOL     OW22981   4.519   1.448   2.859 -0.0058  0.5095 -0.2381
 3840SOL    HW122982   4.609   1.441   2.889 -0.1214 -2.1826 -0.5143
 3840SOL    HW222983   4.522   1.538   2.825  1.0296  0.3410 -0.5902
 3841SOL     OW22984   4.372   1.318   4.949  0.2808 -0.3140  0.3057
 3841SOL    HW122985   4.359   1.329   4.855  1.0720 -0.4400  0.1801
 3841SOL    HW222986   4.373   1.405   4.988  1.4807  0.6504 -1.9357
 3842SOL     OW22987   2.012   2.920   8.096  0.6047 -0.0740  0.2352
 3842SOL    HW122988   1.930   2.952   8.135  1.2225  2.0427 -0.2223
 3842SOL    HW222989   2.071   2.958   8.161 -2.0645  0.9289  2.0826
 3843SOL     OW22990   3.826   4.238  11.869 -0.1368  0.5764  0.3946
 3843SOL    HW122991   3.765   4.310  11.853 -1.4860 -0.6711 -0.0814
 3843SOL    HW222992   3.901   4.279  11.826  0.4155 -1.8218 -0.8939
 3844SOL     OW22993   1.826   2.683   4.044 -0.0058  0.6082 -0.3280
 3844SOL    HW122994   1.814   2.626   4.120 -1.6390  0.8365 -0.4210
 3844SOL    HW222995   1.781   2.632   3.977 -1.3953  2.0231 -0.4645
 3845SOL     OW22996   1.580   0.536   8.981 -0.0222 -0.7945  0.0139
 3845SOL    HW122997   1.660   0.567   8.938 -0.6223 -1.0790 -1.3091
 3845SOL    HW222998   1.596   0.445   9.005  1.6550 -0.4276  0.2810
 3846SOL     OW22999   1.848   2.903  13.711  0.1664  0.0552  1.1511
 3846SOL    HW123000   1.870   2.950  13.792 -1.9781  0.8059  1.2860
 3846SOL    HW223001   1.880   2.814  13.723 -2.0089 -0.5941  2.0644
 3847SOL     OW23002   3.200   3.107   8.278  0.1901 -0.3176 -0.3526
 3847SOL    HW123003   3.171   3.106   8.370 -0.0386  0.5855 -0.4144
 3847SOL    HW223004   3.291   3.082   8.292  0.1515  0.4449  1.2360
 3848SOL     OW23005   1.827   0.292   6.372  0.0094 -1.0124 -0.0339
 3848SOL    HW123006   1.893   0.269   6.307  0.6918 -1.4798  0.8166
 3848SOL    HW223007   1.887   0.326   6.438 -0.0631  1.6468 -1.3611
 3849SOL     OW23008   4.562   0.153   7.390  0.3095 -0.1535 -0.1709
 3849SOL    HW123009   4.542   0.104   7.311 -0.0848 -0.8165  0.3400
 3849SOL    HW223010   4.540   0.243   7.366  0.0402  0.3309  1.8828
 3850SOL     OW23011   1.592   0.778   2.170 -0.2358  0.4552  0.1660
 3850SOL    HW123012   1.543   0.754   2.091 -0.1081 -0.7741  0.4543
 3850SOL    HW223013   1.680   0.762   2.136 -1.3197 -2.3495 -1.3319
 3851SOL     OW23014   1.360   0.369   6.382 -0.3830  0.1562 -0.6254
 3851SOL    HW123015   1.380   0.408   6.467 -0.0920  0.9630 -1.0707
 3851SOL    HW223016   1.434   0.405   6.334  2.6230 -2.6088  1.9161
 3852SOL     OW23017   3.943   1.323   1.540  0.2238  0.7618 -0.1859
 3852SOL    HW123018   3.863   1.348   1.587  0.0641  0.6447 -0.3954
 3852SOL    HW223019   3.999   1.284   1.607 -1.4082  2.7198  2.3283
 3853SOL     OW23020   3.004   1.148  10.693 -0.1187 -0.1008  0.1888
 3853SOL    HW123021   3.005   1.119  10.785 -1.6923 -0.9289 -0.0480
 3853SOL    HW223022   3.095   1.165  10.669  0.2829  0.5769  2.1446
 3854SOL     OW23023   2.211   0.192  11.877 -0.7250 -0.1677 -0.2951
 3854SOL    HW123024   2.224   0.131  11.950  0.1461 -0.8785 -1.0499
 3854SOL    HW223025   2.300   0.213  11.848 -0.8366  0.8887  0.1300
 3855SOL     OW23026   0.847   3.850   1.774 -0.0185 -0.1496 -0.0403
 3855SOL    HW123027   0.910   3.920   1.756  0.2529 -0.3170  0.2584
 3855SOL    HW223028   0.835   3.874   1.866  0.1921 -0.5403  0.0888
 3856SOL     OW23029   2.972   3.700  10.020  0.5493  0.5673 -0.1573
 3856SOL    HW123030   2.902   3.763  10.003 -0.8461 -0.7319  0.8143
 3856SOL    HW223031   2.942   3.635   9.956  0.2523 -1.9007  2.4685
 3857SOL     OW23032   1.923   1.369   3.624 -0.1433 -0.4942 -0.7605
 3857SOL    HW123033   1.902   1.376   3.531  2.5801  2.0613 -1.1984
 3857SOL    HW223034   1.922   1.463   3.645 -2.1418 -0.7891  0.4700
 3858SOL     OW23035   3.135   4.612   6.977 -0.4236 -0.3599  0.4606
 3858SOL    HW123036   3.081   4.622   6.898 -0.6951  1.5547  0.8735
 3858SOL    HW223037   3.088   4.540   7.017 -0.2784 -1.0383 -0.5960
 3859SOL     OW23038   0.689   2.124  16.793 -0.4801 -0.0471 -0.1578
 3859SOL    HW123039   0.727   2.210  16.773  1.0792 -0.2717  1.9245
 3859SOL    HW223040   0.747   2.079  16.854 -0.2962  0.8723  0.3475
 3860SOL     OW23041   4.512   2.110   8.908 -0.1990 -0.2946 -0.0747
 3860SOL    HW123042   4.490   2.118   8.815 -2.7229 -1.4676  0.4279
 3860SOL    HW223043   4.431   2.148   8.943 -0.7911 -0.3767 -1.3577
 3861SOL     OW23044   3.657   0.459   3.099 -0.2528 -0.2653 -0.3750
 3861SOL    HW123045   3.613   0.533   3.142 -1.9079 -2.3230  1.4761
 3861SOL    HW223046   3.733   0.498   3.057 -0.9892  1.3164 -0.2489
 3862SOL     OW23047   2.140   1.641   8.522  0.3245 -0.1657 -0.6892
 3862SOL    HW123048   2.046   1.657   8.534  0.9037  1.6674  1.2065
 3862SOL    HW223049   2.144   1.546   8.535 -0.9547 -0.4882 -2.5361
 3863SOL     OW23050   2.484   2.305  16.915  0.5184  0.2180  0.3578
 3863SOL    HW123051   2.547   2.233  16.911 -2.7306 -2.6657  0.9455
 3863SOL    HW223052   2.547   2.377  16.906  0.1809  0.5172  0.3826
 3864SOL     OW23053   0.773   0.405  17.696 -0.1473  0.0568 -0.0948
 3864SOL    HW123054   0.713   0.420  17.623 -0.8625 -0.9375  0.2854
 3864SOL    HW223055   0.717   0.441   0.066  0.8035 -0.0806  0.7697
 3865SOL     OW23056   3.938   1.785   2.932  0.1349 -0.2365  0.0748
 3865SOL    HW123057   3.875   1.857   2.939 -0.7814 -0.8072 -2.2164
 3865SOL    HW223058   3.886   1.714   2.970  0.8209  0.3438  2.0742
 3866SOL     OW23059   3.860   2.465  15.604  0.2690 -0.2653  0.3716
 3866SOL    HW123060   3.925   2.496  15.541 -1.0204  2.6510  0.4924
 3866SOL    HW223061   3.913   2.463  15.684  0.9968  0.0330 -0.1020
 3867SOL     OW23062   2.275   4.694   3.145 -0.1800 -0.0480 -0.4113
 3867SOL    HW123063   2.225   4.676   3.224  0.6065  0.2396  0.1531
 3867SOL    HW223064   2.202   4.687   3.083 -1.0399 -0.5068  0.6483
 3868SOL     OW23065   2.232   4.028  13.473  0.1355 -0.3546 -0.2091
 3868SOL    HW123066   2.165   4.087  13.509  1.9040  1.6418 -0.1590
 3868SOL    HW223067   2.189   4.015  13.388 -1.2917 -1.1392  0.6278
 3869SOL     OW23068   3.403   0.010  12.548  0.2459  0.8580  0.0139
 3869SOL    HW123069   3.426   4.682  12.626  0.7687 -0.2554 -0.8777
 3869SOL    HW223070   3.469   0.078  12.546  1.7515 -0.5296  2.5026
 3870SOL     OW23071   3.383   1.113   9.464  0.5437  0.3233 -0.1108
 3870SOL    HW123072   3.407   1.032   9.509  4.2556  0.4364 -1.8220
 3870SOL    HW223073   3.455   1.169   9.494  1.5752 -0.6179 -0.8032
 3871SOL     OW23074   3.897   0.948   9.893 -0.3335  0.4655 -0.0409
 3871SOL    HW123075   3.946   1.002   9.955 -0.9622  1.2324 -0.2225
 3871SOL    HW223076   3.921   0.862   9.930  1.6029  0.1260 -2.0375
 3872SOL     OW23077   3.329   0.353  13.804  0.0426 -0.0852  0.0629
 3872SOL    HW123078   3.344   0.285  13.870 -0.7488  0.7333  1.0872
 3872SOL    HW223079   3.324   0.431  13.860  1.4865 -0.8550  1.2444
 3873SOL     OW23080   1.332   2.474   5.416  0.0972 -0.3302  0.4249
 3873SOL    HW123081   1.290   2.548   5.460  0.0356 -1.2777  1.9692
 3873SOL    HW223082   1.423   2.495   5.437  0.4583 -1.3921 -0.0462
 3874SOL     OW23083   4.619   1.402  17.046  0.2379 -0.0501  0.2703
 3874SOL    HW123084   4.596   1.455  16.970 -0.1532 -0.2123  0.2743
 3874SOL    HW223085   4.621   1.462  17.120  0.8194 -0.1969  0.3695
 3875SOL     OW23086   0.732   2.314   4.742 -0.2360 -0.1371  0.5555
 3875SOL    HW123087   0.749   2.221   4.727  1.4838  0.2013  0.4850
 3875SOL    HW223088   0.775   2.317   4.827  0.2804 -1.0179  0.3316
 3876SOL     OW23089   0.138   2.274   9.278 -0.2952  0.1083  0.3846
 3876SOL    HW123090   0.080   2.254   9.205 -1.3490  0.5035  1.1239
 3876SOL    HW223091   0.221   2.267   9.230 -0.5726 -0.9931  0.0764
 3877SOL     OW23092   0.728   1.850   3.201 -0.2339 -0.3889  0.7312
 3877SOL    HW123093   0.689   1.884   3.282  0.6877  2.5071 -0.0571
 3877SOL    HW223094   0.763   1.769   3.238 -1.2814 -1.4253 -0.5889
 3878SOL     OW23095   4.404   0.700   7.516  0.2037 -0.5440  0.7623
 3878SOL    HW123096   4.392   0.759   7.441  2.9393 -2.0969 -0.8800
 3878SOL    HW223097   4.403   0.756   7.593  0.4157 -0.7310  0.8998
 3879SOL     OW23098   0.981   0.228   0.029 -0.1675  0.1031 -0.1558
 3879SOL    HW123099   1.045   0.292   0.062  0.3038 -0.6028  0.3152
 3879SOL    HW223100   0.905   0.285   0.025 -0.2550 -0.2765 -4.6639
 3880SOL     OW23101   3.351   2.348   4.535 -0.0102 -0.8945 -0.1091
 3880SOL    HW123102   3.259   2.325   4.547 -0.5760  1.0933 -0.6562
 3880SOL    HW223103   3.397   2.310   4.610  1.2148  0.0326 -0.3841
 3881SOL     OW23104   2.438   4.381   6.077 -0.1853  0.4653  0.8829
 3881SOL    HW123105   2.457   4.295   6.114 -0.7624  0.0835  0.2865
 3881SOL    HW223106   2.460   4.364   5.986  0.2307 -0.9802  1.2514
 3882SOL     OW23107   3.520   2.511  13.583 -0.2048  0.1749 -0.4122
 3882SOL    HW123108   3.495   2.588  13.635 -1.2943  0.0773 -0.7812
 3882SOL    HW223109   3.444   2.490  13.529 -2.1758  1.8356  1.7000
 3883SOL     OW23110   1.761   1.472   2.601  0.1749  0.4306 -0.0376
 3883SOL    HW123111   1.842   1.422   2.597  0.9408  1.7064 -0.6093
 3883SOL    HW223112   1.756   1.492   2.507 -3.0859  1.6560  0.3805
 3884SOL     OW23113   1.114   4.244   8.314 -0.6634 -0.0306  0.2171
 3884SOL    HW123114   1.167   4.317   8.281  1.5833 -0.7284  2.2179
 3884SOL    HW223115   1.106   4.191   8.235 -0.8561  1.0770 -0.5038
 3885SOL     OW23116   2.393   0.662  13.775  0.1820 -0.6314  0.4143
 3885SOL    HW123117   2.303   0.639  13.753 -0.5656  1.2152  1.5179
 3885SOL    HW223118   2.436   0.666  13.690 -1.3728  0.1270 -0.3395
 3886SOL     OW23119   0.004   4.171   8.762 -0.1033  0.2691 -0.0635
 3886SOL    HW123120   0.013   4.266   8.762 -0.4662  0.3005  0.1886
 3886SOL    HW223121   0.083   4.150   8.813 -1.5340 -0.0362  2.0216
 3887SOL     OW23122   4.181   3.767  12.615  0.2964  0.0710  0.6466
 3887SOL    HW123123   4.150   3.761  12.705 -2.2513 -0.2909 -0.2674
 3887SOL    HW223124   4.160   3.679  12.584 -1.1218 -0.1517  2.2367
 3888SOL     OW23125   0.796   1.609   4.044 -0.2178 -0.3020  0.6705
 3888SOL    HW123126   0.739   1.685   4.057  1.3517  1.0028 -0.0240
 3888SOL    HW223127   0.875   1.641   4.088  0.3878  0.3188 -0.8700
 3889SOL     OW23128   2.921   0.430   3.012  0.2951  0.0993 -0.7589
 3889SOL    HW123129   2.865   0.409   3.087  0.8344  1.0038 -0.0933
 3889SOL    HW223130   2.868   0.426   2.933  2.4508  0.1913 -2.2105
 3890SOL     OW23131   0.302   1.197   6.572  0.3812  0.7962 -0.7148
 3890SOL    HW123132   0.259   1.258   6.512  0.7212  0.9480 -0.8057
 3890SOL    HW223133   0.387   1.240   6.587 -0.0941  2.0765 -1.6589
 3891SOL     OW23134   1.160   1.225  13.251  0.3624 -0.1896  0.6915
 3891SOL    HW123135   1.098   1.194  13.317  0.0603 -0.7495  0.1566
 3891SOL    HW223136   1.216   1.149  13.240  3.0769  2.3065 -2.8446
 3892SOL     OW23137   0.758   2.324  11.473  0.0247  0.2819 -0.3204
 3892SOL    HW123138   0.830   2.268  11.445 -0.4893 -0.0119 -1.0486
 3892SOL    HW223139   0.699   2.263  11.516  1.7165 -0.1949  1.3079
 3893SOL     OW23140   3.498   3.363   2.797 -0.2887  0.1447 -0.5205
 3893SOL    HW123141   3.467   3.414   2.871  1.2405  0.5241 -0.1424
 3893SOL    HW223142   3.464   3.276   2.818 -2.3149  1.6434  2.3024
 3894SOL     OW23143   2.585   0.518   5.943 -0.3458 -0.2767  0.6830
 3894SOL    HW123144   2.619   0.565   5.867 -0.5220 -1.5549 -0.1714
 3894SOL    HW223145   2.660   0.461   5.960  0.7492  0.9204 -0.1479
 3895SOL     OW23146   2.038   4.666   9.179  0.1656 -0.1714  0.3945
 3895SOL    HW123147   2.120   4.617   9.169  1.4284  2.1167 -0.4752
 3895SOL    HW223148   2.071   0.025   9.216  1.5913 -0.4852 -0.1600
 3896SOL     OW23149   0.329   1.599  12.539  0.1893 -0.3624  0.1282
 3896SOL    HW123150   0.297   1.521  12.494  2.8051 -2.3952  1.7756
 3896SOL    HW223151   0.371   1.645  12.466 -1.0809 -0.3112 -0.5586
 3897SOL     OW23152   1.675   3.452   0.488 -0.0539 -0.6011 -0.3180
 3897SOL    HW123153   1.728   3.447   0.567  0.0206  1.1965 -0.2570
 3897SOL    HW223154   1.690   3.538   0.448  0.9832 -0.8190 -0.3984
 3898SOL     OW23155   0.262   4.357   5.056  0.2524  0.5228  0.2155
 3898SOL    HW123156   0.349   4.328   5.083 -0.2887 -2.4390 -1.2491
 3898SOL    HW223157   0.256   4.315   4.970 -1.6192  0.8647  0.1784
 3899SOL     OW23158   3.468   0.266   1.574  0.6186 -0.5858  0.2646
 3899SOL    HW123159   3.468   0.174   1.548  3.0404 -0.6352  0.4768
 3899SOL    HW223160   3.515   0.316   1.508 -1.7065 -0.5199 -1.3346
 3900SOL     OW23161   2.158   2.176   7.695 -0.1551  1.5678  0.6204
 3900SOL    HW123162   2.157   2.249   7.757 -0.8286  0.9390  1.3428
 3900SOL    HW223163   2.220   2.114   7.733 -1.5739  0.2637  0.8160
 3901SOL     OW23164   0.174   2.402   3.873 -0.0456 -0.3941  0.0355
 3901SOL    HW123165   0.130   2.385   3.790 -1.7694 -1.3864  1.1485
 3901SOL    HW223166   0.165   2.496   3.889  0.6046 -0.2878 -0.2362
 3902SOL     OW23167   0.979   1.691   5.156 -0.3625 -0.2496 -0.2150
 3902SOL    HW123168   0.909   1.720   5.215  0.9667 -0.2303  1.3409
 3902SOL    HW223169   1.062   1.696   5.202 -0.9700  1.4209  0.6963
 3903SOL     OW23170   0.968   3.171   3.180  0.0711 -0.1397 -0.4625
 3903SOL    HW123171   0.913   3.179   3.102 -0.8779  0.5085  0.2830
 3903SOL    HW223172   0.959   3.254   3.227  2.0638  0.9492 -2.0004
 3904SOL     OW23173   1.113   4.339   5.691  0.4583  0.1513  0.3060
 3904SOL    HW123174   1.036   4.350   5.747 -0.3149  0.0351 -0.7151
 3904SOL    HW223175   1.137   4.251   5.718  0.5469 -0.0609 -0.4446
 3905SOL     OW23176   4.054   3.913   9.807  0.2461  0.4072 -0.1047
 3905SOL    HW123177   4.104   3.833   9.818  0.1406  0.4272  0.5166
 3905SOL    HW223178   4.061   3.952   9.895 -0.9313 -0.3382  0.3151
 3906SOL     OW23179   0.663   0.159   2.072 -0.9018 -0.2694 -0.2122
 3906SOL    HW123180   0.656   0.162   1.977  1.8472 -0.7536 -0.4170
 3906SOL    HW223181   0.755   0.134   2.077 -0.6798  0.8191  1.3047
 3907SOL     OW23182   4.405   3.149   0.508  0.1760  0.3475  1.1843
 3907SOL    HW123183   4.451   3.092   0.570  0.5617 -2.9109 -2.0929
 3907SOL    HW223184   4.366   3.082   0.452 -2.3249  1.7654  1.2545
 3908SOL     OW23185   1.742   3.573   0.734  0.1288  0.2120 -0.1924
 3908SOL    HW123186   1.734   3.637   0.805 -1.3462  0.1820 -0.3356
 3908SOL    HW223187   1.663   3.523   0.754  0.4212 -0.2858 -0.2849
 3909SOL     OW23188   3.220   4.700   4.145  0.0564 -0.5603 -0.1359
 3909SOL    HW123189   3.238   0.013   4.232  1.4729 -2.4677  0.3839
 3909SOL    HW223190   3.161   0.043   4.109 -0.9367  0.0090  2.5340
 3910SOL     OW23191   3.711   3.622   9.844 -0.2812 -0.0165  0.3979
 3910SOL    HW123192   3.667   3.609   9.760  1.2296 -4.2054  0.2672
 3910SOL    HW223193   3.676   3.545   9.888 -0.3204  0.0194  0.4299
 3911SOL     OW23194   4.715   2.244   9.508  0.2834 -0.0286  0.7755
 3911SOL    HW123195   0.006   2.306   9.579  0.4212  1.8722 -0.9168
 3911SOL    HW223196   0.060   2.259   9.443 -0.3342  3.0884  0.8626
 3912SOL     OW23197   3.048   0.409   5.226  0.3947 -0.1275  0.3282
 3912SOL    HW123198   3.072   0.498   5.200 -0.6159  0.8827  2.7213
 3912SOL    HW223199   3.129   0.378   5.266 -0.3030 -1.3124  0.8403
 3913SOL     OW23200   0.582   1.814   6.145  0.3406 -0.5690 -0.5253
 3913SOL    HW123201   0.650   1.833   6.209 -0.8421 -1.3281  0.9564
 3913SOL    HW223202   0.589   1.719   6.141 -1.0922 -0.6581 -1.0774
 3914SOL     OW23203   1.935   3.231   0.668 -0.3884  0.1639  0.3297
 3914SOL    HW123204   1.969   3.318   0.647 -0.0603 -0.3368 -1.1818
 3914SOL    HW223205   2.012   3.175   0.664 -0.7056 -0.2664  0.1898
 3915SOL     OW23206   0.504   2.091   3.529  0.0085 -0.1448 -0.3555
 3915SOL    HW123207   0.508   2.126   3.618  0.4897 -1.7802  0.2808
 3915SOL    HW223208   0.422   2.042   3.519 -1.2083  1.8898 -0.1724
 3916SOL     OW23209   1.553   3.511   2.003  0.0380  0.6154 -0.2952
 3916SOL    HW123210   1.531   3.599   2.032 -2.4006  0.1679 -0.8282
 3916SOL    HW223211   1.540   3.521   1.908  0.7108 -1.3264 -0.5958
 3917SOL     OW23212   2.778   0.993   3.408  0.2505  0.0505  0.4804
 3917SOL    HW123213   2.687   1.019   3.423 -0.0107 -0.3303 -0.4333
 3917SOL    HW223214   2.778   1.023   3.317  0.9710  2.9220  1.4204
 3918SOL     OW23215   2.145   0.100   2.580  0.1587 -0.6896  0.4794
 3918SOL    HW123216   2.173   0.037   2.513 -1.0491 -1.4465  0.6791
 3918SOL    HW223217   2.067   0.143   2.544  0.4009 -1.4589 -0.9708
 3919SOL     OW23218   4.693   1.806   7.706 -0.3249  0.0854 -0.1084
 3919SOL    HW123219   4.673   1.898   7.721 -1.7335 -0.8219  3.5401
 3919SOL    HW223220   4.697   1.770   7.795  0.5550 -1.4301 -0.7546
 3920SOL     OW23221   2.021   1.578   6.345  0.1036  0.7976  0.5254
 3920SOL    HW123222   1.933   1.558   6.377 -1.1142  2.1424 -1.9542
 3920SOL    HW223223   2.056   1.563   6.432  0.6061  0.4910  0.2751
 3921SOL     OW23224   1.858   1.406   3.349  0.0524 -0.0521 -0.0919
 3921SOL    HW123225   1.886   1.453   3.270  1.3409 -0.5941  0.0376
 3921SOL    HW223226   1.849   1.317   3.313  0.5953 -1.1159  2.4286
 3922SOL     OW23227   3.582   1.718   6.788 -0.4390 -0.2062 -0.3276
 3922SOL    HW123228   3.505   1.774   6.785  0.0257  0.4566  0.0814
 3922SOL    HW223229   3.600   1.726   6.882 -1.0416  0.3974 -0.2666
 3923SOL     OW23230   1.367   2.500   6.597  0.4920  0.2900 -0.6714
 3923SOL    HW123231   1.296   2.439   6.615  0.9482  0.8901  3.2696
 3923SOL    HW223232   1.323   2.585   6.600  0.7062  0.4002 -0.6631
 3924SOL     OW23233   0.317   1.629  15.200  0.1585 -0.3219 -0.0684
 3924SOL    HW123234   0.274   1.544  15.197 -0.0975 -0.0877 -3.3014
 3924SOL    HW223235   0.244   1.674  15.243 -1.5424 -0.4945 -2.7727
 3925SOL     OW23236   0.732   2.244   2.643 -0.1291  1.0126 -0.2518
 3925SOL    HW123237   0.643   2.273   2.664 -1.0040  0.4834 -3.1209
 3925SOL    HW223238   0.733   2.236   2.547  0.2616 -1.9505 -0.0115
 3926SOL     OW23239   2.614   4.463   0.587 -0.7763 -0.4044 -0.5132
 3926SOL    HW123240   2.523   4.493   0.582 -0.5436  0.6233  1.2691
 3926SOL    HW223241   2.616   4.422   0.501 -0.5301 -1.7868  0.1649
 3927SOL     OW23242   4.677   0.929   5.348  0.3468  0.6684  0.4633
 3927SOL    HW123243   4.612   0.991   5.382  0.9892  1.4153  0.3238
 3927SOL    HW223244   4.693   0.965   5.261 -1.6862  0.5313  0.0345
 3928SOL     OW23245   2.369   4.032   2.084  0.7526  0.2440  0.0753
 3928SOL    HW123246   2.395   4.088   2.156 -0.1287 -1.5672  1.8015
 3928SOL    HW223247   2.329   3.960   2.134 -0.4667  0.6988 -0.2410
 3929SOL     OW23248   1.753   1.385   7.187  0.3214  0.7964  0.3201
 3929SOL    HW123249   1.676   1.425   7.147  1.2897 -0.5418 -2.9484
 3929SOL    HW223250   1.739   1.292   7.165  0.3117  0.4488  1.7917
 3930SOL     OW23251   4.625   0.825   7.133  0.3965  0.1507 -0.6745
 3930SOL    HW123252   4.649   0.735   7.113  0.1368 -0.0358 -0.1396
 3930SOL    HW223253   4.614   0.825   7.228 -1.2297 -2.1472 -0.8641
 3931SOL     OW23254   1.871   0.862   6.929 -0.6788  0.3529  0.4125
 3931SOL    HW123255   1.834   0.852   6.842  0.1187 -0.1788  0.1316
 3931SOL    HW223256   1.937   0.926   6.904  0.6052 -1.3455 -0.6122
 3932SOL     OW23257   3.229   2.657  12.581  0.4486  0.1152  0.2118
 3932SOL    HW123258   3.279   2.693  12.508  0.5061 -0.4539 -0.0255
 3932SOL    HW223259   3.142   2.642  12.545  1.1895  0.4524 -1.6727
 3933SOL     OW23260   1.566   0.179   5.573 -0.3450  0.5695  0.0358
 3933SOL    HW123261   1.579   0.095   5.616  1.1531  0.1122 -1.3154
 3933SOL    HW223262   1.578   0.164   5.479 -0.8115  2.2393 -0.2797
 3934SOL     OW23263   4.009   1.127   4.557 -0.2487 -0.5917 -0.1403
 3934SOL    HW123264   3.954   1.152   4.632  1.4333 -1.2045  1.2954
 3934SOL    HW223265   4.068   1.074   4.610  2.1090 -0.0817 -2.2774
 3935SOL     OW23266   1.265   0.572   5.627 -0.4538  0.0711  0.3446
 3935SOL    HW123267   1.230   0.550   5.713 -0.4370 -0.2116  0.2768
 3935SOL    HW223268   1.355   0.543   5.639 -0.0127  0.8875 -0.9521
 3936SOL     OW23269   4.075   1.888  16.392 -0.5965  0.0941 -0.0015
 3936SOL    HW123270   4.123   1.893  16.475 -1.5094 -0.8287  0.5849
 3936SOL    HW223271   4.045   1.979  16.388  1.2185  0.6667 -0.4963
 3937SOL     OW23272   3.811   2.296   9.136 -0.0791  0.2408  0.1004
 3937SOL    HW123273   3.791   2.389   9.146  0.8790  0.5077 -0.3997
 3937SOL    HW223274   3.906   2.301   9.152 -0.3010  0.6034  1.3028
 3938SOL     OW23275   0.012   0.649  14.562 -0.1289 -0.2993  0.0660
 3938SOL    HW123276   0.105   0.658  14.583  0.3336 -0.2546 -2.0294
 3938SOL    HW223277   4.700   0.605  14.639  0.7536  0.1751  0.7588
 3939SOL     OW23278   3.429   0.214   0.509 -0.2179 -0.3672  0.2087
 3939SOL    HW123279   3.389   0.234   0.424  0.2258 -1.4365 -0.2540
 3939SOL    HW223280   3.414   0.120   0.510  2.0530 -0.6979  2.4318
 3940SOL     OW23281   2.078   1.043   6.928  0.1595 -0.3848 -0.4950
 3940SOL    HW123282   2.145   1.110   6.917  0.4814 -0.7513 -0.7476
 3940SOL    HW223283   2.093   1.027   7.021 -2.1423 -1.9725 -0.4180
 3941SOL     OW23284   0.614   0.872  17.049 -0.1990  0.3351 -0.2894
 3941SOL    HW123285   0.675   0.933  17.091  1.8342 -2.8983  1.4179
 3941SOL    HW223286   0.679   0.811  17.017 -0.6144  0.3397 -1.1364
 3942SOL     OW23287   2.414   3.023   5.813 -0.5126  0.4804  0.5084
 3942SOL    HW123288   2.450   3.009   5.900 -0.2133 -3.3942 -0.2434
 3942SOL    HW223289   2.336   2.968   5.806 -0.4614  0.3612  0.8996
 3943SOL     OW23290   1.580   2.043   2.998 -0.1625  0.1790 -0.0187
 3943SOL    HW123291   1.530   2.108   2.950 -0.4939 -0.6145 -0.7541
 3943SOL    HW223292   1.514   1.997   3.050 -1.6453  0.7807 -1.4044
 3944SOL     OW23293   0.945   1.482   5.834 -0.3189 -0.0738  0.2728
 3944SOL    HW123294   1.004   1.468   5.760  1.2063 -2.2507  1.9003
 3944SOL    HW223295   0.938   1.576   5.846 -2.6181 -0.0503 -1.0619
 3945SOL     OW23296   2.588   0.632  11.253  0.0366 -0.9135  0.1158
 3945SOL    HW123297   2.650   0.583  11.307  2.6392 -1.4211 -3.2873
 3945SOL    HW223298   2.583   0.584  11.170  0.2153  0.3619 -0.6361
 3946SOL     OW23299   3.376   2.271  12.374  0.1691 -0.4290  0.4947
 3946SOL    HW123300   3.330   2.348  12.342  2.1059  1.7205  2.7659
 3946SOL    HW223301   3.360   2.282  12.468 -0.0162 -0.4823  0.4680
 3947SOL     OW23302   3.508   4.109   2.811  0.2745 -0.1389  1.1996
 3947SOL    HW123303   3.602   4.117   2.825  0.6280  0.6793 -1.5927
 3947SOL    HW223304   3.481   4.188   2.857  1.1874  0.1991  1.1523
 3948SOL     OW23305   1.122   4.447   2.856  0.8431 -0.2921  0.3736
 3948SOL    HW123306   1.171   4.414   2.781  0.5795 -0.5557  0.3140
 3948SOL    HW223307   1.049   4.492   2.813 -0.6318 -2.4367  0.5818
 3949SOL     OW23308   2.422   3.327   0.028 -0.7312  0.5343 -0.1978
 3949SOL    HW123309   2.498   3.361  17.679  0.1280 -0.8690  0.1786
 3949SOL    HW223310   2.464   3.258   0.080 -1.0584 -1.5185 -2.6903
 3950SOL     OW23311   1.802   2.348   2.386  0.3472 -0.0105  0.6759
 3950SOL    HW123312   1.871   2.409   2.410  0.1616  0.8841 -1.0450
 3950SOL    HW223313   1.773   2.305   2.466 -2.5540 -2.3283 -1.6113
 3951SOL     OW23314   0.769   0.988   2.530 -0.0588  0.1891  0.2178
 3951SOL    HW123315   0.847   0.989   2.586  0.3238  0.8212 -0.3200
 3951SOL    HW223316   0.765   1.083   2.519 -0.0578 -0.0956 -2.3755
 3952SOL     OW23317   1.167   0.413   2.577  0.1282 -0.3808  0.1064
 3952SOL    HW123318   1.090   0.444   2.530  1.4330  1.8381 -0.5276
 3952SOL    HW223319   1.226   0.484   2.553  0.1839 -0.5909 -0.3848
 3953SOL     OW23320   3.491   0.149  17.691  0.2504  0.1394 -0.6960
 3953SOL    HW123321   3.482   0.054   0.007 -1.9763  0.2418 -1.3455
 3953SOL    HW223322   3.582   0.151   0.021 -0.3171 -1.5362  1.3050
 3954SOL     OW23323   4.690   2.883   7.769  0.6533 -0.1992  0.5587
 3954SOL    HW123324   4.706   2.970   7.806 -0.5485 -0.3113  1.3382
 3954SOL    HW223325   0.046   2.852   7.727  0.5342  0.4198 -0.1121
 3955SOL     OW23326   1.122   1.838  12.143  0.0649  0.7516  0.5744
 3955SOL    HW123327   1.051   1.846  12.207 -0.3510  2.9070 -0.1423
 3955SOL    HW223328   1.179   1.913  12.164 -1.8461  2.6953 -1.1665
 3956SOL     OW23329   0.698   0.858   6.508  0.4796  0.4912 -0.5576
 3956SOL    HW123330   0.623   0.894   6.461 -1.4618 -1.9029  0.6997
 3956SOL    HW223331   0.670   0.774   6.544  1.1817 -0.0340 -1.2323
 3957SOL     OW23332   4.248   4.572  12.762 -0.1603  0.4437  0.1908
 3957SOL    HW123333   4.186   4.508  12.728 -0.5337  0.3567  1.0540
 3957SOL    HW223334   4.252   4.627  12.683  0.3663 -0.1929 -0.2261
 3958SOL     OW23335   2.014   2.677  17.320 -0.6713 -0.4702 -0.1719
 3958SOL    HW123336   1.988   2.766  17.344 -2.4259 -0.1930 -3.1589
 3958SOL    HW223337   1.979   2.682  17.232 -1.0926  0.5876  0.0557
 3959SOL     OW23338   2.652   1.817   1.865  0.2393  0.3066  0.4796
 3959SOL    HW123339   2.677   1.740   1.814 -2.4278  0.6412 -1.3605
 3959SOL    HW223340   2.729   1.820   1.922  0.0096  2.0924  0.6935
 3960SOL     OW23341   3.393   4.641   2.169 -0.2270  0.0584  0.4794
 3960SOL    HW123342   3.447   4.719   2.161 -0.1902 -0.0487 -0.3019
 3960SOL    HW223343   3.305   4.675   2.153  0.4272  2.2989  1.7721
 3961SOL     OW23344   1.575   0.744  16.092 -0.3485 -0.0775 -0.2800
 3961SOL    HW123345   1.513   0.672  16.099 -1.7316  1.1762  0.1348
 3961SOL    HW223346   1.524   0.793  16.028 -0.6375 -1.2071 -0.9153
 3962SOL     OW23347   1.602   3.969   5.945 -0.0083 -0.4812 -0.3619
 3962SOL    HW123348   1.612   4.011   6.030 -4.8619  1.6780 -0.8376
 3962SOL    HW223349   1.513   3.934   5.948 -0.3911  0.4754 -0.5207
 3963SOL     OW23350   0.338   1.261   6.048  0.0345  0.0166 -0.2992
 3963SOL    HW123351   0.255   1.214   6.049  0.8708 -1.4618 -0.5098
 3963SOL    HW223352   0.379   1.225   6.127 -0.8931 -4.1090 -1.6820
 3964SOL     OW23353   2.896   4.585  16.726 -0.0168 -0.3585  0.1503
 3964SOL    HW123354   2.928   4.595  16.816 -1.9074  0.0952  0.7713
 3964SOL    HW223355   2.981   4.569  16.685 -0.4998 -1.6500 -0.3348
 3965SOL     OW23356   3.602   0.955   1.966  0.2124 -0.2324 -0.2284
 3965SOL    HW123357   3.532   0.931   2.026 -0.1314  0.1896 -0.4637
 3965SOL    HW223358   3.560   0.968   1.881  1.3401 -0.1869 -0.7864
 3966SOL     OW23359   0.128   3.771   8.739 -0.0395 -0.5527  0.2077
 3966SOL    HW123360   0.049   3.745   8.786  1.6809 -0.7286  3.0388
 3966SOL    HW223361   0.186   3.788   8.813 -2.8152  0.6435  2.0941
 3967SOL     OW23362   3.091   4.410   7.903  0.4194  0.3450  0.3465
 3967SOL    HW123363   3.036   4.351   7.852  2.0364  0.8692 -1.9754
 3967SOL    HW223364   3.136   4.456   7.832  0.9752 -0.1850  0.3490
 3968SOL     OW23365   3.143   1.944  13.521  0.1583 -0.0788  0.4453
 3968SOL    HW123366   3.195   1.916  13.596 -0.2002 -1.0534  0.3273
 3968SOL    HW223367   3.064   1.902  13.555 -1.1677  1.5628 -0.5667
 3969SOL     OW23368   1.587   2.694  17.617 -0.2638 -0.2374 -0.1703
 3969SOL    HW123369   1.632   2.643  17.549 -0.0845 -1.5843  0.9657
 3969SOL    HW223370   1.638   2.676  17.696 -2.4358 -1.3328  0.9983
 3970SOL     OW23371   1.602   3.591   9.219 -0.6066 -0.4578  0.1696
 3970SOL    HW123372   1.581   3.683   9.234  0.6423  0.1450 -1.7964
 3970SOL    HW223373   1.577   3.579   9.127 -2.0042  0.7567  0.3979
 3971SOL     OW23374   1.194   1.539   1.403 -0.6751 -0.2125  0.2918
 3971SOL    HW123375   1.140   1.501   1.334  0.9044 -3.0604  0.6259
 3971SOL    HW223376   1.186   1.631   1.379  1.3878  0.1939  1.1537
 3972SOL     OW23377   3.478   3.540   4.958  0.3280  0.2095 -0.1739
 3972SOL    HW123378   3.499   3.550   5.051  0.2969 -0.9623 -0.0286
 3972SOL    HW223379   3.510   3.451   4.942 -0.7965  0.0619 -1.6599
 3973SOL     OW23380   3.937   2.326   7.277  0.0060 -0.2151  0.2003
 3973SOL    HW123381   3.998   2.302   7.346  0.4800 -0.3022 -0.2489
 3973SOL    HW223382   3.881   2.385   7.327 -0.6034  0.6476 -1.4721
 3974SOL     OW23383   4.693   3.945   7.213 -0.1909  0.2938  0.4140
 3974SOL    HW123384   0.042   3.886   7.233  1.4224  2.3300  0.5423
 3974SOL    HW223385   4.722   3.979   7.129  0.0394 -0.7382  0.0683
 3975SOL     OW23386   0.594   3.330   1.647 -0.1627 -0.2776 -0.0518
 3975SOL    HW123387   0.631   3.292   1.727  0.7349 -1.1205 -0.8731
 3975SOL    HW223388   0.560   3.410   1.689  0.1328 -0.2115  0.0680
 3976SOL     OW23389   1.252   0.881  14.324  0.4375 -0.4521  0.2143
 3976SOL    HW123390   1.308   0.899  14.400  1.7814  2.1177 -1.4265
 3976SOL    HW223391   1.318   0.829  14.277 -1.2552 -2.6354  0.2220
 3977SOL     OW23392   2.011   2.958  10.395 -0.3327 -0.5796 -0.2954
 3977SOL    HW123393   1.951   2.937  10.323 -0.0844  0.2023 -0.7254
 3977SOL    HW223394   1.949   2.983  10.463  0.8529  0.9175  0.2323
 3978SOL     OW23395   3.871   1.144   6.595 -0.2971  0.3591  0.1798
 3978SOL    HW123396   3.817   1.069   6.621  1.6160 -1.2133 -0.2853
 3978SOL    HW223397   3.841   1.147   6.504  2.5543 -2.2154 -0.8607
 3979SOL     OW23398   2.399   4.696   0.687 -0.1160 -0.4384  0.5636
 3979SOL    HW123399   2.403   4.716   0.594 -1.2105  2.4005  1.1373
 3979SOL    HW223400   2.306   4.704   0.705 -0.2875 -2.7249  0.6698
 3980SOL     OW23401   1.916   3.311   2.949 -0.2422  0.2337 -0.7818
 3980SOL    HW123402   1.968   3.390   2.961  1.8570 -1.5869  2.0927
 3980SOL    HW223403   1.863   3.340   2.874 -0.2757 -1.4202 -1.3880
 3981SOL     OW23404   2.115   2.767   6.434 -0.0928  0.6574  0.0757
 3981SOL    HW123405   2.157   2.700   6.380 -0.7518 -0.5340  1.0390
 3981SOL    HW223406   2.085   2.708   6.503 -1.1525  1.3280  0.1948
 3982SOL     OW23407   2.851   3.831  16.648 -0.4499  0.0672  0.2213
 3982SOL    HW123408   2.760   3.850  16.669 -1.3697  0.4623 -4.0556
 3982SOL    HW223409   2.888   3.856  16.732  2.6546 -2.2259 -0.4738
 3983SOL     OW23410   4.032   3.958   6.237 -0.1490  0.1832 -0.1353
 3983SOL    HW123411   4.050   3.870   6.270 -0.7829 -0.1456 -0.6839
 3983SOL    HW223412   4.115   3.983   6.198 -0.7780  0.0122 -1.5859
 3984SOL     OW23413   2.079   2.268   1.705 -0.0112 -0.8304  0.0031
 3984SOL    HW123414   2.033   2.195   1.664  0.4760 -1.9162  1.3666
 3984SOL    HW223415   2.093   2.326   1.631 -2.0848  0.2277  0.4312
 3985SOL     OW23416   0.751   3.897   4.516  1.2127  0.2633  0.0209
 3985SOL    HW123417   0.783   3.929   4.601  1.0204  2.2145 -0.6289
 3985SOL    HW223418   0.832   3.904   4.466  1.9189  1.7345  1.3675
 3986SOL     OW23419   4.157   3.206  13.383  0.2477  0.2305 -0.3000
 3986SOL    HW123420   4.112   3.214  13.299 -1.4336 -0.0507  0.5684
 3986SOL    HW223421   4.080   3.186  13.435  1.6082 -0.0522  1.5961
 3987SOL     OW23422   3.625   2.503  14.188 -0.2577  0.1422  0.2066
 3987SOL    HW123423   3.618   2.464  14.276  0.1638  0.1364  0.2379
 3987SOL    HW223424   3.718   2.515  14.169  0.2079 -1.0187  1.7054
 3988SOL     OW23425   4.480   4.062   6.503 -0.6707 -0.1527 -0.6387
 3988SOL    HW123426   4.568   4.051   6.465 -1.4410 -2.6257 -1.7414
 3988SOL    HW223427   4.487   4.157   6.506 -0.1241 -0.2611  1.4641
 3989SOL     OW23428   2.472   0.215   7.618  0.0359  0.0175 -0.6171
 3989SOL    HW123429   2.418   0.172   7.684  2.0294 -0.9692  0.3672
 3989SOL    HW223430   2.560   0.208   7.656 -0.5484  2.0899  1.1353
 3990SOL     OW23431   0.333   1.340   7.325  0.2909 -0.5232 -0.2961
 3990SOL    HW123432   0.281   1.361   7.248  2.0783  0.3530 -1.2678
 3990SOL    HW223433   0.269   1.285   7.370 -1.0123 -0.3120 -1.9254
 3991SOL     OW23434   0.694   4.412  10.204  0.0371 -0.6458 -0.3856
 3991SOL    HW123435   0.712   4.473  10.133  0.8344 -0.6919 -0.2194
 3991SOL    HW223436   0.632   4.461  10.258 -0.7084 -2.3893  0.3706
 3992SOL     OW23437   4.157   4.452   2.990  0.0405 -0.3107  0.2406
 3992SOL    HW123438   4.179   4.541   2.965 -2.5519  0.3476  0.2438
 3992SOL    HW223439   4.241   4.408   2.997  0.3675  0.7057  2.6693
 3993SOL     OW23440   1.106   2.999  13.546 -0.0953 -0.1339 -0.2827
 3993SOL    HW123441   1.178   2.965  13.493 -1.0087 -0.3990 -1.3279
 3993SOL    HW223442   1.090   2.942  13.621  0.7823 -0.3401 -0.2550
 3994SOL     OW23443   2.403   2.829   3.999  0.4401  0.2756  0.0961
 3994SOL    HW123444   2.444   2.886   3.934 -0.4320  0.8816  0.0757
 3994SOL    HW223445   2.309   2.833   3.980  0.2991 -0.7923  0.5817
 3995SOL     OW23446   1.291   0.093  12.846 -0.0153 -1.0360  0.0779
 3995SOL    HW123447   1.346   0.034  12.795  1.3144 -0.3460  0.7110
 3995SOL    HW223448   1.345   0.171  12.835 -1.5884 -0.3203 -2.4474
 3996SOL     OW23449   0.191   2.814   8.835  0.2323 -0.5554 -0.1940
 3996SOL    HW123450   0.159   2.769   8.914  0.9739 -1.1687 -0.2316
 3996SOL    HW223451   0.159   2.752   8.770 -0.8279  0.3822 -0.5415
 3997SOL     OW23452   1.673   3.900   7.204 -0.1220  0.2432  0.1790
 3997SOL    HW123453   1.733   3.843   7.156 -0.6328  0.1960 -0.4115
 3997SOL    HW223454   1.591   3.851   7.195  0.0607  0.2915 -1.8942
 3998SOL     OW23455   1.783   1.051   2.300 -0.0505 -0.6685  0.0088
 3998SOL    HW123456   1.822   0.982   2.246 -1.3530 -1.4147  0.0160
 3998SOL    HW223457   1.781   1.118   2.233  1.6048 -1.1379 -0.5006
 3999SOL     OW23458   1.230   3.605   6.149 -0.1504  0.4494 -0.6078
 3999SOL    HW123459   1.192   3.560   6.225 -0.5710  2.1519  0.1865
 3999SOL    HW223460   1.285   3.676   6.182  2.1245 -1.9773  0.8221
 4000SOL     OW23461   2.084   4.008   4.560  0.1088 -0.0779 -0.0415
 4000SOL    HW123462   2.105   3.977   4.472  0.1195  1.7858 -0.6980
 4000SOL    HW223463   2.175   4.000   4.590  0.4578 -2.2802 -1.7351
 4001SOL     OW23464   3.683   4.342   5.258 -0.2152  0.2859  0.1978
 4001SOL    HW123465   3.770   4.375   5.238 -1.6174  3.1130 -1.2559
 4001SOL    HW223466   3.625   4.406   5.217 -0.4051 -0.0253 -0.0219
 4002SOL     OW23467   1.758   1.081   0.041  0.3483  0.7985  0.0079
 4002SOL    HW123468   1.773   1.067  17.645  1.0968 -2.3788  0.6044
 4002SOL    HW223469   1.842   1.108   0.078  0.0201 -0.6789  1.8175
 4003SOL     OW23470   3.495   4.473   4.773  0.3258  0.6320  0.0209
 4003SOL    HW123471   3.565   4.427   4.820 -0.8749 -1.2984 -0.0507
 4003SOL    HW223472   3.468   4.532   4.844 -0.1991  0.1556  0.2215
 4004SOL     OW23473   3.081   4.116   2.547  0.0605  0.0083 -0.0428
 4004SOL    HW123474   3.152   4.056   2.572  0.9092  0.3227 -1.7023
 4004SOL    HW223475   3.001   4.063   2.549  1.5056 -2.2812 -3.2393
 4005SOL     OW23476   4.656   0.251   5.017 -0.4799  0.1002  0.1615
 4005SOL    HW123477   4.573   0.262   4.972  0.0427  1.3540 -0.5012
 4005SOL    HW223478   4.692   0.333   4.982  0.2171 -0.0840  0.4497
 4006SOL     OW23479   0.466   4.513   1.483  0.0500  0.1355 -0.3635
 4006SOL    HW123480   0.396   4.558   1.529  1.0254  1.0061  0.2876
 4006SOL    HW223481   0.536   4.531   1.547 -1.0376 -0.9050  1.1362
 4007SOL     OW23482   1.820   3.719   4.905 -0.0149 -0.1187  0.1117
 4007SOL    HW123483   1.779   3.806   4.905  0.1671 -0.0351  0.6606
 4007SOL    HW223484   1.879   3.725   4.979 -1.5028  3.0371  1.0204
 4008SOL     OW23485   3.827   4.118   6.248  0.2181 -0.4285  0.0759
 4008SOL    HW123486   3.906   4.070   6.224  0.4720 -0.0192  0.0994
 4008SOL    HW223487   3.783   4.118   6.163 -0.9335 -3.3272  0.6963
 4009SOL     OW23488   4.408   4.285   7.898 -0.2861  0.2528  0.0373
 4009SOL    HW123489   4.435   4.218   7.961  3.4668  0.5535 -1.2141
 4009SOL    HW223490   4.358   4.347   7.950  0.1002  0.7346 -0.1682
 4010SOL     OW23491   2.622   0.527   8.592  0.1611 -0.4187 -0.3980
 4010SOL    HW123492   2.665   0.610   8.610 -1.4377  0.2050  0.5626
 4010SOL    HW223493   2.538   0.564   8.563 -1.1939 -0.2954  3.6819
 4011SOL     OW23494   4.262   2.417  17.327 -0.3784 -0.2204 -0.1576
 4011SOL    HW123495   4.303   2.489  17.376  0.7037 -2.7829  2.7120
 4011SOL    HW223496   4.244   2.463  17.245 -0.7430 -0.6114 -0.2952
 4012SOL     OW23497   0.695   3.873   2.733  0.2222 -0.0495 -0.2189
 4012SOL    HW123498   0.777   3.853   2.688  0.1021  0.1259 -0.5109
 4012SOL    HW223499   0.726   3.932   2.802 -1.1596 -0.4510  0.7450
 4013SOL     OW23500   4.401   4.223  10.781 -0.4356 -0.3354  0.0005
 4013SOL    HW123501   4.349   4.175  10.717  0.9944  0.1749 -1.5369
 4013SOL    HW223502   4.440   4.150  10.830 -1.2234  0.0423  1.2067
 4014SOL     OW23503   3.081   2.758  13.716 -0.5407 -0.3846  0.2845
 4014SOL    HW123504   3.051   2.823  13.779  1.5867  0.8699 -0.0177
 4014SOL    HW223505   3.133   2.708  13.778 -0.5046 -0.0771  0.4977
 4015SOL     OW23506   3.755   0.506  12.473  0.1787 -0.3053  0.7083
 4015SOL    HW123507   3.749   0.434  12.410  0.7714  0.0683  0.2240
 4015SOL    HW223508   3.819   0.470  12.534  1.6505  1.3517  0.1247
 4016SOL     OW23509   2.867   1.129   7.069 -0.3739  0.0578 -0.6975
 4016SOL    HW123510   2.893   1.152   6.980 -0.0938  1.0296 -0.3693
 4016SOL    HW223511   2.955   1.109   7.101  0.3415  1.4802 -1.8151
 4017SOL     OW23512   1.149   1.257   2.301  0.4353 -0.6983  0.3854
 4017SOL    HW123513   1.103   1.174   2.316 -0.8434 -0.0708 -0.0167
 4017SOL    HW223514   1.146   1.261   2.206 -0.4547  0.3032  0.4637
 4018SOL     OW23515   1.977   0.900   1.892 -0.1182 -0.2799 -0.2438
 4018SOL    HW123516   1.973   0.944   1.807  0.1371 -2.2804 -1.2786
 4018SOL    HW223517   2.072   0.889   1.896 -0.0883 -0.0369 -0.2386
 4019SOL     OW23518   3.434   0.758   4.045  0.1739  0.0862 -0.7882
 4019SOL    HW123519   3.529   0.763   4.035  0.2245 -0.3517 -0.5114
 4019SOL    HW223520   3.393   0.747   3.959 -0.7333 -0.1309 -0.3253
 4020SOL     OW23521   1.229   1.482   8.718 -0.2677  0.3870  0.1962
 4020SOL    HW123522   1.193   1.399   8.684 -0.4032  0.5706 -0.1111
 4020SOL    HW223523   1.148   1.522   8.751 -1.0609  1.7202 -3.3798
 4021SOL     OW23524   2.889   3.995  11.285  0.1286  0.1394  0.0958
 4021SOL    HW123525   2.883   3.902  11.264  0.3749  0.5600 -1.8600
 4021SOL    HW223526   2.979   4.003  11.316  0.1091 -0.0341  0.1967
 4022SOL     OW23527   0.637   2.363   3.637  0.3272  0.1849 -0.0287
 4022SOL    HW123528   0.686   2.429   3.589  2.7817 -1.4237  0.2161
 4022SOL    HW223529   0.683   2.355   3.721  0.3763 -0.1188 -0.0823
 4023SOL     OW23530   3.716   1.756   4.853  0.0212 -0.4889  0.0275
 4023SOL    HW123531   3.753   1.792   4.772  1.3466 -0.4717  0.6422
 4023SOL    HW223532   3.623   1.738   4.837 -0.5232  0.5599  2.0071
 4024SOL     OW23533   1.165   1.152  12.254  0.1936  0.2166  0.2693
 4024SOL    HW123534   1.083   1.112  12.281  0.8443 -0.6947  0.8985
 4024SOL    HW223535   1.170   1.143  12.158 -0.8301 -1.7834  0.4116
 4025SOL     OW23536   0.864   0.783   5.976 -0.4605 -0.1165 -0.0351
 4025SOL    HW123537   0.913   0.713   5.931 -0.9774 -0.5130  0.0195
 4025SOL    HW223538   0.928   0.855   5.975 -2.1105  1.3822  3.5932
 4026SOL     OW23539   3.523   1.327   2.364  0.3610 -0.3637  0.5256
 4026SOL    HW123540   3.594   1.309   2.425 -0.8997 -1.1320  1.7678
 4026SOL    HW223541   3.507   1.420   2.378 -1.5461 -0.7295  0.7868
 4027SOL     OW23542   2.979   4.470  13.044  0.8774 -0.1494  0.0147
 4027SOL    HW123543   2.995   4.381  13.077 -1.9503 -0.9089 -0.6645
 4027SOL    HW223544   3.015   4.466  12.955  1.3895 -1.8079  0.2850
 4028SOL     OW23545   2.636   1.363   2.695 -0.5171 -0.0414 -0.5334
 4028SOL    HW123546   2.606   1.348   2.606  0.8256 -0.4394 -0.9298
 4028SOL    HW223547   2.640   1.280   2.742  0.8665 -0.2242 -0.9760
 4029SOL     OW23548   2.712   3.374  11.946 -0.7046 -0.0219 -0.4300
 4029SOL    HW123549   2.755   3.325  11.876 -0.5761  0.3544 -0.6172
 4029SOL    HW223550   2.629   3.397  11.905 -1.1755  0.4499  0.7987
 4030SOL     OW23551   0.748   1.911   9.252  0.0971 -0.2157  0.0220
 4030SOL    HW123552   0.807   1.957   9.312 -0.2318 -1.3680  1.2190
 4030SOL    HW223553   0.663   1.931   9.293 -0.9598 -2.4739 -1.0821
 4031SOL     OW23554   0.505   1.724  10.852 -0.1912 -0.3496  0.6053
 4031SOL    HW123555   0.539   1.743  10.939  1.4902  0.8485 -0.3274
 4031SOL    HW223556   0.476   1.811  10.825  1.2413  0.4429  1.6459
 4032SOL     OW23557   2.517   0.017  14.443  0.1737 -0.7058  0.2238
 4032SOL    HW123558   2.551   0.068  14.368  0.9644  1.4050  2.0193
 4032SOL    HW223559   2.438   0.071  14.449 -0.1861 -1.1775 -0.2637
 4033SOL     OW23560   3.642   4.551   6.167 -0.2340 -0.5153 -0.7452
 4033SOL    HW123561   3.710   4.525   6.229  0.1014  0.1964 -0.8177
 4033SOL    HW223562   3.699   4.552   6.091  1.0163 -0.1206  0.2076
 4034SOL     OW23563   3.762   1.630   9.540  0.0367  0.3278  0.2673
 4034SOL    HW123564   3.855   1.618   9.522 -0.2337 -1.5060  0.0374
 4034SOL    HW223565   3.761   1.613   9.634  2.5449  0.6055  0.3577
 4035SOL     OW23566   2.339   4.062  17.260 -0.7801 -0.7718  0.6974
 4035SOL    HW123567   2.267   4.122  17.247  0.3401  0.6340  0.9685
 4035SOL    HW223568   2.373   4.088  17.346  0.2661  0.3241 -0.0510
 4036SOL     OW23569   0.406   2.720   3.861  0.7975  0.0138 -0.1170
 4036SOL    HW123570   0.449   2.762   3.787  0.3695  0.8808  0.1248
 4036SOL    HW223571   0.445   2.752   3.943  0.4210 -1.3808  0.6157
 4037SOL     OW23572   0.699   4.416  14.709  0.3053  0.1328  0.6291
 4037SOL    HW123573   0.776   4.395  14.656 -0.3131  1.3795 -0.7925
 4037SOL    HW223574   0.636   4.449  14.644  0.8821 -1.2625 -0.6260
 4038SOL     OW23575   1.182   1.788   2.832  0.4713 -0.2184 -0.4204
 4038SOL    HW123576   1.269   1.750   2.825  0.4247 -0.3027 -0.5316
 4038SOL    HW223577   1.126   1.718   2.867 -2.9604  1.4434 -2.5173
 4039SOL     OW23578   0.534   3.215  16.898  0.4973 -0.5031 -0.1635
 4039SOL    HW123579   0.462   3.206  16.960 -0.3006  0.2497 -0.9847
 4039SOL    HW223580   0.598   3.257  16.956 -1.1602  2.1849 -0.2417
 4040SOL     OW23581   2.213   4.535   6.005 -0.1234 -0.3850  0.0993
 4040SOL    HW123582   2.304   4.526   6.032  0.0330 -1.9729 -0.9876
 4040SOL    HW223583   2.204   4.451   5.960  0.2454  0.0421 -0.7586
 4041SOL     OW23584   2.564   0.362  15.172 -0.3417  0.6365 -0.1524
 4041SOL    HW123585   2.642   0.339  15.223 -0.9905 -1.0272  0.0740
 4041SOL    HW223586   2.508   0.396  15.241  0.4086 -0.6319  1.0715
 4042SOL     OW23587   1.533   0.950   8.004 -0.0166  0.3172 -0.2973
 4042SOL    HW123588   1.457   0.892   8.008 -0.2281  0.5345 -1.0433
 4042SOL    HW223589   1.562   0.926   8.091  0.4204  0.8084 -0.3099
 4043SOL     OW23590   0.565   0.597   6.581 -0.3015  0.4027 -0.2424
 4043SOL    HW123591   0.541   0.587   6.673  0.2764 -1.4365 -0.2913
 4043SOL    HW223592   0.479   0.629   6.554 -0.1500  0.8388 -0.2133
 4044SOL     OW23593   2.385   0.921  14.366 -0.0225  0.3951 -0.3144
 4044SOL    HW123594   2.336   0.840  14.351  1.2309 -1.1260  3.9864
 4044SOL    HW223595   2.321   0.992  14.355 -2.4882 -1.6899  0.6030
 4045SOL     OW23596   1.499   1.551   8.663 -1.0002 -0.5098 -0.5427
 4045SOL    HW123597   1.500   1.617   8.732  0.3944  1.2347 -2.2093
 4045SOL    HW223598   1.418   1.507   8.687 -1.3104  1.1277  1.4371
 4046SOL     OW23599   4.529   2.744   3.733  0.5762  0.1367  0.2618
 4046SOL    HW123600   4.469   2.767   3.804  0.8836 -1.1060  0.9348
 4046SOL    HW223601   4.603   2.728   3.791 -0.5120 -0.4547  1.5155
 4047SOL     OW23602   1.949   4.043  16.559 -0.2257  0.4128  0.3096
 4047SOL    HW123603   2.034   4.082  16.539 -0.0921 -0.0213  0.0310
 4047SOL    HW223604   1.964   3.980  16.629  0.1072 -0.5699 -0.6522
 4048SOL     OW23605   0.499   4.637   4.551 -0.0376 -0.3529  0.7462
 4048SOL    HW123606   0.579   4.690   4.556 -1.1174  1.2334  1.0916
 4048SOL    HW223607   0.513   4.569   4.618  0.4509 -1.7770 -0.7885
 4049SOL     OW23608   0.489   3.446   8.282 -0.0243 -0.5002  0.1072
 4049SOL    HW123609   0.455   3.457   8.371 -0.1543 -1.9706  0.2450
 4049SOL    HW223610   0.471   3.352   8.274  0.6344 -0.7194  1.2841
 4050SOL     OW23611   2.804   2.245  13.166  0.0096 -0.3693 -0.1330
 4050SOL    HW123612   2.856   2.272  13.091  0.4169  0.4443  0.4393
 4050SOL    HW223613   2.827   2.321  13.220  0.2457 -1.2566  1.0174
 4051SOL     OW23614   1.306   4.024  12.026 -0.0514  0.8390  0.4104
 4051SOL    HW123615   1.341   4.041  11.939  0.7133  0.1641  0.5858
 4051SOL    HW223616   1.386   4.028  12.078  0.1564 -0.3694  0.1850
 4052SOL     OW23617   4.464   1.597  16.074 -0.4293 -0.2253 -0.1448
 4052SOL    HW123618   4.403   1.631  16.009 -1.1926  0.7507  1.0680
 4052SOL    HW223619   4.422   1.512  16.089  0.4942 -0.9686 -1.8710
 4053SOL     OW23620   1.204   0.360  16.651  0.8045 -0.2043  0.2637
 4053SOL    HW123621   1.225   0.291  16.714  0.8046  1.4341  2.0702
 4053SOL    HW223622   1.109   0.349  16.641  0.5567  0.1745  2.2194
 4054SOL     OW23623   3.073   1.113   7.968  0.4346 -0.0946 -0.0203
 4054SOL    HW123624   3.017   1.156   7.904  0.0901  1.0469  1.0581
 4054SOL    HW223625   3.012   1.100   8.040 -1.0933  2.0812 -0.9187
 4055SOL     OW23626   1.318   3.611  16.871 -0.3423 -0.1282  0.6690
 4055SOL    HW123627   1.248   3.634  16.810 -0.4139 -2.1090  0.0263
 4055SOL    HW223628   1.279   3.617  16.959  0.7012 -1.7915  1.2422
 4056SOL     OW23629   1.451   2.241   6.765  0.2920 -0.1893  0.4122
 4056SOL    HW123630   1.381   2.188   6.727  1.1687 -1.2098  0.2147
 4056SOL    HW223631   1.402   2.307   6.813 -0.3828  1.0195 -1.9462
 4057SOL     OW23632   2.442   2.450  12.716 -0.1501 -0.3585 -0.1061
 4057SOL    HW123633   2.429   2.356  12.709  0.4488 -0.4910  0.5215
 4057SOL    HW223634   2.534   2.447  12.743 -0.9116  0.6478  2.5974
 4058SOL     OW23635   3.345   0.084   9.936 -0.2752  0.2797  0.2428
 4058SOL    HW123636   3.410   0.136   9.889  0.4382  0.8520  1.8551
 4058SOL    HW223637   3.375   0.089  10.027  0.1522  2.2632 -0.0063
 4059SOL     OW23638   3.929   0.093  12.872  0.3446 -0.9565 -0.2954
 4059SOL    HW123639   4.023   0.092  12.851  0.0729  0.0253 -1.5467
 4059SOL    HW223640   3.925   0.052  12.958 -0.1724  3.0540  1.5587
 4060SOL     OW23641   0.835   4.561   6.161  0.4666  0.1217 -0.5862
 4060SOL    HW123642   0.926   4.552   6.134  0.7029  3.0383 -0.7029
 4060SOL    HW223643   0.821   4.651   6.189 -0.1784 -0.4372  0.8773
 4061SOL     OW23644   0.929   1.509  14.735  0.0859  0.1085  0.1343
 4061SOL    HW123645   1.020   1.495  14.760 -0.1880 -1.8658  0.0223
 4061SOL    HW223646   0.936   1.485  14.642  0.5178  1.1553 -0.0995
 4062SOL     OW23647   4.049   0.095   6.547 -0.2718 -0.4781 -0.5649
 4062SOL    HW123648   4.056   0.177   6.597  0.8948 -1.2773  0.5743
 4062SOL    HW223649   3.963   0.059   6.565 -0.4738  0.9583  1.3989
 4063SOL     OW23650   3.232   3.976   8.689 -0.4692  0.1065 -0.1198
 4063SOL    HW123651   3.223   3.919   8.612 -0.5430  0.6861 -0.5420
 4063SOL    HW223652   3.315   3.951   8.728 -0.8126  1.6565  1.5907
 4064SOL     OW23653   2.087   2.950  13.458  0.2482 -0.2300  0.3507
 4064SOL    HW123654   1.993   2.947  13.438 -0.0191  4.0193  0.8306
 4064SOL    HW223655   2.079   2.979  13.549  0.0823 -1.6248  0.7821
 4065SOL     OW23656   3.844   1.762   8.611  1.0135 -0.4758 -0.2530
 4065SOL    HW123657   3.826   1.759   8.517  1.3966 -1.5184 -0.3013
 4065SOL    HW223658   3.817   1.674   8.640 -0.5374  0.2653  0.5808
 4066SOL     OW23659   4.332   3.914   8.308 -0.0418 -0.4072 -0.3759
 4066SOL    HW123660   4.421   3.939   8.331  0.1757 -1.5875  0.0289
 4066SOL    HW223661   4.325   3.843   8.371  0.5019 -0.4049 -0.3177
 4067SOL     OW23662   3.555   3.018  12.920  0.0937  0.4323 -0.2578
 4067SOL    HW123663   3.529   3.083  12.855 -0.6169  2.2733  1.8401
 4067SOL    HW223664   3.650   3.035  12.921  0.4903 -1.8213 -0.0024
 4068SOL     OW23665   4.497   0.922   9.976 -0.1867  0.0980  0.2754
 4068SOL    HW123666   4.467   0.833   9.992  0.4681 -0.1708 -0.0370
 4068SOL    HW223667   4.414   0.958   9.943 -0.7062 -1.3738  0.0013
 4069SOL     OW23668   3.859   1.646   7.660 -0.0631  0.0437 -0.1865
 4069SOL    HW123669   3.829   1.578   7.720  0.9689 -0.4515 -0.2528
 4069SOL    HW223670   3.926   1.600   7.610 -0.0599  1.3377 -1.3712
 4070SOL     OW23671   0.195   2.425  14.923 -0.3267 -0.1065  0.0466
 4070SOL    HW123672   0.196   2.427  14.827  0.1876  1.1494  0.0798
 4070SOL    HW223673   0.247   2.505  14.926 -0.4443 -0.0786  1.2294
 4071SOL     OW23674   1.578   4.453   5.479  0.2172  0.8680  0.1416
 4071SOL    HW123675   1.486   4.479   5.475  0.1767  0.8802  1.1323
 4071SOL    HW223676   1.571   4.362   5.510 -0.2352  1.9485  3.1871
 4072SOL     OW23677   3.451   0.426  15.495 -0.0068 -0.6976  0.2460
 4072SOL    HW123678   3.358   0.429  15.519  0.1408  0.4578  0.6640
 4072SOL    HW223679   3.469   0.348  15.548  1.0202 -2.0046 -2.0484
 4073SOL     OW23680   3.876   0.048   2.002  0.4586 -0.4658  0.2737
 4073SOL    HW123681   3.845   0.135   1.977 -0.8539 -1.2816 -0.9612
 4073SOL    HW223682   3.887   0.010   1.914 -0.5792 -1.0196  0.3805
 4074SOL     OW23683   3.428   4.404   4.229 -0.2524 -0.2708 -0.4794
 4074SOL    HW123684   3.336   4.408   4.204 -0.4120 -0.7968  0.0214
 4074SOL    HW223685   3.425   4.420   4.323 -0.5335  0.4239 -0.6130
 4075SOL     OW23686   1.611   3.204   0.920 -0.0518  1.1487  0.2558
 4075SOL    HW123687   1.589   3.225   0.830  0.5039 -1.1898 -0.4177
 4075SOL    HW223688   1.535   3.236   0.969 -0.9288 -1.7693  0.8046
 4076SOL     OW23689   2.364   2.345   3.298  0.4253  0.5176 -0.3672
 4076SOL    HW123690   2.283   2.394   3.314  1.5424  1.1132  3.3539
 4076SOL    HW223691   2.417   2.369   3.373  2.0734  0.0825 -1.3912
 4077SOL     OW23692   2.379   4.314   7.582 -0.0880 -0.1552  0.3647
 4077SOL    HW123693   2.319   4.312   7.507  1.5160 -0.7403 -0.8998
 4077SOL    HW223694   2.433   4.235   7.580 -1.4277 -1.1118  1.8389
 4078SOL     OW23695   2.218   1.047   9.278  0.2314  0.3880 -0.5101
 4078SOL    HW123696   2.271   1.028   9.200 -1.0167 -2.5650 -0.6460
 4078SOL    HW223697   2.139   1.082   9.238 -0.9661 -0.8017  0.8232
 4079SOL     OW23698   3.406   4.224   9.212 -0.1506 -0.2848  0.3910
 4079SOL    HW123699   3.353   4.274   9.148  0.3798 -1.8310 -1.2468
 4079SOL    HW223700   3.491   4.248   9.176  0.9465 -1.4222  2.2247
 4080SOL     OW23701   1.985   4.393   7.575 -0.5024 -0.5224  0.6671
 4080SOL    HW123702   2.014   4.484   7.570 -0.9128 -0.4129  0.2437
 4080SOL    HW223703   1.923   4.390   7.648  0.0928  2.0902  1.2653
 4081SOL     OW23704   0.605   2.865   2.465 -0.0423 -0.0998  0.4641
 4081SOL    HW123705   0.561   2.860   2.550 -0.8525 -0.4904  0.0149
 4081SOL    HW223706   0.645   2.778   2.459 -0.4914 -0.3480  1.0369
 4082SOL     OW23707   1.264   3.288   7.947 -0.2639  0.0371 -0.2853
 4082SOL    HW123708   1.332   3.273   8.013  1.1309  1.9649 -1.2892
 4082SOL    HW223709   1.250   3.381   7.961 -1.4070  0.3920 -3.6929
 4083SOL     OW23710   0.422   4.298  14.386  0.6190 -0.6483 -0.3546
 4083SOL    HW123711   0.433   4.249  14.304 -0.3257 -0.4644 -0.6011
 4083SOL    HW223712   0.420   4.226  14.449  0.8072  2.2642  2.9254
 4084SOL     OW23713   2.771   2.332  11.621  0.7371  0.1632 -0.5781
 4084SOL    HW123714   2.773   2.262  11.555  1.2913  0.1823 -0.5861
 4084SOL    HW223715   2.864   2.344  11.640  0.6210 -0.7073  0.5052
 4085SOL     OW23716   1.608   0.341   3.048 -0.2769  0.3349 -0.1604
 4085SOL    HW123717   1.673   0.355   2.979  2.1888 -1.1711  1.8776
 4085SOL    HW223718   1.668   0.333   3.122 -2.6438  3.1877  2.0711
 4086SOL     OW23719   0.186   1.023   4.035 -0.3223 -0.3501 -0.0750
 4086SOL    HW123720   0.189   1.101   4.089  1.8117 -0.5897  0.1594
 4086SOL    HW223721   0.090   1.024   4.028 -0.3192  2.1551  0.2762
 4087SOL     OW23722   0.225   2.326   6.811  0.1265  0.2005  0.1476
 4087SOL    HW123723   0.166   2.269   6.760 -0.0620  0.0655  0.5165
 4087SOL    HW223724   0.312   2.320   6.771  0.9553 -3.6796  2.5190
 4088SOL     OW23725   2.191   2.844   7.108 -0.7191  1.1542  0.1090
 4088SOL    HW123726   2.134   2.769   7.125  0.8144  0.4774  2.2370
 4088SOL    HW223727   2.217   2.871   7.196 -0.9996  0.8966  0.2698
 4089SOL     OW23728   3.901   2.837   7.344  0.6529 -0.0809  0.1278
 4089SOL    HW123729   3.871   2.765   7.289 -1.6861  1.2866 -0.3871
 4089SOL    HW223730   3.968   2.795   7.399 -1.4724 -0.8639  2.1068
 4090SOL     OW23731   3.996   1.292   3.772  0.3804 -0.1027 -0.2003
 4090SOL    HW123732   3.937   1.343   3.717 -1.8287 -1.3424  0.9930
 4090SOL    HW223733   4.059   1.357   3.800 -1.9876  2.3228 -0.5109
 4091SOL     OW23734   2.983   3.383  14.566 -0.1177 -0.4871  0.2801
 4091SOL    HW123735   2.907   3.355  14.515  1.3807 -1.4414 -1.4189
 4091SOL    HW223736   2.939   3.397  14.650 -1.7111 -0.7618 -0.5150
 4092SOL     OW23737   3.050   3.365   7.756  0.3663 -0.3881 -0.8807
 4092SOL    HW123738   3.137   3.378   7.720  0.0108  1.4572 -1.0628
 4092SOL    HW223739   3.064   3.412   7.838  0.1167  1.1920 -1.7399
 4093SOL     OW23740   3.309   0.900   1.953 -0.2826  0.1660  0.3120
 4093SOL    HW123741   3.239   0.961   1.929 -0.3293  0.3116  0.8005
 4093SOL    HW223742   3.351   0.881   1.870 -1.5287 -0.8232 -0.0936
 4094SOL     OW23743   2.133   2.435  13.434  0.0364  0.0916 -0.0537
 4094SOL    HW123744   2.122   2.369  13.503  0.7041 -1.4910 -1.4452
 4094SOL    HW223745   2.105   2.377  13.363  0.7769 -1.5598  1.0056
 4095SOL     OW23746   4.028   2.555   0.443 -0.6844  0.0346  0.3940
 4095SOL    HW123747   4.025   2.581   0.536  1.5700  1.0099  0.1853
 4095SOL    HW223748   4.009   2.639   0.401 -1.6718 -0.8267 -0.8720
 4096SOL     OW23749   1.967   2.626  14.837  0.3831 -0.1117  0.1832
 4096SOL    HW123750   1.874   2.629  14.812  0.6087 -1.3233 -0.7725
 4096SOL    HW223751   1.993   2.716  14.817  1.3849 -0.5378 -0.3844
 4097SOL     OW23752   0.495   2.825  10.383  0.6293  0.0666  0.1111
 4097SOL    HW123753   0.417   2.775  10.407  0.2195  2.2183  3.2537
 4097SOL    HW223754   0.460   2.913  10.371 -0.4226 -0.3405  0.2452
 4098SOL     OW23755   0.695   1.343   2.781  0.0984 -0.1518 -0.2350
 4098SOL    HW123756   0.678   1.395   2.703 -0.0008  1.4864  0.8780
 4098SOL    HW223757   0.789   1.361   2.783  0.3344 -1.3231 -0.8283
 4099SOL     OW23758   3.515   2.416   9.335 -0.2212  0.4171 -0.2807
 4099SOL    HW123759   3.426   2.388   9.353 -0.1147  0.3248  0.1012
 4099SOL    HW223760   3.520   2.439   9.242 -2.9995  1.4701 -0.1808
 4100SOL     OW23761   3.841   0.581  14.679 -0.0540  0.1488 -0.0151
 4100SOL    HW123762   3.911   0.642  14.706  0.9552 -0.4118 -1.3845
 4100SOL    HW223763   3.763   0.608  14.728  0.4326  1.0580  0.2614
 4101SOL     OW23764   1.974   1.963   1.814  0.1494 -0.1513 -0.2303
 4101SOL    HW123765   1.974   2.018   1.736  1.8011  0.4039  0.1711
 4101SOL    HW223766   2.000   1.879   1.776 -2.5287 -2.2708  2.5374
 4102SOL     OW23767   0.177   1.480   5.254  0.4070  0.7277 -0.0726
 4102SOL    HW123768   0.084   1.484   5.231  0.8332 -1.1296 -2.1851
 4102SOL    HW223769   0.186   1.387   5.277  2.5412  0.5432 -1.7107
 4103SOL     OW23770   2.165   1.460   7.430  0.2171  1.0519 -0.5282
 4103SOL    HW123771   2.176   1.366   7.414 -0.3759  0.7026  1.1388
 4103SOL    HW223772   2.075   1.471   7.461  1.0689  1.8100  1.6577
 4104SOL     OW23773   1.684   2.057   3.301  0.2664 -0.1627 -0.3163
 4104SOL    HW123774   1.643   2.143   3.308 -1.7863 -1.1717  0.1065
 4104SOL    HW223775   1.622   1.998   3.259  0.0122 -1.6936  2.2104
 4105SOL     OW23776   0.853   1.966   4.011  0.3823 -0.4195  0.4806
 4105SOL    HW123777   0.883   1.907   4.081  1.2153 -0.9067 -0.2913
 4105SOL    HW223778   0.936   1.991   3.970 -0.5637 -1.5419 -2.1151
 4106SOL     OW23779   3.767   2.993  16.609 -0.2156 -0.3630 -0.2030
 4106SOL    HW123780   3.740   2.901  16.603 -2.0432  0.2114 -0.5516
 4106SOL    HW223781   3.683   3.037  16.622 -0.0595 -0.2652  0.5162
 4107SOL     OW23782   2.162   4.256   8.563 -0.1044  0.3233  0.5427
 4107SOL    HW123783   2.086   4.198   8.557 -0.8369  1.1174  2.0214
 4107SOL    HW223784   2.195   4.256   8.473 -1.5860  0.2140  0.0093
 4108SOL     OW23785   0.248   3.223   5.754 -0.1937  0.0338 -0.7728
 4108SOL    HW123786   0.266   3.142   5.707 -0.4130 -0.3858 -0.1259
 4108SOL    HW223787   0.302   3.208   5.831 -1.3160 -1.9074 -0.3787
 4109SOL     OW23788   2.911   0.163   6.881 -0.0824  0.0015  0.0630
 4109SOL    HW123789   2.865   0.092   6.835  0.1989  1.0041 -1.7513
 4109SOL    HW223790   2.996   0.122   6.865  1.4786  3.2996  0.0355
 4110SOL     OW23791   2.500   1.901  10.764 -0.0745 -0.4781  0.2894
 4110SOL    HW123792   2.462   1.980  10.803  0.4737  0.4037 -0.9624
 4110SOL    HW223793   2.546   1.859  10.836  0.3469 -1.7027 -0.6961
 4111SOL     OW23794   0.835   2.626   5.286 -0.2045 -0.0800  0.6112
 4111SOL    HW123795   0.888   2.693   5.241  0.1848 -0.4336  0.5443
 4111SOL    HW223796   0.885   2.547   5.266  1.2588  0.8074  0.7257
 4112SOL     OW23797   3.944   3.217   3.830 -0.1789 -0.5610 -0.0903
 4112SOL    HW123798   3.953   3.158   3.905  2.0450 -0.0533  0.0393
 4112SOL    HW223799   3.919   3.301   3.866  1.1385  0.2464 -1.0650
 4113SOL     OW23800   3.564   3.268   3.181  0.5291  0.2571  0.3077
 4113SOL    HW123801   3.554   3.178   3.150 -0.2812  0.2733  0.5109
 4113SOL    HW223802   3.477   3.278   3.221  0.7238 -0.9962  1.0251
 4114SOL     OW23803   1.511   2.427   8.908 -0.2529 -0.4331 -0.3476
 4114SOL    HW123804   1.600   2.422   8.942 -0.5399  0.1971  0.5024
 4114SOL    HW223805   1.499   2.335   8.884 -0.2457 -0.5844  0.2128
 4115SOL     OW23806   3.620   2.381  10.214  0.3123  0.5903 -0.5227
 4115SOL    HW123807   3.675   2.458  10.205 -0.5682  1.2238 -0.4322
 4115SOL    HW223808   3.564   2.400  10.138  2.8956  0.1342 -2.5517
 4116SOL     OW23809   1.062   3.679  13.241  0.4352 -0.3001 -0.3130
 4116SOL    HW123810   0.969   3.700  13.254  0.5992 -0.5802  1.3933
 4116SOL    HW223811   1.070   3.613  13.311 -2.9970 -1.4872 -1.0192
 4117SOL     OW23812   2.749   0.231  11.779  0.3321  0.3269  0.3305
 4117SOL    HW123813   2.796   0.190  11.852  0.5516 -1.1976 -0.6856
 4117SOL    HW223814   2.821   0.237  11.717  0.1906  2.5155  0.3555
 4118SOL     OW23815   0.304   3.761   6.244  0.1133  0.4107 -0.5661
 4118SOL    HW123816   0.265   3.845   6.220 -0.5844  0.2515 -0.0044
 4118SOL    HW223817   0.393   3.774   6.211  0.4609  0.0930  0.2398
 4119SOL     OW23818   2.544   1.127  11.439 -0.4828  0.0315 -0.2535
 4119SOL    HW123819   2.474   1.076  11.398 -1.0669 -0.5290  1.4778
 4119SOL    HW223820   2.614   1.094  11.383  0.5716  2.3791 -0.3200
 4120SOL     OW23821   1.464   2.194   4.391  0.2014 -0.0574  0.0243
 4120SOL    HW123822   1.514   2.223   4.315 -3.5782  0.7140 -2.1662
 4120SOL    HW223823   1.372   2.208   4.369  0.4498 -1.5124 -1.9327
 4121SOL     OW23824   3.254   4.377   7.421  0.3583  0.3166  1.2576
 4121SOL    HW123825   3.272   4.290   7.456  3.5976  0.7674  0.7295
 4121SOL    HW223826   3.215   4.350   7.338 -1.2173  1.1937  1.7253
 4122SOL     OW23827   3.918   0.367   2.614 -0.4558 -0.9750  0.5226
 4122SOL    HW123828   3.843   0.325   2.656 -0.3072 -2.1805 -0.3835
 4122SOL    HW223829   3.903   0.385   2.521  1.7114 -0.2535  0.3102
 4123SOL     OW23830   1.513   1.691  13.584  0.0244 -0.2379  0.1047
 4123SOL    HW123831   1.452   1.762  13.604  0.0437 -0.0388 -0.5277
 4123SOL    HW223832   1.561   1.732  13.512 -0.0435 -1.6359 -0.7249
 4124SOL     OW23833   3.510   4.439   5.791 -0.3138  0.5852  0.2958
 4124SOL    HW123834   3.596   4.482   5.788  0.4322 -0.9422 -0.1734
 4124SOL    HW223835   3.520   4.359   5.738 -0.2443  0.7643  0.0366
 4125SOL     OW23836   3.526   4.032   1.996 -0.0532  0.4446  0.2155
 4125SOL    HW123837   3.532   3.938   2.013 -1.9528  0.6891  2.2806
 4125SOL    HW223838   3.492   4.040   1.907 -0.1732 -0.1257  0.2082
 4126SOL     OW23839   1.100   1.311  16.833 -0.4239 -0.3330 -0.0484
 4126SOL    HW123840   1.099   1.399  16.795 -1.9260 -0.5497 -0.5126
 4126SOL    HW223841   1.170   1.271  16.783 -0.4872  0.5921 -0.8831
 4127SOL     OW23842   3.461   3.474   6.168 -0.3310  0.0164  0.0928
 4127SOL    HW123843   3.389   3.432   6.214 -0.6254  0.4033 -0.0159
 4127SOL    HW223844   3.443   3.446   6.078  0.0241 -0.8914  0.3021
 4128SOL     OW23845   1.846   3.615   7.190 -0.5468 -0.2828 -0.3607
 4128SOL    HW123846   1.913   3.604   7.256 -1.3195 -1.5016  0.2126
 4128SOL    HW223847   1.792   3.539   7.212 -0.3021 -0.6152 -0.9033
 4129SOL     OW23848   4.555   0.072   4.238  0.3233 -0.3959 -0.7496
 4129SOL    HW123849   4.643   0.081   4.202 -0.0807 -1.5838 -2.0262
 4129SOL    HW223850   4.573   0.131   4.312 -0.5638 -0.5574 -0.4110
 4130SOL     OW23851   4.115   2.640  11.021  0.1008 -0.0838  0.0049
 4130SOL    HW123852   4.073   2.579  10.960  0.7910 -0.5385 -0.0268
 4130SOL    HW223853   4.056   2.714  11.021  1.3361  0.8922 -1.8268
 4131SOL     OW23854   4.406   1.000   8.501 -0.3329 -0.0494  0.4196
 4131SOL    HW123855   4.485   0.947   8.498 -1.3802 -1.4676 -2.5656
 4131SOL    HW223856   4.454   1.082   8.515 -1.2314  0.2613  1.7061
 4132SOL     OW23857   3.314   4.393   9.748 -0.3309 -0.3436 -0.5116
 4132SOL    HW123858   3.284   4.400   9.838 -0.2123  0.4168 -0.5320
 4132SOL    HW223859   3.384   4.457   9.757 -2.8561  2.3259  0.0231
 4133SOL     OW23860   4.375   3.242   3.577 -0.3387  0.3690 -0.6152
 4133SOL    HW123861   4.469   3.227   3.561 -0.3435 -2.8922  2.2935
 4133SOL    HW223862   4.337   3.212   3.495 -1.6256 -0.2192  0.2087
 4134SOL     OW23863   0.864   1.051  10.657  0.2038  0.6161 -0.1786
 4134SOL    HW123864   0.853   1.041  10.562  0.5973 -0.4923 -0.1093
 4134SOL    HW223865   0.936   1.114  10.662 -0.8179  1.7535  0.2933
 4135SOL     OW23866   0.941   3.160  17.321  0.3609 -0.3254  0.2635
 4135SOL    HW123867   1.026   3.199  17.342  0.2188 -0.8255  1.7228
 4135SOL    HW223868   0.896   3.172  17.404 -0.9364 -0.2603 -0.4496
 4136SOL     OW23869   3.524   0.210  15.655 -0.0646  0.1208  0.6414
 4136SOL    HW123870   3.516   0.180  15.746 -3.1304 -1.0170 -0.0099
 4136SOL    HW223871   3.484   0.140  15.604 -1.5348  1.1507  0.3732
 4137SOL     OW23872   4.379   4.652   3.173  0.0584 -0.0277 -0.7248
 4137SOL    HW123873   4.329   4.672   3.252  0.1877 -0.0522 -0.6382
 4137SOL    HW223874   4.343   4.724   3.121 -0.6112  0.0354 -0.1741
 4138SOL     OW23875   3.855   0.239  10.376 -0.3871  0.4075 -0.3430
 4138SOL    HW123876   3.862   0.334  10.385 -0.5342  0.3818  0.0307
 4138SOL    HW223877   3.937   0.209  10.415 -0.8654  1.9144  1.8414
 4139SOL     OW23878   4.506   3.744   8.465  0.3579 -0.4282 -0.5146
 4139SOL    HW123879   4.597   3.774   8.472 -0.1232  0.0944  3.4566
 4139SOL    HW223880   4.520   3.651   8.447  3.6499 -0.1653  0.6837
 4140SOL     OW23881   3.426   0.219   3.341  0.1763  0.1313  0.0406
 4140SOL    HW123882   3.458   0.271   3.414  1.3997  1.3773 -1.3859
 4140SOL    HW223883   3.344   0.262   3.316  1.1381  2.9862  1.8135
 4141SOL     OW23884   0.832   0.169  13.157  0.0746  0.3726 -0.2176
 4141SOL    HW123885   0.912   0.116  13.152  0.9367  1.5658  0.9067
 4141SOL    HW223886   0.870   0.257  13.162  0.6269  0.3515 -3.6072
 4142SOL     OW23887   0.308   0.690   7.729  0.2351 -0.4350 -0.2034
 4142SOL    HW123888   0.250   0.682   7.805  3.0753  0.4525  2.0548
 4142SOL    HW223889   0.247   0.688   7.655 -0.7357  0.9430  0.5626
 4143SOL     OW23890   4.104   1.746   5.994 -0.3045 -0.3419  0.2668
 4143SOL    HW123891   4.046   1.811   6.034  0.2009 -0.6649  1.5065
 4143SOL    HW223892   4.154   1.802   5.935  0.9125 -1.9548 -0.2234
 4144SOL     OW23893   3.512   4.296  10.538 -0.6464 -0.5417 -0.5843
 4144SOL    HW123894   3.481   4.254  10.618  0.3386 -0.0054  0.0776
 4144SOL    HW223895   3.503   4.390  10.557  3.1225 -0.2028 -0.4972
 4145SOL     OW23896   4.638   2.529  12.423  0.0136  0.6000  0.0447
 4145SOL    HW123897   4.646   2.614  12.466  1.9447  0.3274  0.2081
 4145SOL    HW223898   4.547   2.545  12.397  0.4990  0.6913 -1.5984
 4146SOL     OW23899   1.933   1.972   5.450 -0.1825 -0.2325  0.0778
 4146SOL    HW123900   1.885   1.905   5.400 -2.1717 -0.5101  2.4039
 4146SOL    HW223901   2.004   1.914   5.478 -0.4498 -0.6554 -0.1230
 4147SOL     OW23902   4.698   0.877   4.683 -0.5599 -0.5639  0.1562
 4147SOL    HW123903   4.680   0.819   4.757 -0.9474 -0.2359  0.3210
 4147SOL    HW223904   4.718   0.812   4.616 -1.8965 -0.3178 -0.4844
 4148SOL     OW23905   3.558   0.740   2.478  0.0985  0.4768  0.2380
 4148SOL    HW123906   3.581   0.647   2.471 -0.5389  0.1220  2.8055
 4148SOL    HW223907   3.471   0.750   2.438  0.3896  1.5942 -0.1125
 4149SOL     OW23908   0.791   1.337   7.679  0.1953  0.3229  0.0862
 4149SOL    HW123909   0.874   1.378   7.655 -0.4175  1.4689 -0.1049
 4149SOL    HW223910   0.745   1.413   7.716  1.2810 -0.8343  3.7529
 4150SOL     OW23911   2.296   4.450   3.357  0.1789 -0.0107  0.3088
 4150SOL    HW123912   2.324   4.462   3.448  0.1333 -0.1156  0.3377
 4150SOL    HW223913   2.239   4.523   3.333 -1.5466 -1.6839 -0.6942
 4151SOL     OW23914   2.251   0.205   9.586  0.3664  0.1791  0.2178
 4151SOL    HW123915   2.329   0.258   9.572  0.6390  0.2471  1.9418
 4151SOL    HW223916   2.272   0.144   9.657 -0.1919  0.0295  0.2573
 4152SOL     OW23917   3.136   1.122   9.224 -0.0735  0.5222  0.1220
 4152SOL    HW123918   3.169   1.047   9.274 -1.9865  0.9452  2.0006
 4152SOL    HW223919   3.078   1.078   9.162  0.0659  2.9326 -1.6915
 4153SOL     OW23920   1.412   0.888   3.468 -0.0793 -0.0078 -0.1836
 4153SOL    HW123921   1.424   0.983   3.470  0.6390 -0.0948 -0.1155
 4153SOL    HW223922   1.430   0.870   3.561  0.7308  1.2536 -0.0982
 4154SOL     OW23923   2.412   3.468   7.421  0.1442  0.4628 -0.1230
 4154SOL    HW123924   2.376   3.554   7.402 -1.1479  0.2105  1.2345
 4154SOL    HW223925   2.336   3.411   7.410  0.2826 -0.1925  2.3145
 4155SOL     OW23926   4.050   1.328   6.348  0.2618 -0.3254  0.0403
 4155SOL    HW123927   4.003   1.399   6.392  0.2790  1.2447 -2.5074
 4155SOL    HW223928   3.979   1.264   6.354  0.0360 -0.0633  0.1596
 4156SOL     OW23929   0.198   2.776   7.684  0.6570  0.6201  0.4665
 4156SOL    HW123930   0.250   2.696   7.690  0.9276  0.9330  2.3056
 4156SOL    HW223931   0.246   2.832   7.746  0.4421 -0.4959  1.6465
 4157SOL     OW23932   4.113   3.636   6.771 -0.1152 -0.7511  0.5121
 4157SOL    HW123933   4.135   3.655   6.862  0.0365  1.5771 -0.0185
 4157SOL    HW223934   4.196   3.656   6.727 -0.0167 -1.1360  0.5188
 4158SOL     OW23935   0.576   4.507  16.391  0.0544 -0.0238  0.2823
 4158SOL    HW123936   0.550   4.594  16.359 -1.1535 -0.2978  0.5100
 4158SOL    HW223937   0.505   4.454  16.355  0.2105  0.7742 -1.2102
 4159SOL     OW23938   1.628   1.479  16.200  0.1210  0.5568  0.0498
 4159SOL    HW123939   1.693   1.454  16.265  1.1848 -2.5423 -2.2265
 4159SOL    HW223940   1.615   1.401  16.147  0.8713 -0.5612  1.5478
 4160SOL     OW23941   0.869   1.157  13.835  0.0994 -0.3561  0.0046
 4160SOL    HW123942   0.879   1.088  13.901 -1.4515 -0.4358  0.1518
 4160SOL    HW223943   0.775   1.178  13.833 -0.0604 -0.9364  1.4896
 4161SOL     OW23944   2.844   3.357  13.528  0.5486  0.3401  0.2307
 4161SOL    HW123945   2.759   3.385  13.563 -0.3833 -0.9478 -1.0135
 4161SOL    HW223946   2.858   3.272  13.569 -0.9388  0.7545  1.5979
 4162SOL     OW23947   4.540   0.410  14.891 -0.6785  0.5469 -1.1257
 4162SOL    HW123948   4.560   0.499  14.861 -1.6804  0.7194 -1.2712
 4162SOL    HW223949   4.573   0.424  14.980 -1.6076  0.0621 -0.6997
 4163SOL     OW23950   3.411   3.429   9.271 -0.5473 -0.2793  0.3878
 4163SOL    HW123951   3.432   3.510   9.318 -0.1727  0.2874 -0.7364
 4163SOL    HW223952   3.409   3.363   9.340  0.9657  1.8160  2.4648
 4164SOL     OW23953   2.006   2.413   3.557  0.1582 -0.3191  0.4668
 4164SOL    HW123954   1.967   2.484   3.506  0.5489  0.0178  0.6388
 4164SOL    HW223955   2.099   2.435   3.563  0.6527 -1.5776 -2.4170
 4165SOL     OW23956   0.648   4.291   5.846  0.3792  0.1720  0.1057
 4165SOL    HW123957   0.740   4.309   5.828 -0.0276  1.6675 -0.4788
 4165SOL    HW223958   0.629   4.370   5.896 -0.0903  0.7993 -1.0635
 4166SOL     OW23959   2.148   3.967  17.634  0.7116  0.1692 -0.4506
 4166SOL    HW123960   2.135   3.940  17.543  0.6212  0.1331 -0.4273
 4166SOL    HW223961   2.086   3.922  17.691  2.0869  0.3254  1.1761
 4167SOL     OW23962   0.497   0.697  11.138 -0.2896  0.0398 -0.2902
 4167SOL    HW123963   0.487   0.698  11.233  4.7837 -2.6619  0.2246
 4167SOL    HW223964   0.586   0.730  11.133 -0.1356 -0.0357  2.3970
 4168SOL     OW23965   1.200   2.030   2.360  0.1304 -0.4403 -1.0112
 4168SOL    HW123966   1.140   2.024   2.285  0.9769  2.8238 -1.9479
 4168SOL    HW223967   1.149   1.981   2.425 -0.3242  2.3752  0.7700
 4169SOL     OW23968   2.976   2.776   9.218 -0.2451  0.2905 -0.2261
 4169SOL    HW123969   3.024   2.854   9.190 -0.5349  0.9815  1.1738
 4169SOL    HW223970   2.989   2.781   9.313 -0.8231 -1.0709 -0.0808
 4170SOL     OW23971   0.033   3.765  13.894  0.0918  0.0275  0.0874
 4170SOL    HW123972   0.046   3.848  13.940 -0.9324  0.0428  0.3419
 4170SOL    HW223973   0.013   3.792  13.804 -2.4013  0.8351  0.8789
 4171SOL     OW23974   4.007   2.107  15.601  0.0597 -0.4110  0.3988
 4171SOL    HW123975   4.001   2.198  15.630  0.9709  0.2671 -1.5341
 4171SOL    HW223976   4.095   2.104  15.563  0.4087 -1.1415  1.2793
 4172SOL     OW23977   0.112   4.642  15.210  0.5627  0.0096  0.0825
 4172SOL    HW123978   0.126   4.585  15.285  1.8189  2.2323  1.5090
 4172SOL    HW223979   0.151   0.001  15.236  0.0569  0.3357 -0.1891
 4173SOL     OW23980   1.083   3.622  17.098 -1.1174  0.5039  0.3041
 4173SOL    HW123981   1.157   3.662  17.145 -1.6560  0.8400  0.8628
 4173SOL    HW223982   1.074   3.537  17.140 -1.0167  0.6233  0.5675
 4174SOL     OW23983   1.683   0.302   5.333  0.9322 -0.2156  0.6139
 4174SOL    HW123984   1.737   0.247   5.276  0.3754  0.7700 -0.8587
 4174SOL    HW223985   1.719   0.389   5.316  0.6328 -0.5974 -1.9887
 4175SOL     OW23986   2.617   0.065  16.231  0.3533 -0.9048 -0.5576
 4175SOL    HW123987   2.666   0.079  16.150  1.8331  2.2114  0.8439
 4175SOL    HW223988   2.531   0.063  16.190 -0.1002 -1.2474  0.3980
 4176SOL     OW23989   0.147   3.126  12.430  0.0275  0.1918  0.0744
 4176SOL    HW123990   0.128   3.050  12.484  2.1512 -0.6084 -0.3082
 4176SOL    HW223991   0.157   3.187  12.503 -0.2402 -0.4571  0.6391
 4177SOL     OW23992   1.006   0.396   3.329  0.7447 -0.6572  0.1088
 4177SOL    HW123993   0.990   0.391   3.423 -0.4789  1.4950  0.0110
 4177SOL    HW223994   0.976   0.307   3.310  0.2264 -0.0571 -1.8642
 4178SOL     OW23995   1.687   0.606   0.419 -0.0196 -0.2117 -0.1422
 4178SOL    HW123996   1.709   0.618   0.511 -1.3849  1.5888 -0.0482
 4178SOL    HW223997   1.740   0.663   0.363  2.0339 -2.1411 -0.1461
 4179SOL     OW23998   0.550   0.353   2.925 -0.0165 -0.0065 -0.5368
 4179SOL    HW123999   0.611   0.364   2.853 -0.2652  0.3618 -0.6927
 4179SOL    HW224000   0.582   0.426   2.978 -1.7212  0.0864  0.3574
 4180SOL     OW24001   0.481   2.336   2.726 -0.2324  0.4052  0.0520
 4180SOL    HW124002   0.453   2.379   2.807  0.6517  3.7561 -1.4419
 4180SOL    HW224003   0.413   2.355   2.661 -2.2671 -2.2476  1.4006
 4181SOL     OW24004   4.288   2.619   5.340 -0.1674  0.3573 -0.0395
 4181SOL    HW124005   4.288   2.689   5.275 -0.0455  0.8029  0.4504
 4181SOL    HW224006   4.193   2.619   5.352 -0.0828 -0.2264  0.6047
 4182SOL     OW24007   0.267   2.185   8.408  0.5771 -0.3529  0.1148
 4182SOL    HW124008   0.219   2.268   8.416 -2.9433 -2.2808 -1.3887
 4182SOL    HW224009   0.357   2.215   8.425  0.5454  0.3442 -0.9491
 4183SOL     OW24010   3.007   0.871   2.715  0.2428 -0.2424 -0.1889
 4183SOL    HW124011   2.956   0.936   2.667  0.7368  0.0179 -0.3565
 4183SOL    HW224012   3.030   0.818   2.638 -0.0876  2.0836 -1.8949
 4184SOL     OW24013   2.204   1.088   8.528 -0.1705  0.4573  0.2322
 4184SOL    HW124014   2.284   1.137   8.510  1.2464 -1.8173  0.2056
 4184SOL    HW224015   2.226   1.012   8.474 -1.4215 -0.0145  0.3833
 4185SOL     OW24016   2.148   2.544   3.232  0.2274 -0.8351 -0.6476
 4185SOL    HW124017   2.069   2.533   3.179 -2.2701 -1.3105  3.1749
 4185SOL    HW224018   2.200   2.613   3.190 -0.9352  0.2717 -0.2777
 4186SOL     OW24019   0.366   2.989   6.092  0.1190  0.0931  0.0155
 4186SOL    HW124020   0.377   3.005   6.185  0.9648 -0.1779 -0.0446
 4186SOL    HW224021   0.270   2.988   6.086  0.2001 -5.1786 -0.5884
 4187SOL     OW24022   2.685   4.498   9.829  0.7000 -0.3232 -0.1658
 4187SOL    HW124023   2.630   4.497   9.752 -1.0555  2.0032  1.0657
 4187SOL    HW224024   2.759   4.539   9.785 -0.0224  1.8854  0.7152
 4188SOL     OW24025   3.593   3.780   1.754 -0.0813 -0.1354  0.0776
 4188SOL    HW124026   3.635   3.777   1.839  0.6565 -1.2976 -0.3290
 4188SOL    HW224027   3.649   3.716   1.709  0.5278  0.8003 -0.5006
 4189SOL     OW24028   2.143   3.527   2.521  0.0693 -0.3200 -0.0988
 4189SOL    HW124029   2.131   3.603   2.578  1.0529  0.0746 -0.4214
 4189SOL    HW224030   2.212   3.475   2.564  0.2369 -0.2609 -0.2968
 4190SOL     OW24031   0.128   3.152   4.988  0.0812  0.0906  0.2824
 4190SOL    HW124032   0.146   3.109   4.904  2.8795 -0.7061  1.3027
 4190SOL    HW224033   0.038   3.120   4.998  0.5456 -1.4195 -0.2942
 4191SOL     OW24034   3.101   1.053   6.725  0.3039 -0.2240 -0.4636
 4191SOL    HW124035   3.159   1.026   6.654  0.0019  0.5627 -1.0123
 4191SOL    HW224036   3.163   1.083   6.792 -2.2961 -0.6515  2.1200
 4192SOL     OW24037   2.752   3.537   6.007  0.3633 -0.0641 -0.5730
 4192SOL    HW124038   2.700   3.546   5.927 -1.3566  0.2016  0.5916
 4192SOL    HW224039   2.715   3.604   6.064  1.6230 -0.0573  0.2310
 4193SOL     OW24040   2.652   1.533   9.040  0.3435  0.2805  0.2950
 4193SOL    HW124041   2.557   1.524   9.049  0.5116  0.2168  2.0663
 4193SOL    HW224042   2.676   1.451   9.083 -0.2096 -0.4676 -0.8267
 4194SOL     OW24043   0.691   2.614   4.972 -0.1169  0.2253 -0.0886
 4194SOL    HW124044   0.779   2.638   4.944 -0.1886  0.6067  0.0056
 4194SOL    HW224045   0.722   2.529   5.005  0.7309  0.5060 -0.1548
 4195SOL     OW24046   2.595   0.950   6.197  0.0194 -0.0336 -0.1206
 4195SOL    HW124047   2.548   1.031   6.221  0.9776  0.0323  1.5669
 4195SOL    HW224048   2.647   0.924   6.273 -1.7725  0.6776  1.3530
 4196SOL     OW24049   0.514   3.682   7.888 -0.1494 -0.5226  0.1345
 4196SOL    HW124050   0.564   3.627   7.948 -1.1179 -0.4979  0.9725
 4196SOL    HW224051   0.490   3.753   7.947 -0.0782  0.0601 -0.5472
 4197SOL     OW24052   0.860   0.530  14.285  0.2190 -0.4892  0.5769
 4197SOL    HW124053   0.951   0.550  14.305  1.0033 -0.7432 -2.6475
 4197SOL    HW224054   0.813   0.601  14.330  0.6847  0.1414  0.0757
 4198SOL     OW24055   1.869   1.153   3.242 -0.1223  0.2822 -0.0052
 4198SOL    HW124056   1.859   1.059   3.262  2.0633  0.6030  2.5495
 4198SOL    HW224057   1.901   1.136   3.153 -0.8747  2.0707 -0.6186
 4199SOL     OW24058   3.551   0.600   2.839 -0.0682 -0.3087  0.0621
 4199SOL    HW124059   3.566   0.693   2.857 -2.0104  0.0169 -0.0067
 4199SOL    HW224060   3.491   0.580   2.911  0.1138 -1.6869 -0.1714
 4200SOL     OW24061   3.022   2.034   7.121 -0.0290 -0.3060 -0.0746
 4200SOL    HW124062   3.105   1.985   7.119  0.4760  0.4220  2.2377
 4200SOL    HW224063   3.049   2.123   7.145 -2.5255  0.6843 -0.9785
 4201SOL     OW24064   3.560   2.224   7.554  0.7627 -0.1547 -0.4524
 4201SOL    HW124065   3.523   2.312   7.542 -1.6842 -0.8184  2.1960
 4201SOL    HW224066   3.640   2.252   7.597 -0.6705 -0.4446  2.4015
 4202SOL     OW24067   4.424   4.172  15.650 -0.2188  0.4633 -0.3814
 4202SOL    HW124068   4.474   4.179  15.569  2.7936  0.6615  1.4536
 4202SOL    HW224069   4.401   4.080  15.652  0.6265  0.2320 -1.3120
 4203SOL     OW24070   4.407   0.902   0.189  0.7997  0.1607  0.3099
 4203SOL    HW124071   4.484   0.913   0.133 -0.0447 -1.5428 -1.1593
 4203SOL    HW224072   4.339   0.942   0.135 -0.5710  1.1778  2.7657
 4204SOL     OW24073   1.827   3.814   6.409 -0.4461  0.1005  0.2246
 4204SOL    HW124074   1.753   3.830   6.469 -1.1569  0.1614 -0.6702
 4204SOL    HW224075   1.882   3.757   6.463  0.6246  0.3770 -0.5877
 4205SOL     OW24076   3.028   0.842   7.706  0.0308 -0.0473 -0.0234
 4205SOL    HW124077   2.953   0.901   7.716 -1.9127 -2.4150 -0.6603
 4205SOL    HW224078   3.016   0.797   7.789 -0.7035 -0.1944 -0.2101
 4206SOL     OW24079   3.341   0.158   9.593 -0.4636 -0.1645 -0.0700
 4206SOL    HW124080   3.273   0.095   9.619  0.2357 -0.6579  0.5792
 4206SOL    HW224081   3.281   0.224   9.558 -1.5145 -0.7515  0.6119
 4207SOL     OW24082   4.674   1.209  15.504 -0.0635 -0.3994 -0.0467
 4207SOL    HW124083   4.645   1.274  15.568 -0.4932 -0.8144  0.1849
 4207SOL    HW224084   0.036   1.235  15.471 -0.8980 -1.3393 -2.9727
 4208SOL     OW24085   4.607   3.157   0.942 -0.0919 -0.5826  0.1952
 4208SOL    HW124086   4.515   3.180   0.956 -0.1064  0.0597 -1.0218
 4208SOL    HW224087   4.627   3.090   1.008 -1.8276 -0.7069  0.5967
 4209SOL     OW24088   4.335   0.163   3.778  0.6232 -0.3945 -0.2418
 4209SOL    HW124089   4.286   0.165   3.860  0.9360 -0.7057 -0.0464
 4209SOL    HW224090   4.420   0.186   3.814 -0.0404 -0.4195  1.3327
 4210SOL     OW24091   0.617   3.109   1.330  0.0229 -0.2035  0.4054
 4210SOL    HW124092   0.551   3.073   1.270 -0.2296  1.9728 -0.6106
 4210SOL    HW224093   0.649   3.188   1.286 -1.4150 -1.1219 -2.3444
 4211SOL     OW24094   1.432   2.869   7.991 -0.6388 -0.0286 -1.4952
 4211SOL    HW124095   1.427   2.961   7.962  0.7154  1.4204  2.8832
 4211SOL    HW224096   1.421   2.868   8.086  0.7337  0.2851 -1.3296
 4212SOL     OW24097   3.683   3.218   7.552 -0.3346  0.2701  0.6133
 4212SOL    HW124098   3.696   3.126   7.571 -0.0451  0.3279  0.6878
 4212SOL    HW224099   3.655   3.215   7.460  1.2895 -2.4976  0.2119
 4213SOL     OW24100   0.398   2.628   6.322 -0.5176  0.5602 -0.3534
 4213SOL    HW124101   0.449   2.597   6.247 -1.9942 -1.6715 -0.3992
 4213SOL    HW224102   0.376   2.547   6.367 -3.0588  0.2859 -2.1034
 4214SOL     OW24103   4.678   2.896   5.949 -0.5757  0.8761 -0.0496
 4214SOL    HW124104   4.670   2.969   5.887 -2.0631  1.2882  0.6251
 4214SOL    HW224105   0.048   2.883   5.961 -0.5145  2.4143  1.1029
 4215SOL     OW24106   1.713   3.059   1.129  0.5269  0.4716  0.1228
 4215SOL    HW124107   1.685   2.982   1.080  1.6675 -0.0535  0.3029
 4215SOL    HW224108   1.709   3.128   1.063 -1.9866 -1.1947 -1.4661
 4216SOL     OW24109   3.568   2.239  17.443 -0.1652 -0.1741 -0.1273
 4216SOL    HW124110   3.594   2.148  17.443  1.8450  0.3895  2.0826
 4216SOL    HW224111   3.647   2.277  17.482 -0.0772 -1.1566  0.6327
 4217SOL     OW24112   0.725   1.019  16.131 -0.2446  0.7813 -0.4821
 4217SOL    HW124113   0.738   1.101  16.179 -2.6774  1.3285 -0.7947
 4217SOL    HW224114   0.732   1.042  16.038 -0.4397  2.4682 -0.0828
 4218SOL     OW24115   2.601   2.807  15.900 -0.1574 -0.1146 -0.2257
 4218SOL    HW124116   2.589   2.834  15.991 -1.3574 -0.1529 -0.3772
 4218SOL    HW224117   2.538   2.866  15.858  1.3466  1.1280 -0.7424
 4219SOL     OW24118   4.032   3.632  11.222  0.7338 -0.3931  0.0070
 4219SOL    HW124119   4.068   3.605  11.306 -1.5897 -1.0945  0.7999
 4219SOL    HW224120   3.944   3.594  11.232 -0.8715  3.4969  0.4743
 4220SOL     OW24121   2.444   3.748   5.624  0.1124 -0.5160 -0.1488
 4220SOL    HW124122   2.520   3.742   5.681 -1.6051  0.2146  2.1910
 4220SOL    HW224123   2.466   3.677   5.563 -2.6001 -1.3635 -0.1582
 4221SOL     OW24124   1.568   3.128  16.316 -0.0535 -0.1033  0.0814
 4221SOL    HW124125   1.519   3.149  16.237 -0.8942 -1.6088  0.2134
 4221SOL    HW224126   1.504   3.093  16.377 -0.3953  1.6901  0.7450
 4222SOL     OW24127   3.932   1.183   2.373 -0.2236  0.1158  0.4980
 4222SOL    HW124128   3.895   1.166   2.460  0.0287 -1.3209  0.3215
 4222SOL    HW224129   3.968   1.095   2.359 -0.4039  0.3578 -1.5015
 4223SOL     OW24130   4.055   3.546   1.980  0.0998 -0.0421 -0.4039
 4223SOL    HW124131   4.135   3.588   2.013  0.1300 -1.0065  0.7577
 4223SOL    HW224132   4.088   3.457   1.965  0.3255 -0.2947  1.5462
 4224SOL     OW24133   2.188   4.272  11.088 -0.1758  0.0368 -0.1294
 4224SOL    HW124134   2.260   4.300  11.031 -0.8821 -1.7726 -1.8970
 4224SOL    HW224135   2.225   4.278  11.176  0.4476 -0.0598 -0.3839
 4225SOL     OW24136   2.943   3.670   7.180 -0.3142 -0.0386 -0.8231
 4225SOL    HW124137   3.006   3.611   7.139  1.0173  0.2648  0.7988
 4225SOL    HW224138   2.926   3.730   7.107 -1.9710 -0.9515 -1.2018
 4226SOL     OW24139   3.297   0.543   8.171 -0.4854 -0.1162  0.3292
 4226SOL    HW124140   3.231   0.481   8.203  1.0496 -2.1015 -0.2868
 4226SOL    HW224141   3.363   0.484   8.135 -1.8677 -1.5429  0.1206
 4227SOL     OW24142   4.252   4.035  16.586 -0.1381  0.2141 -0.4343
 4227SOL    HW124143   4.302   3.958  16.614  0.4191  1.6425  2.4831
 4227SOL    HW224144   4.193   4.052  16.660  1.1676 -2.8355  1.3211
 4228SOL     OW24145   3.856   0.405   7.762  0.1114  0.2480 -0.2862
 4228SOL    HW124146   3.812   0.453   7.832 -0.2671 -0.5349  0.0121
 4228SOL    HW224147   3.910   0.348   7.816 -0.1048 -0.1458 -0.4913
 4229SOL     OW24148   0.518   3.506   1.223 -0.2853  0.0901 -0.5424
 4229SOL    HW124149   0.603   3.527   1.262 -0.5313 -0.2309  0.1628
 4229SOL    HW224150   0.521   3.539   1.133  0.1011 -1.2824 -1.0353
 4230SOL     OW24151   2.813   2.185   6.735 -0.1020 -0.8855  0.3407
 4230SOL    HW124152   2.773   2.273   6.730  2.4696  0.2560  0.1193
 4230SOL    HW224153   2.748   2.133   6.688 -0.6501 -0.4148  0.5680
 4231SOL     OW24154   0.081   0.115  16.943  0.2994  0.0157  0.4801
 4231SOL    HW124155   0.050   0.102  16.853 -1.2627 -0.7201  1.1372
 4231SOL    HW224156   0.106   0.207  16.953 -0.3212  0.1522  0.7596
 4232SOL     OW24157   2.617   0.616   7.561 -0.4104  0.2548 -0.3393
 4232SOL    HW124158   2.644   0.664   7.640 -0.5569  1.2872 -0.9209
 4232SOL    HW224159   2.529   0.653   7.556 -0.3172  1.0200  3.3700
 4233SOL     OW24160   1.523   3.822  10.511 -0.0728  0.1703  0.0741
 4233SOL    HW124161   1.577   3.862  10.443  1.0109  0.1562  0.9104
 4233SOL    HW224162   1.454   3.790  10.454 -0.6995  0.5481  0.6220
 4234SOL     OW24163   2.413   4.048  15.150 -0.3586 -0.0414  0.4004
 4234SOL    HW124164   2.385   3.962  15.182  2.3332 -0.0632  2.6832
 4234SOL    HW224165   2.333   4.091  15.179  0.4066  2.1106 -0.6549
 4235SOL     OW24166   1.411   2.048   9.854 -1.0193  0.0181  0.4210
 4235SOL    HW124167   1.408   2.142   9.870 -1.1759 -0.1706  1.4995
 4235SOL    HW224168   1.456   2.006   9.928 -3.5487 -0.7672  1.5294
 4236SOL     OW24169   2.457   3.450   3.869  0.0553  0.9819  0.1371
 4236SOL    HW124170   2.367   3.419   3.862  0.2251  0.1433  1.5597
 4236SOL    HW224171   2.500   3.364   3.867 -0.3580  0.7587  0.9249
 4237SOL     OW24172   0.613   3.857   8.598 -0.1079  0.4968  0.4735
 4237SOL    HW124173   0.614   3.934   8.541  1.0850  1.1765  1.4262
 4237SOL    HW224174   0.568   3.891   8.676 -0.0877 -0.1508  0.7620
 4238SOL     OW24175   0.320   2.643  17.624  0.0131 -0.2855 -0.1628
 4238SOL    HW124176   0.315   2.596   0.009  0.5788  0.5615  0.3572
 4238SOL    HW224177   0.374   2.586  17.570 -1.7704 -0.2177 -2.0385
 4239SOL     OW24178   3.477   2.508  15.613  0.0003  0.1503 -0.1232
 4239SOL    HW124179   3.436   2.503  15.526 -0.8841 -3.4489  0.5113
 4239SOL    HW224180   3.463   2.420  15.647  1.3272 -0.0859 -0.1975
 4240SOL     OW24181   1.227   1.773  16.643 -0.0360 -0.0051 -0.4439
 4240SOL    HW124182   1.270   1.858  16.654  0.0143 -0.2195  0.9725
 4240SOL    HW224183   1.277   1.739  16.569 -0.6578 -2.6203  0.3204
 4241SOL     OW24184   0.077   3.867  13.127  0.1008 -0.1348 -0.1720
 4241SOL    HW124185   0.158   3.817  13.116  1.1595  1.6549 -0.5399
 4241SOL    HW224186   0.023   3.827  13.059 -0.8047  0.9785 -0.1127
 4242SOL     OW24187   0.138   1.211   7.433  0.0219  0.0947 -0.5313
 4242SOL    HW124188   0.121   1.218   7.527  1.7586  0.1944 -0.2285
 4242SOL    HW224189   0.051   1.224   7.394  1.4538 -0.0814 -3.7732
 4243SOL     OW24190   1.489   2.741  17.022  0.2030 -0.2317  0.3754
 4243SOL    HW124191   1.398   2.751  17.049  0.4471 -1.1686  1.5305
 4243SOL    HW224192   1.528   2.699  17.099 -1.1713 -1.7314  0.2582
 4244SOL     OW24193   0.391   1.537   1.531  0.2269 -0.3185 -0.6929
 4244SOL    HW124194   0.424   1.487   1.455 -0.4732 -2.8056  0.6553
 4244SOL    HW224195   0.298   1.542   1.510 -0.0281 -2.5030 -0.1282
 4245SOL     OW24196   3.759   1.507   8.669  0.6316 -0.7623  0.3215
 4245SOL    HW124197   3.825   1.509   8.738  1.8753  1.6828 -0.9254
 4245SOL    HW224198   3.780   1.434   8.611  1.2458 -0.0788 -0.3150
 4246SOL     OW24199   3.422   0.320   8.511 -0.5089  0.2545  0.0986
 4246SOL    HW124200   3.367   0.251   8.546  1.5984 -1.1876  0.5772
 4246SOL    HW224201   3.486   0.314   8.583 -0.8190 -1.1969  0.2367
 4247SOL     OW24202   3.999   3.809  13.895 -0.1165 -0.1535 -0.0885
 4247SOL    HW124203   4.027   3.822  13.986  1.4875  2.4695 -0.9381
 4247SOL    HW224204   4.074   3.841  13.845  0.6498  1.2645  1.9432
 4248SOL     OW24205   3.429   1.929   6.161 -0.3864  0.0245  0.0694
 4248SOL    HW124206   3.498   1.908   6.098 -0.5147  0.3199 -0.1651
 4248SOL    HW224207   3.476   1.985   6.223  3.2784  0.6437 -3.2313
 4249SOL     OW24208   2.422   2.384   6.360  0.3237 -0.5337  0.1569
 4249SOL    HW124209   2.508   2.415   6.333  0.9851 -0.8001  1.9774
 4249SOL    HW224210   2.436   2.391   6.454 -0.8814 -0.9796  0.3753
 4250SOL     OW24211   4.525   0.278   3.285  0.2541 -0.2699 -0.3304
 4250SOL    HW124212   4.533   0.352   3.225  1.6103 -0.6858 -0.6827
 4250SOL    HW224213   4.500   0.210   3.222  0.8548 -1.6437  0.9121
 4251SOL     OW24214   1.867   2.877   5.868 -0.6489 -0.2820  0.3667
 4251SOL    HW124215   1.781   2.902   5.902  0.3906 -1.1167  3.5565
 4251SOL    HW224216   1.845   2.795   5.824  0.7028  0.9236 -2.5321
 4252SOL     OW24217   2.751   1.640   6.305 -0.3652 -0.6009  0.1317
 4252SOL    HW124218   2.747   1.715   6.245 -1.4417 -1.8241 -1.3441
 4252SOL    HW224219   2.656   1.631   6.318 -0.2364 -0.1267  1.3584
 4253SOL     OW24220   1.181   2.685   9.250 -0.0736  0.4789  0.6336
 4253SOL    HW124221   1.137   2.742   9.186 -1.7261 -1.1567  0.2985
 4253SOL    HW224222   1.196   2.605   9.199 -1.2894  1.4162 -1.1982
 4254SOL     OW24223   4.007   4.346  16.386  0.1815  0.6885 -0.3205
 4254SOL    HW124224   4.093   4.341  16.344  0.3764  0.2671  0.1288
 4254SOL    HW224225   4.029   4.392  16.468 -0.4003  0.4422 -0.0213
 4255SOL     OW24226   0.698   3.730   5.108 -0.1522  0.0210 -0.1264
 4255SOL    HW124227   0.606   3.704   5.116  0.3273 -1.7980 -0.5221
 4255SOL    HW224228   0.740   3.700   5.189 -1.2683  0.4998  0.6190
 4256SOL     OW24229   3.132   1.604   6.787 -0.1445 -0.3711 -0.1532
 4256SOL    HW124230   3.221   1.576   6.809  0.7845  1.9890 -0.8139
 4256SOL    HW224231   3.120   1.545   6.713  1.3502  1.7965 -2.1631
 4257SOL     OW24232   1.704   4.285   6.671 -0.3956  0.2053  1.1035
 4257SOL    HW124233   1.795   4.315   6.674  0.1823 -1.4774  0.3992
 4257SOL    HW224234   1.659   4.327   6.744 -0.0087 -0.9396  2.0076
 4258SOL     OW24235   0.857   2.953   4.117 -0.4744 -0.3091  0.7678
 4258SOL    HW124236   0.882   3.031   4.166 -0.0157  1.1142 -1.7244
 4258SOL    HW224237   0.943   2.932   4.082 -0.0050 -1.0173  2.3633
 4259SOL     OW24238   4.489   4.130   2.777  0.4809 -0.1151 -0.4217
 4259SOL    HW124239   4.543   4.209   2.773  0.8859 -0.4155 -0.9387
 4259SOL    HW224240   4.475   4.121   2.683  1.8783  0.9994 -0.7388
 4260SOL     OW24241   2.518   1.242   7.264  0.5978  0.2652 -0.4039
 4260SOL    HW124242   2.581   1.180   7.301  1.6782  2.0119  0.6721
 4260SOL    HW224243   2.539   1.234   7.171 -0.5247 -0.8795 -0.5592
 4261SOL     OW24244   0.692   0.664  17.292  0.1395  0.0627 -0.2955
 4261SOL    HW124245   0.740   0.687  17.372 -1.8179  1.0441  0.5964
 4261SOL    HW224246   0.667   0.747  17.252  3.0010  0.9370 -0.2936
 4262SOL     OW24247   0.067   4.419   8.524 -0.5376 -0.2171  0.0618
 4262SOL    HW124248   0.094   4.359   8.454  0.1034  1.8236 -1.4606
 4262SOL    HW224249   0.104   4.371   8.598  0.7763 -0.7404 -0.9393
 4263SOL     OW24250   3.314   3.786   9.438  0.2144  0.0080  0.0800
 4263SOL    HW124251   3.358   3.812   9.519  0.4913  0.2715 -0.1557
 4263SOL    HW224252   3.286   3.869   9.400  0.1431  1.4694  3.2807
 4264SOL     OW24253   4.629   1.210   4.922 -0.1101  0.8634 -0.3244
 4264SOL    HW124254   4.536   1.233   4.917  0.0993  1.6912 -0.4701
 4264SOL    HW224255   4.673   1.280   4.873  3.2809 -0.4993  0.7851
 4265SOL     OW24256   0.212   0.811   3.834 -0.0823  0.4735  0.2650
 4265SOL    HW124257   0.301   0.792   3.805 -0.3682 -2.3795  1.2314
 4265SOL    HW224258   0.217   0.877   3.903  0.1773 -1.7938  2.4107
 4266SOL     OW24259   0.068   2.781   9.668 -0.9050 -0.8194 -0.5148
 4266SOL    HW124260   0.090   2.827   9.750 -0.9606  2.1936 -2.2102
 4266SOL    HW224261   0.152   2.735   9.665 -0.4131 -0.0613  1.4806
 4267SOL     OW24262   0.189   0.704   8.603 -0.5524 -0.4738  0.0491
 4267SOL    HW124263   0.265   0.672   8.555  0.5006 -1.4147  2.3357
 4267SOL    HW224264   0.164   0.781   8.551  1.2979 -0.2673 -0.5096
 4268SOL     OW24265   3.498   2.000   5.276 -0.1556  0.5466 -0.0778
 4268SOL    HW124266   3.592   2.001   5.255 -0.5001  1.2588 -1.5757
 4268SOL    HW224267   3.485   2.075   5.333 -0.0965 -1.4564  2.5430
 4269SOL     OW24268   3.177   3.163   9.272  0.1190  0.4767  0.0176
 4269SOL    HW124269   3.267   3.165   9.304 -0.2177 -1.6998  1.0766
 4269SOL    HW224270   3.147   3.244   9.313 -2.1591 -1.9418  3.1166
 4270SOL     OW24271   1.654   3.009   6.043  0.6535 -0.2621 -0.2559
 4270SOL    HW124272   1.717   3.078   6.063 -0.9045  1.2569 -0.4867
 4270SOL    HW224273   1.586   3.077   6.049 -0.0231 -0.8017 -1.7949
 4271SOL     OW24274   4.366   2.302   1.136 -0.0186  0.8054  0.2840
 4271SOL    HW124275   4.304   2.235   1.164 -0.7789  1.4109  0.0655
 4271SOL    HW224276   4.347   2.309   1.042 -0.2947  0.2964  0.3007
 4272SOL     OW24277   2.765   0.171   8.160  0.0606 -0.0381  0.0518
 4272SOL    HW124278   2.792   0.212   8.078 -1.3211 -1.1520 -0.9629
 4272SOL    HW224279   2.781   0.247   8.216 -2.2787  0.0474  0.6213
 4273SOL     OW24280   0.198   3.133   8.096  0.0746 -0.5115 -0.3151
 4273SOL    HW124281   0.209   3.139   8.191 -1.8991  1.0070 -0.1662
 4273SOL    HW224282   0.274   3.179   8.061 -0.5221  0.2091 -0.6722
 4274SOL     OW24283   1.481   0.326   7.618  0.9081 -0.0151 -0.7007
 4274SOL    HW124284   1.515   0.416   7.614  0.1408  0.4026  2.2536
 4274SOL    HW224285   1.470   0.302   7.526 -3.3040 -1.5723  0.2205
 4275SOL     OW24286   4.665   4.198   6.359 -0.2610  0.0782 -0.4070
 4275SOL    HW124287   0.004   4.262   6.326  0.2884  0.1735  0.8461
 4275SOL    HW224288   4.617   4.177   6.278  0.6808 -0.4176 -0.8394
 4276SOL     OW24289   4.157   1.904   6.346 -0.0642 -0.6597  0.8479
 4276SOL    HW124290   4.107   1.929   6.423  0.2316  0.6311  0.6101
 4276SOL    HW224291   4.243   1.883   6.383  0.8562 -0.8940 -1.3643
 4277SOL     OW24292   1.457   3.074   7.122 -0.1161  0.3492 -0.1183
 4277SOL    HW124293   1.515   3.084   7.198  0.0172  0.0212 -0.1762
 4277SOL    HW224294   1.365   3.087   7.145 -0.6253 -0.9519 -1.4667
 4278SOL     OW24295   3.522   3.757   4.201  0.0696 -0.1350  0.1605
 4278SOL    HW124296   3.609   3.797   4.203  0.5906 -1.2686  0.2604
 4278SOL    HW224297   3.488   3.781   4.287 -0.7062 -3.8553  0.8992
 4279SOL     OW24298   3.542   0.557   1.640  0.1562  0.3232  0.2741
 4279SOL    HW124299   3.544   0.565   1.736 -0.5327  0.6333  0.2606
 4279SOL    HW224300   3.450   0.536   1.628  0.5797 -2.7397  2.3319
 4280SOL     OW24301   4.120   0.481   2.861  0.3936 -0.4327 -0.6109
 4280SOL    HW124302   4.186   0.465   2.928  0.8736  1.9290 -0.5251
 4280SOL    HW224303   4.071   0.400   2.851 -0.5774  0.0114  0.6472
 4281SOL     OW24304   3.505   3.908   7.622  0.2904 -0.7185 -0.5490
 4281SOL    HW124305   3.427   3.881   7.574 -0.6809 -2.0873  1.7658
 4281SOL    HW224306   3.521   3.988   7.572  1.2450 -1.5726 -1.6268
 4282SOL     OW24307   0.734   3.338   5.366  0.1101  0.1454 -0.6288
 4282SOL    HW124308   0.735   3.266   5.303  1.7603 -0.4337  0.0664
 4282SOL    HW224309   0.642   3.334   5.394  0.1410  1.2323 -0.3446
 4283SOL     OW24310   1.464   1.738   5.387  0.2600  0.0318  0.1419
 4283SOL    HW124311   1.496   1.779   5.307 -2.1110  2.5969  0.4959
 4283SOL    HW224312   1.499   1.792   5.458  1.0695  0.9799 -0.9935
 4284SOL     OW24313   3.629   3.207   4.664  0.0652  0.3128  0.6506
 4284SOL    HW124314   3.701   3.188   4.725  1.0710 -0.5820 -0.8100
 4284SOL    HW224315   3.667   3.238   4.582  0.3409 -1.5715  0.0506
 4285SOL     OW24316   3.683   1.325  17.670  0.2898 -0.2007 -0.0513
 4285SOL    HW124317   3.747   1.285   0.032 -2.0756 -0.2497  2.4222
 4285SOL    HW224318   3.608   1.333   0.031  0.6120  0.1419  0.3123
 4286SOL     OW24319   3.946   1.048   8.606  0.0689 -0.1327  0.2244
 4286SOL    HW124320   3.996   1.113   8.557  0.3362 -0.8793 -0.4956
 4286SOL    HW224321   4.014   0.998   8.652  0.3048  0.4445  0.4962
 4287SOL     OW24322   4.473   2.973   7.644 -0.2037  0.3539  0.2382
 4287SOL    HW124323   4.509   3.008   7.563 -3.0849  0.5058 -0.9930
 4287SOL    HW224324   4.544   2.928   7.688 -0.3573 -0.4960 -0.3893
 4288SOL     OW24325   0.400   3.323   1.388 -0.0168  0.2660  0.9362
 4288SOL    HW124326   0.438   3.390   1.331  0.6637 -0.7687  0.1902
 4288SOL    HW224327   0.331   3.373   1.432 -0.0023  1.4483 -0.3825
 4289SOL     OW24328   0.758   3.284   2.323 -0.3283  0.4900  0.9922
 4289SOL    HW124329   0.718   3.346   2.384 -1.2613 -0.0957  0.9659
 4289SOL    HW224330   0.787   3.217   2.384  2.1622  1.1635  0.5826
 4290SOL     OW24331   4.627   4.442   1.410 -0.2500 -0.4679 -0.8485
 4290SOL    HW124332   4.678   4.442   1.329  0.1413  2.1254 -0.5940
 4290SOL    HW224333   4.545   4.481   1.381  0.1270  0.1100 -1.1286
 4291SOL     OW24334   2.502   0.879   4.346  0.5909  0.2634 -0.7182
 4291SOL    HW124335   2.416   0.920   4.344  0.8235  0.8203  0.7783
 4291SOL    HW224336   2.509   0.830   4.429  0.4740  2.9912  0.8992
 4292SOL     OW24337   2.405   1.382  11.220  0.0489 -0.1250  0.4802
 4292SOL    HW124338   2.420   1.450  11.155 -0.2860 -1.5096 -1.0370
 4292SOL    HW224339   2.496   1.355  11.235 -0.3891  0.0987  3.5433
 4293SOL     OW24340   1.751   2.253  11.513  0.0690  0.5379 -0.1364
 4293SOL    HW124341   1.830   2.280  11.560  0.1285 -0.7129  0.4907
 4293SOL    HW224342   1.780   2.242  11.422  1.0280 -0.6750  0.2983
 4294SOL     OW24343   1.520   2.270   0.540 -0.1746 -0.0190  0.0390
 4294SOL    HW124344   1.505   2.203   0.473 -0.5093  0.0076  0.0877
 4294SOL    HW224345   1.545   2.199   0.600 -2.0871 -0.3968  0.3950
 4295SOL     OW24346   0.243   1.577  10.201 -0.2586 -0.4578 -0.1770
 4295SOL    HW124347   0.264   1.501  10.254 -0.4029 -2.0037 -2.3336
 4295SOL    HW224348   0.180   1.537  10.140 -2.1422 -0.7851  1.9774
 4296SOL     OW24349   1.249   1.526   5.965  0.1842 -0.2635 -0.4546
 4296SOL    HW124350   1.278   1.560   5.880  1.8757 -0.6420 -0.0086
 4296SOL    HW224351   1.161   1.494   5.946 -0.9020  3.1448 -1.2047
 4297SOL     OW24352   2.621   2.817   7.594  0.1458 -0.2587 -0.2813
 4297SOL    HW124353   2.675   2.893   7.613 -0.5988  0.1611  0.1246
 4297SOL    HW224354   2.668   2.778   7.521  1.9924  2.0582 -0.3256
 4298SOL     OW24355   1.131   2.694   8.113  0.3941  0.2192  1.0644
 4298SOL    HW124356   1.067   2.718   8.046  2.3514  1.7479 -0.2610
 4298SOL    HW224357   1.132   2.775   8.165 -1.3761  1.0694 -0.2315
 4299SOL     OW24358   1.751   2.271  12.717 -0.5820  0.3226 -0.5222
 4299SOL    HW124359   1.700   2.193  12.738 -1.1531  0.4438 -1.4706
 4299SOL    HW224360   1.838   2.248  12.747 -0.8345  0.8544  0.6189
 4300SOL     OW24361   1.009   3.602   1.245 -0.0771 -0.5654  0.3728
 4300SOL    HW124362   1.071   3.533   1.222  1.2035  0.6528  0.1929
 4300SOL    HW224363   1.045   3.679   1.201  2.0019 -2.8964 -1.9547
 4301SOL     OW24364   3.479   2.155   8.569 -0.4366 -0.5285  0.8093
 4301SOL    HW124365   3.510   2.077   8.524 -0.0769  0.1858 -0.1820
 4301SOL    HW224366   3.451   2.210   8.496 -1.6091 -2.8840 -0.5252
 4302SOL     OW24367   3.562   0.087   1.361  0.2938  0.2568  0.0025
 4302SOL    HW124368   3.596   0.170   1.327 -1.1940  0.5392 -0.7652
 4302SOL    HW224369   3.549   0.038   1.280  1.8692 -0.5678  0.2449
 4303SOL     OW24370   3.968   0.240   6.832  0.1514 -0.1014 -0.5409
 4303SOL    HW124371   3.906   0.311   6.846  0.3128 -0.4898  2.0749
 4303SOL    HW224372   4.029   0.285   6.772 -0.3655  1.5910  0.2004
 4304SOL     OW24373   3.854   3.081  17.033 -0.0036 -0.3663 -0.8774
 4304SOL    HW124374   3.848   3.156  16.974 -0.1203 -0.6962 -1.2838
 4304SOL    HW224375   3.815   3.011  16.980  0.9013 -0.7466 -1.0555
 4305SOL     OW24376   0.159   1.273   4.436 -0.0091  0.1721  0.2227
 4305SOL    HW124377   0.078   1.280   4.386 -0.7247 -0.5736  1.2586
 4305SOL    HW224378   0.224   1.290   4.368 -1.6220  2.7861 -0.6413
 4306SOL     OW24379   1.989   3.518   6.831 -0.0800  0.1254  0.2615
 4306SOL    HW124380   2.056   3.560   6.885 -0.3355 -0.3033  0.9013
 4306SOL    HW224381   1.934   3.465   6.889 -0.3942  0.2352  0.0614
 4307SOL     OW24382   0.379   3.634  14.543  0.1313 -0.0397 -0.5921
 4307SOL    HW124383   0.359   3.710  14.488  0.7800 -0.1263 -0.9533
 4307SOL    HW224384   0.377   3.565  14.476  2.1368 -1.1026  0.4332
 4308SOL     OW24385   3.152   4.544  14.523  0.0732  0.2535 -0.3587
 4308SOL    HW124386   3.149   4.504  14.610 -0.3056 -1.7451 -1.2866
 4308SOL    HW224387   3.212   4.618  14.534  0.2852  0.3324 -2.1247
 4309SOL     OW24388   2.198   2.407   7.841  0.2888 -0.0565  0.0475
 4309SOL    HW124389   2.138   2.436   7.772 -2.4410 -0.1501  2.3604
 4309SOL    HW224390   2.130   2.404   7.908 -1.2445  0.4482 -1.4960
 4310SOL     OW24391   3.407   0.745  16.657 -0.0431  0.2903 -0.2886
 4310SOL    HW124392   3.319   0.782  16.654  0.8577  2.3951 -0.5295
 4310SOL    HW224393   3.442   0.798  16.729  1.0769 -1.7024  0.6463
 4311SOL     OW24394   2.395   0.632   2.544 -0.1802  0.3509  0.5611
 4311SOL    HW124395   2.339   0.646   2.467  0.4936  0.3262  0.0722
 4311SOL    HW224396   2.373   0.546   2.580  2.6104 -0.3646  0.5314
 4312SOL     OW24397   4.131   3.509  12.571 -0.0443  0.2558  0.1948
 4312SOL    HW124398   4.191   3.451  12.524  2.3640  1.0251  2.3350
 4312SOL    HW224399   4.082   3.441  12.618  1.8704 -0.2116  1.4774
 4313SOL     OW24400   3.241   0.662   0.387  0.6447  0.1378 -0.9707
 4313SOL    HW124401   3.221   0.633   0.298  1.0416  0.0755 -1.0374
 4313SOL    HW224402   3.182   0.603   0.435  0.9377 -0.4809 -1.3745
 4314SOL     OW24403   3.043   4.121   8.316  0.7094  0.7143  0.7355
 4314SOL    HW124404   3.115   4.164   8.270  1.4986 -0.2150  1.1055
 4314SOL    HW224405   2.967   4.171   8.286  1.5676 -0.6801 -3.7811
 4315SOL     OW24406   0.462   0.459  17.630 -0.7715  0.6776 -0.5394
 4315SOL    HW124407   0.480   0.545  17.668 -0.5187  0.1876  0.4386
 4315SOL    HW224408   0.417   0.490  17.550 -2.7183  1.5851  0.8956
 4316SOL     OW24409   3.299   4.077   5.413  0.1018  0.2190 -0.2684
 4316SOL    HW124410   3.262   3.990   5.395  0.2621 -0.5753  3.2654
 4316SOL    HW224411   3.373   4.069   5.353  0.9373 -0.3215  0.8421
 4317SOL     OW24412   4.531   3.911  15.448  0.4149 -0.0042  0.4381
 4317SOL    HW124413   4.564   3.920  15.538  0.2948 -0.4347  0.5243
 4317SOL    HW224414   4.477   3.833  15.459 -0.9964  0.7050 -1.3729
 4318SOL     OW24415   2.823   1.000   7.726 -0.0296  0.4184  0.0267
 4318SOL    HW124416   2.728   1.005   7.712  0.2832  2.7803 -1.3611
 4318SOL    HW224417   2.843   1.085   7.767  0.3047  0.1777  0.3598
 4319SOL     OW24418   3.775   2.485  16.675 -0.5870  0.0649  0.2351
 4319SOL    HW124419   3.870   2.473  16.663 -0.2134  1.7610  1.4991
 4319SOL    HW224420   3.770   2.497  16.770  0.2400  1.8849  0.0331
 4320SOL     OW24421   0.970   0.635  14.586 -0.5967  0.0556 -0.1119
 4320SOL    HW124422   1.008   0.588  14.512 -0.1284  1.5200 -0.8054
 4320SOL    HW224423   1.048   0.682  14.614 -0.7574  0.7680 -0.8329
 4321SOL     OW24424   4.619   0.697  10.703 -0.7871 -0.1577 -0.5244
 4321SOL    HW124425   4.534   0.734  10.728  0.2726  0.9602  1.3957
 4321SOL    HW224426   4.679   0.768  10.726 -0.5401  0.1272 -2.0701
 4322SOL     OW24427   0.189   0.754   6.758  0.0921  0.2310 -0.0941
 4322SOL    HW124428   0.101   0.792   6.755  1.1171  2.6596  0.3945
 4322SOL    HW224429   0.232   0.803   6.827 -2.8112 -0.5441  2.2931
 4323SOL     OW24430   1.388   0.213   5.018  0.1484 -0.5854 -0.2357
 4323SOL    HW124431   1.483   0.209   5.005  0.5112 -1.9021  2.8753
 4323SOL    HW224432   1.368   0.148   4.950 -1.2344 -0.8736  0.4437
 4324SOL     OW24433   3.899   0.044   4.495  0.0525  0.1815  0.0243
 4324SOL    HW124434   3.810   0.012   4.481 -0.9843  3.0716  0.0174
 4324SOL    HW224435   3.901   0.096   4.576  0.2866  0.5843 -0.2386
 4325SOL     OW24436   3.676   3.100   8.976 -0.2335  0.7840  0.6291
 4325SOL    HW124437   3.647   3.019   8.932  1.1782 -0.5206  2.0866
 4325SOL    HW224438   3.649   3.084   9.066 -2.7973  0.0821 -0.2484
 4326SOL     OW24439   2.244   2.511   2.226  0.1855  0.6305 -0.1830
 4326SOL    HW124440   2.173   2.548   2.278  1.6121 -2.2349  3.7669
 4326SOL    HW224441   2.261   2.590   2.175 -1.8345  1.4033  0.3441
 4327SOL     OW24442   0.302   1.328  11.466  0.4140  0.4434 -0.8532
 4327SOL    HW124443   0.370   1.347  11.530 -0.8545  0.3546  0.5316
 4327SOL    HW224444   0.278   1.239  11.491  0.2104  0.8301  0.3370
 4328SOL     OW24445   0.974   2.467  15.121 -0.0893 -0.0568  0.3647
 4328SOL    HW124446   0.946   2.469  15.029 -0.6469  1.9280  0.5699
 4328SOL    HW224447   1.067   2.448  15.109  0.1855  1.0728  0.6429
 4329SOL     OW24448   3.126   0.351   6.606  0.0604 -0.1348 -0.3778
 4329SOL    HW124449   3.067   0.404   6.552  1.1764  1.3427 -0.1504
 4329SOL    HW224450   3.200   0.329   6.550 -0.1819 -0.2775 -0.6425
 4330SOL     OW24451   1.908   3.873   5.645 -0.0474  0.7083  0.3167
 4330SOL    HW124452   1.886   3.814   5.718 -0.6375  1.1413  0.4854
 4330SOL    HW224453   1.990   3.836   5.613 -2.1203 -2.7484 -1.0151
 4331SOL     OW24454   3.846   1.302   1.916  0.0024 -0.5977  0.2932
 4331SOL    HW124455   3.848   1.265   1.827 -0.2686  0.9934 -0.3710
 4331SOL    HW224456   3.754   1.299   1.938  0.6214  1.1180  3.0317
 4332SOL     OW24457   0.325   3.977   5.445 -0.0401 -0.2792  0.6549
 4332SOL    HW124458   0.420   3.978   5.460  0.0182 -1.4936  0.3283
 4332SOL    HW224459   0.307   4.069   5.465  1.7435  0.4059 -0.8686
 4333SOL     OW24460   0.644   2.764   3.701  0.2520  0.4091  0.1196
 4333SOL    HW124461   0.668   2.853   3.725 -0.9667  0.6524  0.4160
 4333SOL    HW224462   0.708   2.708   3.744 -0.4059 -0.7804 -0.4337
 4334SOL     OW24463   3.707   4.441   6.996  0.0434 -0.0778  0.4931
 4334SOL    HW124464   3.718   4.407   6.907 -2.0742  2.8071 -0.8844
 4334SOL    HW224465   3.798   4.443   7.024  0.2881  1.3212 -0.3909
 4335SOL     OW24466   0.681   3.783   1.532 -0.0354 -0.0391  0.7535
 4335SOL    HW124467   0.722   3.849   1.589 -0.0335 -0.3037  1.0588
 4335SOL    HW224468   0.600   3.768   1.581 -0.5460 -0.9519 -0.3976
 4336SOL     OW24469   2.341   2.517   2.699  0.5312  0.3347 -0.1258
 4336SOL    HW124470   2.324   2.607   2.672 -1.8640  0.0259  0.3234
 4336SOL    HW224471   2.283   2.475   2.635 -0.2463 -1.1096  1.5221
 4337SOL     OW24472   3.207   1.726   2.375  0.8156 -0.0716 -0.2019
 4337SOL    HW124473   3.237   1.814   2.352 -0.6905  0.1479 -1.3009
 4337SOL    HW224474   3.200   1.733   2.471  2.9088 -1.0220  0.0216
 4338SOL     OW24475   2.186   2.166   5.460  0.1050  0.3343 -0.1100
 4338SOL    HW124476   2.184   2.141   5.552 -1.5873  0.3145 -0.1368
 4338SOL    HW224477   2.137   2.092   5.423  0.7976 -0.0643 -0.2283
 4339SOL     OW24478   4.193   4.403  15.314  0.5842  0.3393  0.2797
 4339SOL    HW124479   4.098   4.392  15.308  0.6110 -0.2238  0.8870
 4339SOL    HW224480   4.205   4.464  15.387 -2.3111  1.1137  0.1113
 4340SOL     OW24481   4.602   3.014   5.534  0.6516  0.1315 -0.0523
 4340SOL    HW124482   4.652   3.077   5.482 -0.9780 -0.0562 -1.8534
 4340SOL    HW224483   4.615   2.930   5.491 -0.6625  0.1839 -0.5601
 4341SOL     OW24484   4.131   4.580   1.075 -0.1857 -0.5316 -0.1282
 4341SOL    HW124485   4.188   4.503   1.071  2.2429  1.2490  0.1923
 4341SOL    HW224486   4.166   4.636   1.145 -1.1834 -2.4860  1.9344
 4342SOL     OW24487   1.756   1.369  11.319  0.0095  0.1729 -0.1048
 4342SOL    HW124488   1.726   1.457  11.297 -0.0259  0.4364  0.9980
 4342SOL    HW224489   1.771   1.335  11.231 -0.9656 -0.6895  0.0590
 4343SOL     OW24490   3.241   4.139  17.087 -0.0162 -0.7014  0.3728
 4343SOL    HW124491   3.193   4.066  17.048  0.5537 -0.4757 -0.7598
 4343SOL    HW224492   3.189   4.212  17.053  0.3755 -0.4836  0.2317
 4344SOL     OW24493   2.517   1.228   2.101 -0.3518 -0.4320 -0.5929
 4344SOL    HW124494   2.600   1.203   2.061 -0.8772 -2.2424 -0.5363
 4344SOL    HW224495   2.465   1.154   2.068 -1.9113 -1.1557  3.5071
 4345SOL     OW24496   1.743   4.680   4.784  0.2603 -0.3293  0.1961
 4345SOL    HW124497   1.807   4.613   4.811 -1.1398 -1.2813  1.1927
 4345SOL    HW224498   1.786   0.033   4.747  0.5223 -0.5590  0.0224
 4346SOL     OW24499   0.823   0.576   8.884 -0.5768 -0.1201  0.3658
 4346SOL    HW124500   0.753   0.530   8.839 -0.7238 -1.0611  1.5410
 4346SOL    HW224501   0.779   0.599   8.966  1.5893  2.3899  0.8143
 4347SOL     OW24502   2.571   2.134   4.684 -0.5825 -0.1959 -0.2645
 4347SOL    HW124503   2.521   2.185   4.748  0.7292  0.5732  0.1432
 4347SOL    HW224504   2.515   2.057   4.671  1.3200 -1.2774 -2.0347
 4348SOL     OW24505   3.972   4.090   7.777 -0.3764  0.3243  0.3909
 4348SOL    HW124506   3.937   4.007   7.809 -1.7068  0.4426 -0.7936
 4348SOL    HW224507   3.924   4.103   7.696 -1.0948  2.2757  1.1337
 4349SOL     OW24508   1.403   2.404   3.062  0.1253 -0.2937  0.1017
 4349SOL    HW124509   1.366   2.477   3.111  0.2029 -0.1095 -0.1158
 4349SOL    HW224510   1.328   2.345   3.073 -0.3514 -0.1757 -2.4226
 4350SOL     OW24511   1.542   0.753  10.153 -0.1057 -0.0553 -0.1829
 4350SOL    HW124512   1.545   0.683  10.219  0.8229 -0.9710 -1.1982
 4350SOL    HW224513   1.613   0.725  10.095 -0.3323 -0.2580 -0.3638
 4351SOL     OW24514   0.919   0.665   3.641  0.3266 -0.2534  0.6852
 4351SOL    HW124515   0.893   0.749   3.605 -1.5189  1.4630  6.0246
 4351SOL    HW224516   0.980   0.635   3.573 -0.2125 -3.3937  1.5598
 4352SOL     OW24517   4.393   4.211   0.880  0.0999 -0.0965 -0.1742
 4352SOL    HW124518   4.326   4.150   0.849 -0.4254  1.0506 -1.3028
 4352SOL    HW224519   4.447   4.215   0.801  0.9372 -1.2857  0.3409
 4353SOL     OW24520   4.343   3.714   6.684 -0.8433 -0.2466  0.2188
 4353SOL    HW124521   4.400   3.688   6.612  1.5794  1.7968  1.3853
 4353SOL    HW224522   4.400   3.711   6.761  0.3662 -0.7693 -0.7046
 4354SOL     OW24523   4.097   0.112  10.444 -0.5325  0.0456 -0.0824
 4354SOL    HW124524   4.096   0.036  10.503  0.4078 -0.3417 -0.5681
 4354SOL    HW224525   4.173   0.160  10.476 -1.4408  1.6182 -0.2821
 4355SOL     OW24526   4.373   2.557  11.121 -0.3513  0.0355  0.6586
 4355SOL    HW124527   4.399   2.528  11.034 -1.5425  0.7388  0.0621
 4355SOL    HW224528   4.285   2.581  11.090 -1.4813 -1.6405  2.5521
 4356SOL     OW24529   0.937   2.870   5.205  0.3734 -0.8982  0.1718
 4356SOL    HW124530   1.014   2.926   5.210  0.0934 -0.5379  0.4825
 4356SOL    HW224531   0.934   2.856   5.111 -2.2978  1.9545 -0.1906
 4357SOL     OW24532   0.164   4.270   8.302 -0.0022 -0.1856  0.5583
 4357SOL    HW124533   0.091   4.209   8.315  0.3781 -0.8409 -0.3683
 4357SOL    HW224534   0.212   4.215   8.240 -0.7802 -0.2432 -0.0036
 4358SOL     OW24535   0.816   4.526   6.525 -0.3358  0.2738 -0.1915
 4358SOL    HW124536   0.741   4.485   6.568 -0.5794  2.6966  1.7055
 4358SOL    HW224537   0.886   4.468   6.553 -2.1526 -0.8392  2.0426
 4359SOL     OW24538   3.818   1.431   2.301  0.3391  0.3088  0.4068
 4359SOL    HW124539   3.858   1.348   2.325 -1.2103 -0.8059 -0.8537
 4359SOL    HW224540   3.839   1.480   2.380 -0.3354  0.2475  0.6183
 4360SOL     OW24541   2.584   3.800   8.569  0.2107 -0.1301  0.3589
 4360SOL    HW124542   2.651   3.735   8.546 -0.0208 -0.4111  0.4808
 4360SOL    HW224543   2.649   3.861   8.603  0.7339 -0.7863  0.5354
 4361SOL     OW24544   1.509   4.387   4.933  0.2441 -0.4145  0.7943
 4361SOL    HW124545   1.521   4.424   5.021  1.2148  1.2247 -0.0294
 4361SOL    HW224546   1.595   4.349   4.919 -0.4306 -1.8659  0.5852
 4362SOL     OW24547   0.625   2.602   8.371  0.4692  0.2145 -0.8501
 4362SOL    HW124548   0.648   2.665   8.302 -1.5370  0.6065 -1.1643
 4362SOL    HW224549   0.695   2.536   8.366 -1.8594 -2.3876  0.8080
 4363SOL     OW24550   0.253   1.461   8.847  0.4828 -0.3866  0.3291
 4363SOL    HW124551   0.209   1.487   8.928  1.0949 -0.5748  0.7212
 4363SOL    HW224552   0.337   1.498   8.874 -0.9687  1.3524  2.4703
 4364SOL     OW24553   3.440   3.292   6.832 -0.0153  0.1745 -0.0057
 4364SOL    HW124554   3.394   3.223   6.783 -2.2859  1.0658  0.8987
 4364SOL    HW224555   3.461   3.350   6.759 -1.1880 -0.4249 -0.8165
 4365SOL     OW24556   2.288   1.449   4.490 -0.7398 -0.1960  0.1948
 4365SOL    HW124557   2.283   1.416   4.401  2.8848 -0.3150  0.0589
 4365SOL    HW224558   2.303   1.372   4.545 -1.5536 -0.1230  0.5184
 4366SOL     OW24559   3.503   1.590   0.807  0.4571 -0.0435  0.4973
 4366SOL    HW124560   3.523   1.610   0.716  0.3595 -0.1615  0.4508
 4366SOL    HW224561   3.533   1.500   0.818  1.6756  0.5403  2.0213
 4367SOL     OW24562   3.106   4.366   3.816 -0.2450  0.1545 -0.0464
 4367SOL    HW124563   3.143   4.388   3.731 -0.9017  1.1088 -0.0831
 4367SOL    HW224564   3.110   4.271   3.806  3.1325  0.3159 -0.1750
 4368SOL     OW24565   0.069   4.255   9.292  0.1742 -0.0461  0.3698
 4368SOL    HW124566   0.021   4.334   9.266 -0.2714 -0.6069 -0.4726
 4368SOL    HW224567   0.155   4.291   9.273  0.3162 -0.1250  0.8577
 4369SOL     OW24568   1.438   3.197   7.406 -0.0111 -0.1473  0.5500
 4369SOL    HW124569   1.469   3.209   7.496 -0.4913  0.6107  0.6092
 4369SOL    HW224570   1.344   3.184   7.421 -0.3942  0.9123 -1.0341
 4370SOL     OW24571   4.684   1.113   8.173 -0.0667  0.4520 -0.1991
 4370SOL    HW124572   0.040   1.120   8.226 -1.1994 -0.7165  1.6928
 4370SOL    HW224573   4.708   1.059   8.098  1.0864 -0.4763  0.8171
 4371SOL     OW24574   2.431   0.863  11.410  0.5564  0.2652  0.0179
 4371SOL    HW124575   2.503   0.801  11.422 -1.2959 -1.7714  0.6504
 4371SOL    HW224576   2.389   0.833  11.330  1.3553 -1.9334  0.4200
 4372SOL     OW24577   3.439   4.268  11.289  0.2480 -0.4840  0.2552
 4372SOL    HW124578   3.360   4.242  11.242 -0.9539 -0.1821  2.0941
 4372SOL    HW224579   3.504   4.243  11.224 -0.7448  0.1359 -0.9812
 4373SOL     OW24580   3.060   4.259  13.568 -0.2980  0.0505 -0.4522
 4373SOL    HW124581   3.119   4.308  13.627 -1.5556 -0.5831  1.3330
 4373SOL    HW224582   3.030   4.181  13.615  2.2586 -0.0941  0.9934
 4374SOL     OW24583   4.224   3.064  11.648  0.5109 -0.1001 -0.2147
 4374SOL    HW124584   4.294   3.068  11.583  1.1630 -0.4919  0.4674
 4374SOL    HW224585   4.236   2.978  11.687 -0.4004 -0.1310 -0.0135
 4375SOL     OW24586   3.953   2.575  13.634  0.6494 -0.6995 -0.0281
 4375SOL    HW124587   3.944   2.523  13.554 -1.3573 -0.7380  0.2312
 4375SOL    HW224588   3.874   2.537  13.672 -0.5029  0.6702 -1.0424
 4376SOL     OW24589   0.241   2.537  11.287 -0.0675 -0.2004 -0.3232
 4376SOL    HW124590   0.176   2.546  11.356  1.1047  2.0342  0.4745
 4376SOL    HW224591   0.260   2.628  11.263 -2.1854  0.6812  1.4155
 4377SOL     OW24592   1.471   2.228  11.429 -0.3198  0.0560  0.5964
 4377SOL    HW124593   1.563   2.214  11.453 -0.6195 -1.9673  0.5933
 4377SOL    HW224594   1.475   2.300  11.367  1.7203 -0.4032  0.1737
 4378SOL     OW24595   2.964   1.688  13.075 -0.7100 -0.1425  0.3366
 4378SOL    HW124596   2.936   1.628  13.144  0.2490 -2.4794 -1.3082
 4378SOL    HW224597   3.003   1.754  13.134  1.1836  0.5994 -1.7542
 4379SOL     OW24598   3.740   1.566   5.651  0.7032  0.1818 -0.3944
 4379SOL    HW124599   3.824   1.526   5.674 -0.3730 -0.9210  1.5907
 4379SOL    HW224600   3.706   1.514   5.578  0.2758 -2.1873  1.5185
 4380SOL     OW24601   2.389   2.831   8.015 -0.3501  0.4185 -0.3746
 4380SOL    HW124602   2.396   2.925   8.032  2.1508 -0.1509  1.6425
 4380SOL    HW224603   2.315   2.802   8.069  1.3262 -0.4951  1.4192
 4381SOL     OW24604   1.308   2.509  12.249  0.3120 -0.3814  0.1418
 4381SOL    HW124605   1.254   2.536  12.175  2.5211  0.9065 -1.0083
 4381SOL    HW224606   1.359   2.589  12.262  0.7799 -0.6526 -0.0041
 4382SOL     OW24607   1.008   3.119   4.265 -0.1276  0.5339  0.1601
 4382SOL    HW124608   0.980   3.192   4.318 -2.3224 -1.5151  1.7974
 4382SOL    HW224609   1.081   3.159   4.217 -0.6283  0.2874 -0.8137
 4383SOL     OW24610   2.381   4.049   3.529  0.7560 -0.2868  0.6265
 4383SOL    HW124611   2.405   4.089   3.612 -0.5144 -1.3379  1.5063
 4383SOL    HW224612   2.292   4.081   3.516  0.4702 -1.4415 -0.2480
 4384SOL     OW24613   0.922   0.068   2.022 -0.1041  0.0951  0.0340
 4384SOL    HW124614   0.896   0.002   1.957 -0.2897  0.8924 -0.6916
 4384SOL    HW224615   1.001   0.106   1.985 -2.0255  2.0830 -2.0348
 4385SOL     OW24616   1.123   4.226  12.855  0.2977  0.7781  0.3660
 4385SOL    HW124617   1.150   4.273  12.935  2.4643 -1.7214  1.0949
 4385SOL    HW224618   1.179   4.256  12.783 -1.5606  1.4328 -0.7966
 4386SOL     OW24619   1.405   2.713  13.043 -0.8789 -0.2024 -0.1836
 4386SOL    HW124620   1.351   2.650  12.995  0.5186  1.0946 -3.4503
 4386SOL    HW224621   1.395   2.793  12.991 -1.3851  1.3267  2.2603
 4387SOL     OW24622   3.973   2.812   0.326  0.2441 -0.5642  0.1231
 4387SOL    HW124623   3.911   2.884   0.311 -0.8175 -1.5875 -0.3463
 4387SOL    HW224624   4.054   2.863   0.339 -0.5794  0.5104  1.1394
 4388SOL     OW24625   3.624   3.068  12.101 -0.2337  0.2601 -0.0214
 4388SOL    HW124626   3.584   3.102  12.020  0.9461 -0.2743 -0.8303
 4388SOL    HW224627   3.647   3.147  12.148 -0.9991  0.7858 -0.5332
 4389SOL     OW24628   1.902   4.298   2.065  0.4429 -0.7006  0.4991
 4389SOL    HW124629   1.889   4.217   2.016  0.6094 -0.4404  0.0299
 4389SOL    HW224630   1.986   4.327   2.028  0.1245 -1.0325 -0.4688
 4390SOL     OW24631   1.222   2.792  10.022 -0.2919  0.1799  0.1357
 4390SOL    HW124632   1.259   2.704  10.016  0.8747  0.7686 -1.3851
 4390SOL    HW224633   1.305   2.836  10.001 -0.7267  1.3378  0.8860
 4391SOL     OW24634   0.402   2.196   2.445 -0.4484 -0.4355  0.8694
 4391SOL    HW124635   0.497   2.190   2.461 -0.5515 -3.7318  0.3995
 4391SOL    HW224636   0.401   2.219   2.352  2.3398 -0.7762  0.7386
 4392SOL     OW24637   2.328   3.447  16.364 -0.3005  0.3174  0.4036
 4392SOL    HW124638   2.285   3.417  16.445 -1.2246 -2.5578 -1.1373
 4392SOL    HW224639   2.420   3.452  16.387  0.2052 -1.6539 -1.1825
 4393SOL     OW24640   4.515   2.685   7.818 -0.5234  0.2665  0.2561
 4393SOL    HW124641   4.467   2.711   7.896 -0.1301  1.1920  0.1906
 4393SOL    HW224642   4.572   2.762   7.810  0.8263 -0.2268  4.6708
 4394SOL     OW24643   0.138   4.026   4.282  0.0513 -0.1986  0.0378
 4394SOL    HW124644   0.078   4.022   4.207 -1.0016  0.7784  0.8362
 4394SOL    HW224645   0.093   4.099   4.325  1.0781 -0.8503  2.1747
 4395SOL     OW24646   2.877   4.050  14.960 -0.0604  0.6327 -0.0324
 4395SOL    HW124647   2.805   4.100  14.999 -0.2484  0.6993 -0.4643
 4395SOL    HW224648   2.947   4.065  15.023  0.7127  0.6062 -0.8956
 4396SOL     OW24649   3.869   3.216   4.133  0.3239 -0.0321 -0.2729
 4396SOL    HW124650   3.951   3.176   4.160 -0.9261 -1.7233  0.9837
 4396SOL    HW224651   3.885   3.309   4.150  2.6868 -0.7888  1.5146
 4397SOL     OW24652   1.273   4.564   5.753 -0.3438 -0.5052 -0.2828
 4397SOL    HW124653   1.283   4.519   5.837 -0.3042 -3.0911 -1.6636
 4397SOL    HW224654   1.227   4.494   5.706 -0.4814 -1.4378  1.2400
 4398SOL     OW24655   1.856   3.269  11.210 -0.3568  0.0587  0.0830
 4398SOL    HW124656   1.869   3.241  11.301  1.8888  0.3789 -0.1513
 4398SOL    HW224657   1.943   3.303  11.192  0.2264 -1.8546 -0.6903
 4399SOL     OW24658   0.335   3.366   6.198 -0.4505 -0.0274  0.5333
 4399SOL    HW124659   0.417   3.416   6.203 -1.1065  1.2545 -1.8971
 4399SOL    HW224660   0.330   3.322   6.283  1.4028  1.8934  1.6388
 4400SOL     OW24661   0.770   4.436   3.853 -0.4818  0.1646 -0.3061
 4400SOL    HW124662   0.687   4.481   3.837  0.5358  1.3563 -2.2508
 4400SOL    HW224663   0.803   4.420   3.764  0.5769  1.6456 -0.2022
 4401SOL     OW24664   3.583   3.544   9.079 -0.0702 -0.5969 -0.2744
 4401SOL    HW124665   3.569   3.600   9.156  0.1157 -0.8255 -0.0728
 4401SOL    HW224666   3.537   3.470   9.118  1.2441 -1.0082  0.5020
 4402SOL     OW24667   2.725   4.622   6.936  0.2004 -0.4596  0.5216
 4402SOL    HW124668   2.646   4.625   6.991 -1.8302 -0.0779 -2.4133
 4402SOL    HW224669   2.791   4.591   6.998 -1.5146 -1.4549  1.8785
 4403SOL     OW24670   1.234   3.450   1.254  0.4295 -0.0369 -0.1912
 4403SOL    HW124671   1.221   3.386   1.324 -1.4909  0.6506  0.0842
 4403SOL    HW224672   1.246   3.395   1.176  0.0622  0.2119 -0.4224
 4404SOL     OW24673   1.670   1.529  12.857  0.0388 -0.3879 -0.2724
 4404SOL    HW124674   1.706   1.497  12.775 -3.3103  0.3478 -2.0423
 4404SOL    HW224675   1.634   1.446  12.889  0.2692 -0.8139 -1.1236
 4405SOL     OW24676   3.155   2.822   3.775 -0.1347  0.3307 -0.3480
 4405SOL    HW124677   3.207   2.857   3.702 -1.5389  2.1652 -0.4568
 4405SOL    HW224678   3.100   2.897   3.796 -1.6073 -1.0644  0.6960
 4406SOL     OW24679   3.162   3.688   9.209  0.1521  0.3935 -0.1825
 4406SOL    HW124680   3.243   3.693   9.158 -0.2220 -0.3790 -0.8587
 4406SOL    HW224681   3.192   3.687   9.299  1.5270  0.3113 -0.6390
 4407SOL     OW24682   4.026   3.908  14.173 -0.4287 -0.1025 -0.1214
 4407SOL    HW124683   4.003   3.819  14.197 -0.0808 -0.4109 -0.9311
 4407SOL    HW224684   4.041   3.933  14.264  1.1696 -0.1650 -0.3578
 4408SOL     OW24685   1.212   2.311   5.033 -0.1916  0.2103  0.4686
 4408SOL    HW124686   1.243   2.237   4.980  1.3209  0.4563  0.9963
 4408SOL    HW224687   1.267   2.287   5.108  1.9268 -0.4073 -1.2636
 4409SOL     OW24688   2.100   2.242  13.226  0.1307  0.4857  0.2332
 4409SOL    HW124689   2.040   2.227  13.152 -1.6579 -1.4001  2.0741
 4409SOL    HW224690   2.157   2.307  13.184  0.2595  0.1821 -0.0597
 4410SOL     OW24691   4.408   2.094   5.301  0.4295  0.4184 -0.4725
 4410SOL    HW124692   4.349   2.028   5.265  1.6855 -0.9744  0.0286
 4410SOL    HW224693   4.357   2.175   5.294 -0.5967 -0.4231 -2.7687
 4411SOL     OW24694   4.351   4.714  13.161  0.3952  0.4642 -0.4646
 4411SOL    HW124695   4.381   4.629  13.191 -0.0201  0.7327  0.7120
 4411SOL    HW224696   4.419   0.044  13.201 -1.0247  0.5099  1.8680
 4412SOL     OW24697   3.977   3.326   7.136  0.5247 -0.0708 -0.3198
 4412SOL    HW124698   3.953   3.234   7.147  0.8394 -0.1908 -0.6188
 4412SOL    HW224699   4.047   3.319   7.070 -0.7159  2.7362 -1.9354
 4413SOL     OW24700   3.542   4.636   8.666  0.0932  0.6375  0.1889
 4413SOL    HW124701   3.500   4.567   8.718  0.3564 -0.3564 -0.9332
 4413SOL    HW224702   3.609   4.665   8.727  0.4995  0.0490  0.0196
 4414SOL     OW24703   3.654   2.919   4.213  0.1766  0.3987 -0.1101
 4414SOL    HW124704   3.739   2.929   4.256 -0.6990  0.7002  1.5543
 4414SOL    HW224705   3.593   2.901   4.284  1.0220 -0.8360  0.3007
 4415SOL     OW24706   2.752   2.999   5.575  0.6883 -0.2847 -0.4207
 4415SOL    HW124707   2.812   3.033   5.509 -0.2837 -1.9631 -2.1758
 4415SOL    HW224708   2.724   2.922   5.525  2.1061 -0.1134 -1.5006
 4416SOL     OW24709   3.970   4.291   8.601 -0.0298 -0.6089  0.2540
 4416SOL    HW124710   3.969   4.199   8.577 -1.6901 -1.1814  2.4635
 4416SOL    HW224711   3.969   4.328   8.513  2.0807 -0.1665  0.4171
 4417SOL     OW24712   1.019   4.079   8.114  0.1016 -0.2263  0.4132
 4417SOL    HW124713   1.085   4.065   8.046  0.7472 -0.8539  1.1666
 4417SOL    HW224714   1.003   3.994   8.154  1.2893  0.0572  1.5173
 4418SOL     OW24715   0.652   4.570   5.216  0.1424 -0.2021  0.4184
 4418SOL    HW124716   0.651   4.492   5.272  2.0205 -0.6015 -0.1208
 4418SOL    HW224717   0.559   4.594   5.213 -0.0552 -0.9605  0.4552
 4419SOL     OW24718   0.505   2.156  16.055  0.1320 -0.3201 -0.0219
 4419SOL    HW124719   0.517   2.168  16.149  1.3898 -0.4868 -0.1680
 4419SOL    HW224720   0.533   2.243  16.026  1.6172 -0.5957  0.6115
 4420SOL     OW24721   4.707   2.873   3.991 -0.8706  0.5157 -0.4346
 4420SOL    HW124722   4.690   2.909   4.078  4.8092  0.0248  0.8522
 4420SOL    HW224723   4.662   2.947   3.951  1.1014  0.4785 -2.7458
 4421SOL     OW24724   3.568   2.417   9.063 -0.2214 -0.0438  0.5235
 4421SOL    HW124725   3.518   2.346   9.022  0.8798 -1.8397  2.2661
 4421SOL    HW224726   3.650   2.369   9.078  0.8563  1.4867 -0.5219
 4422SOL     OW24727   0.413   0.938   6.524  0.4260 -0.6153  0.3473
 4422SOL    HW124728   0.361   1.013   6.550 -0.1076  0.0993 -2.7973
 4422SOL    HW224729   0.391   0.946   6.431  0.3129  0.2222  0.4490
 4423SOL     OW24730   0.477   4.103   6.450  0.3378  0.2719 -0.1493
 4423SOL    HW124731   0.426   4.024   6.465  0.5813  0.4813  1.7541
 4423SOL    HW224732   0.562   4.065   6.430  1.6271  3.1415 -0.1869
 4424SOL     OW24733   3.696   0.191   5.463 -0.2731 -0.1831 -0.1068
 4424SOL    HW124734   3.692   0.215   5.371 -4.2278 -0.3786  0.0175
 4424SOL    HW224735   3.617   0.139   5.480  0.2857 -0.7987  0.6600
 4425SOL     OW24736   0.970   0.685   3.910  0.0440  0.0370 -0.1072
 4425SOL    HW124737   0.953   0.591   3.917  4.5231 -0.5825  1.9804
 4425SOL    HW224738   0.967   0.694   3.815  0.2067  1.2808  0.0088
 4426SOL     OW24739   3.006   1.988   5.223  0.1990 -0.2642 -0.0494
 4426SOL    HW124740   2.956   2.056   5.268 -0.4211 -1.3622  0.9439
 4426SOL    HW224741   3.096   2.021   5.222 -0.3990  1.4113  0.7603
 4427SOL     OW24742   4.288   1.515   9.496 -0.3560 -0.2922  0.0263
 4427SOL    HW124743   4.292   1.463   9.577  1.7905  1.1874  0.8533
 4427SOL    HW224744   4.348   1.586   9.518 -0.4307 -0.3157  0.3133
 4428SOL     OW24745   2.593   1.813  11.682 -0.3894 -0.4683 -0.1469
 4428SOL    HW124746   2.664   1.793  11.744  1.7057 -0.9663 -2.7387
 4428SOL    HW224747   2.563   1.722  11.671  1.2001 -1.0346  0.1027
 4429SOL     OW24748   2.589   0.385  16.101 -0.3202 -0.5401 -0.0642
 4429SOL    HW124749   2.618   0.384  16.192 -1.2198 -2.7614  0.1945
 4429SOL    HW224750   2.629   0.466  16.070 -1.4264  0.1057  0.1701
 4430SOL     OW24751   0.174   1.556   0.423 -0.3607  0.4931 -0.4836
 4430SOL    HW124752   0.167   1.551   0.328 -0.1747  0.3359 -0.4899
 4430SOL    HW224753   0.243   1.620   0.438 -0.4971  0.7164 -0.8133
 4431SOL     OW24754   1.539   3.509  11.481 -0.9299  0.2732 -0.0646
 4431SOL    HW124755   1.531   3.603  11.467 -1.9819 -0.0043 -1.3287
 4431SOL    HW224756   1.634   3.503  11.466 -0.7763 -1.2746  1.3925
 4432SOL     OW24757   2.899   3.401   3.350 -0.4064  0.0920 -0.1882
 4432SOL    HW124758   2.906   3.482   3.299  0.1318 -1.4201 -2.5242
 4432SOL    HW224759   2.929   3.331   3.292 -2.2532 -1.3171  0.5742
 4433SOL     OW24760   2.214   3.936   7.810  0.0141 -0.4157  0.2002
 4433SOL    HW124761   2.127   3.972   7.824 -0.0083 -1.1842  2.0241
 4433SOL    HW224762   2.258   3.976   7.885  1.0845 -0.3804 -0.4434
 4434SOL     OW24763   4.100   2.765   5.908  0.4306  0.0869  0.6466
 4434SOL    HW124764   4.070   2.849   5.871 -0.8669 -0.5381  0.2929
 4434SOL    HW224765   4.020   2.713   5.905  2.3603 -2.6141 -3.0914
 4435SOL     OW24766   3.182   2.111   5.727 -0.5458 -0.0172  0.5051
 4435SOL    HW124767   3.167   2.039   5.665 -0.2668 -2.0903  2.8717
 4435SOL    HW224768   3.272   2.094   5.754 -0.9691 -0.0067  1.9361
 4436SOL     OW24769   3.702   1.459  12.636  0.2572 -0.8228  0.0582
 4436SOL    HW124770   3.693   1.415  12.720 -0.3708 -1.2273 -0.2212
 4436SOL    HW224771   3.658   1.402  12.573 -0.2411  0.1462 -0.4650
 4437SOL     OW24772   3.840   1.069   7.681  0.1505 -0.5507  0.0786
 4437SOL    HW124773   3.841   0.974   7.668  2.3323 -0.8285  2.2000
 4437SOL    HW224774   3.767   1.080   7.742  1.7216  1.3754  1.6065
 4438SOL     OW24775   0.506   2.322   8.786  0.1622  0.8134  0.3022
 4438SOL    HW124776   0.541   2.238   8.813 -0.1336  0.8837  0.8853
 4438SOL    HW224777   0.414   2.313   8.808 -0.1640  3.3605  0.0413
 4439SOL     OW24778   2.877   1.015   9.374  0.6715  0.6031 -0.7416
 4439SOL    HW124779   2.900   1.034   9.283 -1.1346  0.1172 -1.2913
 4439SOL    HW224780   2.803   1.074   9.386 -0.9869 -1.7733  0.6197
 4440SOL     OW24781   1.738   3.038   6.997 -0.0981  0.0529  0.4917
 4440SOL    HW124782   1.648   3.007   7.003 -0.2027  0.5655  1.6994
 4440SOL    HW224783   1.747   3.072   7.086  1.9762 -0.5971  0.5372
 4441SOL     OW24784   1.601   2.365  12.478  0.0678  0.2865 -0.5706
 4441SOL    HW124785   1.603   2.338  12.570 -0.1333  0.7032 -0.4406
 4441SOL    HW224786   1.546   2.442  12.496 -1.1241 -0.7892  0.3952
 4442SOL     OW24787   2.184   2.516   6.278  0.3178 -0.3646 -0.0073
 4442SOL    HW124788   2.260   2.465   6.307  1.8647  2.4564  0.8543
 4442SOL    HW224789   2.116   2.453   6.305  0.4192 -0.6636 -0.4607
 4443SOL     OW24790   0.487   2.486  10.190 -0.7906 -0.0325 -0.2292
 4443SOL    HW124791   0.519   2.576  10.186 -1.8398  0.4035  0.9839
 4443SOL    HW224792   0.523   2.467  10.277 -0.6491 -0.4561 -0.3823
 4444SOL     OW24793   0.333   2.734   8.378 -0.0939 -0.0555  0.5234
 4444SOL    HW124794   0.272   2.807   8.367  0.1274  0.1573  0.6828
 4444SOL    HW224795   0.404   2.777   8.426  0.2607  0.5600 -0.5627
 4445SOL     OW24796   2.045   3.492   8.343 -0.3332  0.3340 -0.0199
 4445SOL    HW124797   2.063   3.481   8.249 -0.7749 -1.9285  0.1642
 4445SOL    HW224798   1.950   3.504   8.338 -0.1057  2.7380  1.5481
 4446SOL     OW24799   2.891   1.935   4.164 -0.1720  0.2609 -0.5543
 4446SOL    HW124800   2.909   1.978   4.081  0.4634  0.9707 -0.0407
 4446SOL    HW224801   2.975   1.935   4.210 -0.6094  1.9134  0.2291
 4447SOL     OW24802   3.749   3.939   2.228  0.5532 -0.3512  0.2604
 4447SOL    HW124803   3.836   3.937   2.269  0.5098  0.7959  0.4201
 4447SOL    HW224804   3.717   4.014   2.278  1.3101  0.1277  0.0410
 4448SOL     OW24805   0.727   4.623   5.557 -0.2409  0.1077  0.3195
 4448SOL    HW124806   0.724   4.650   5.466  0.8997  0.2776  0.3238
 4448SOL    HW224807   0.633   4.612   5.569  0.2531 -3.6325  0.8104
 4449SOL     OW24808   0.074   3.639   6.350 -0.4991 -0.2060  0.1242
 4449SOL    HW124809   0.021   3.649   6.271  0.4648 -2.1496 -0.7690
 4449SOL    HW224810   0.159   3.631   6.308 -1.4652  0.9931 -2.0386
 4450SOL     OW24811   2.172   1.325   7.734 -1.0577 -0.0933 -0.0073
 4450SOL    HW124812   2.100   1.279   7.692 -0.4125 -1.1830  0.0709
 4450SOL    HW224813   2.130   1.397   7.781  0.4253 -0.4978  1.9442
 4451SOL     OW24814   3.950   4.547   4.210 -0.1748  0.3311 -0.5199
 4451SOL    HW124815   3.878   4.489   4.231  0.0081 -0.1381 -1.1926
 4451SOL    HW224816   3.992   4.552   4.295 -0.2494 -0.3751 -0.4460
 4452SOL     OW24817   4.479   0.609  13.029  0.1714 -0.5646  0.2108
 4452SOL    HW124818   4.394   0.655  13.029  0.7169  0.4599 -1.3422
 4452SOL    HW224819   4.475   0.560  12.947  2.7045  0.5954 -0.5970
 4453SOL     OW24820   2.151   0.046   1.053  0.2090  0.1302 -0.0679
 4453SOL    HW124821   2.168   0.121   1.109 -1.3407  1.0435 -0.8276
 4453SOL    HW224822   2.064   0.009   1.070 -0.4279  1.1185 -1.1824
 4454SOL     OW24823   4.489   2.327   3.023 -0.0268 -0.3081 -0.1468
 4454SOL    HW124824   4.477   2.381   2.945 -0.0589  1.0545  0.8116
 4454SOL    HW224825   4.445   2.245   3.002 -2.5247  0.8361  0.5982
 4455SOL     OW24826   2.456   2.666   7.306 -0.4565  0.1276 -0.1603
 4455SOL    HW124827   2.448   2.609   7.382  0.1907 -1.9255 -1.6300
 4455SOL    HW224828   2.396   2.740   7.317 -1.7381 -0.8497 -0.6824
 4456SOL     OW24829   3.180   2.887   3.216  0.1078 -0.1120 -0.3327
 4456SOL    HW124830   3.149   2.834   3.290  1.8032 -0.6944 -0.0414
 4456SOL    HW224831   3.250   2.825   3.196  0.4816  1.2107 -3.0832
 4457SOL     OW24832   3.801   1.803   1.323 -0.1057  0.5636  0.6411
 4457SOL    HW124833   3.713   1.801   1.360 -0.3188 -0.0358  0.0949
 4457SOL    HW224834   3.812   1.710   1.307 -1.3795  0.0494  2.7846
 4458SOL     OW24835   2.149   2.178   6.108  0.1942  0.2353  0.6001
 4458SOL    HW124836   2.092   2.180   6.031  0.5249 -0.3579  0.3413
 4458SOL    HW224837   2.089   2.183   6.182  1.1537 -2.2644  1.5191
 4459SOL     OW24838   0.569   1.613   4.404 -0.3459 -0.4095 -0.0810
 4459SOL    HW124839   0.578   1.558   4.326  2.7109  1.5258 -1.0965
 4459SOL    HW224840   0.614   1.559   4.468 -0.5759  1.2132  1.4549
 4460SOL     OW24841   0.462   2.724   9.209  0.1068  0.5643  0.5858
 4460SOL    HW124842   0.538   2.681   9.250 -0.3781 -0.3786  0.5040
 4460SOL    HW224843   0.433   2.753   9.295 -0.8879 -1.7057  1.0328
 4461SOL     OW24844   1.565   3.074   2.195 -0.2004 -0.4518 -0.0489
 4461SOL    HW124845   1.535   2.987   2.219  0.2944 -0.8055 -0.7211
 4461SOL    HW224846   1.524   3.073   2.109 -0.1156 -1.3521 -0.0727
 4462SOL     OW24847   2.350   2.901   1.730  0.6836  0.6467 -0.1134
 4462SOL    HW124848   2.336   2.883   1.637 -0.4454  1.6424 -0.1379
 4462SOL    HW224849   2.444   2.881   1.735  1.2016  2.7846 -1.1152
 4463SOL     OW24850   4.609   2.715   2.430  0.0633 -0.5179 -0.2196
 4463SOL    HW124851   4.598   2.664   2.511 -1.4071 -0.0668 -0.1536
 4463SOL    HW224852   4.627   2.642   2.370  3.8055 -0.0569  0.3027
 4464SOL     OW24853   0.278   2.231   6.133  0.2826 -0.0678 -0.4152
 4464SOL    HW124854   0.196   2.204   6.092  0.2828 -0.3494 -0.2269
 4464SOL    HW224855   0.327   2.149   6.129 -1.4678 -1.2629  2.3317
 4465SOL     OW24856   2.115   3.729  12.147  0.1938 -0.1980 -0.2226
 4465SOL    HW124857   2.048   3.668  12.181  0.3047 -0.2826 -0.1538
 4465SOL    HW224858   2.158   3.744  12.231  0.5130  0.9473 -0.6041
 4466SOL     OW24859   3.243   2.495  12.286  0.1351  0.1913  0.1101
 4466SOL    HW124860   3.241   2.512  12.192  0.1552  3.0339  0.6471
 4466SOL    HW224861   3.281   2.578  12.313  0.9457  0.4851 -1.9560
 4467SOL     OW24862   1.504   3.222   6.094  0.6243 -0.1640 -0.1515
 4467SOL    HW124863   1.428   3.192   6.144  1.1477 -0.1081  0.6675
 4467SOL    HW224864   1.539   3.271   6.168 -0.1747  1.2031 -0.6830
 4468SOL     OW24865   1.347   0.137   8.731 -0.0307 -0.0412  0.0069
 4468SOL    HW124866   1.315   0.220   8.763 -1.2704 -0.1560 -0.9318
 4468SOL    HW224867   1.318   0.138   8.640 -0.1285 -0.3977  0.0346
 4469SOL     OW24868   2.254   3.937   6.008  0.1709 -0.1971  0.0508
 4469SOL    HW124869   2.288   3.880   5.938  0.3170  1.2250 -1.0387
 4469SOL    HW224870   2.162   3.947   5.984  0.8922  0.2915 -2.4816
 4470SOL     OW24871   1.391   4.512   3.616  0.8471 -0.2156  0.5277
 4470SOL    HW124872   1.359   4.587   3.566 -0.9759  0.7823  3.2058
 4470SOL    HW224873   1.433   4.477   3.537  0.9435 -1.8885  1.3120
 4471SOL     OW24874   2.401   1.097  13.125 -0.2798  0.0302  0.3319
 4471SOL    HW124875   2.347   1.022  13.150  0.5923  0.4075  3.2999
 4471SOL    HW224876   2.400   1.141  13.210 -0.2530 -0.8821  0.7964
 4472SOL     OW24877   3.656   1.857   5.978  0.0147  0.4962 -0.9691
 4472SOL    HW124878   3.672   1.894   5.892  0.5448  0.7907 -0.7408
 4472SOL    HW224879   3.737   1.880   6.022  0.0424  1.9499 -1.7965
 4473SOL     OW24880   2.227   2.803   3.706 -0.0931 -0.2288  0.0614
 4473SOL    HW124881   2.295   2.869   3.690 -0.2688  0.0366  0.4002
 4473SOL    HW224882   2.162   2.851   3.757 -0.7057 -1.1806  0.1645
 4474SOL     OW24883   0.426   3.842   6.484  0.2734 -0.2608 -0.2278
 4474SOL    HW124884   0.424   3.792   6.566  0.7566  0.7755  0.4145
 4474SOL    HW224885   0.376   3.796   6.417 -0.2462 -0.2182  0.1304
 4475SOL     OW24886   3.803   3.121  12.483 -0.1286  0.0816  0.3387
 4475SOL    HW124887   3.858   3.073  12.421  1.6687  1.4800  0.8243
 4475SOL    HW224888   3.752   3.170  12.418  3.1365  1.8283 -0.9238
 4476SOL     OW24889   3.318   4.056  12.721  0.0385  0.5394 -0.2276
 4476SOL    HW124890   3.326   4.149  12.703 -0.7797  0.6615  0.0541
 4476SOL    HW224891   3.223   4.050  12.729 -0.0073 -1.1430 -1.8948
 4477SOL     OW24892   1.716   1.212   8.289  0.2859 -0.3681  0.3962
 4477SOL    HW124893   1.697   1.270   8.363 -1.9174  2.8023 -2.7053
 4477SOL    HW224894   1.691   1.263   8.213  1.6686 -2.6652 -1.5938
 4478SOL     OW24895   0.879   3.239   3.638 -0.5932  0.1309 -0.3860
 4478SOL    HW124896   0.915   3.152   3.651  2.4336  1.1803 -1.7055
 4478SOL    HW224897   0.918   3.264   3.554  0.4857 -1.5806 -0.3762
 4479SOL     OW24898   3.794   1.737   5.401  0.0732 -0.3710 -0.1350
 4479SOL    HW124899   3.761   1.738   5.311 -1.5643 -0.3622  0.4619
 4479SOL    HW224900   3.742   1.662   5.429 -0.0297 -0.8685 -1.6955
 4480SOL     OW24901   0.727   2.889   3.036  0.5794 -0.4840 -0.2954
 4480SOL    HW124902   0.700   2.975   3.004 -0.2669 -1.2164 -1.5284
 4480SOL    HW224903   0.643   2.863   3.072 -0.2602  0.7390 -1.3984
 4481SOL     OW24904   4.123   1.921  10.864  0.1099  0.1003 -0.1180
 4481SOL    HW124905   4.062   1.923  10.937  0.0165  1.9393 -0.2390
 4481SOL    HW224906   4.151   1.830  10.870 -1.2408 -0.3351 -0.5542
 4482SOL     OW24907   4.494   0.309   2.703 -0.0522  0.4533  0.0907
 4482SOL    HW124908   4.498   0.373   2.631  2.4901 -1.1450 -1.1694
 4482SOL    HW224909   4.441   0.244   2.657  2.1992 -1.1986 -0.1181
 4483SOL     OW24910   1.948   1.690  17.538 -0.4113  0.1666  0.6306
 4483SOL    HW124911   1.952   1.686  17.443  1.3810 -2.9794  0.8089
 4483SOL    HW224912   1.871   1.634  17.547  0.5738 -1.2515  0.2354
 4484SOL     OW24913   1.597   0.537   2.358 -0.0770 -0.3169 -0.3830
 4484SOL    HW124914   1.622   0.584   2.278  4.3005  0.7115  1.6288
 4484SOL    HW224915   1.624   0.447   2.340 -0.4681 -0.5946  0.3979
 4485SOL     OW24916   4.080   0.843   3.739 -0.0387 -0.6873  0.1899
 4485SOL    HW124917   4.092   0.781   3.811  0.3964  0.0443  0.7400
 4485SOL    HW224918   4.047   0.919   3.786 -2.1878 -1.2030 -0.4815
 4486SOL     OW24919   3.852   0.609  12.825 -0.2835 -0.6368 -0.4714
 4486SOL    HW124920   3.882   0.526  12.786 -2.3264 -1.5014 -0.2055
 4486SOL    HW224921   3.906   0.669  12.774  0.2005 -0.8864 -0.2545
 4487SOL     OW24922   0.367   1.990  13.641  0.5064  0.0854 -0.0267
 4487SOL    HW124923   0.317   2.025  13.714  2.0698  1.7298  0.2392
 4487SOL    HW224924   0.299   1.945  13.590  1.5726 -1.6871  0.1069
 4488SOL     OW24925   1.363   2.544   5.147  0.8507  0.1060  0.4927
 4488SOL    HW124926   1.400   2.627   5.179  0.2260  0.5907 -0.0510
 4488SOL    HW224927   1.328   2.513   5.231  2.3067  2.6271  2.0273
 4489SOL     OW24928   2.027   0.438   3.256  0.3763  0.4545  0.2376
 4489SOL    HW124929   2.076   0.517   3.233  0.7862  0.5164  1.3102
 4489SOL    HW224930   2.010   0.400   3.170 -1.4932 -2.7305  2.0303
 4490SOL     OW24931   4.549   3.351   2.801 -0.2513  0.3901  0.4015
 4490SOL    HW124932   4.622   3.367   2.741 -0.7591  0.8651 -0.0864
 4490SOL    HW224933   4.510   3.437   2.818 -0.3262  0.9030 -2.3819
 4491SOL     OW24934   0.218   1.029   9.082  0.7916 -0.7057  0.0054
 4491SOL    HW124935   0.128   0.998   9.080  0.8354 -0.7910 -0.6460
 4491SOL    HW224936   0.215   1.100   9.017 -0.3735 -0.3243  0.4869
 4492SOL     OW24937   3.754   0.494   4.046  0.2796 -0.0567  0.3707
 4492SOL    HW124938   3.760   0.589   4.053 -1.8541  0.1687 -0.5912
 4492SOL    HW224939   3.665   0.480   4.013  1.4066  0.5719 -2.8936
 4493SOL     OW24940   2.246   2.354   1.928 -0.1354  0.2867 -0.5615
 4493SOL    HW124941   2.247   2.448   1.911  0.3324  0.5760  1.0006
 4493SOL    HW224942   2.207   2.315   1.850 -0.5104 -1.3694  0.4367
 4494SOL     OW24943   0.042   2.155   9.036 -0.0744 -0.7575 -0.9361
 4494SOL    HW124944   0.077   2.193   8.955 -1.1711 -1.5077 -1.7672
 4494SOL    HW224945   4.673   2.165   9.013  0.0741 -0.2602 -1.3130
 4495SOL     OW24946   2.101   0.904  11.013  0.2268 -0.1597  0.8869
 4495SOL    HW124947   2.169   0.854  11.059  1.2948 -0.6195 -1.1499
 4495SOL    HW224948   2.047   0.953  11.074  1.2683  0.8265  1.0285
 4496SOL     OW24949   2.753   2.455   3.728 -0.0061  0.4893  0.1710
 4496SOL    HW124950   2.678   2.501   3.692 -0.2250  0.7099  0.9074
 4496SOL    HW224951   2.707   2.419   3.804 -1.4553  0.5666 -0.6740
 4497SOL     OW24952   0.780   3.932   7.412 -0.1483 -0.2857 -0.1103
 4497SOL    HW124953   0.753   3.912   7.501  0.5617  0.3632  0.2479
 4497SOL    HW224954   0.729   4.011   7.390  2.0415  1.4739  1.1819
 4498SOL     OW24955   3.225   2.748   4.455 -0.3329 -0.1598  0.2589
 4498SOL    HW124956   3.154   2.694   4.422  0.1042 -0.0987 -0.7634
 4498SOL    HW224957   3.259   2.786   4.374 -0.1719 -2.0517 -0.5570
 4499SOL     OW24958   3.292   3.738   6.102  0.0950 -0.0488 -0.3395
 4499SOL    HW124959   3.344   3.798   6.155 -0.8357  1.0037 -0.6074
 4499SOL    HW224960   3.332   3.653   6.118  0.4644  0.1350 -0.3054
 4500SOL     OW24961   1.012   3.590   1.530  0.4121  0.2318  0.0724
 4500SOL    HW124962   0.931   3.570   1.578  0.3584  1.0646  0.3304
 4500SOL    HW224963   0.989   3.601   1.438  1.3641 -0.0989 -0.2048
 4501SOL     OW24964   2.908   2.246   3.628  0.0299 -0.4500 -0.2762
 4501SOL    HW124965   2.979   2.227   3.689 -0.7368  1.8124  1.3041
 4501SOL    HW224966   2.852   2.314   3.665  1.0531 -1.1557  2.5169
 4502SOL     OW24967   3.810   1.959   4.673 -0.1813  0.0508 -0.2851
 4502SOL    HW124968   3.736   1.949   4.612 -0.0325  0.5775 -0.5476
 4502SOL    HW224969   3.844   2.043   4.643 -1.0587  0.9183  1.1384
 4503SOL     OW24970   4.531   0.387  10.051  0.9120 -0.0830  0.0179
 4503SOL    HW124971   4.550   0.335   9.973  0.3174  0.2956 -0.3738
 4503SOL    HW224972   4.444   0.351  10.067  0.9964  1.0611  3.0693
 4504SOL     OW24973   4.061   0.180   8.662 -0.8307  0.3352 -0.1300
 4504SOL    HW124974   3.998   0.178   8.589  0.5630  4.2834 -1.4241
 4504SOL    HW224975   3.996   0.200   8.730 -0.1782 -0.0701  0.6131
 4505SOL     OW24976   3.632   0.495  15.312 -0.6922  0.0420 -0.1219
 4505SOL    HW124977   3.589   0.472  15.394  0.4665  1.8162  0.9703
 4505SOL    HW224978   3.571   0.443  15.259 -2.8586  1.9779  0.4540
 4506SOL     OW24979   3.583   4.586   3.190  0.1675 -0.4557  0.1025
 4506SOL    HW124980   3.499   4.572   3.235 -0.4015  1.7752 -0.2973
 4506SOL    HW224981   3.555   4.612   3.102  0.7849  1.0795  0.3689
 4507SOL     OW24982   2.700   2.768   8.732  0.1424  0.1148  0.1579
 4507SOL    HW124983   2.686   2.859   8.760  2.0642  0.1231  1.1289
 4507SOL    HW224984   2.775   2.769   8.672  0.8123  1.6460  1.0017
 4508SOL     OW24985   1.051   2.491   4.120  0.0659  0.2467 -0.4257
 4508SOL    HW124986   1.005   2.541   4.187 -0.8197  0.4410 -1.1788
 4508SOL    HW224987   1.039   2.556   4.050 -1.1877 -0.3817 -0.7953
 4509SOL     OW24988   4.661   2.217  10.957  0.2690  0.0376  0.0361
 4509SOL    HW124989   0.007   2.260  11.007  0.1296 -0.5992  0.7798
 4509SOL    HW224990   4.658   2.271  10.878 -1.4263  0.2420  0.2334
 4510SOL     OW24991   4.687   2.315  11.796  0.1082  0.3416  0.4003
 4510SOL    HW124992   4.618   2.381  11.809  0.3490  0.5934  0.4028
 4510SOL    HW224993   4.656   2.276  11.714 -0.4055 -1.8161  1.6295
 4511SOL     OW24994   2.769   3.602  15.482 -0.1843 -0.1919 -0.1688
 4511SOL    HW124995   2.685   3.575  15.518 -0.9588  1.4815 -0.7655
 4511SOL    HW224996   2.817   3.620  15.563  1.8310 -1.5742 -1.0366
 4512SOL     OW24997   4.022   0.298   7.950  0.3814 -0.4548  0.1579
 4512SOL    HW124998   4.113   0.269   7.957  1.8264  3.4295 -2.4704
 4512SOL    HW224999   3.989   0.210   7.970  1.6502 -0.6955  1.1593
 4513SOL     OW25000   0.040   0.561   0.745 -0.0391 -0.5795 -0.3864
 4513SOL    HW125001   0.049   0.651   0.716 -0.8122 -0.0259  1.0478
 4513SOL    HW225002   4.690   0.538   0.689  0.1265 -0.2822 -0.7210
 4514SOL     OW25003   3.561   4.120   4.571  0.1551 -0.4400 -0.9182
 4514SOL    HW125004   3.555   4.215   4.565 -0.5997 -0.2709  2.2440
 4514SOL    HW225005   3.470   4.111   4.540  0.2696  0.4183 -1.4948
 4515SOL     OW25006   1.933   3.719   8.038 -0.0988  0.2775 -0.1034
 4515SOL    HW125007   1.877   3.687   8.108  0.1592  0.3455  0.1363
 4515SOL    HW225008   1.939   3.810   8.066 -2.2071 -0.4345  2.5511
 4516SOL     OW25009   4.417   1.470   7.254 -0.2405  0.8298  0.3435
 4516SOL    HW125010   4.399   1.531   7.326 -1.6379 -0.0670  0.7782
 4516SOL    HW225011   4.373   1.515   7.182  3.7772  3.2573 -0.5433
 4517SOL     OW25012   3.694   3.643  10.528  0.1261 -0.5396 -0.0854
 4517SOL    HW125013   3.647   3.563  10.503 -0.7032 -0.0985  0.0660
 4517SOL    HW225014   3.626   3.706  10.506  1.8849  0.7221 -1.8597
 4518SOL     OW25015   0.713   4.339   6.270 -0.4189  0.0081  0.3414
 4518SOL    HW125016   0.663   4.395   6.330 -0.3872  0.4134 -0.0012
 4518SOL    HW225017   0.750   4.397   6.203  0.3080  0.6247  1.2738
 4519SOL     OW25018   4.533   4.705   2.316  0.1423  0.3160  0.4304
 4519SOL    HW125019   4.591   0.056   2.301  0.5668 -0.5996 -2.3665
 4519SOL    HW225020   4.451   0.024   2.340 -1.4939 -0.9853 -2.9855
 4520SOL     OW25021   2.521   2.996  12.808 -0.1333 -0.1004 -0.0968
 4520SOL    HW125022   2.517   3.003  12.903  1.3430 -0.6061 -0.0049
 4520SOL    HW225023   2.426   2.985  12.797 -0.6500  2.3620  1.8491
 4521SOL     OW25024   3.627   2.899  15.978  0.0131  0.2549 -0.4376
 4521SOL    HW125025   3.696   2.939  16.030 -0.6339 -1.2543  1.6079
 4521SOL    HW225026   3.603   2.814  16.014  0.9584 -0.3427 -1.2612
 4522SOL     OW25027   2.539   0.380  12.077 -0.2268  0.6581  0.1130
 4522SOL    HW125028   2.572   0.414  12.160 -0.1830 -1.4477  0.9830
 4522SOL    HW225029   2.444   0.374  12.091 -0.0259 -2.4845  0.1545
 4523SOL     OW25030   1.494   3.719   8.317 -0.1537  0.0673 -0.5384
 4523SOL    HW125031   1.486   3.630   8.351  1.9591  1.0712  2.5667
 4523SOL    HW225032   1.402   3.743   8.314 -0.2720 -0.3728 -0.3921
 4524SOL     OW25033   1.565   4.442  16.693  0.1890  0.3640 -0.2760
 4524SOL    HW125034   1.555   4.499  16.617 -0.0808  1.4445  0.5692
 4524SOL    HW225035   1.551   4.355  16.656 -1.3042  0.6796 -0.4512
 4525SOL     OW25036   1.741   1.467   6.102  0.3371 -0.2512  0.1266
 4525SOL    HW125037   1.650   1.439   6.102 -1.2975  5.1218  0.4550
 4525SOL    HW225038   1.720   1.558   6.121  1.2011 -0.0031 -0.1126
 4526SOL     OW25039   4.561   0.506   6.349 -0.3406 -0.3594  0.1619
 4526SOL    HW125040   4.554   0.528   6.442 -1.0262  2.4477 -0.5477
 4526SOL    HW225041   4.655   0.495   6.336 -0.3279  0.4048 -0.4049
 4527SOL     OW25042   2.080   1.611  10.794 -0.1899  0.8559 -0.0202
 4527SOL    HW125043   2.052   1.648  10.878  0.2802 -0.6165  0.7808
 4527SOL    HW225044   2.168   1.650  10.787 -0.0985  0.7499  0.5229
 4528SOL     OW25045   1.767   0.229   0.887  0.1082 -0.2419 -0.2062
 4528SOL    HW125046   1.801   0.269   0.966  0.0746  0.5832 -0.6131
 4528SOL    HW225047   1.756   0.308   0.834  2.0710  0.9327  1.1467
 4529SOL     OW25048   2.517   3.479   3.168  0.4894  0.9704 -0.5419
 4529SOL    HW125049   2.539   3.413   3.234 -0.5822 -1.1553 -2.2864
 4529SOL    HW225050   2.440   3.513   3.214  1.4943  3.0984 -0.4637
 4530SOL     OW25051   2.554   3.600   2.119 -0.3374  0.4153 -0.6796
 4530SOL    HW125052   2.611   3.528   2.148 -1.1265 -0.2338 -0.7379
 4530SOL    HW225053   2.615   3.643   2.058  2.5530  0.0814  1.9807
 4531SOL     OW25054   1.562   0.481   6.235 -0.1565  0.8573 -0.4673
 4531SOL    HW125055   1.629   0.443   6.178 -0.5789  0.6041 -0.7957
 4531SOL    HW225056   1.624   0.512   6.301 -0.5662  0.2810  0.1887
 4532SOL     OW25057   2.777   1.029   3.136 -0.6482 -0.1960 -0.5882
 4532SOL    HW125058   2.728   1.106   3.107  0.8513 -0.4086 -3.6513
 4532SOL    HW225059   2.838   1.038   3.063 -2.0425  3.4277 -1.3181
 4533SOL     OW25060   4.697   4.264  14.215  0.1656  0.1368 -0.2581
 4533SOL    HW125061   4.693   4.218  14.299  1.9696 -0.5526 -0.5617
 4533SOL    HW225062   0.056   4.308  14.229 -0.5496  0.5749  2.4793
 4534SOL     OW25063   3.989   2.787   7.786 -0.0379 -0.0850  0.1994
 4534SOL    HW125064   3.990   2.881   7.800 -0.7473  0.1272 -1.1963
 4534SOL    HW225065   4.044   2.789   7.708 -2.0030  0.5671 -1.1729
 4535SOL     OW25066   4.315   1.207   0.948 -0.5919 -0.4629  0.0695
 4535SOL    HW125067   4.364   1.286   0.970 -1.6423 -0.0105  0.8411
 4535SOL    HW225068   4.231   1.243   0.979  0.1657  0.3750  1.1525
 4536SOL     OW25069   0.829   0.323   4.209  0.2252  0.2579  0.6524
 4536SOL    HW125070   0.843   0.231   4.188  1.9999  0.7921 -0.4947
 4536SOL    HW225071   0.846   0.316   4.303  0.0817 -2.8664  0.4201
 4537SOL     OW25072   0.084   4.099   4.615  0.1382  0.2340  0.2409
 4537SOL    HW125073   0.153   4.049   4.658 -0.8535 -0.7999  0.6395
 4537SOL    HW225074   0.005   4.047   4.627  1.5213 -2.3835 -1.9812
 4538SOL     OW25075   2.811   2.244   4.581 -0.1009  0.1367  0.2544
 4538SOL    HW125076   2.741   2.194   4.622  0.1595 -1.3436 -1.0957
 4538SOL    HW225077   2.794   2.213   4.492  1.8281  0.4080 -0.2094
 4539SOL     OW25078   3.808   0.627   8.209  0.3486  0.0473 -0.3379
 4539SOL    HW125079   3.770   0.714   8.220 -1.2533 -0.8634  1.3501
 4539SOL    HW225080   3.773   0.576   8.282  1.0489  1.0829  0.7166
 4540SOL     OW25081   0.722   1.027   7.314  0.2112 -0.5684 -0.5413
 4540SOL    HW125082   0.706   1.064   7.401  0.4759 -1.6616 -0.0291
 4540SOL    HW225083   0.816   1.046   7.312  0.0917  0.2715  1.1422
 4541SOL     OW25084   1.084   4.542  16.852 -0.2274  0.1531 -0.4574
 4541SOL    HW125085   1.179   4.529  16.855 -0.4310 -1.4773 -1.0214
 4541SOL    HW225086   1.071   4.498  16.768  1.0849 -1.1357  0.0072
 4542SOL     OW25087   4.604   2.019   3.454 -0.2850  0.2846 -0.3405
 4542SOL    HW125088   4.575   1.953   3.391 -0.1052 -0.7770  0.6853
 4542SOL    HW225089   4.679   1.980   3.499 -1.0824 -1.1039 -0.2034
 4543SOL     OW25090   4.352   1.920   9.103  0.1964 -0.1704 -0.2679
 4543SOL    HW125091   4.378   1.998   9.053 -0.0885  1.2640  1.7904
 4543SOL    HW225092   4.260   1.939   9.122  0.3622  1.6236 -1.2048
 4544SOL     OW25093   1.596   1.241   4.097  0.5241  0.0680 -0.4837
 4544SOL    HW125094   1.593   1.321   4.044  1.5247  0.2994 -0.2031
 4544SOL    HW225095   1.502   1.226   4.092  0.3590  1.1564 -0.5718
 4545SOL     OW25096   2.454   0.987  12.372  0.5169 -0.3749 -0.3804
 4545SOL    HW125097   2.418   0.936  12.299 -0.3122  0.3600 -0.4943
 4545SOL    HW225098   2.467   1.076  12.337 -0.0728  0.9707  2.8188
 4546SOL     OW25099   3.472   0.681   0.055  0.1989  0.1780  0.1332
 4546SOL    HW125100   3.415   0.733   0.111  1.8710  1.2057  0.8871
 4546SOL    HW225101   3.422   0.670  17.672  1.2809  0.1196 -0.5190
 4547SOL     OW25102   1.262   3.233   4.932  0.1776 -0.5995  0.3708
 4547SOL    HW125103   1.350   3.212   4.964 -0.1403  0.6222  2.0484
 4547SOL    HW225104   1.274   3.328   4.923 -0.6708 -0.5349 -0.0562
 4548SOL     OW25105   2.757   2.070  13.394 -0.6037 -0.1940  0.0710
 4548SOL    HW125106   2.779   2.115  13.475 -1.6019 -0.9819  0.7717
 4548SOL    HW225107   2.796   2.129  13.329  1.8835  1.6104  3.2524
 4549SOL     OW25108   2.338   1.441   2.471  0.7262  0.4054  0.2925
 4549SOL    HW125109   2.282   1.468   2.543  1.0926  1.3542  0.2227
 4549SOL    HW225110   2.288   1.481   2.399  0.3943  1.4041  1.0813
 4550SOL     OW25111   3.517   3.658  11.991 -0.0519  0.1632  0.6268
 4550SOL    HW125112   3.457   3.620  12.054  0.7759 -0.4580  1.0303
 4550SOL    HW225113   3.588   3.594  11.987  0.0644  0.2894  0.6250
 4551SOL     OW25114   0.887   4.012   5.893 -0.5742 -0.7261  0.2826
 4551SOL    HW125115   0.933   4.003   5.977 -2.0818 -0.4488  1.1336
 4551SOL    HW225116   0.807   4.062   5.912  0.1097 -0.5924  2.7791
 4552SOL     OW25117   0.199   1.798   9.968  0.2648  0.7114 -0.4485
 4552SOL    HW125118   0.259   1.796  10.043  1.1562 -1.7335 -1.2455
 4552SOL    HW225119   0.159   1.712   9.981 -3.1545  2.2498 -0.8446
 4553SOL     OW25120   0.552   0.034   7.745 -0.5158  0.3135 -0.3283
 4553SOL    HW125121   0.624   0.085   7.708  0.1664 -1.0720 -0.8716
 4553SOL    HW225122   0.489   0.027   7.673 -0.4618 -1.3981 -0.2081
 4554SOL     OW25123   2.354   4.648   4.426  0.1985 -0.4737  0.2662
 4554SOL    HW125124   2.355   4.562   4.383 -1.0208 -1.3212  1.9374
 4554SOL    HW225125   2.343   4.704   4.349 -0.4137 -1.5605 -0.4415
 4555SOL     OW25126   2.516   1.037   3.468  0.2564 -0.1040 -0.1360
 4555SOL    HW125127   2.538   1.114   3.520 -0.1200  1.3058 -2.0181
 4555SOL    HW225128   2.450   1.075   3.410  2.4602  3.0501 -0.5611
 4556SOL     OW25129   0.170   3.579   8.564 -0.4216  0.5163 -0.1991
 4556SOL    HW125130   0.152   3.649   8.627 -1.8673 -0.0595  0.0205
 4556SOL    HW225131   0.265   3.593   8.557 -0.1001 -1.7976 -0.6417
 4557SOL     OW25132   2.828   2.762  15.552  0.1024  0.4628  0.3944
 4557SOL    HW125133   2.829   2.743  15.458  0.5967  2.2968  0.0356
 4557SOL    HW225134   2.733   2.776  15.555 -0.1953 -0.8162 -2.7155
 4558SOL     OW25135   2.057   4.000   3.489  0.1732 -0.0229 -0.0923
 4558SOL    HW125136   1.986   3.981   3.429  0.6128  0.1259 -0.6549
 4558SOL    HW225137   2.022   4.052   3.561 -0.0183 -0.9131  0.4665
 4559SOL     OW25138   4.621   0.006   2.617  0.1503  0.7507 -0.1950
 4559SOL    HW125139   4.586   4.661   2.560 -0.0188  2.1239 -1.7333
 4559SOL    HW225140   4.547   0.023   2.676 -1.0286  0.1123 -1.4800
 4560SOL     OW25141   0.222   1.530  13.035 -0.4076 -0.0043  0.2019
 4560SOL    HW125142   0.190   1.461  13.093  3.2486 -0.1118  2.0825
 4560SOL    HW225143   0.220   1.488  12.949 -2.8747  0.2335  0.1423
 4561SOL     OW25144   1.935   0.192  14.325 -0.7191  0.4219 -0.0125
 4561SOL    HW125145   1.975   0.125  14.270 -0.1388  0.4266  0.4114
 4561SOL    HW225146   1.845   0.159  14.325 -0.7158  0.4014  1.5115
 4562SOL     OW25147   0.283   3.890   5.749 -0.6995 -0.2800 -0.2734
 4562SOL    HW125148   0.294   3.985   5.757 -0.9991 -0.4692  2.3829
 4562SOL    HW225149   0.271   3.881   5.655 -3.4344  1.6593 -0.0931
 4563SOL     OW25150   1.616   3.840   5.453  0.7512  0.2544  0.1617
 4563SOL    HW125151   1.585   3.786   5.526 -0.3692 -0.0843 -0.5650
 4563SOL    HW225152   1.582   3.929   5.468 -0.6889 -0.1509 -0.7101
 4564SOL     OW25153   3.015   1.948   3.575  0.0961  0.5707 -0.2184
 4564SOL    HW125154   3.071   2.018   3.608 -0.1615  1.7099 -2.2120
 4564SOL    HW225155   2.978   1.989   3.497 -1.6631 -1.8976 -0.6830
 4565SOL     OW25156   3.268   3.415   0.779 -0.5644 -0.0024 -0.6800
 4565SOL    HW125157   3.338   3.419   0.714 -0.0543 -1.3557 -0.2407
 4565SOL    HW225158   3.246   3.508   0.780 -0.9620 -0.0997 -0.0945
 4566SOL     OW25159   3.803   3.542   2.090 -0.5541  0.4503 -0.6058
 4566SOL    HW125160   3.799   3.448   2.073 -2.1799  0.3920  0.0985
 4566SOL    HW225161   3.898   3.547   2.077 -0.1209 -0.1044  2.4133
 4567SOL     OW25162   0.357   2.277   4.036  0.1232  0.8293  0.0020
 4567SOL    HW125163   0.275   2.315   4.002  0.2243  0.9203 -0.1437
 4567SOL    HW225164   0.419   2.349   4.022 -0.0603  1.3761  2.0586
 4568SOL     OW25165   4.574   0.967   2.458  0.2523 -0.4190  0.4653
 4568SOL    HW125166   4.535   1.054   2.451  0.0226 -0.6490 -1.0443
 4568SOL    HW225167   4.604   0.972   2.549  0.7522 -0.9547  0.3287
 4569SOL     OW25168   3.300   0.909   2.826 -0.2774  0.5175  0.0301
 4569SOL    HW125169   3.350   0.902   2.744 -0.3455  2.1341 -0.1483
 4569SOL    HW225170   3.239   0.836   2.814 -0.9213  1.3050 -1.5847
 4570SOL     OW25171   2.426   1.914   4.663  0.3767  0.1585  0.8628
 4570SOL    HW125172   2.386   1.897   4.748  0.3088  0.3235  0.8642
 4570SOL    HW225173   2.359   1.875   4.607  0.3317  2.1989 -0.5057
 4571SOL     OW25174   0.647   3.378  13.229 -0.3591 -0.4445  0.2079
 4571SOL    HW125175   0.663   3.297  13.181 -1.8874 -0.4869 -0.2404
 4571SOL    HW225176   0.716   3.369  13.295 -0.4763 -0.0557  0.3868
 4572SOL     OW25177   4.075   1.692   4.194  0.2756 -0.1279 -0.1550
 4572SOL    HW125178   4.169   1.674   4.198 -0.0293 -1.7070 -0.1177
 4572SOL    HW225179   4.070   1.783   4.223  2.3032  0.2214 -0.9116
 4573SOL     OW25180   3.175   1.410  14.028  0.0669 -0.6906  0.2811
 4573SOL    HW125181   3.100   1.443  13.979  1.2758 -0.1153 -1.1865
 4573SOL    HW225182   3.157   1.456  14.109  1.2369 -1.8734  1.2123
 4574SOL     OW25183   3.657   2.569  15.793  0.5134 -0.2076  0.6291
 4574SOL    HW125184   3.727   2.533  15.738 -0.4869 -3.3782  1.4352
 4574SOL    HW225185   3.587   2.551  15.729  1.0310 -0.5787  0.1657
 4575SOL     OW25186   4.548   1.730   9.202  0.1732  0.1255  0.1401
 4575SOL    HW125187   4.579   1.801   9.257  1.0447  1.1564 -1.6688
 4575SOL    HW225188   4.480   1.773   9.150 -1.2492 -1.5332  0.6156
 4576SOL     OW25189   2.024   0.529  16.239  0.6205  0.4020 -0.6089
 4576SOL    HW125190   2.089   0.514  16.171  0.6328  0.5524 -0.6306
 4576SOL    HW225191   1.967   0.590  16.191 -1.2786  0.0082  1.1725
 4577SOL     OW25192   2.296   2.237  17.635 -0.6059  0.0955 -0.7873
 4577SOL    HW125193   2.323   2.182   0.011 -2.1512  1.3806  0.7483
 4577SOL    HW225194   2.351   2.192  17.571  0.3686  1.0975 -0.6471
 4578SOL     OW25195   1.302   1.225  17.485  0.2230  0.5940  0.3076
 4578SOL    HW125196   1.294   1.136  17.520 -0.5486  1.3334  1.9941
 4578SOL    HW225197   1.316   1.275  17.565  0.8022  0.9552 -0.0131
 4579SOL     OW25198   4.711   1.357  13.883  0.1873 -0.9158 -1.1832
 4579SOL    HW125199   4.651   1.313  13.823 -2.0198  0.2392  0.1865
 4579SOL    HW225200   0.051   1.287  13.895  2.1065  1.1868  0.6251
 4580SOL     OW25201   4.057   3.847   7.594 -0.1295  0.2387 -0.1984
 4580SOL    HW125202   4.053   3.899   7.513 -0.1419 -0.2733 -0.5269
 4580SOL    HW225203   3.968   3.856   7.627 -0.6803 -3.3623 -0.7605
 4581SOL     OW25204   0.628   3.250  17.153  0.1154  0.2341  0.3928
 4581SOL    HW125205   0.693   3.309  17.116  0.6540 -0.6211 -0.0305
 4581SOL    HW225206   0.678   3.169  17.159  1.5717  1.0363 -1.0016
 4582SOL     OW25207   2.741   2.112   4.328 -0.4830  0.3211 -0.2537
 4582SOL    HW125208   2.766   2.182   4.267 -0.5362 -0.7560 -1.4933
 4582SOL    HW225209   2.787   2.035   4.294 -0.0462 -0.4143  2.0220
 4583SOL     OW25210   1.353   1.148   4.323  0.2083  0.2922 -0.1847
 4583SOL    HW125211   1.330   1.057   4.340 -1.9628  1.4014  2.6620
 4583SOL    HW225212   1.284   1.179   4.264  0.5327  2.3281  0.5015
 4584SOL     OW25213   0.144   1.248  13.571 -0.5454 -0.8989  0.0444
 4584SOL    HW125214   0.183   1.221  13.654  0.3969  1.7242  0.4433
 4584SOL    HW225215   0.177   1.338  13.562 -0.5958 -1.0346 -1.5594
 4585SOL     OW25216   1.437   1.992   8.038  0.6477 -0.4836 -0.1789
 4585SOL    HW125217   1.395   1.943   8.109 -1.0101 -0.7380 -1.3111
 4585SOL    HW225218   1.399   2.080   8.045 -1.0189 -1.2062 -0.0016
 4586SOL     OW25219   2.028   0.557   6.249  0.1628 -0.0650 -0.0960
 4586SOL    HW125220   2.026   0.568   6.154 -0.9497 -3.0427 -0.4045
 4586SOL    HW225221   2.122   0.540   6.251  0.1342 -0.3244 -0.7471
 4587SOL     OW25222   1.491   4.034  11.514 -0.2162  0.0545 -0.3098
 4587SOL    HW125223   1.431   4.037  11.438 -0.2487  0.3652 -0.2687
 4587SOL    HW225224   1.531   3.950  11.491 -0.5771  0.2347 -1.6503
 4588SOL     OW25225   3.152   3.538  14.395  0.7867 -0.9066 -0.3745
 4588SOL    HW125226   3.094   3.481  14.447  0.5007  0.5346  0.8886
 4588SOL    HW225227   3.088   3.586  14.343  0.9233 -0.3070  0.0165
 4589SOL     OW25228   4.066   3.586  17.522 -0.1950 -0.3393  0.1751
 4589SOL    HW125229   4.084   3.669  17.477 -1.4554 -0.8892 -1.3213
 4589SOL    HW225230   3.986   3.558  17.479 -0.5311 -0.3577  0.8087
 4590SOL     OW25231   0.430   0.929   8.379  0.1691 -0.2507 -0.5077
 4590SOL    HW125232   0.426   1.017   8.417 -0.5230 -0.2672 -0.5459
 4590SOL    HW225233   0.337   0.905   8.378  0.0806  0.1234 -1.1760
 4591SOL     OW25234   4.442   4.524  11.655 -0.0574  0.1603  0.0579
 4591SOL    HW125235   4.363   4.506  11.705  0.7406 -2.4177  0.4282
 4591SOL    HW225236   4.510   4.513  11.722  0.0216  2.2809  0.3180
 4592SOL     OW25237   1.917   4.244  13.093 -0.0849 -0.4437  0.4637
 4592SOL    HW125238   1.946   4.325  13.051 -1.0056  0.0167  0.7038
 4592SOL    HW225239   1.826   4.231  13.066 -0.5371  0.2833  1.6312
 4593SOL     OW25240   0.690   2.978   8.965  0.4130 -0.1131 -0.0923
 4593SOL    HW125241   0.635   3.055   8.978 -1.5141 -1.7086  1.1175
 4593SOL    HW225242   0.628   2.929   8.912  1.1965 -0.6750 -0.4856
 4594SOL     OW25243   4.542   1.839   6.605 -0.2900 -0.0165  0.5065
 4594SOL    HW125244   4.455   1.848   6.645 -0.5142  0.8723 -0.1688
 4594SOL    HW225245   4.518   1.833   6.513  4.2791  2.0210 -0.8031
 4595SOL     OW25246   2.923   3.897   2.515 -0.3607 -0.3781  0.0905
 4595SOL    HW125247   2.901   3.860   2.600 -0.2605 -1.5177 -0.3727
 4595SOL    HW225248   2.983   3.828   2.487 -0.7399 -1.1691  1.2358
 4596SOL     OW25249   0.456   1.811   0.002 -0.0870 -0.2365  0.3453
 4596SOL    HW125250   0.389   1.880   0.000 -0.7728 -0.9303 -1.4892
 4596SOL    HW225251   0.505   1.824  17.619 -0.3706  2.2440  0.5742
 4597SOL     OW25252   3.040   0.285   0.308  0.1652 -0.6270 -0.2388
 4597SOL    HW125253   3.070   0.225   0.375 -0.2810  0.1205  0.6280
 4597SOL    HW225254   3.122   0.295   0.261  0.3656 -2.0047 -0.1761
 4598SOL     OW25255   3.695   1.865   9.850 -0.5068  0.4523  0.1601
 4598SOL    HW125256   3.701   1.802   9.922  2.9090 -1.5091 -1.8238
 4598SOL    HW225257   3.657   1.941   9.894  0.7047  0.3968  1.3022
 4599SOL     OW25258   1.126   2.963   4.016  0.2526  0.3524 -0.0390
 4599SOL    HW125259   1.088   3.049   3.996 -0.3999  0.6878  2.6272
 4599SOL    HW225260   1.216   2.994   4.024  0.0306  0.6337  1.3829
 4600SOL     OW25261   3.354   0.684   5.895 -0.4478  0.4547  0.4324
 4600SOL    HW125262   3.274   0.726   5.865 -1.1438 -0.5293  0.9418
 4600SOL    HW225263   3.389   0.747   5.959  0.6386  0.3596 -0.0674
 4601SOL     OW25264   1.237   2.012   5.326 -0.2295  0.0257 -0.0351
 4601SOL    HW125265   1.248   2.067   5.404 -2.3654 -0.4311  0.5873
 4601SOL    HW225266   1.172   1.946   5.349  0.9826 -0.4834  1.9501
 4602SOL     OW25267   2.607   1.055   3.993  0.8218 -0.5555 -0.2021
 4602SOL    HW125268   2.570   1.136   4.027 -1.9409 -1.3478 -1.3851
 4602SOL    HW225269   2.661   1.079   3.918  1.0665 -1.0773 -0.1946
 4603SOL     OW25270   1.885   4.460   3.201 -0.2045  0.6000 -0.0142
 4603SOL    HW125271   1.904   4.552   3.180  0.8384  0.3801 -0.0671
 4603SOL    HW225272   1.922   4.461   3.289  1.4616 -0.1948 -0.6933
 4604SOL     OW25273   3.922   4.309   1.974  0.1954 -0.6137  0.2600
 4604SOL    HW125274   3.975   4.386   1.954  0.6106 -1.1193 -0.5797
 4604SOL    HW225275   3.924   4.327   2.068  0.1787 -0.3488  0.2103
 4605SOL     OW25276   2.318   0.493   6.222  0.0351  0.2667  0.9732
 4605SOL    HW125277   2.392   0.552   6.207 -0.9342  0.6252 -2.3563
 4605SOL    HW225278   2.297   0.471   6.132  2.2859 -0.7492  0.7315
 4606SOL     OW25279   2.067   3.202   5.390 -0.2171 -0.4348 -0.2262
 4606SOL    HW125280   2.031   3.289   5.404 -0.4074 -0.5113 -0.2351
 4606SOL    HW225281   2.109   3.187   5.474 -0.7304 -1.3614 -0.1335
 4607SOL     OW25282   4.112   1.297  11.462 -0.0342 -0.1815  0.8235
 4607SOL    HW125283   4.027   1.337  11.446  0.2740  1.2750  2.7373
 4607SOL    HW225284   4.148   1.350  11.533  2.5297 -0.6985 -0.0709
 4608SOL     OW25285   1.258   0.479   4.874 -0.3498 -0.5973  0.3318
 4608SOL    HW125286   1.262   0.384   4.885 -0.1833 -0.6266  0.0119
 4608SOL    HW225287   1.338   0.497   4.824 -0.8470  0.7201  0.0112
 4609SOL     OW25288   3.053   3.639   8.765  0.3581 -0.6830 -0.0572
 4609SOL    HW125289   3.118   3.619   8.833  0.8523  1.0604 -0.0187
 4609SOL    HW225290   2.975   3.632   8.820  0.8888  0.3419  0.8299
 4610SOL     OW25291   3.172   0.812  14.172 -0.4548  0.5268 -0.6125
 4610SOL    HW125292   3.144   0.749  14.106  1.7486  0.0263 -1.0628
 4610SOL    HW225293   3.266   0.802  14.157 -0.4601  1.9505 -1.5975
 4611SOL     OW25294   0.238   4.149   0.666 -0.3764  0.1499 -0.0847
 4611SOL    HW125295   0.267   4.153   0.757  0.0807  0.0504 -0.2262
 4611SOL    HW225296   0.165   4.208   0.685 -1.4820 -0.6936 -1.7504
 4612SOL     OW25297   2.813   2.100   5.734  0.1756  0.0287 -0.3042
 4612SOL    HW125298   2.725   2.115   5.766  0.5064  0.9885  0.1642
 4612SOL    HW225299   2.794   2.104   5.640 -0.6189 -0.1777 -0.1443
 4613SOL     OW25300   1.185   1.919   4.188  0.0561 -0.6578 -0.0499
 4613SOL    HW125301   1.233   1.905   4.270  0.2989 -0.7254 -0.2049
 4613SOL    HW225302   1.099   1.940   4.225  0.3927 -0.2733  0.5224
 4614SOL     OW25303   1.790   2.996   8.254  0.3298 -0.1036  0.4092
 4614SOL    HW125304   1.778   3.074   8.308  2.0754 -1.2966  2.5101
 4614SOL    HW225305   1.718   2.940   8.283  0.5456 -0.7705 -0.3227
 4615SOL     OW25306   1.995   3.878  16.778 -1.0512  0.2113  0.3912
 4615SOL    HW125307   2.045   3.799  16.759  0.6764  1.6391 -1.0052
 4615SOL    HW225308   1.915   3.848  16.821 -0.1961 -2.0478  0.4031
 4616SOL     OW25309   2.214   1.446   9.425 -0.0794 -0.0065 -0.4068
 4616SOL    HW125310   2.287   1.416   9.478 -1.7974 -2.5324  0.5516
 4616SOL    HW225311   2.146   1.381   9.446 -0.2874  0.0916 -0.7784
 4617SOL     OW25312   3.269   1.189   1.311 -0.2354 -0.2478  0.7105
 4617SOL    HW125313   3.174   1.194   1.315 -0.3666 -0.6855 -1.6707
 4617SOL    HW225314   3.290   1.140   1.390 -0.8779 -2.4371 -0.4661
 4618SOL     OW25315   0.048   0.242   2.163 -0.6115  0.3092  0.0651
 4618SOL    HW125316   0.077   0.331   2.182 -2.0875  0.8754 -0.3550
 4618SOL    HW225317   0.031   0.206   2.251 -0.2493 -1.0234 -0.4005
 4619SOL     OW25318   2.794   3.105   6.737 -0.0846 -0.5414  0.0928
 4619SOL    HW125319   2.844   3.118   6.657  0.3867 -0.3337  0.4161
 4619SOL    HW225320   2.845   3.032   6.771 -0.6865 -0.8846  0.2685
 4620SOL     OW25321   2.946   3.174   7.561  0.0547  0.2223 -0.1855
 4620SOL    HW125322   3.005   3.233   7.609  0.3847  0.0089 -0.3264
 4620SOL    HW225323   2.938   3.110   7.631 -3.9686 -0.5078 -1.3299
 4621SOL     OW25324   2.084   4.285  13.314  0.2684  0.1160 -0.2782
 4621SOL    HW125325   2.031   4.273  13.235 -0.9763  0.2493  0.5368
 4621SOL    HW225326   2.164   4.291  13.262  0.6091 -1.5103  0.0751
 4622SOL     OW25327   2.680   2.536   0.689 -0.5599  0.0322 -0.6310
 4622SOL    HW125328   2.748   2.480   0.727 -2.2055 -0.7944  1.0452
 4622SOL    HW225329   2.729   2.554   0.609  1.4403  1.6027  0.9108
 4623SOL     OW25330   0.903   3.055   5.714  0.0701  0.7614 -0.0926
 4623SOL    HW125331   0.899   2.993   5.642  1.0551 -0.0938  0.5860
 4623SOL    HW225332   0.883   3.137   5.669  0.7872  0.6538 -0.5926
 4624SOL     OW25333   1.978   2.199   1.123  0.6820  0.3894 -0.1334
 4624SOL    HW125334   2.057   2.252   1.127 -0.3196  1.7718  1.2757
 4624SOL    HW225335   1.967   2.212   1.029 -0.4008  0.7129  0.0345
 4625SOL     OW25336   1.106   3.875   2.400 -0.1306  0.2643 -0.3948
 4625SOL    HW125337   1.194   3.838   2.391 -0.7326 -0.7200 -2.2847
 4625SOL    HW225338   1.116   3.937   2.472  0.4802  2.7069 -2.5702
 4626SOL     OW25339   0.842   3.258   4.465 -0.1652  0.0414  0.0497
 4626SOL    HW125340   0.817   3.295   4.549 -1.2958 -0.3783 -0.0905
 4626SOL    HW225341   0.909   3.197   4.494  0.1152 -2.0859 -5.0814
 4627SOL     OW25342   2.430   2.125   1.282  0.4094  0.4284  0.1759
 4627SOL    HW125343   2.480   2.063   1.335 -0.9757  1.2012  2.3807
 4627SOL    HW225344   2.350   2.134   1.334 -0.2754 -1.2056 -0.6079
 4628SOL     OW25345   3.544   0.565   8.434 -0.2801  0.1527  0.0993
 4628SOL    HW125346   3.566   0.574   8.527  0.1122 -0.5987  0.0805
 4628SOL    HW225347   3.477   0.497   8.441 -0.8163  0.4855 -1.9514
 4629SOL     OW25348   0.031   0.623   7.883  0.0669  0.4484 -0.0248
 4629SOL    HW125349   4.694   0.632   7.955  0.0161  1.3862 -0.1815
 4629SOL    HW225350   0.024   0.530   7.865  0.3582  0.5655 -0.7847
 4630SOL     OW25351   1.661   1.929  16.754  0.0478  0.1699  0.3460
 4630SOL    HW125352   1.721   1.877  16.701  3.0878  3.4481  0.5476
 4630SOL    HW225353   1.712   2.006  16.776 -1.4681  1.1011  0.6398
 4631SOL     OW25354   4.186   4.009   3.799  0.6178  0.0197  0.0880
 4631SOL    HW125355   4.191   3.946   3.727  3.2346 -1.9268  1.9898
 4631SOL    HW225356   4.200   4.093   3.756 -0.3525  0.6980  1.0728
 4632SOL     OW25357   3.102   3.458  10.062 -0.2291 -0.3070 -0.0684
 4632SOL    HW125358   3.020   3.436  10.018  0.9972 -0.7972 -2.0881
 4632SOL    HW225359   3.106   3.552  10.048 -0.2421 -0.3711 -0.4847
 4633SOL     OW25360   0.706   2.580   2.543 -0.2709 -0.0851 -0.0185
 4633SOL    HW125361   0.670   2.591   2.631 -0.0976 -0.7613  0.1352
 4633SOL    HW225362   0.795   2.550   2.561 -0.7430 -1.1406  0.5789
 4634SOL     OW25363   2.950   3.751  15.350 -0.0575  0.2290 -0.1563
 4634SOL    HW125364   2.887   3.689  15.387 -0.6398  2.0573  1.9544
 4634SOL    HW225365   2.946   3.816  15.420  0.5150  1.1747 -0.9977
 4635SOL     OW25366   4.539   4.109   7.345  0.2419  0.1299 -0.5311
 4635SOL    HW125367   4.497   4.046   7.403  0.9205 -0.1503 -0.3477
 4635SOL    HW225368   4.595   4.066   7.280 -0.8901  0.6454 -1.8479
 4636SOL     OW25369   4.381   4.315   5.868 -0.1822  0.3122  0.4652
 4636SOL    HW125370   4.444   4.384   5.886 -0.0042 -0.2648  2.0555
 4636SOL    HW225371   4.340   4.348   5.788  0.5377  0.6678  0.2469
 4637SOL     OW25372   0.148   3.766   4.991 -0.1369 -0.0833  0.5321
 4637SOL    HW125373   0.058   3.790   5.015  0.1480  0.4415  1.0647
 4637SOL    HW225374   0.197   3.848   4.988  0.0721 -0.2093  0.4972
 4638SOL     OW25375   3.110   3.995   3.208 -0.3423  0.0238  1.1464
 4638SOL    HW125376   3.101   4.078   3.256  1.3060  0.9888 -0.2273
 4638SOL    HW225377   3.192   3.965   3.247 -0.0267 -2.6422 -1.6157
 4639SOL     OW25378   2.657   2.793   7.948 -0.1600  0.0013  0.4724
 4639SOL    HW125379   2.575   2.781   7.996  0.0253 -3.6399 -0.1111
 4639SOL    HW225380   2.696   2.868   7.992  0.1738 -1.1739  2.1654
 4640SOL     OW25381   2.805   3.959   5.165 -0.1122 -0.6960 -0.6174
 4640SOL    HW125382   2.880   4.015   5.143 -0.4563 -0.2003 -0.5351
 4640SOL    HW225383   2.814   3.885   5.104 -1.4508 -0.9921 -0.4638
 4641SOL     OW25384   3.697   1.033   3.955  0.6322 -0.6430 -0.0082
 4641SOL    HW125385   3.619   1.059   4.005  0.7623 -0.8484  0.3066
 4641SOL    HW225386   3.756   1.095   3.998 -0.5569 -0.6104  1.6017
 4642SOL     OW25387   0.130   1.672   6.363 -0.3213  0.6420 -0.7483
 4642SOL    HW125388   0.192   1.722   6.311  1.4327  0.0566  0.8012
 4642SOL    HW225389   0.078   1.627   6.297 -1.1040  0.8868 -0.3108
 4643SOL     OW25390   3.404   1.938  12.383  0.2110 -0.2668 -0.1289
 4643SOL    HW125391   3.445   2.024  12.392 -4.3446  1.6077  2.2265
 4643SOL    HW225392   3.421   1.909  12.293 -0.4798 -1.0125 -0.0120
 4644SOL     OW25393   4.677   4.621   8.420 -1.1996  0.4008  0.3927
 4644SOL    HW125394   4.676   4.586   8.331 -0.8814  1.1502  0.0934
 4644SOL    HW225395   4.708   4.549   8.475 -0.7768 -0.3093 -0.7845
 4645SOL     OW25396   0.833   1.983   2.433 -0.2293 -0.5931  0.0624
 4645SOL    HW125397   0.921   1.945   2.439 -0.8566 -1.7395  1.7956
 4645SOL    HW225398   0.777   1.919   2.390 -2.1878 -0.0487  1.8182
 4646SOL     OW25399   2.935   3.176   4.473 -0.7344  0.1793  0.1166
 4646SOL    HW125400   2.930   3.264   4.510 -1.7088 -0.1238  0.7163
 4646SOL    HW225401   3.012   3.189   4.419  0.5283  0.7064  2.0450
 4647SOL     OW25402   2.152   3.739   0.238  0.0381  1.1089  0.0966
 4647SOL    HW125403   2.202   3.658   0.228 -1.9764  0.1991 -2.5061
 4647SOL    HW225404   2.116   3.732   0.327 -2.5263 -1.7370 -1.1560
 4648SOL     OW25405   3.004   4.575   6.499  0.4139  0.1469  0.5150
 4648SOL    HW125406   2.996   4.670   6.490 -1.0988  0.2289  2.6709
 4648SOL    HW225407   2.935   4.539   6.444  3.0606 -1.5535 -1.7124
 4649SOL     OW25408   3.025   1.243  12.212  0.0030 -0.0301  0.1693
 4649SOL    HW125409   2.940   1.277  12.183  0.0192 -0.0177  0.1365
 4649SOL    HW225410   2.996   1.217  12.300 -1.7910  2.5590  0.3250
 4650SOL     OW25411   0.440   0.532   3.235  0.1303  0.0477 -0.3957
 4650SOL    HW125412   0.411   0.443   3.213 -1.0263 -0.2659  2.4472
 4650SOL    HW225413   0.533   0.515   3.246  0.0748 -0.3416 -0.5370
 4651SOL     OW25414   2.886   4.187   5.657  0.3921 -0.0146 -0.3013
 4651SOL    HW125415   2.904   4.155   5.569 -0.6461 -1.9063  0.1610
 4651SOL    HW225416   2.951   4.134   5.702  0.1674  0.2297  0.3163
 4652SOL     OW25417   1.813   4.130   7.296 -0.4955  0.7348 -0.0629
 4652SOL    HW125418   1.879   4.090   7.353 -0.7523  0.3837 -0.0076
 4652SOL    HW225419   1.764   4.053   7.268 -1.8453  1.4539  0.3270
 4653SOL     OW25420   0.128   3.627   5.767  0.6559 -0.0649  0.3953
 4653SOL    HW125421   0.181   3.625   5.686 -0.4777 -2.0692 -0.2828
 4653SOL    HW225422   0.190   3.649   5.836 -0.4475  3.0673  0.3800
 4654SOL     OW25423   2.825   2.580  13.876 -0.5040  0.2891 -0.1130
 4654SOL    HW125424   2.751   2.637  13.854 -1.1557 -0.8045 -0.7421
 4654SOL    HW225425   2.853   2.563  13.786  0.4643  2.3809 -0.2073
 4655SOL     OW25426   0.269   0.178   5.328  0.2229  0.6730 -0.0655
 4655SOL    HW125427   0.229   0.143   5.407  2.2681  0.1717  0.7328
 4655SOL    HW225428   0.343   0.222   5.369  1.5565 -2.1800  0.5629
 4656SOL     OW25429   0.344   2.430   7.455  0.7019 -0.0419 -0.6641
 4656SOL    HW125430   0.366   2.501   7.515  0.2665  0.8053 -1.5053
 4656SOL    HW225431   0.408   2.372   7.495  0.1984  1.4286  2.2679
 4657SOL     OW25432   3.706   3.520   2.873  0.0180 -0.0406  0.2816
 4657SOL    HW125433   3.780   3.476   2.830 -1.3743 -0.9021 -1.2294
 4657SOL    HW225434   3.636   3.456   2.861  1.4388 -1.8829  1.8585
 4658SOL     OW25435   1.726   2.701   4.537 -0.3213 -0.0935  0.2734
 4658SOL    HW125436   1.793   2.744   4.590  0.8620  0.9777 -2.1112
 4658SOL    HW225437   1.664   2.773   4.529 -0.3507 -0.3031 -1.4486
 4659SOL     OW25438   0.695   3.071  11.523 -0.2384  0.2343  0.3313
 4659SOL    HW125439   0.606   3.040  11.541  0.1846  1.2184  4.1521
 4659SOL    HW225440   0.717   3.016  11.448 -0.5766 -1.8342  1.7376
 4660SOL     OW25441   1.179   3.904  14.932 -0.5303  0.2909 -0.4388
 4660SOL    HW125442   1.174   3.910  15.028 -0.9187 -1.1347 -0.3805
 4660SOL    HW225443   1.147   3.992  14.911  0.0064  1.1711  2.3269
 4661SOL     OW25444   2.056   4.473   3.934 -0.3408  0.0236 -0.2770
 4661SOL    HW125445   2.068   4.549   3.991 -1.3897  0.0194 -0.0605
 4661SOL    HW225446   2.013   4.413   3.996 -0.5749 -0.0814 -0.5414
 4662SOL     OW25447   1.510   2.127   0.320  0.2007 -0.4084  0.0062
 4662SOL    HW125448   1.507   2.046   0.269 -2.3200  1.2429 -2.4781
 4662SOL    HW225449   1.562   2.169   0.251 -1.4112  0.8294 -0.4457
 4663SOL     OW25450   0.257   1.587   6.839  0.0379 -0.0053 -0.0626
 4663SOL    HW125451   0.188   1.642   6.803  0.5356 -0.0483 -1.0784
 4663SOL    HW225452   0.270   1.629   6.924  1.9193 -2.2092  0.7321
 4664SOL     OW25453   0.842   4.270  12.842  0.0482 -0.8641 -0.1798
 4664SOL    HW125454   0.903   4.254  12.770  1.5281 -1.5053  1.2419
 4664SOL    HW225455   0.896   4.289  12.918  0.3851  0.1648 -0.6650
 4665SOL     OW25456   2.202   3.979   3.955  0.0270  0.6550  0.0411
 4665SOL    HW125457   2.137   3.924   3.911 -1.7092  3.8183 -1.3127
 4665SOL    HW225458   2.244   4.003   3.872  0.6071 -1.6023 -0.3285
 4666SOL     OW25459   2.426   0.526   6.700 -0.5213 -0.0344  0.0822
 4666SOL    HW125460   2.466   0.508   6.615 -3.2348  0.2035 -1.2573
 4666SOL    HW225461   2.378   0.607   6.684  0.6962  0.7301  0.3284
 4667SOL     OW25462   2.747   2.498   8.834 -0.2681 -0.5613 -0.3722
 4667SOL    HW125463   2.756   2.529   8.744  1.9521  2.0655  0.7643
 4667SOL    HW225464   2.796   2.415   8.831  1.0708  0.1940  0.5039
 4668SOL     OW25465   1.164   0.518   7.392 -0.0720 -0.5093 -0.5898
 4668SOL    HW125466   1.175   0.547   7.302  1.2377 -3.8636 -1.5100
 4668SOL    HW225467   1.213   0.588   7.436 -2.0241  0.3322  0.2149
 4669SOL     OW25468   1.687   4.356   3.584  0.3845 -0.1282 -0.4906
 4669SOL    HW125469   1.710   4.429   3.527 -0.7352 -0.4433 -1.3638
 4669SOL    HW225470   1.661   4.402   3.664  1.0154 -0.3641 -0.1531
 4670SOL     OW25471   1.080   1.016   2.018 -0.5333 -0.0410  0.2322
 4670SOL    HW125472   1.136   0.950   1.976 -2.2247 -1.4051  0.1386
 4670SOL    HW225473   0.998   0.998   1.971 -0.8991 -1.3910  1.3910
 4671SOL     OW25474   2.942   3.038   3.837 -0.6414  0.4167 -0.2020
 4671SOL    HW125475   2.958   3.076   3.924 -0.4593  1.4255 -0.6677
 4671SOL    HW225476   2.958   3.117   3.784 -1.4443  0.5431 -0.2497
 4672SOL     OW25477   2.879   0.850   5.892  0.5175 -0.2403  0.0441
 4672SOL    HW125478   2.819   0.796   5.839 -0.1305 -0.7728  1.3272
 4672SOL    HW225479   2.888   0.791   5.967  0.9100 -0.5298 -0.2283
 4673SOL     OW25480   2.022   2.430  12.928 -0.1694  0.2306 -0.4368
 4673SOL    HW125481   2.074   2.424  12.848  1.6371 -0.5905  0.8027
 4673SOL    HW225482   1.982   2.344  12.943  2.5555 -1.2908 -1.9622
 4674SOL     OW25483   1.378   0.199   3.002  0.1999 -0.4439 -0.2664
 4674SOL    HW125484   1.353   0.219   2.912 -1.2089 -0.5113  0.1137
 4674SOL    HW225485   1.437   0.273   3.019 -1.2539  0.9719 -1.4253
 4675SOL     OW25486   1.518   3.773   4.079  0.4178 -0.1497 -0.3915
 4675SOL    HW125487   1.575   3.840   4.041 -1.7929  0.3136 -2.8185
 4675SOL    HW225488   1.497   3.724   4.000 -1.7286 -0.5798  0.4459
 4676SOL     OW25489   0.540   1.129  16.385  0.3713 -0.0348  0.2903
 4676SOL    HW125490   0.578   1.195  16.444 -2.1533  1.9398 -0.2898
 4676SOL    HW225491   0.477   1.185  16.339 -0.4259 -0.5988  0.6985
 4677SOL     OW25492   2.596   2.622  12.494 -0.1517 -0.6886 -0.2077
 4677SOL    HW125493   2.558   2.545  12.537  0.0614 -0.8397 -0.2867
 4677SOL    HW225494   2.684   2.586  12.481 -0.0059 -0.5137  0.3068
 4678SOL     OW25495   4.530   0.422   4.113  0.0738  0.1927  0.0368
 4678SOL    HW125496   4.456   0.449   4.058  0.7998  2.8166  0.3055
 4678SOL    HW225497   4.493   0.431   4.201  0.3924  1.4306  0.0535
 4679SOL     OW25498   4.186   0.194   4.012 -0.4169  0.4472 -0.4324
 4679SOL    HW125499   4.169   0.192   4.106  0.8198 -0.4786 -0.2341
 4679SOL    HW225500   4.097   0.181   3.977 -0.5811  0.3819  0.0103
 4680SOL     OW25501   0.799   2.003   8.093 -0.0251 -0.1419  0.8197
 4680SOL    HW125502   0.878   1.980   8.142  0.8214  2.6589  0.7866
 4680SOL    HW225503   0.796   1.947   8.016  2.8241 -0.7085  1.1279
 4681SOL     OW25504   0.168   2.448   8.367  0.9168 -0.3951  0.0593
 4681SOL    HW125505   0.149   2.533   8.408  1.8822 -1.9488  3.7214
 4681SOL    HW225506   0.093   2.428   8.310  0.7980 -3.2020  1.2268
 4682SOL     OW25507   1.039   1.802  13.643  0.1171  0.4730 -0.2249
 4682SOL    HW125508   1.099   1.728  13.654 -0.5570 -0.5084 -2.9033
 4682SOL    HW225509   1.075   1.854  13.714 -0.5063 -0.1779  0.5777
 4683SOL     OW25510   2.186   2.367   2.492  0.1748  0.0569 -0.5358
 4683SOL    HW125511   2.214   2.368   2.401 -0.9423  1.1494 -0.8715
 4683SOL    HW225512   2.220   2.280   2.514  0.6017  0.3456 -0.0730
 4684SOL     OW25513   4.165   3.309   5.525  0.1315 -0.5426 -0.4495
 4684SOL    HW125514   4.128   3.263   5.601 -0.4433 -0.7008 -0.8273
 4684SOL    HW225515   4.259   3.294   5.536  0.2792  0.3582 -0.5166
 4685SOL     OW25516   1.907   0.538   4.239  0.2516  0.7166  0.1734
 4685SOL    HW125517   1.926   0.548   4.145  0.6862 -0.9364  0.0855
 4685SOL    HW225518   1.842   0.607   4.255 -1.3186 -0.6132 -0.4559
 4686SOL     OW25519   4.097   1.746   4.552  0.3080  0.3407 -0.2620
 4686SOL    HW125520   4.158   1.678   4.523  0.7048  0.9153 -0.8027
 4686SOL    HW225521   4.011   1.705   4.547  0.7912 -0.7457  0.4888
 4687SOL     OW25522   1.733   3.787   2.721 -0.2359 -0.3423  0.1466
 4687SOL    HW125523   1.698   3.796   2.632 -0.4016 -0.5482  0.1920
 4687SOL    HW225524   1.746   3.879   2.743 -0.4597 -0.5826  1.2736
 4688SOL     OW25525   1.567   0.610   5.601 -0.4046  0.0937  0.3887
 4688SOL    HW125526   1.650   0.626   5.644  0.0370  0.6633 -0.6610
 4688SOL    HW225527   1.537   0.536   5.653 -2.5347  1.9685  1.8173
 4689SOL     OW25528   0.875   3.797  14.086  0.3182 -0.2778  0.5788
 4689SOL    HW125529   0.783   3.769  14.084  0.3048  0.0066 -2.6632
 4689SOL    HW225530   0.863   3.888  14.061 -0.3529 -0.0035  1.8849
 4690SOL     OW25531   0.513   3.638  17.475 -0.1430 -0.2356 -0.1871
 4690SOL    HW125532   0.582   3.573  17.488  0.0925 -0.7096 -3.8105
 4690SOL    HW225533   0.513   3.649  17.380  0.9571 -1.2869 -0.3117
 4691SOL     OW25534   0.935   1.055   7.937 -0.0562 -0.1092 -0.8613
 4691SOL    HW125535   0.974   0.979   7.893 -0.1729 -0.9662  0.5098
 4691SOL    HW225536   0.996   1.122   7.907  1.1537 -0.9193 -0.1783
 4692SOL     OW25537   0.116   3.943  12.836 -0.0596 -0.7109  0.1861
 4692SOL    HW125538   0.163   4.026  12.830  1.2547 -1.3387  1.5870
 4692SOL    HW225539   0.027   3.975  12.844  0.9212  2.0295  0.2023
 4693SOL     OW25540   0.753   1.446   1.879 -0.8596 -0.0542 -0.2298
 4693SOL    HW125541   0.813   1.372   1.885 -0.5545  0.4432  2.6418
 4693SOL    HW225542   0.676   1.409   1.836 -1.0651  0.4361 -0.2889
 4694SOL     OW25543   1.941   2.822   4.266 -0.3373  0.1480  0.1494
 4694SOL    HW125544   1.928   2.783   4.179  0.1746  1.8769 -0.7089
 4694SOL    HW225545   1.850   2.849   4.279 -0.9444 -1.5827 -0.5332
 4695SOL     OW25546   1.659   2.026  11.642 -0.3460  0.6187  0.1523
 4695SOL    HW125547   1.664   2.026  11.738  0.4250  0.9333  0.1066
 4695SOL    HW225548   1.690   2.114  11.621  0.1193 -0.1411 -2.3325
 4696SOL     OW25549   0.907   3.550   5.725  0.0299 -0.6728  0.3104
 4696SOL    HW125550   0.871   3.478   5.673  1.8891 -2.5107  1.5821
 4696SOL    HW225551   0.941   3.607   5.657  2.5182  0.5175  2.5904
 4697SOL     OW25552   4.056   2.492   1.981 -0.3398  0.4025 -0.1771
 4697SOL    HW125553   4.112   2.534   1.916 -0.9778  1.6646  0.0994
 4697SOL    HW225554   4.110   2.423   2.020  1.0064  1.0265 -0.9354
 4698SOL     OW25555   2.185   2.682   4.945 -0.2015 -0.4422 -0.6916
 4698SOL    HW125556   2.273   2.648   4.960 -0.2240 -1.1529 -2.1883
 4698SOL    HW225557   2.194   2.693   4.850  0.4132 -2.2157 -0.8415
 4699SOL     OW25558   2.566   1.899   8.972  0.0474  0.1503 -0.3262
 4699SOL    HW125559   2.558   1.986   8.934  2.5898  1.1320  1.3543
 4699SOL    HW225560   2.661   1.883   8.969  0.0817 -0.0811  1.7863
 4700SOL     OW25561   3.263   0.676   6.257 -0.1768  0.6853  0.5239
 4700SOL    HW125562   3.253   0.600   6.199  1.6657  2.0112 -1.5123
 4700SOL    HW225563   3.272   0.740   6.186  0.4364  1.8326  1.6421
 4701SOL     OW25564   4.429   0.829   0.471  0.3793 -0.1419 -0.3151
 4701SOL    HW125565   4.399   0.837   0.380  1.2175  2.5090 -0.3642
 4701SOL    HW225566   4.481   0.749   0.468  0.8818  0.2538 -2.1599
 4702SOL     OW25567   1.352   2.243   7.929  0.5338 -0.1159  0.0203
 4702SOL    HW125568   1.316   2.303   7.994 -0.5879 -2.3901  1.4837
 4702SOL    HW225569   1.267   2.205   7.908 -0.0883  1.1150  0.2951
 4703SOL     OW25570   1.065   2.694   8.599 -0.1076 -0.3393 -0.5294
 4703SOL    HW125571   1.013   2.724   8.525 -1.7369 -1.3135  0.2280
 4703SOL    HW225572   1.062   2.599   8.595 -0.3046 -0.4127  1.6845
 4704SOL     OW25573   1.517   2.681  16.534 -0.3128 -0.0196  0.2199
 4704SOL    HW125574   1.437   2.669  16.483  0.0576  1.4610 -0.7046
 4704SOL    HW225575   1.489   2.729  16.612  1.2625 -0.3068  0.9576
 4705SOL     OW25576   0.827   2.692   0.172 -0.6042 -0.5926 -0.4114
 4705SOL    HW125577   0.816   2.701   0.078 -1.7127  2.1508  0.0108
 4705SOL    HW225578   0.774   2.614   0.191 -0.0891 -0.7656  0.3450
 4706SOL     OW25579   1.333   1.437  13.283  0.0472  0.3785 -0.1884
 4706SOL    HW125580   1.271   1.371  13.254  0.3957 -1.3659  2.9791
 4706SOL    HW225581   1.272   1.479  13.345 -0.2613 -1.3098  0.6487
 4707SOL     OW25582   2.232   0.556   3.928 -0.0755 -0.4808  0.3343
 4707SOL    HW125583   2.194   0.521   3.848  0.4413 -1.4627  0.5263
 4707SOL    HW225584   2.297   0.491   3.953 -0.6022 -2.1421 -2.6129
 4708SOL     OW25585   2.294   1.794   3.793  0.0336 -0.2081 -0.3367
 4708SOL    HW125586   2.350   1.721   3.767 -0.1790 -1.2408  2.1899
 4708SOL    HW225587   2.344   1.867   3.756 -0.2013  0.2610  0.2757
 4709SOL     OW25588   1.195   0.090  13.474 -0.3456  0.0185 -0.4688
 4709SOL    HW125589   1.168   0.177  13.503 -2.6383 -0.8297 -0.0937
 4709SOL    HW225590   1.286   0.083  13.502 -0.5668 -2.2695 -0.3314
 4710SOL     OW25591   2.292   0.705   2.219  0.6518 -0.2145  0.5833
 4710SOL    HW125592   2.261   0.618   2.194  0.3824 -0.5584  2.1143
 4710SOL    HW225593   2.215   0.726   2.271  0.9245  2.2647 -0.0489
 4711SOL     OW25594   3.563   0.098   6.789  0.1719  0.1466 -0.0606
 4711SOL    HW125595   3.540   0.093   6.882  1.2329 -3.0088  0.0263
 4711SOL    HW225596   3.505   0.031   6.753 -1.1343 -0.5809  3.3915
 4712SOL     OW25597   2.031   1.380   2.569 -0.5453  0.2854 -0.2012
 4712SOL    HW125598   2.081   1.450   2.609  1.3353 -0.4284 -1.3142
 4712SOL    HW225599   2.034   1.419   2.481 -0.6794  0.5910 -0.0697
 4713SOL     OW25600   4.452   2.888   8.447 -0.2193 -0.1434 -0.2953
 4713SOL    HW125601   4.376   2.898   8.389  0.5188  2.3021 -0.8310
 4713SOL    HW225602   4.471   2.796   8.464  0.3726 -0.3614 -2.1075
 4714SOL     OW25603   1.370   2.481   3.830  0.5602  0.0054 -0.2688
 4714SOL    HW125604   1.424   2.504   3.755  1.4801 -2.4885 -0.3691
 4714SOL    HW225605   1.307   2.431   3.779 -0.0062  0.6190 -0.1741
 4715SOL     OW25606   3.464   3.845  11.775 -0.2039 -0.0830  0.1854
 4715SOL    HW125607   3.548   3.873  11.737 -1.5752 -1.4434 -3.8563
 4715SOL    HW225608   3.485   3.765  11.823  0.1644  0.9269  1.6807
 4716SOL     OW25609   4.523   2.270   2.601  0.2229  0.0977  0.0583
 4716SOL    HW125610   4.510   2.176   2.597 -1.2140  0.3754 -1.6638
 4716SOL    HW225611   4.439   2.314   2.587 -0.7730 -2.9406 -3.2568
 4717SOL     OW25612   3.345   1.469   6.364 -0.2494 -0.4763  0.1330
 4717SOL    HW125613   3.383   1.556   6.375 -0.3711 -0.0888 -2.4950
 4717SOL    HW225614   3.267   1.458   6.418 -0.9345 -0.9497 -0.9393
 4718SOL     OW25615   1.731   3.703   0.374 -0.1777  0.1764  0.0017
 4718SOL    HW125616   1.661   3.768   0.385  1.1379  1.6167 -0.0918
 4718SOL    HW225617   1.799   3.759   0.412 -0.1706 -1.0028  1.6872
 4719SOL     OW25618   3.016   0.244  11.040 -0.1338  0.0854 -0.3688
 4719SOL    HW125619   2.980   0.155  11.034 -2.2167  1.0108 -1.2921
 4719SOL    HW225620   2.938   0.293  11.064  1.7964  3.4913 -1.1559
 4720SOL     OW25621   3.192   3.863   7.145  0.3514  0.1606  0.7630
 4720SOL    HW125622   3.176   3.905   7.060  1.5603 -0.3620  0.2701
 4720SOL    HW225623   3.103   3.846   7.174 -0.0640  1.4018  0.2223
 4721SOL     OW25624   1.664   2.811  11.918  0.7078 -0.2899 -0.7529
 4721SOL    HW125625   1.651   2.903  11.943  0.2587 -1.1343  2.0630
 4721SOL    HW225626   1.723   2.781  11.988  1.2592  4.4772  0.8479
 4722SOL     OW25627   0.197   2.873   9.930  0.7445 -0.3790  0.6794
 4722SOL    HW125628   0.151   2.806   9.979 -0.5843 -0.4813 -0.6985
 4722SOL    HW225629   0.156   2.952   9.967  0.7424 -0.4673  0.8638
 4723SOL     OW25630   0.617   1.088  10.300  0.9692 -0.4079 -0.1311
 4723SOL    HW125631   0.599   1.031  10.224  0.8060  1.2668 -1.3551
 4723SOL    HW225632   0.565   1.043  10.367 -0.8159  1.7058 -0.0896
 4724SOL     OW25633   4.585   3.065   7.333 -0.4341 -0.3742 -0.3429
 4724SOL    HW125634   4.555   2.981   7.296 -1.5472  0.1849 -0.6970
 4724SOL    HW225635   4.663   3.047   7.385 -0.2959  0.7652 -0.1585
 4725SOL     OW25636   2.021   0.648   7.774 -0.4967  0.1784 -0.3512
 4725SOL    HW125637   2.065   0.648   7.689  0.5593  3.5147  0.1992
 4725SOL    HW225638   2.070   0.579   7.818 -1.3366 -0.8486 -1.0193
 4726SOL     OW25639   2.665   4.186   4.358 -0.5345 -0.5660  0.0664
 4726SOL    HW125640   2.675   4.279   4.379 -0.0317 -0.0404 -2.5297
 4726SOL    HW225641   2.719   4.149   4.428 -0.5145 -2.5667 -1.0225
 4727SOL     OW25642   3.324   3.186   2.189 -0.2203  0.2468 -0.0960
 4727SOL    HW125643   3.275   3.239   2.252  0.6211 -0.3160  1.0239
 4727SOL    HW225644   3.287   3.217   2.106  0.0827 -1.3874 -0.8423
 4728SOL     OW25645   1.507   2.695  12.219  0.4261 -0.2231 -0.1941
 4728SOL    HW125646   1.537   2.777  12.259 -0.2355 -0.6730  1.2143
 4728SOL    HW225647   1.590   2.661  12.185  1.7858  0.7582  2.1487
 4729SOL     OW25648   0.811   1.613   8.285 -0.5984  0.3051  0.0330
 4729SOL    HW125649   0.850   1.602   8.372 -1.3037 -2.3367  0.0138
 4729SOL    HW225650   0.892   1.645   8.244 -0.8980  0.2702 -0.5927
 4730SOL     OW25651   1.579   1.445   3.360  0.0203 -0.3567  0.0105
 4730SOL    HW125652   1.673   1.428   3.374  0.4667  0.9294 -1.4310
 4730SOL    HW225653   1.570   1.533   3.396  0.3722  0.3036 -1.5550
 4731SOL     OW25654   3.329   3.400   7.745 -0.0028  0.5051 -0.2680
 4731SOL    HW125655   3.326   3.348   7.825 -0.6279  1.6947  0.4834
 4731SOL    HW225656   3.422   3.423   7.746  0.3020 -0.7579  1.5032
 4732SOL     OW25657   2.177   3.940   4.317  0.1254  0.2111 -0.8461
 4732SOL    HW125658   2.264   3.977   4.307 -0.1944  1.2254  0.1979
 4732SOL    HW225659   2.190   3.860   4.266  1.3474 -0.2154  0.1353
 4733SOL     OW25660   2.470   0.121   5.588  0.1741  0.0335  0.6766
 4733SOL    HW125661   2.447   0.117   5.496  0.0949 -0.6446  0.7208
 4733SOL    HW225662   2.388   0.108   5.635  0.7998  1.4136  2.1813
 4734SOL     OW25663   0.013   1.627   2.477  0.3631 -0.0258  0.2245
 4734SOL    HW125664   0.017   1.704   2.420 -0.8372 -0.2577 -0.1621
 4734SOL    HW225665   0.104   1.601   2.463  0.3510 -0.5315  1.0574
 4735SOL     OW25666   0.774   0.823   2.790 -0.0222  0.8770  0.5268
 4735SOL    HW125667   0.783   0.897   2.730  0.9240  1.0932  0.9362
 4735SOL    HW225668   0.697   0.854   2.838 -0.5305  0.7007 -0.1718
 4736SOL     OW25669   0.118   3.460   6.097  0.5537  0.0341 -0.5040
 4736SOL    HW125670   0.073   3.383   6.064 -0.0384  0.3376 -0.4156
 4736SOL    HW225671   0.198   3.423   6.135 -0.8688 -0.9447  1.5400
 4737SOL     OW25672   2.976   1.284  16.787  0.2807  0.4594  0.0543
 4737SOL    HW125673   3.038   1.345  16.746  0.4934  0.7866  0.8680
 4737SOL    HW225674   2.972   1.309  16.879  0.7761  1.2867 -0.1446
 4738SOL     OW25675   0.267   4.169   5.757 -0.1337  0.4083 -0.1347
 4738SOL    HW125676   0.257   4.237   5.824  0.1835  0.5080 -0.1859
 4738SOL    HW225677   0.178   4.134   5.749 -1.1314  3.2055 -1.2125
 4739SOL     OW25678   3.059   3.383   6.593  0.0761 -0.2086  0.3429
 4739SOL    HW125679   3.051   3.293   6.564 -2.0201 -0.3213  1.2892
 4739SOL    HW225680   3.121   3.371   6.666  0.6199 -0.9456 -0.2381
 4740SOL     OW25681   3.078   1.061   5.385  0.0043  0.0106  0.5090
 4740SOL    HW125682   3.075   1.114   5.305  0.9955 -0.0675  0.4214
 4740SOL    HW225683   2.983   1.056   5.392 -0.2260 -0.5556 -3.0358
 4741SOL     OW25684   3.809   4.528   7.410  0.0364 -0.2449 -0.1829
 4741SOL    HW125685   3.778   4.592   7.474  0.8330 -0.8427  0.8026
 4741SOL    HW225686   3.901   4.506   7.427 -0.8445 -4.8994 -1.4315
 4742SOL     OW25687   3.475   3.771   7.096  0.1706  0.3922  0.3041
 4742SOL    HW125688   3.511   3.853   7.131  0.8305  0.0404  0.4413
 4742SOL    HW225689   3.382   3.789   7.081  0.4004 -0.3981 -1.9555
 4743SOL     OW25690   2.342   2.081   1.658 -0.0463  0.1860 -0.0394
 4743SOL    HW125691   2.278   2.092   1.729  0.1322  1.2556 -0.0475
 4743SOL    HW225692   2.296   2.112   1.580 -1.5742 -0.0326  0.7627
 4744SOL     OW25693   1.657   1.232  15.263  0.0701  0.0068  0.0364
 4744SOL    HW125694   1.704   1.161  15.307  0.7676 -0.5462 -1.5949
 4744SOL    HW225695   1.715   1.304  15.289 -0.4440  0.5034 -0.1922
 4745SOL     OW25696   0.475   4.432   1.777 -0.5408 -0.0991 -0.4124
 4745SOL    HW125697   0.436   4.385   1.851  1.4586  0.1924  0.8065
 4745SOL    HW225698   0.436   4.519   1.788 -0.1817  0.0052 -0.0056
 4746SOL     OW25699   1.503   2.766   4.208 -0.1264 -0.0763  0.1320
 4746SOL    HW125700   1.586   2.720   4.193 -0.2310 -0.6714  1.3896
 4746SOL    HW225701   1.451   2.717   4.144  1.3264  0.6324 -1.6002
 4747SOL     OW25702   0.311   2.567  12.046 -0.8162 -0.1020 -0.4312
 4747SOL    HW125703   0.282   2.562  12.137  1.1169  0.5272  0.2046
 4747SOL    HW225704   0.359   2.650  12.053 -0.4777 -0.4710  1.7061
 4748SOL     OW25705   1.457   1.269   0.305 -0.2657 -0.2064  0.0710
 4748SOL    HW125706   1.390   1.327   0.342 -1.3724 -1.3335 -0.1488
 4748SOL    HW225707   1.432   1.191   0.355  1.4636 -0.7204  0.1042
 4749SOL     OW25708   0.915   1.981   1.920  0.5129  0.3203 -0.4507
 4749SOL    HW125709   0.827   1.943   1.918  1.2221 -1.3807  1.1567
 4749SOL    HW225710   0.888   2.061   1.877  0.9192  0.3036 -0.7441
 4750SOL     OW25711   0.705   2.551   6.200  0.3301 -0.3360 -0.2765
 4750SOL    HW125712   0.769   2.574   6.133  1.0704 -1.4765  0.0319
 4750SOL    HW225713   0.638   2.503   6.152  0.1014  0.0952 -0.3912
 4751SOL     OW25714   0.024   3.051   2.891  0.3114  0.3791 -0.3312
 4751SOL    HW125715   4.664   3.005   2.899 -0.7107  1.6818 -3.5764
 4751SOL    HW225716   0.014   3.103   2.971  1.0582 -2.1058  1.3697
 4752SOL     OW25717   4.333   2.756   5.049  0.4996 -0.6129  0.2499
 4752SOL    HW125718   4.399   2.690   5.069  1.8031  1.3935  2.5428
 4752SOL    HW225719   4.384   2.801   4.982  1.1262 -0.2189  0.9992
 4753SOL     OW25720   2.684   4.682   6.645  0.1957  0.4413  0.0148
 4753SOL    HW125721   2.699   4.672   6.739  0.0870  0.6984  0.0598
 4753SOL    HW225722   2.614   4.619   6.627 -1.0970  1.7845  0.3837
 4754SOL     OW25723   2.971   2.638   3.589 -0.6762  0.0247 -0.2607
 4754SOL    HW125724   2.881   2.605   3.586 -0.0408 -1.6264 -1.3117
 4754SOL    HW225725   2.978   2.699   3.662 -1.1238  1.8312 -1.7261
 4755SOL     OW25726   4.709   4.390  15.122 -0.1750 -0.2432 -0.6544
 4755SOL    HW125727   0.006   4.333  15.196 -0.6146 -0.6626 -0.8563
 4755SOL    HW225728   0.070   4.432  15.109 -0.2865  0.9685  2.5588
 4756SOL     OW25729   3.802   1.280  10.988 -0.0991 -0.8279  0.3325
 4756SOL    HW125730   3.841   1.330  11.060 -0.0445 -0.0120 -0.2675
 4756SOL    HW225731   3.871   1.214  10.975  0.7034 -0.0370  0.5949
 4757SOL     OW25732   1.447   1.915   3.205  0.0548  0.7159 -0.0869
 4757SOL    HW125733   1.468   1.823   3.188  1.5582  1.5500 -2.5766
 4757SOL    HW225734   1.352   1.911   3.213  0.3158 -1.1463  2.0617
 4758SOL     OW25735   2.146   3.809   1.746  0.2549 -0.1604  0.8415
 4758SOL    HW125736   2.137   3.781   1.655  1.4249  0.1478  0.6349
 4758SOL    HW225737   2.076   3.768   1.797  0.8054 -0.8470  1.0394
 4759SOL     OW25738   2.954   4.559   6.783 -0.3066 -0.5373 -0.5649
 4759SOL    HW125739   2.864   4.537   6.808  0.4958 -1.1297  1.7950
 4759SOL    HW225740   2.955   4.563   6.688  1.3893 -1.1196 -0.5719
 4760SOL     OW25741   3.374   1.385   4.735 -0.1156 -0.0810 -0.2580
 4760SOL    HW125742   3.341   1.388   4.645 -0.1952 -0.3875 -0.2380
 4760SOL    HW225743   3.352   1.294   4.753  0.7075 -0.2173  0.0302
 4761SOL     OW25744   2.287   0.667   5.570  0.1098  0.4915 -0.5698
 4761SOL    HW125745   2.231   0.656   5.646  1.1866  1.8667  0.4268
 4761SOL    HW225746   2.238   0.734   5.522 -0.2934 -1.5913 -3.1063
 4762SOL     OW25747   4.365   3.547  11.261  0.3374 -0.2317  0.1527
 4762SOL    HW125748   4.313   3.601  11.320  1.5475 -0.5680  1.5184
 4762SOL    HW225749   4.303   3.531  11.190  1.5517 -0.3914 -0.8726
 4763SOL     OW25750   2.030   3.978  13.840  0.2144 -0.3443  0.3961
 4763SOL    HW125751   1.980   3.902  13.872  0.6416 -0.3389  1.0716
 4763SOL    HW225752   2.017   4.037  13.914 -2.9950 -1.4931  0.7961
 4764SOL     OW25753   4.402   4.197  16.431  0.5698 -0.2231 -0.5591
 4764SOL    HW125754   4.396   4.283  16.470  1.0891 -0.1795 -0.5743
 4764SOL    HW225755   4.343   4.150  16.490  1.8668  0.6291  1.4084
 4765SOL     OW25756   0.257   0.378  15.771 -0.5156  0.5623 -0.5987
 4765SOL    HW125757   0.272   0.431  15.849  0.7412  1.1956 -1.2721
 4765SOL    HW225758   0.305   0.298  15.792  1.3877  2.2868  1.6505
 4766SOL     OW25759   3.524   0.906  14.803 -0.4951 -1.0114 -0.2165
 4766SOL    HW125760   3.554   0.982  14.754  0.7826 -1.0954  0.4446
 4766SOL    HW225761   3.557   0.946  14.884 -1.1558 -0.3347 -0.2779
 4767SOL     OW25762   2.280   4.385   4.825 -0.0918  0.6943 -0.0605
 4767SOL    HW125763   2.336   4.462   4.817  1.0364  0.0410  1.7705
 4767SOL    HW225764   2.268   4.350   4.736  0.7712  0.3106 -0.0217
 4768SOL     OW25765   3.525   0.796   1.476  0.5492  0.4938 -0.4702
 4768SOL    HW125766   3.550   0.725   1.536  0.8915  2.0783  1.2784
 4768SOL    HW225767   3.430   0.801   1.480  0.6908  1.5067  1.9226
 4769SOL     OW25768   2.230   0.511  11.030 -0.0409 -0.1091 -0.4807
 4769SOL    HW125769   2.262   0.424  11.008  1.7958  0.7263 -1.1394
 4769SOL    HW225770   2.138   0.485  11.039  0.4493 -1.4396  0.6837
 4770SOL     OW25771   0.265   0.335  12.378  0.6113  0.0636  0.5787
 4770SOL    HW125772   0.178   0.352  12.343  0.3783 -0.9549  0.6757
 4770SOL    HW225773   0.243   0.302  12.465 -3.4326 -0.8729 -0.8185
 4771SOL     OW25774   1.252   0.965   4.738  0.2079 -0.0823 -0.0488
 4771SOL    HW125775   1.319   1.016   4.782 -0.3793 -0.1524  0.9268
 4771SOL    HW225776   1.217   0.906   4.805 -0.6658  1.0325  0.4697
 4772SOL     OW25777   1.504   1.000   6.724  0.5128  0.2253 -0.4429
 4772SOL    HW125778   1.433   1.006   6.788  1.2780  2.4829  0.2114
 4772SOL    HW225779   1.471   1.062   6.659  0.5223 -1.9731 -2.5435
 4773SOL     OW25780   2.182   2.175   4.592 -0.5757  0.6449  0.5681
 4773SOL    HW125781   2.241   2.207   4.523 -0.0955 -1.6444 -0.0673
 4773SOL    HW225782   2.140   2.108   4.537  0.7079  0.4033 -0.1239
 4774SOL     OW25783   2.219   2.260   3.817  0.7446  0.5641  0.2724
 4774SOL    HW125784   2.151   2.306   3.768 -0.9448 -1.1639  0.9922
 4774SOL    HW225785   2.173   2.179   3.842 -0.6809  1.5444  0.8384
 4775SOL     OW25786   0.316   0.518  16.025 -0.8868  0.2183  0.4361
 4775SOL    HW125787   0.249   0.469  16.072  0.7949 -3.3419 -0.9450
 4775SOL    HW225788   0.361   0.558  16.100 -1.0260  1.5650 -0.1863
 4776SOL     OW25789   0.497   0.558   2.655 -0.0041  0.2820 -0.2536
 4776SOL    HW125790   0.520   0.626   2.592  0.5686  0.5365  0.2334
 4776SOL    HW225791   0.580   0.524   2.687  0.1038  0.2626 -0.5572
 4777SOL     OW25792   0.156   1.589   7.651 -0.1621 -0.0796  0.1259
 4777SOL    HW125793   0.159   1.627   7.739  0.1448 -0.0681  0.1108
 4777SOL    HW225794   0.086   1.647   7.621 -0.5331 -0.1335  0.8756
 4778SOL     OW25795   3.835   3.023   0.237  0.0306  0.0810  0.6490
 4778SOL    HW125796   3.888   3.100   0.258 -0.3732 -0.0380  2.1222
 4778SOL    HW225797   3.749   3.049   0.272  1.1053  1.3596  2.3725
 4779SOL     OW25798   2.525   2.362   0.874 -0.5447  0.0767  0.4316
 4779SOL    HW125799   2.514   2.280   0.827  0.3954 -0.0826  0.4882
 4779SOL    HW225800   2.594   2.407   0.824  0.9887 -1.1757  1.4446
 4780SOL     OW25801   0.419   2.362   1.041  0.5161  0.2018 -0.1109
 4780SOL    HW125802   0.338   2.363   1.091  0.6504  1.0485  0.0923
 4780SOL    HW225803   0.472   2.296   1.085  0.4572 -0.3254 -0.8250
 4781SOL     OW25804   1.814   0.841   5.415 -0.1380  0.6093  0.1873
 4781SOL    HW125805   1.722   0.863   5.403 -1.1239 -2.9387  1.3664
 4781SOL    HW225806   1.798   0.790   5.494  0.8525  2.5834  1.6691
 4782SOL     OW25807   4.629   0.608   0.475  0.2041  0.4787 -0.7899
 4782SOL    HW125808   4.659   0.519   0.494 -3.9239 -0.6854  0.5083
 4782SOL    HW225809   4.692   0.630   0.408 -0.1883  1.2803 -0.8946
 4783SOL     OW25810   4.138   2.299   7.455 -0.3011  0.0876  0.3553
 4783SOL    HW125811   4.126   2.213   7.495 -1.1473 -0.4290 -1.0067
 4783SOL    HW225812   4.231   2.303   7.435 -0.2446 -1.6130  0.3451
 4784SOL     OW25813   3.557   3.784   3.514 -0.0360 -0.3503 -0.3419
 4784SOL    HW125814   3.574   3.692   3.535  0.6651  0.2920  1.9497
 4784SOL    HW225815   3.615   3.798   3.439 -0.1460  0.3798 -0.2929
 4785SOL     OW25816   4.530   0.396   2.262 -0.2010 -0.3404  0.1293
 4785SOL    HW125817   4.531   0.472   2.203 -0.8014 -0.4299  0.0038
 4785SOL    HW225818   4.617   0.361   2.248  0.2720  0.3440  1.3865
 4786SOL     OW25819   0.419   0.530   4.704 -0.6179  0.4409 -0.0160
 4786SOL    HW125820   0.455   0.450   4.742 -1.5551  0.0921  0.1537
 4786SOL    HW225821   0.376   0.486   4.631  0.9099  0.4960 -0.9328
 4787SOL     OW25822   4.080   0.656  14.779  0.3645 -0.0564 -0.2969
 4787SOL    HW125823   4.115   0.652  14.690  0.3110 -0.4746 -0.2996
 4787SOL    HW225824   4.159   0.676  14.828 -0.2408  0.2819  0.5332
 4788SOL     OW25825   2.983   1.565   7.209 -0.0182  0.0540 -0.2733
 4788SOL    HW125826   2.893   1.542   7.187  0.5285 -1.8114 -0.6015
 4788SOL    HW225827   2.994   1.633   7.142  2.4647 -1.3663 -1.3298
 4789SOL     OW25828   0.347   2.420  10.638  0.4286  0.3638  0.4043
 4789SOL    HW125829   0.439   2.419  10.614 -0.1368  1.4825 -1.8960
 4789SOL    HW225830   0.303   2.377  10.564  0.0826 -0.1789  0.9299
 4790SOL     OW25831   1.425   3.791   6.202 -0.3138 -0.4944  0.0454
 4790SOL    HW125832   1.399   3.833   6.120 -0.0238  1.2628  0.8667
 4790SOL    HW225833   1.430   3.861   6.267 -0.4745 -1.8164  1.4765
 4791SOL     OW25834   4.035   1.249   6.765 -0.0736 -0.7550 -0.2926
 4791SOL    HW125835   3.975   1.219   6.696 -0.5896 -0.0339 -0.1585
 4791SOL    HW225836   4.114   1.258   6.713  1.1026 -1.4653  1.3446
 4792SOL     OW25837   0.022   4.388   2.228  0.3525  0.8391 -0.0595
 4792SOL    HW125838   4.689   4.355   2.298 -1.9036  0.1877 -2.2241
 4792SOL    HW225839   4.698   4.465   2.198 -0.8394  0.6010  1.1993
 4793SOL     OW25840   1.784   2.716   1.943 -0.5777  0.4509 -0.0092
 4793SOL    HW125841   1.745   2.729   1.856 -0.5838 -2.2313 -0.4121
 4793SOL    HW225842   1.849   2.786   1.950  0.4227 -0.3987 -0.9416
 4794SOL     OW25843   3.899   1.710  17.036  0.2498  0.1459 -0.1625
 4794SOL    HW125844   3.873   1.618  17.027  1.5362 -0.4304  1.9993
 4794SOL    HW225845   3.819   1.746  17.075  0.9284  1.5845 -0.1006
 4795SOL     OW25846   2.923   4.553   4.901 -0.0451 -0.3698  0.3794
 4795SOL    HW125847   2.882   4.625   4.950 -1.7571 -0.4977 -0.8406
 4795SOL    HW225848   2.898   4.563   4.809  0.3998  2.7991  0.5830
 4796SOL     OW25849   1.945   1.547   7.222  0.2725  0.5685 -0.0580
 4796SOL    HW125850   1.856   1.512   7.233 -0.0546  1.0725 -1.0609
 4796SOL    HW225851   1.975   1.482   7.158  0.8722 -0.9299  1.7652
 4797SOL     OW25852   0.137   3.229   7.646  0.5734  0.2189 -0.0445
 4797SOL    HW125853   0.064   3.286   7.621 -1.1312 -0.7882  2.6549
 4797SOL    HW225854   0.211   3.290   7.649  1.6457 -1.0487 -0.5587
 4798SOL     OW25855   1.812   0.508   8.264 -0.2195  0.4273 -0.0816
 4798SOL    HW125856   1.808   0.539   8.173 -3.0233  3.9328  1.1952
 4798SOL    HW225857   1.777   0.421   8.249  1.0792 -0.0011 -0.6412
 4799SOL     OW25858   2.242   3.949   5.028  0.7437 -0.2492  0.4303
 4799SOL    HW125859   2.329   3.986   5.047  1.2096 -0.2530 -1.7294
 4799SOL    HW225860   2.222   3.903   5.110 -2.0411  0.3942  0.1162
 4800SOL     OW25861   1.451   1.306  10.715 -0.1914  0.2428 -0.3259
 4800SOL    HW125862   1.410   1.257  10.786  0.6045 -0.1363 -0.1286
 4800SOL    HW225863   1.442   1.243  10.643  0.9930  1.1188 -1.2332
 4801SOL     OW25864   0.982   0.191   6.108 -0.2482  0.2547  0.3050
 4801SOL    HW125865   1.064   0.148   6.083 -0.2211  0.2382  0.4214
 4801SOL    HW225866   0.973   0.260   6.043  1.8064 -1.8422 -2.2032
 4802SOL     OW25867   2.236   1.845   3.031  0.7033  0.3118 -0.1864
 4802SOL    HW125868   2.153   1.797   3.025 -0.4372  2.0932  1.5537
 4802SOL    HW225869   2.263   1.819   3.119 -2.3149 -1.3840  0.2515
 4803SOL     OW25870   3.330   1.823   6.800  0.4121 -0.3134  0.5300
 4803SOL    HW125871   3.308   1.909   6.764 -2.4635 -0.3386  2.1806
 4803SOL    HW225872   3.251   1.774   6.778  1.5383 -0.7095 -2.6240
 4804SOL     OW25873   2.925   2.103  11.189 -0.4143  0.1177 -0.3297
 4804SOL    HW125874   2.932   2.084  11.282 -1.8703 -1.1779 -0.4811
 4804SOL    HW225875   3.015   2.093  11.158 -1.3467 -1.7684 -2.4657
 4805SOL     OW25876   3.260   2.266   6.721  0.0049 -0.1215  0.2018
 4805SOL    HW125877   3.245   2.331   6.653 -2.7411  0.5793  1.4434
 4805SOL    HW225878   3.225   2.181   6.695  0.7716 -1.0548  2.2067
 4806SOL     OW25879   3.260   3.785  12.994 -0.4318 -0.5785 -0.5108
 4806SOL    HW125880   3.182   3.743  13.030 -1.8867  0.8886 -1.9635
 4806SOL    HW225881   3.322   3.757  13.061  0.0309  0.2940 -0.5701
 4807SOL     OW25882   0.603   0.938   6.160 -0.1738 -0.4385 -0.2494
 4807SOL    HW125883   0.674   0.998   6.181  1.7196 -2.6710 -0.2303
 4807SOL    HW225884   0.640   0.882   6.091  1.3243  0.6989 -0.3530
 4808SOL     OW25885   2.222   1.599   2.035  0.5262  0.3069 -0.0853
 4808SOL    HW125886   2.308   1.558   2.049 -0.9300 -2.9705 -0.7873
 4808SOL    HW225887   2.249   1.645   1.956  0.8007  1.4668  0.6857
 4809SOL     OW25888   0.513   1.407   1.738 -0.8703  0.0095 -0.4655
 4809SOL    HW125889   0.518   1.495   1.776  1.1199  0.6504 -2.2168
 4809SOL    HW225890   0.467   1.437   1.660 -0.7188  0.3302 -0.4325
 4810SOL     OW25891   3.861   1.806   0.047 -0.3015  0.4754  0.3724
 4810SOL    HW125892   3.836   1.726   0.094  0.5008  0.6223  1.0514
 4810SOL    HW225893   3.788   1.867   0.052 -0.2492  0.6152 -0.6653
 4811SOL     OW25894   3.551   0.737  17.188 -0.0515  0.6598  0.4955
 4811SOL    HW125895   3.481   0.711  17.128 -0.6950  0.0354  1.5250
 4811SOL    HW225896   3.634   0.694  17.165 -0.4904 -0.7003  1.5067
 4812SOL     OW25897   3.676   2.413   3.247  0.0527 -0.4535 -0.2303
 4812SOL    HW125898   3.689   2.506   3.230 -1.3233 -0.2547 -0.2280
 4812SOL    HW225899   3.699   2.407   3.339  0.6392 -0.6551 -0.3902
 4813SOL     OW25900   1.395   2.400   4.648 -0.0849  0.0550  0.2132
 4813SOL    HW125901   1.485   2.398   4.616  0.2317  0.7162  1.0683
 4813SOL    HW225902   1.361   2.458   4.580 -2.1218 -0.8168  0.4909
 4814SOL     OW25903   4.371   4.018  11.126 -0.2272 -0.0221  0.0437
 4814SOL    HW125904   4.405   4.020  11.036 -3.4364  1.1981 -1.1138
 4814SOL    HW225905   4.355   4.112  11.130  1.2127  0.2848 -1.1738
 4815SOL     OW25906   3.195   3.063  12.551  0.3607 -0.0205  0.7123
 4815SOL    HW125907   3.288   3.042  12.556  0.6785  1.3170  0.4149
 4815SOL    HW225908   3.197   3.150  12.511  1.8664 -0.0659  0.7118
 4816SOL     OW25909   1.473   1.489   6.421  0.4866 -0.5661 -0.3171
 4816SOL    HW125910   1.426   1.440   6.355  1.5251 -1.8854 -0.0730
 4816SOL    HW225911   1.419   1.566   6.438 -0.3660 -1.0366 -0.9181
 4817SOL     OW25912   1.698   2.869  16.330  0.1376 -0.3835 -0.2021
 4817SOL    HW125913   1.625   2.831  16.379  1.8809 -0.1450  2.5531
 4817SOL    HW225914   1.654   2.948  16.298  1.2108 -0.8931 -2.9077
 4818SOL     OW25915   3.434   4.337   3.550 -0.1220 -0.0634  0.5221
 4818SOL    HW125916   3.431   4.248   3.584 -0.3338 -0.2312  0.0612
 4818SOL    HW225917   3.499   4.373   3.611 -1.0794 -0.4431  1.7772
 4819SOL     OW25918   1.262   2.209   5.524 -0.6431 -0.1364 -0.6501
 4819SOL    HW125919   1.277   2.301   5.499  0.2436  0.2125  1.1519
 4819SOL    HW225920   1.324   2.193   5.596  0.5147 -0.8268 -1.8135
 4820SOL     OW25921   2.535   4.154   0.863 -0.0368  0.4417 -0.0545
 4820SOL    HW125922   2.581   4.208   0.927 -1.1027  2.1359 -0.6975
 4820SOL    HW225923   2.459   4.210   0.846  1.3844  2.0580 -1.0929
 4821SOL     OW25924   2.095   4.645   3.353 -0.1539  0.3794 -0.1289
 4821SOL    HW125925   2.030   4.689   3.296 -0.3535 -0.1396 -0.3027
 4821SOL    HW225926   2.034   4.622   3.422 -0.2157  0.2665 -0.2208
 4822SOL     OW25927   3.848   3.047   2.433 -0.4195  0.5038  0.0468
 4822SOL    HW125928   3.855   3.019   2.342 -0.8624  0.4495  0.0303
 4822SOL    HW225929   3.794   3.126   2.428 -0.1968  0.4783 -2.8119
 4823SOL     OW25930   0.628   1.503   2.311  0.1183 -0.2627 -0.2255
 4823SOL    HW125931   0.690   1.540   2.247 -0.4608 -1.1382 -1.2719
 4823SOL    HW225932   0.556   1.477   2.254  0.1470 -1.7775  0.4286
 4824SOL     OW25933   4.328   3.774   3.534  0.2698 -0.4161 -0.7850
 4824SOL    HW125934   4.366   3.840   3.475 -0.0265  0.2933 -0.1921
 4824SOL    HW225935   4.280   3.716   3.476  0.5055  0.1529 -1.5460
 4825SOL     OW25936   1.918   2.511  11.423  0.3184 -0.3455 -0.1524
 4825SOL    HW125937   2.000   2.469  11.451  0.2321 -0.2276  0.2817
 4825SOL    HW225938   1.888   2.535  11.511 -1.9673 -0.8722 -0.8075
 4826SOL     OW25939   3.693   0.895   4.679 -0.1420 -0.3196 -0.6402
 4826SOL    HW125940   3.768   0.954   4.685 -0.3368 -0.1505  0.1063
 4826SOL    HW225941   3.736   0.824   4.727 -1.3704 -1.7581 -1.6647
 4827SOL     OW25942   1.150   1.353   7.613 -0.3401 -0.5658 -0.1483
 4827SOL    HW125943   1.208   1.429   7.621  0.7534 -1.3757 -0.3958
 4827SOL    HW225944   1.128   1.351   7.520  0.7706  0.3518 -0.4361
 4828SOL     OW25945   4.061   0.172  17.282 -0.4469  0.7733 -1.0608
 4828SOL    HW125946   4.107   0.254  17.298  0.0436  0.5323 -1.2303
 4828SOL    HW225947   3.972   0.207  17.271 -0.9352 -0.4062 -0.8301
 4829SOL     OW25948   4.626   2.427   8.309  0.5214 -0.3140 -0.2841
 4829SOL    HW125949   4.571   2.387   8.376 -1.4524  1.7719 -0.6492
 4829SOL    HW225950   4.586   2.514   8.307 -1.8514 -1.3790  0.7301
 4830SOL     OW25951   3.774   3.355   5.016 -0.9880 -0.3373 -0.1202
 4830SOL    HW125952   3.815   3.277   4.978 -0.6091  0.3249 -1.0625
 4830SOL    HW225953   3.821   3.364   5.099 -0.0251  3.9199 -1.1537
 4831SOL     OW25954   2.495   4.628  15.869 -0.6542  0.1997  0.5246
 4831SOL    HW125955   2.440   4.555  15.900  0.7300 -1.4548 -0.9113
 4831SOL    HW225956   2.541   4.593  15.793  0.7623  1.2070  0.9335
 4832SOL     OW25957   2.477   1.994   5.561  0.2398  0.0721  0.2933
 4832SOL    HW125958   2.508   2.004   5.471 -2.9993 -0.7618 -0.9267
 4832SOL    HW225959   2.539   1.937   5.607 -0.5229 -0.8483  0.1764
 4833SOL     OW25960   2.494   4.115   0.333  0.0630  0.2195  0.3009
 4833SOL    HW125961   2.531   4.037   0.374  0.5248 -0.0619 -0.6454
 4833SOL    HW225962   2.402   4.092   0.343  0.0467  0.3492  0.4481
 4834SOL     OW25963   4.483   3.839   4.254 -0.1519 -0.4532 -0.2734
 4834SOL    HW125964   4.420   3.870   4.189  0.9403  0.6542 -0.7821
 4834SOL    HW225965   4.544   3.790   4.200 -0.2429  0.8805 -1.5607
 4835SOL     OW25966   1.695   4.422  12.787  0.0547  0.4670 -0.0213
 4835SOL    HW125967   1.714   4.350  12.847  1.0032  1.2036  0.5856
 4835SOL    HW225968   1.769   4.483  12.798  0.2828 -0.1358  1.7892
 4836SOL     OW25969   3.970   1.049  12.351 -0.2833 -0.5689  0.6913
 4836SOL    HW125970   3.887   1.086  12.381  0.5621  1.5124  0.5059
 4836SOL    HW225971   4.013   1.093  12.424  1.2885 -0.7664 -0.1187
 4837SOL     OW25972   3.442   4.128   6.211 -0.4008  0.3570 -0.1113
 4837SOL    HW125973   3.463   4.190   6.141 -0.5323 -0.2768 -0.7171
 4837SOL    HW225974   3.415   4.193   6.275 -1.0868 -0.4183  0.3784
 4838SOL     OW25975   0.790   1.613   2.100  0.3266  0.2202 -0.2576
 4838SOL    HW125976   0.727   1.670   2.056  0.9936  0.9345 -0.2846
 4838SOL    HW225977   0.805   1.545   2.034 -1.1836 -1.8354  1.5108
 4839SOL     OW25978   0.434   4.351   6.981  0.0487  0.0264  0.2100
 4839SOL    HW125979   0.464   4.261   6.991 -0.3619 -0.2475 -1.0054
 4839SOL    HW225980   0.359   4.352   7.041 -1.3139 -0.4042 -1.4981
 4840SOL     OW25981   0.828   1.110   5.771 -0.0435  0.4779 -0.4861
 4840SOL    HW125982   0.815   1.195   5.729 -1.6603 -0.8557 -2.6706
 4840SOL    HW225983   0.737   1.081   5.772 -0.8958  3.1656  1.4546
 4841SOL     OW25984   2.350   0.776   7.951  0.0188  0.8346 -0.2210
 4841SOL    HW125985   2.402   0.845   7.993  0.3702 -0.5619  1.6607
 4841SOL    HW225986   2.257   0.791   7.967 -0.3005 -0.6650 -0.7206
 4842SOL     OW25987   4.089   2.625  10.225 -0.2208  0.0851 -0.0783
 4842SOL    HW125988   4.134   2.571  10.159 -0.5675 -1.5452  1.0345
 4842SOL    HW225989   4.155   2.691  10.248 -2.2139  2.1613 -0.3331
 4843SOL     OW25990   0.501   4.184   0.501 -0.4690 -0.0844  0.3836
 4843SOL    HW125991   0.408   4.190   0.525 -0.5294  1.4971 -0.2686
 4843SOL    HW225992   0.490   4.147   0.413 -0.1899 -2.2246  1.2345
 4844SOL     OW25993   3.233   3.074   4.705 -0.4076  0.2090 -0.6065
 4844SOL    HW125994   3.186   2.991   4.695  0.0513 -0.1187 -0.0563
 4844SOL    HW225995   3.326   3.055   4.691  0.3193  0.7180  3.4737
 4845SOL     OW25996   0.769   2.569   4.197  0.0671 -0.4073 -0.2518
 4845SOL    HW125997   0.682   2.575   4.159  0.0600  0.0057 -0.1630
 4845SOL    HW225998   0.780   2.651   4.245  1.3594  0.5949 -2.2200
 4846SOL     OW25999   0.912   0.410   3.967 -0.2823 -0.4443  0.1655
 4846SOL    HW126000   0.824   0.406   3.927  0.2644  2.3088 -1.3728
 4846SOL    HW226001   0.899   0.404   4.061 -0.2086 -1.0381  0.1372
 4847SOL     OW26002   2.421   1.100   2.865 -0.0041 -0.3231  0.3374
 4847SOL    HW126003   2.385   1.084   2.778 -1.8691 -2.2388  1.4733
 4847SOL    HW226004   2.376   1.037   2.921  1.1305 -1.4079  0.0309
 4848SOL     OW26005   1.774   4.295   2.860  0.1004 -0.4248 -0.0359
 4848SOL    HW126006   1.862   4.328   2.841 -0.2300  1.4806  1.6864
 4848SOL    HW226007   1.723   4.340   2.792 -0.6018  0.0154  0.7756
 4849SOL     OW26008   2.729   4.239   1.327  0.8337 -0.2094  0.2698
 4849SOL    HW126009   2.680   4.232   1.408  0.0243  1.6948 -0.0502
 4849SOL    HW226010   2.820   4.233   1.356  0.1300  0.2022  2.5524
 4850SOL     OW26011   1.738   2.136  17.106 -1.1699  0.5731 -0.0896
 4850SOL    HW126012   1.732   2.041  17.115 -0.6175  0.5367 -0.0981
 4850SOL    HW226013   1.833   2.144  17.093 -0.9565 -0.4246  0.8063
 4851SOL     OW26014   2.822   3.645  16.985 -0.1394  0.1568  0.2333
 4851SOL    HW126015   2.755   3.711  16.968  2.8222  2.8659 -1.1864
 4851SOL    HW226016   2.816   3.641  17.080  1.7127  0.7056  0.3885
 4852SOL     OW26017   4.699   3.161   3.625  0.4016 -0.3320  0.1035
 4852SOL    HW126018   4.628   3.156   3.689 -0.3785  0.1464 -0.7128
 4852SOL    HW226019   4.663   3.088   3.574 -0.5511  0.3216 -0.1701
 4853SOL     OW26020   1.925   1.199  13.584  0.2813  0.4466 -0.2979
 4853SOL    HW126021   1.986   1.269  13.608  0.3077 -0.3361  1.9939
 4853SOL    HW226022   1.948   1.178  13.494  1.4519  1.5841 -0.2665
 4854SOL     OW26023   3.720   1.344  12.916 -0.1583 -0.1863 -0.1804
 4854SOL    HW126024   3.766   1.412  12.966  0.1844  1.1027 -2.2339
 4854SOL    HW226025   3.669   1.296  12.981 -1.7116  0.5879 -0.8280
 4855SOL     OW26026   2.489   1.452   0.520 -0.4099 -0.5736 -0.4633
 4855SOL    HW126027   2.545   1.415   0.588 -1.6179 -2.1934 -0.3610
 4855SOL    HW226028   2.436   1.376   0.497  0.3712 -0.9279 -1.1002
 4856SOL     OW26029   4.601   1.988  13.174 -0.1165  0.2594  0.0260
 4856SOL    HW126030   4.608   2.061  13.112  0.8913  2.4703  2.6881
 4856SOL    HW226031   4.508   1.991  13.194  0.4274  1.1155  2.4273
 4857SOL     OW26032   0.831   2.200   1.810 -0.0370 -0.8147  0.9184
 4857SOL    HW126033   0.787   2.275   1.770  2.5451 -0.8564 -1.9552
 4857SOL    HW226034   0.892   2.245   1.868  1.2062 -0.4842 -0.6320
 4858SOL     OW26035   3.460   0.182   2.380 -0.0286 -0.1531  0.2167
 4858SOL    HW126036   3.453   0.170   2.286 -2.1141 -0.8455  0.4636
 4858SOL    HW226037   3.555   0.172   2.390 -0.1775 -1.2516  0.5490
 4859SOL     OW26038   1.858   0.785   0.597 -0.5035 -0.1434  0.0337
 4859SOL    HW126039   1.889   0.716   0.539  1.0775 -0.6099  1.4357
 4859SOL    HW226040   1.881   0.863   0.547  1.0371 -0.8216 -0.3090
 4860SOL     OW26041   4.418   0.210   4.869  0.3087  0.0928  0.0179
 4860SOL    HW126042   4.462   0.136   4.826 -1.1183 -0.1768 -0.9952
 4860SOL    HW226043   4.331   0.172   4.884  0.1236 -0.1712 -1.7207
 4861SOL     OW26044   1.387   0.519   4.315 -0.1312  0.0725 -0.2296
 4861SOL    HW126045   1.396   0.511   4.410  3.8266 -0.6686 -0.6693
 4861SOL    HW226046   1.416   0.607   4.287 -0.3923  0.7185  1.5599
 4862SOL     OW26047   0.603   4.677   6.941 -0.5422  0.2014 -0.2167
 4862SOL    HW126048   0.608   4.708   6.851  0.4579  0.0591 -0.2119
 4862SOL    HW226049   0.660   0.019   6.980 -1.4399  0.1493  1.1858
 4863SOL     OW26050   0.834   1.997   6.840  0.1764 -0.0590 -0.4317
 4863SOL    HW126051   0.778   1.920   6.847  0.3794 -0.2466 -0.8444
 4863SOL    HW226052   0.903   1.964   6.898  0.1662  1.5035  0.4696
 4864SOL     OW26053   3.609   1.283  15.622  0.6310 -0.3071  0.4235
 4864SOL    HW126054   3.530   1.330  15.649  0.3023 -0.6107 -0.0034
 4864SOL    HW226055   3.617   1.304  15.529  0.8627  0.6765  0.6608
 4865SOL     OW26056   2.449   1.102   9.710  0.0039  0.1083 -0.0379
 4865SOL    HW126057   2.418   1.123   9.623 -1.5455 -0.3559  0.4024
 4865SOL    HW226058   2.542   1.082   9.700 -0.0934 -0.0848 -0.5547
 4866SOL     OW26059   2.164   2.674   1.589 -0.2235  0.4953  0.0560
 4866SOL    HW126060   2.241   2.703   1.538 -0.5530 -1.0824 -1.3406
 4866SOL    HW226061   2.110   2.753   1.598 -0.0923  0.4726  0.9866
 4867SOL     OW26062   2.774   1.638   8.622  0.0346  0.7865 -0.2741
 4867SOL    HW126063   2.797   1.729   8.606 -1.7827  1.2771 -0.1970
 4867SOL    HW226064   2.711   1.640   8.695  3.3496 -1.3453  2.6513
 4868SOL     OW26065   3.358   0.026   5.227 -0.4120 -0.4522  0.3926
 4868SOL    HW126066   3.375   4.679   5.289 -0.0981  0.2349  1.1012
 4868SOL    HW226067   3.403   0.099   5.268 -0.3076  0.1362 -0.7688
 4869SOL     OW26068   4.423   3.822   2.577  0.2285  0.1193  0.5482
 4869SOL    HW126069   4.508   3.780   2.588 -0.3922 -1.2945  0.0516
 4869SOL    HW226070   4.428   3.916   2.561  0.0733 -0.1338 -0.9477
 4870SOL     OW26071   2.863   3.284  11.728  0.2749  0.1847  0.4094
 4870SOL    HW126072   2.858   3.361  11.670 -2.7883  0.5141  1.1306
 4870SOL    HW226073   2.802   3.219  11.693  0.7954 -1.6217  2.9115
 4871SOL     OW26074   0.140   1.583   1.662 -0.2553 -0.2452  0.6189
 4871SOL    HW126075   0.046   1.569   1.646  0.0684 -1.2591 -0.4182
 4871SOL    HW226076   0.162   1.513   1.723  2.9330 -0.8577 -1.2687
 4872SOL     OW26077   0.724   3.639  14.907  0.1870  0.1728 -0.4173
 4872SOL    HW126078   0.674   3.699  14.963  0.9748 -0.6718  1.1891
 4872SOL    HW226079   0.794   3.700  14.885 -1.1453  0.8714 -2.6902
 4873SOL     OW26080   4.710   2.991   3.198  0.4538  0.3049 -0.5439
 4873SOL    HW126081   4.620   2.993   3.230  0.7139  3.4040 -0.0569
 4873SOL    HW226082   4.712   3.083   3.173 -1.2304  0.9658  1.8172
 4874SOL     OW26083   2.193   2.307   6.990 -0.9319  0.3975  0.3737
 4874SOL    HW126084   2.188   2.371   7.062  0.6859  0.5306  0.3745
 4874SOL    HW226085   2.143   2.346   6.919 -2.0277 -1.0926  0.3297
 4875SOL     OW26086   1.609   3.215   1.839  0.5644 -0.0856  0.0985
 4875SOL    HW126087   1.665   3.158   1.787 -0.9432 -0.1690 -1.4547
 4875SOL    HW226088   1.552   3.156   1.888  0.6980  0.8655  1.3934
 4876SOL     OW26089   0.735   4.578   2.792  0.1303  0.1855  0.1516
 4876SOL    HW126090   0.738   4.656   2.848  0.4818 -0.4843  1.0625
 4876SOL    HW226091   0.804   4.601   2.730  0.2011 -1.8288 -0.4934
 4877SOL     OW26092   1.490   0.722   5.362 -0.3999  0.1002 -0.8629
 4877SOL    HW126093   1.550   0.663   5.316  0.6039 -1.0299  1.9107
 4877SOL    HW226094   1.485   0.688   5.451 -2.2384 -0.8264 -1.3143
 4878SOL     OW26095   4.610   0.167   4.475  0.0057 -0.0614  0.2038
 4878SOL    HW126096   4.527   0.180   4.521 -0.8588 -0.8348 -1.1347
 4878SOL    HW226097   4.652   0.247   4.507 -1.0156  1.2368 -1.7189
 4879SOL     OW26098   3.659   4.643  10.432 -0.1346 -0.2585  0.5568
 4879SOL    HW126099   3.727   4.638  10.499 -0.7172  0.1323  1.1826
 4879SOL    HW226100   3.594   4.603  10.490 -1.7608  2.2634  0.4827
 4880SOL     OW26101   3.452   1.587   2.364 -0.2346 -0.4105  0.1316
 4880SOL    HW126102   3.370   1.633   2.381  0.1304  1.3389 -2.7413
 4880SOL    HW226103   3.519   1.649   2.391  0.1369 -0.5828 -0.3869
 4881SOL     OW26104   1.577   2.334  16.692  0.1877  0.3413  0.5047
 4881SOL    HW126105   1.649   2.289  16.736 -0.5531 -0.2882  1.0593
 4881SOL    HW226106   1.598   2.425  16.711 -0.8227  0.6362  0.2334
 4882SOL     OW26107   4.052   3.096  11.291 -0.1056 -0.3598  0.0801
 4882SOL    HW126108   3.991   3.059  11.354  0.2110 -0.7116  0.1749
 4882SOL    HW226109   3.997   3.169  11.261 -1.5774 -0.5427  2.3365
 4883SOL     OW26110   1.688   2.728  13.115 -0.0269 -0.9537  0.4085
 4883SOL    HW126111   1.594   2.710  13.118 -0.9892  4.0153  0.8044
 4883SOL    HW226112   1.690   2.778  13.034  0.5147 -0.6381  0.6183
 4884SOL     OW26113   2.557   3.502   4.893 -0.2584 -0.1696 -0.5083
 4884SOL    HW126114   2.607   3.474   4.816  0.1084 -0.5227 -0.1387
 4884SOL    HW226115   2.467   3.472   4.880 -1.2523  2.5643  0.1343
 4885SOL     OW26116   2.352   2.257   4.824  0.4521 -0.3274  0.3208
 4885SOL    HW126117   2.276   2.253   4.883 -0.7801 -1.1259 -1.3029
 4885SOL    HW226118   2.308   2.209   4.753  1.6821  1.6645 -1.7916
 4886SOL     OW26119   3.954   0.704   0.915  0.1961 -0.0583 -0.0267
 4886SOL    HW126120   3.878   0.752   0.882 -0.1792 -1.0608 -0.6212
 4886SOL    HW226121   4.023   0.738   0.859 -0.2743 -1.7908 -1.6590
 4887SOL     OW26122   0.454   0.888   8.089 -0.2427 -0.0581  0.4668
 4887SOL    HW126123   0.423   0.798   8.088 -2.0908  0.5690 -0.7950
 4887SOL    HW226124   0.475   0.900   8.181  2.3262 -1.0610  0.0144
 4888SOL     OW26125   2.465   1.500   6.529  0.4184  0.1341  0.4556
 4888SOL    HW126126   2.452   1.595   6.532 -1.9886 -0.1383 -1.1620
 4888SOL    HW226127   2.503   1.477   6.444  1.1808 -0.8255  1.0660
 4889SOL     OW26128   0.523   0.819   2.556 -0.1039 -0.3495 -0.1769
 4889SOL    HW126129   0.602   0.871   2.540  1.4199 -2.0931  1.8408
 4889SOL    HW226130   0.470   0.880   2.608  2.9359  2.6550 -0.5958
 4890SOL     OW26131   2.408   1.532   9.178  0.0358 -0.1447 -0.0526
 4890SOL    HW126132   2.433   1.527   9.270  3.9411 -0.9007 -1.1533
 4890SOL    HW226133   2.378   1.623   9.175  0.4032 -0.0489 -1.2129
 4891SOL     OW26134   2.244   1.348   4.215  0.3438  0.3652  0.2368
 4891SOL    HW126135   2.208   1.413   4.155 -0.5703 -1.1667 -0.8840
 4891SOL    HW226136   2.317   1.312   4.164  1.2720  0.5141  1.4492
 4892SOL     OW26137   0.573   4.484   3.538  0.4381 -0.0980 -0.7187
 4892SOL    HW126138   0.514   4.549   3.500 -1.5919 -0.1558  2.3724
 4892SOL    HW226139   0.518   4.441   3.603  1.7738 -2.1883 -0.9349
 4893SOL     OW26140   4.441   1.133   5.744  0.1576  0.2237 -0.1334
 4893SOL    HW126141   4.530   1.151   5.773 -0.4335 -1.1872  2.6306
 4893SOL    HW226142   4.406   1.212   5.785  0.1525  0.7778 -1.2048
 4894SOL     OW26143   0.255   1.677   7.176 -0.9674 -0.1498 -0.5502
 4894SOL    HW126144   0.216   1.759   7.147 -1.2726 -0.3816 -0.7928
 4894SOL    HW226145   0.186   1.610   7.170 -0.4591 -0.6501 -0.8778
 4895SOL     OW26146   4.008   2.334   2.291  0.4015 -0.3013  0.0014
 4895SOL    HW126147   3.924   2.374   2.316  0.3932 -0.6136  0.4650
 4895SOL    HW226148   4.072   2.396   2.327 -1.2835  1.3019  0.2489
 4896SOL     OW26149   1.212   0.567   7.118 -0.4801  0.0462  0.6764
 4896SOL    HW126150   1.241   0.600   7.033  0.7880 -1.1653  0.6459
 4896SOL    HW226151   1.117   0.562   7.102 -0.5502  3.5776  0.0261
 4897SOL     OW26152   4.355   0.785   2.525 -0.7871 -0.2150  0.2903
 4897SOL    HW126153   4.399   0.833   2.455 -2.0595 -1.1372 -1.1400
 4897SOL    HW226154   4.298   0.733   2.469  0.6958 -1.9872  0.4174
 4898SOL     OW26155   0.917   4.299   7.510 -0.3022  0.2465 -0.0168
 4898SOL    HW126156   0.865   4.379   7.500  0.8552  1.1160  1.0273
 4898SOL    HW226157   0.879   4.244   7.441 -0.1277 -0.0393  0.1162
 4899SOL     OW26158   4.444   3.177  11.302  0.0401 -0.4594 -0.2568
 4899SOL    HW126159   4.391   3.119  11.248 -1.0352 -0.4273  0.7590
 4899SOL    HW226160   4.463   3.128  11.382 -1.9760  2.2823  1.9082
 4900SOL     OW26161   1.544   2.705   3.890 -0.0721 -0.0511  0.0782
 4900SOL    HW126162   1.521   2.619   3.924 -2.4886 -0.4576 -2.5401
 4900SOL    HW226163   1.610   2.684   3.824  0.7549  1.5247  0.3879
 4901SOL     OW26164   1.910   2.704   9.182 -0.8542 -0.3735 -0.2123
 4901SOL    HW126165   1.839   2.729   9.241 -0.8560 -2.0367  0.5039
 4901SOL    HW226166   1.856   2.699   9.103  0.6889 -2.5752 -1.1194
 4902SOL     OW26167   1.145   2.348   6.623  0.2858 -0.4339 -0.4083
 4902SOL    HW126168   1.115   2.263   6.593 -1.1420  0.4254 -1.4084
 4902SOL    HW226169   1.059   2.377   6.653 -0.4697  0.2803 -3.2629
 4903SOL     OW26170   3.237   1.979   0.988 -0.1948 -0.0863  0.1436
 4903SOL    HW126171   3.171   1.959   1.054 -0.9597  1.8024 -0.0438
 4903SOL    HW226172   3.315   2.004   1.037  1.0289 -0.2316 -1.7232
 4904SOL     OW26173   4.272   2.392   5.006  0.2800  0.2550 -0.1084
 4904SOL    HW126174   4.289   2.310   4.959 -0.5409  1.0889 -1.8486
 4904SOL    HW226175   4.362   2.420   5.023  0.3009 -0.7642  1.4780
 4905SOL     OW26176   2.790   1.523  12.536 -0.0315  0.0070 -0.2012
 4905SOL    HW126177   2.761   1.437  12.566  0.5004 -0.1919 -0.2501
 4905SOL    HW226178   2.885   1.517  12.547 -0.1895 -1.5570  0.3940
 4906SOL     OW26179   1.567   3.628   6.897 -0.0962  0.1619 -0.0615
 4906SOL    HW126180   1.562   3.721   6.918  1.8970  0.0468  0.9707
 4906SOL    HW226181   1.660   3.642   6.880  0.1602 -0.6135  0.6794
 4907SOL     OW26182   4.266   4.528   8.594 -0.0489 -0.5293  0.5580
 4907SOL    HW126183   4.310   4.557   8.515 -0.1305  0.7825  1.0045
 4907SOL    HW226184   4.289   4.435   8.585 -0.9835 -0.9131  2.0124
 4908SOL     OW26185   0.993   2.428   5.243  0.4146  0.4788  0.4524
 4908SOL    HW126186   0.944   2.359   5.198  0.1910  0.4936  0.6755
 4908SOL    HW226187   1.073   2.422   5.191  0.4870  2.1800  0.3462
 4909SOL     OW26188   3.868   2.741   1.424  0.2126  0.5724 -0.4370
 4909SOL    HW126189   3.834   2.828   1.403 -2.1430 -0.8668 -2.6531
 4909SOL    HW226190   3.852   2.733   1.518  0.0732 -0.6947 -0.5646
 4910SOL     OW26191   0.745   2.331   5.974 -0.8458 -1.1915 -0.0885
 4910SOL    HW126192   0.829   2.347   6.017 -1.0744  2.3433 -0.9476
 4910SOL    HW226193   0.733   2.402   5.910  2.2934 -1.9261 -1.4926
 4911SOL     OW26194   0.406   0.119   8.131  0.5092 -0.2681 -0.1313
 4911SOL    HW126195   0.319   0.088   8.152  0.1298  0.3708 -0.7530
 4911SOL    HW226196   0.428   0.156   8.217 -1.7943  0.1867  0.2582
 4912SOL     OW26197   3.373   4.720   2.545 -0.0579 -0.3109  0.6822
 4912SOL    HW126198   3.416   0.037   2.620  2.7647 -1.0855 -0.5364
 4912SOL    HW226199   3.399   0.059   2.478  1.0271  1.3557  2.6709
 4913SOL     OW26200   2.200   1.911   2.768  0.1095  0.0481 -0.7161
 4913SOL    HW126201   2.105   1.914   2.780  0.1616 -0.2610 -0.2213
 4913SOL    HW226202   2.226   1.927   2.859 -1.9535 -2.0823  0.2312
 4914SOL     OW26203   4.222   0.132   7.188  0.1019  0.0216  0.7441
 4914SOL    HW126204   4.192   0.222   7.192  0.7521  0.2489  0.4169
 4914SOL    HW226205   4.189   0.101   7.103  0.4621  0.6937  0.3625
 4915SOL     OW26206   4.059   4.202   3.387 -0.1247 -0.6521 -0.0674
 4915SOL    HW126207   4.096   4.158   3.311  2.7987  1.4412  0.1532
 4915SOL    HW226208   4.124   4.271   3.400 -0.9954  0.7159 -2.9078
 4916SOL     OW26209   2.669   1.821   3.125 -0.0808  0.6220 -0.5995
 4916SOL    HW126210   2.760   1.849   3.124  0.4562 -1.1650 -1.0174
 4916SOL    HW226211   2.633   1.905   3.155  2.0664  1.8534 -1.4983
 4917SOL     OW26212   1.422   2.999   8.730 -0.1337  0.0515  0.3824
 4917SOL    HW126213   1.499   2.951   8.699 -1.2915 -0.8961 -1.0111
 4917SOL    HW226214   1.391   2.929   8.787  1.8611  0.7687  2.3926
 4918SOL     OW26215   0.380   0.354  11.817  0.0732  0.0623  0.2337
 4918SOL    HW126216   0.453   0.339  11.757 -1.2259 -0.6875 -1.1433
 4918SOL    HW226217   0.415   0.416  11.881  1.5949 -0.5722  0.0267
 4919SOL     OW26218   4.329   2.113   7.388  0.4377  0.5497  0.6686
 4919SOL    HW126219   4.317   2.018   7.382  0.2606  0.6078  0.1492
 4919SOL    HW226220   4.291   2.150   7.308  0.3086  0.9611  0.9206
 4920SOL     OW26221   3.187   2.294   2.434  0.1165 -0.8746 -0.1663
 4920SOL    HW126222   3.144   2.323   2.354  0.5663 -2.2922 -0.9311
 4920SOL    HW226223   3.266   2.251   2.400 -0.0998 -0.9196 -0.6161
 4921SOL     OW26224   0.481   0.406   7.075 -0.5668  0.6354 -0.3387
 4921SOL    HW126225   0.506   0.480   7.130  0.5197 -1.5200  2.0315
 4921SOL    HW226226   0.425   0.351   7.130  1.4932 -0.8891  0.2169
 4922SOL     OW26227   2.749   1.108  14.866 -0.5700  0.0504 -0.1112
 4922SOL    HW126228   2.780   1.018  14.856  0.8399  0.6643 -1.2723
 4922SOL    HW226229   2.827   1.147  14.827  1.1742 -0.5766  2.7589
 4923SOL     OW26230   0.079   3.549   2.865 -0.2955  0.5355 -0.1072
 4923SOL    HW126231   0.162   3.507   2.841 -0.6961 -0.8413  0.9314
 4923SOL    HW226232   0.026   3.544   2.785  0.5713 -1.8427 -0.5519
 4924SOL     OW26233   2.134   4.199   2.409  0.9839 -0.3549  0.3387
 4924SOL    HW126234   2.206   4.227   2.467  1.5900 -1.2335  0.0151
 4924SOL    HW226235   2.146   4.106   2.390 -0.7676 -0.4661 -0.1767
 4925SOL     OW26236   4.594   0.918   1.840  0.1929  0.7248 -0.1108
 4925SOL    HW126237   4.499   0.919   1.828 -0.1228 -1.1354  2.3906
 4925SOL    HW226238   4.606   1.004   1.881 -2.0065  0.6090  0.7786
 4926SOL     OW26239   0.723   3.613   8.644 -0.7839  0.6489  0.1411
 4926SOL    HW126240   0.710   3.708   8.636  2.6349  1.0683 -0.4013
 4926SOL    HW226241   0.723   3.579   8.554  1.1086  0.4741  0.2081
 4927SOL     OW26242   3.421   2.539   0.974 -0.1211 -0.6150 -0.0583
 4927SOL    HW126243   3.485   2.472   0.948  0.4401  0.2740 -0.9444
 4927SOL    HW226244   3.429   2.597   0.899 -1.7623 -1.5060 -0.9240
 4928SOL     OW26245   1.257   1.135   6.874  0.1907  0.3429  0.0232
 4928SOL    HW126246   1.185   1.195   6.891  0.1517  0.2995  0.0130
 4928SOL    HW226247   1.318   1.151   6.947  0.3415 -0.7768  0.1503
 4929SOL     OW26248   1.188   2.456  17.240  0.4730  0.1710  0.0296
 4929SOL    HW126249   1.191   2.365  17.210  1.3640  0.4679 -0.7614
 4929SOL    HW226250   1.122   2.458  17.309 -0.9578  2.8610 -1.4051
 4930SOL     OW26251   2.293   0.757  11.182  0.6773 -0.1259  0.5075
 4930SOL    HW126252   2.214   0.752  11.236  0.0495  0.5243 -0.3476
 4930SOL    HW226253   2.281   0.676  11.132  0.9478  1.1155 -1.6051
 4931SOL     OW26254   1.782   4.358   5.697 -0.1917  0.4556  0.1662
 4931SOL    HW126255   1.860   4.408   5.719  0.1826 -1.2347  2.6693
 4931SOL    HW226256   1.814   4.275   5.732 -2.1550  0.9865  3.2687
 4932SOL     OW26257   3.124   0.100  10.329  0.5347  0.1815 -0.3368
 4932SOL    HW126258   3.161   0.165  10.269  0.8021  0.0353 -0.3253
 4932SOL    HW226259   3.093   0.156  10.400 -0.1132 -0.6867  0.0658
 4933SOL     OW26260   1.115   1.987  17.339 -0.0337 -0.1784  0.1225
 4933SOL    HW126261   1.197   1.938  17.340  0.8074  1.2516  1.2260
 4933SOL    HW226262   1.056   1.920  17.303  0.7787 -1.6656  1.5546
 4934SOL     OW26263   0.598   0.835  12.155 -0.3275 -0.5521  0.1197
 4934SOL    HW126264   0.692   0.849  12.144 -0.4940  1.3732  1.0431
 4934SOL    HW226265   0.583   0.771  12.086 -3.8651 -0.1808  0.5242
 4935SOL     OW26266   1.983   0.314   8.694 -0.4151 -0.0051 -0.2188
 4935SOL    HW126267   1.949   0.252   8.758 -2.0285  1.0777 -0.0444
 4935SOL    HW226268   1.906   0.325   8.638 -1.8011 -1.7986  1.3568
 4936SOL     OW26269   2.958   1.392  17.042  0.8437  0.0217 -0.1768
 4936SOL    HW126270   3.015   1.467  17.061  1.8458 -0.6246 -0.6965
 4936SOL    HW226271   2.946   1.346  17.125 -0.3903  1.3180  0.3814
 4937SOL     OW26272   2.499   3.171  16.408 -0.2721  0.5526 -0.5454
 4937SOL    HW126273   2.548   3.138  16.332 -1.3552 -0.9984 -0.5787
 4937SOL    HW226274   2.506   3.092  16.461  0.7098  1.2736  0.3927
 4938SOL     OW26275   2.475   0.434   4.726  0.2117 -0.2347  0.0665
 4938SOL    HW126276   2.425   0.406   4.650  0.3079  0.4720 -0.2554
 4938SOL    HW226277   2.438   0.519   4.746  0.8392 -0.0095  0.2638
 4939SOL     OW26278   4.598   1.107  16.506  0.4363 -0.7976 -0.4888
 4939SOL    HW126279   4.627   1.195  16.482  1.5431 -0.5118  1.8428
 4939SOL    HW226280   4.533   1.091  16.438  0.9279  2.0174 -1.6435
 4940SOL     OW26281   0.141   4.635   5.911  0.7430 -0.3681 -0.2235
 4940SOL    HW126282   0.169   4.673   5.994  0.4198 -0.3211 -0.1326
 4940SOL    HW226283   0.052   4.604   5.930  1.0371  0.8313  3.2129
 4941SOL     OW26284   4.352   1.148   9.279  0.1491  0.1382 -0.0890
 4941SOL    HW126285   4.375   1.064   9.240  1.0222  0.6293 -0.6078
 4941SOL    HW226286   4.261   1.126   9.300  0.2792 -1.2476 -0.9691
 4942SOL     OW26287   4.101   1.268   3.014  0.1185  0.0864  0.4011
 4942SOL    HW126288   4.144   1.220   2.943  2.4334  0.6736  1.4007
 4942SOL    HW226289   4.160   1.254   3.088  1.9648 -2.2366 -1.5099
 4943SOL     OW26290   3.490   3.825   4.504 -0.1712  0.4981  0.2539
 4943SOL    HW126291   3.487   3.822   4.599 -0.5013  1.2662  0.2729
 4943SOL    HW226292   3.553   3.897   4.492  0.0298  0.3946  0.6982
 4944SOL     OW26293   0.086   1.925  10.441 -0.2344 -0.1357 -0.0189
 4944SOL    HW126294   0.006   1.934  10.389  1.0266 -2.9837 -2.4601
 4944SOL    HW226295   0.108   1.833  10.426  0.9725  0.3455 -1.2536
 4945SOL     OW26296   3.475   2.729   7.287 -0.0608 -0.3787 -0.7170
 4945SOL    HW126297   3.528   2.806   7.269 -0.7595  0.2116 -0.2508
 4945SOL    HW226298   3.413   2.762   7.352  0.0712 -1.9037  0.1861
 4946SOL     OW26299   0.032   1.818   1.620 -0.4004 -0.3966 -0.5084
 4946SOL    HW126300   0.085   1.743   1.647  0.9779 -0.0774 -2.2721
 4946SOL    HW226301   0.012   1.861   1.703 -0.5861 -0.1076 -0.7034
 4947SOL     OW26302   0.762   4.402   4.837 -0.1505  0.4800  0.1462
 4947SOL    HW126303   0.784   4.316   4.872  0.4749  0.0067 -1.3886
 4947SOL    HW226304   0.806   4.457   4.901 -0.6434  0.5739  0.3994
 4948SOL     OW26305   0.499   4.318   2.638 -0.1872 -0.1558  0.0749
 4948SOL    HW126306   0.569   4.334   2.575  0.3907 -2.4982  0.1351
 4948SOL    HW226307   0.534   4.245   2.689  2.1451  0.9281  0.0350
 4949SOL     OW26308   3.012   2.618   3.907 -0.4998  0.3037 -0.3613
 4949SOL    HW126309   3.069   2.682   3.864 -0.6446 -0.2422 -1.3675
 4949SOL    HW226310   2.931   2.669   3.912 -1.4173 -1.1908  0.0350
 4950SOL     OW26311   0.835   0.249   6.690 -0.4922 -0.1969  0.4203
 4950SOL    HW126312   0.884   0.183   6.740  0.5398  0.8319  0.7816
 4950SOL    HW226313   0.878   0.328   6.722 -1.5658  1.2723 -1.7622
 4951SOL     OW26314   1.434   0.852   0.562  0.1737  0.1808 -0.4471
 4951SOL    HW126315   1.387   0.780   0.605  1.3880 -2.3385 -3.3185
 4951SOL    HW226316   1.476   0.893   0.638  1.1312 -0.7001 -0.4858
 4952SOL     OW26317   0.517   3.001  12.694 -0.2722 -0.1557 -0.1685
 4952SOL    HW126318   0.602   2.961  12.708 -0.0740  0.1492 -0.5044
 4952SOL    HW226319   0.546   3.078  12.743 -2.5290  0.6761 -0.1187
 4953SOL     OW26320   0.219   4.188   7.828  0.3976  0.6088  0.3262
 4953SOL    HW126321   0.173   4.147   7.755  1.9645 -0.7245  0.0973
 4953SOL    HW226322   0.235   4.270   7.780 -1.3565  0.0954 -1.1218
 4954SOL     OW26323   2.451   0.799  12.920  0.3678  0.3600  0.4118
 4954SOL    HW126324   2.455   0.894  12.910 -1.5556  0.4884  0.9873
 4954SOL    HW226325   2.544   0.778  12.928  0.7432  2.4060  1.3115
 4955SOL     OW26326   4.203   4.661   3.687  0.1032  0.0638 -0.0636
 4955SOL    HW126327   4.248   0.008   3.733  1.9175 -0.9344 -0.3078
 4955SOL    HW226328   4.113   4.692   3.678 -0.8648 -2.8142 -0.4153
 4956SOL     OW26329   1.408   2.201   3.927 -0.3039 -0.1358  0.3418
 4956SOL    HW126330   1.456   2.142   3.985  1.2384 -0.4432 -1.2671
 4956SOL    HW226331   1.345   2.238   3.989  0.6369  1.4475  0.3542
 4957SOL     OW26332   2.167   3.075   0.714 -0.4446 -0.2979 -0.5624
 4957SOL    HW126333   2.129   2.989   0.734  1.0077 -1.0935 -1.2441
 4957SOL    HW226334   2.258   3.057   0.737 -0.6449 -1.8648 -1.0113
 4958SOL     OW26335   3.817   0.994  17.614 -0.4801 -0.9446  0.2625
 4958SOL    HW126336   3.765   0.994  17.695 -1.8286 -2.8843 -0.5834
 4958SOL    HW226337   3.815   0.901  17.590  0.7428  0.1085 -3.8995
 4959SOL     OW26338   1.186   3.145   1.861 -0.0354  0.0437  0.0064
 4959SOL    HW126339   1.148   3.115   1.778 -0.4510 -0.8974  0.5311
 4959SOL    HW226340   1.159   3.236   1.852  1.1449  0.1991 -1.9192
 4960SOL     OW26341   3.566   1.723   7.603 -0.3484 -0.2824  0.1798
 4960SOL    HW126342   3.560   1.801   7.547  0.0418  0.5622  1.3124
 4960SOL    HW226343   3.659   1.706   7.615 -0.5085  0.8494  3.0686
 4961SOL     OW26344   4.344   4.421   4.582 -0.0597 -0.0594  0.3071
 4961SOL    HW126345   4.424   4.472   4.566 -0.5951  1.1581  1.5241
 4961SOL    HW226346   4.327   4.381   4.497  1.4031  0.4040 -0.1986
 4962SOL     OW26347   2.631   1.134   8.292 -0.0233  0.0741  0.0335
 4962SOL    HW126348   2.539   1.116   8.307  0.2993 -2.9107 -1.4668
 4962SOL    HW226349   2.628   1.136   8.196  1.4397  0.5327 -0.0173
 4963SOL     OW26350   4.110   1.230   8.483 -0.0369  0.1379 -0.0563
 4963SOL    HW126351   4.102   1.325   8.469  0.1976 -0.5209 -4.3806
 4963SOL    HW226352   4.134   1.206   8.394 -0.0926 -2.1087  0.5440
 4964SOL     OW26353   3.418   0.020  10.198  0.6259  0.2633  0.2946
 4964SOL    HW126354   3.377   0.089  10.250  0.8675  1.7684 -1.5003
 4964SOL    HW226355   3.499   4.717  10.241 -0.3815 -1.5349  1.0826
 4965SOL     OW26356   1.188   0.919   9.899 -0.7239 -0.0515 -0.3947
 4965SOL    HW126357   1.210   1.013   9.901  0.6050 -0.3366 -1.2755
 4965SOL    HW226358   1.275   0.882   9.885 -2.2183 -3.1319 -1.3682
 4966SOL     OW26359   0.343   2.671   4.358  0.6492 -0.0758  0.1660
 4966SOL    HW126360   0.357   2.580   4.331 -1.6661 -0.8711  1.6057
 4966SOL    HW226361   0.370   2.720   4.281  1.4143 -0.0445  0.4528
 4967SOL     OW26362   3.605   4.641   6.492 -0.1908 -0.3940  0.6209
 4967SOL    HW126363   3.668   4.578   6.455 -0.0284  0.4551 -0.5468
 4967SOL    HW226364   3.526   4.610   6.449 -0.6017  1.5659 -0.0261
 4968SOL     OW26365   1.105   3.369  17.166  0.2201  0.3369  0.0772
 4968SOL    HW126366   1.138   3.371  17.255 -0.9940 -1.0688  0.5682
 4968SOL    HW226367   1.157   3.295  17.135  1.3443  1.0750  0.2327
 4969SOL     OW26368   1.106   1.556  16.714 -0.0765 -0.0865  0.3102
 4969SOL    HW126369   1.162   1.630  16.691 -0.9490 -0.3347 -2.5767
 4969SOL    HW226370   1.019   1.587  16.687 -1.0753 -1.8894  1.4320
 4970SOL     OW26371   1.719   3.070   9.031  0.6031 -1.1859 -0.2651
 4970SOL    HW126372   1.796   3.046   8.979  2.2641  2.4773  0.4806
 4970SOL    HW226373   1.738   3.050   9.123  0.7657  0.5472  0.0854
 4971SOL     OW26374   3.061   4.414   0.429 -0.2069  0.2203 -0.1602
 4971SOL    HW126375   2.978   4.396   0.385 -0.5290  1.8515 -0.2000
 4971SOL    HW226376   3.023   4.456   0.507 -0.0282  0.4312 -0.1878
 4972SOL     OW26377   2.798   3.778   4.959 -0.7154  0.1495 -0.6878
 4972SOL    HW126378   2.763   3.744   4.877  3.4773  0.0011 -2.3924
 4972SOL    HW226379   2.800   3.701   5.015 -1.8784  0.7467  0.1643
 4973SOL     OW26380   2.892   3.466   4.487 -0.1795 -0.1392 -0.0223
 4973SOL    HW126381   2.983   3.474   4.459 -0.4401  0.8821 -0.5750
 4973SOL    HW226382   2.851   3.547   4.457  0.7733  1.2853  2.5391
 4974SOL     OW26383   4.057   1.822  17.540 -0.0089 -0.0901 -0.0104
 4974SOL    HW126384   4.064   1.732  17.508 -1.0101 -0.4754  0.8553
 4974SOL    HW226385   3.976   1.819  17.592  0.3685 -0.1858  0.5778
 4975SOL     OW26386   0.568   3.550   0.956 -0.0933  0.0634  0.4572
 4975SOL    HW126387   0.609   3.578   0.874 -0.0612 -0.8109  0.1714
 4975SOL    HW226388   0.475   3.541   0.936 -0.3473 -0.1546  1.7414
 4976SOL     OW26389   3.279   2.409  13.054 -0.0365  0.0392  0.0132
 4976SOL    HW126390   3.279   2.451  13.140 -0.3945  1.2517 -0.5775
 4976SOL    HW226391   3.329   2.473  13.002 -0.7433  0.4756 -0.1256
 4977SOL     OW26392   4.075   3.407   0.454  0.1236 -0.2740 -0.0458
 4977SOL    HW126393   4.054   3.383   0.364  0.1131  2.9810 -0.9117
 4977SOL    HW226394   3.990   3.439   0.484 -0.7558 -0.0463 -2.7405
 4978SOL     OW26395   0.760   3.202   7.482  0.2650 -0.1853  0.3587
 4978SOL    HW126396   0.808   3.229   7.404 -0.2543 -1.3273 -0.3589
 4978SOL    HW226397   0.671   3.211   7.447 -0.6343  1.3950  3.0209
 4979SOL     OW26398   3.383   3.693  14.720 -0.1721 -0.1019 -0.2011
 4979SOL    HW126399   3.442   3.749  14.771 -0.6716 -1.3844  1.8252
 4979SOL    HW226400   3.324   3.647  14.780  2.1596 -2.2476  0.4655
 4980SOL     OW26401   4.328   3.929   4.668  0.3356  1.2853  0.2635
 4980SOL    HW126402   4.319   3.861   4.602  0.1985 -0.7433  2.3659
 4980SOL    HW226403   4.243   3.973   4.660 -0.9735 -0.8793  2.1759
 4981SOL     OW26404   0.455   3.307   5.440 -0.6605  0.1893 -0.0228
 4981SOL    HW126405   0.388   3.358   5.486 -1.2810 -0.4825 -0.1861
 4981SOL    HW226406   0.402   3.244   5.394  0.7657  0.9124 -2.6381
 4982SOL     OW26407   3.340   0.967   3.462  0.2730  0.1250 -0.2262
 4982SOL    HW126408   3.290   0.897   3.418  1.1438 -1.5940  1.5034
 4982SOL    HW226409   3.422   0.929   3.431  1.4341  1.8642  0.7480
 4983SOL     OW26410   3.757   1.912   6.723  0.2527  0.4219  0.6561
 4983SOL    HW126411   3.792   1.871   6.802  1.7065 -0.2268 -0.3225
 4983SOL    HW226412   3.691   1.845   6.710  0.8455  0.2528 -1.5270
 4984SOL     OW26413   2.326   3.353   8.895  0.0642  0.1655  0.4322
 4984SOL    HW126414   2.400   3.338   8.837 -1.3364 -0.2892 -1.2437
 4984SOL    HW226415   2.350   3.435   8.940  0.7707 -0.3114  0.9325
 4985SOL     OW26416   0.257   4.451   6.773  0.1010 -0.0722 -0.3534
 4985SOL    HW126417   0.229   4.365   6.743  0.4628 -0.9039  1.6612
 4985SOL    HW226418   0.330   4.428   6.831 -0.3094  1.1258  0.6312
 4986SOL     OW26419   1.969   4.662  15.294  0.1660  0.1023  0.0376
 4986SOL    HW126420   1.943   4.672  15.386 -0.1335  2.5019 -0.3165
 4986SOL    HW226421   1.944   4.570  15.286  3.4286 -0.6560 -1.1967
 4987SOL     OW26422   4.442   2.838   6.690  0.2069  0.2936  0.6819
 4987SOL    HW126423   4.497   2.771   6.730  1.3063 -0.1493 -1.5925
 4987SOL    HW226424   4.455   2.911   6.751 -1.2031  1.3090 -0.2222
 4988SOL     OW26425   3.193   1.586   8.471 -0.6185  0.2195  0.7638
 4988SOL    HW126426   3.216   1.526   8.400 -0.5400 -1.3715  2.1198
 4988SOL    HW226427   3.136   1.524   8.516 -0.5905 -0.3939 -0.0434
 4989SOL     OW26428   4.346   4.250   9.004  0.4260 -0.0753  0.2985
 4989SOL    HW126429   4.316   4.274   9.092  2.4592  0.7120  0.7793
 4989SOL    HW226430   4.406   4.179   9.026  2.6704  0.8107 -2.9214
 4990SOL     OW26431   2.554   2.295  13.111  0.3889 -0.0518 -0.4597
 4990SOL    HW126432   2.572   2.359  13.042  0.3217  1.3951  0.8708
 4990SOL    HW226433   2.638   2.274  13.151  1.4064 -1.2302 -3.2160
 4991SOL     OW26434   0.861   2.868  17.370  0.1992 -0.1193  0.4508
 4991SOL    HW126435   0.830   2.831  17.453 -0.5363  0.6475  0.5160
 4991SOL    HW226436   0.933   2.921  17.403 -0.9112  1.2859  0.6470
 4992SOL     OW26437   3.613   1.736   3.343 -0.1207  0.1134  0.3820
 4992SOL    HW126438   3.533   1.788   3.334 -0.7471 -0.8390  0.4281
 4992SOL    HW226439   3.595   1.671   3.275 -1.7564  1.8479 -0.8689
 4993SOL     OW26440   2.372   3.078   5.332  0.3115 -0.3954  0.2983
 4993SOL    HW126441   2.420   3.073   5.415  0.0119 -0.8553  0.4452
 4993SOL    HW226442   2.422   3.027   5.268 -0.9802  1.2578 -1.9992
 4994SOL     OW26443   2.050   2.271   8.995  0.0494  0.0756  0.2650
 4994SOL    HW126444   1.987   2.245   8.927 -0.0455  1.2341 -0.0920
 4994SOL    HW226445   2.138   2.257   8.959 -0.9404  1.5015 -2.7378
 4995SOL     OW26446   0.750   1.253   8.738  0.2632 -0.6854 -0.6535
 4995SOL    HW126447   0.802   1.225   8.662 -0.4755  0.3067 -1.5096
 4995SOL    HW226448   0.817   1.301   8.786  0.5812 -3.0123  1.2578
 4996SOL     OW26449   1.547   1.675   3.125 -0.5285 -1.1866 -0.0282
 4996SOL    HW126450   1.558   1.648   3.216 -1.0005 -1.6165 -0.0948
 4996SOL    HW226451   1.631   1.705   3.091 -2.0697  1.0272 -1.8814
 4997SOL     OW26452   0.085   4.204   7.356  0.0384 -0.4789  0.6964
 4997SOL    HW126453   0.039   4.225   7.275 -0.7926 -2.5150  0.6403
 4997SOL    HW226454   0.174   4.194   7.320 -0.0704 -1.1142  0.5996
 4998SOL     OW26455   1.912   3.853   2.443  0.2802 -0.1687 -0.3045
 4998SOL    HW126456   1.930   3.947   2.450 -0.1252  0.0411 -2.0950
 4998SOL    HW226457   1.977   3.797   2.485 -1.5585 -1.2802  1.0387
 4999SOL     OW26458   0.925   3.596   4.533 -0.0679  0.2698  0.0469
 4999SOL    HW126459   0.998   3.548   4.572  0.9020  1.4259 -0.3469
 4999SOL    HW226460   0.954   3.687   4.534  0.3785  0.1452 -2.8582
 5000SOL     OW26461   4.092   3.116   4.882 -0.5541 -0.2915  0.4266
 5000SOL    HW126462   4.141   3.183   4.834 -3.1889  0.3710 -1.3015
 5000SOL    HW226463   4.134   3.122   4.968 -1.5451  0.1691  0.8830
 5001SOL     OW26464   3.617   0.473   2.437  0.3809  0.4428  0.7155
 5001SOL    HW126465   3.704   0.436   2.421 -0.0660 -0.3981  0.2341
 5001SOL    HW226466   3.573   0.439   2.359  0.5272  1.3532  0.2464
 5002SOL     OW26467   1.900   3.628   6.619 -0.2424 -0.5621 -0.2609
 5002SOL    HW126468   1.924   3.579   6.698  0.0208 -0.5714 -0.3452
 5002SOL    HW226469   1.976   3.599   6.568  0.9380  0.9958  0.5931
 5003SOL     OW26470   0.739   0.507   3.766 -0.2429  0.7632 -0.3456
 5003SOL    HW126471   0.668   0.512   3.702 -1.6088 -0.7167  1.0341
 5003SOL    HW226472   0.806   0.564   3.729  0.5708 -0.4021 -0.6573
 5004SOL     OW26473   3.750   3.388   0.275 -0.8843  0.0930 -0.1455
 5004SOL    HW126474   3.825   3.330   0.292 -0.3549  1.1750  1.1864
 5004SOL    HW226475   3.783   3.471   0.309  1.6968 -0.9288 -0.0850
 5005SOL     OW26476   2.902   0.515   7.716  0.4773 -0.0651 -0.6767
 5005SOL    HW126477   2.834   0.581   7.728 -1.0397 -1.6779 -0.3120
 5005SOL    HW226478   2.973   0.541   7.774 -0.2621  1.5380 -0.4980
 5006SOL     OW26479   1.783   3.989  10.464  0.5064  0.1848  0.4743
 5006SOL    HW126480   1.851   4.028  10.409 -0.3869  1.4701  0.2986
 5006SOL    HW226481   1.758   3.917  10.406 -1.4258  1.2239  0.0482
 5007SOL     OW26482   1.665   1.881   4.259 -0.1824 -0.0725 -0.0796
 5007SOL    HW126483   1.581   1.913   4.290 -0.1075  0.2779 -0.2390
 5007SOL    HW226484   1.717   1.877   4.339 -1.9408 -0.3777  1.0228
 5008SOL     OW26485   1.278   3.149   6.239 -0.4066 -0.2092  0.0805
 5008SOL    HW126486   1.221   3.200   6.296 -0.9596 -0.3526 -0.3507
 5008SOL    HW226487   1.292   3.071   6.293  0.7072  0.5711  0.9260
 5009SOL     OW26488   4.073   2.259   2.695 -0.3446 -0.6306 -0.1151
 5009SOL    HW126489   4.119   2.242   2.778 -4.4470  3.5573  3.0143
 5009SOL    HW226490   4.046   2.171   2.670  1.4437 -0.6843 -1.8184
 5010SOL     OW26491   4.339   0.703   7.248 -0.3918  0.0666 -0.8696
 5010SOL    HW126492   4.418   0.655   7.227  0.3574  1.5116 -1.3661
 5010SOL    HW226493   4.290   0.689   7.167 -1.8964 -1.8201  0.3574
 5011SOL     OW26494   1.308   4.235   4.823  0.8497  0.3634 -0.0102
 5011SOL    HW126495   1.349   4.194   4.747  1.2445  0.6768  0.0328
 5011SOL    HW226496   1.374   4.289   4.866  0.9346  0.9166 -0.8437
 5012SOL     OW26497   1.454   4.658  11.472 -0.1127 -0.0633  0.6817
 5012SOL    HW126498   1.489   4.635  11.385  2.2137 -2.0234  2.1499
 5012SOL    HW226499   1.530   4.709  11.499  1.0562 -0.9292 -0.9478
 5013SOL     OW26500   1.626   3.567   5.896  0.0103 -0.0523 -0.1774
 5013SOL    HW126501   1.538   3.533   5.908  0.2808 -1.4891 -2.3276
 5013SOL    HW226502   1.641   3.616   5.977 -0.7487 -0.3899  0.1672
 5014SOL     OW26503   2.766   3.308  15.491  0.3402 -0.1475 -0.3691
 5014SOL    HW126504   2.702   3.349  15.548  1.3261  0.3630  0.3834
 5014SOL    HW226505   2.837   3.372  15.479 -0.1002 -0.1407 -2.8864
 5015SOL     OW26506   0.518   2.255   7.289 -0.2319 -0.1496  0.2972
 5015SOL    HW126507   0.531   2.349   7.292 -3.7191  0.4552 -3.5768
 5015SOL    HW226508   0.507   2.229   7.381  0.5475  0.5363  0.5764
 5016SOL     OW26509   3.075   2.353  15.190 -0.2780  0.5002  0.3749
 5016SOL    HW126510   3.033   2.439  15.204 -0.9968  0.5895 -2.4075
 5016SOL    HW226511   3.166   2.379  15.201 -0.4986  1.3030  0.3628
 5017SOL     OW26512   3.510   0.172   4.681 -0.6399  0.0688  0.2885
 5017SOL    HW126513   3.428   0.186   4.633 -1.5127  2.7425  2.5581
 5017SOL    HW226514   3.560   0.136   4.607 -0.8051 -2.3016  1.3381
 5018SOL     OW26515   2.941   3.135   8.882  0.1422 -0.2307  0.0716
 5018SOL    HW126516   2.995   3.111   8.958  0.9904  2.8840  0.4818
 5018SOL    HW226517   2.987   3.203   8.832 -0.5902 -0.4908 -0.9511
 5019SOL     OW26518   2.076   3.464   4.102 -0.0633 -0.1429 -0.4224
 5019SOL    HW126519   2.145   3.483   4.166 -0.5035  2.6379 -0.7855
 5019SOL    HW226520   2.064   3.369   4.108  0.9468 -0.2831 -0.6011
 5020SOL     OW26521   0.428   3.214   7.422 -0.2111 -0.2551 -0.2879
 5020SOL    HW126522   0.380   3.279   7.473 -0.1992 -0.5363  0.0768
 5020SOL    HW226523   0.357   3.194   7.361 -1.0151  1.2753  0.1428
 5021SOL     OW26524   0.188   0.544  10.455 -0.3729  0.8306 -0.2442
 5021SOL    HW126525   0.231   0.464  10.425 -1.6843  0.4510 -1.0817
 5021SOL    HW226526   0.232   0.566  10.538  0.8483  4.5636 -1.8666
 5022SOL     OW26527   2.677   2.450  12.889 -0.0753 -0.0337  0.2728
 5022SOL    HW126528   2.689   2.497  12.972 -1.4394 -1.3800  1.2427
 5022SOL    HW226529   2.765   2.420  12.867  0.4347  1.0002  0.8640
 5023SOL     OW26530   1.645   3.546   3.695 -0.3607  0.0882  0.1518
 5023SOL    HW126531   1.684   3.526   3.610  0.7889  1.5776  0.3236
 5023SOL    HW226532   1.697   3.489   3.751 -0.5883  1.9267  2.2429
 5024SOL     OW26533   2.159   3.002   5.230  0.1929  0.9833 -0.7870
 5024SOL    HW126534   2.243   3.011   5.275  0.0721 -1.1255 -0.1645
 5024SOL    HW226535   2.102   3.068   5.269  1.7961  2.6464 -1.2577
 5025SOL     OW26536   3.120   0.480   6.874  0.2273 -0.6245 -0.0330
 5025SOL    HW126537   3.087   0.492   6.785 -0.8770 -1.1142  0.3080
 5025SOL    HW226538   3.150   0.568   6.896  2.1430 -0.9408 -1.4201
 5026SOL     OW26539   0.214   2.030  16.211  0.1230  0.5106 -0.2464
 5026SOL    HW126540   0.223   1.999  16.301  1.2403  0.0883 -0.4971
 5026SOL    HW226541   0.299   2.000  16.180 -0.0702  0.6157 -0.8826
 5027SOL     OW26542   0.665   1.167   7.833 -0.5847  0.2437  0.0190
 5027SOL    HW126543   0.750   1.129   7.855 -1.2174 -0.7013  0.8325
 5027SOL    HW226544   0.694   1.231   7.768  1.4648 -1.4145 -0.6777
 5028SOL     OW26545   0.637   3.606  15.736  0.3693  0.0215  0.3286
 5028SOL    HW126546   0.679   3.618  15.650 -1.1608 -2.6352 -0.7730
 5028SOL    HW226547   0.707   3.566  15.787  0.2755 -2.0330 -1.1726
 5029SOL     OW26548   0.586   1.807   7.683 -0.0158  0.2887 -0.0007
 5029SOL    HW126549   0.556   1.873   7.745  0.5872 -0.5995  1.2390
 5029SOL    HW226550   0.602   1.861   7.606  0.7501 -0.3783 -0.3114
 5030SOL     OW26551   3.903   0.052   1.287  0.6686  0.1233  0.0140
 5030SOL    HW126552   3.834   0.030   1.224  0.4754 -0.6773  0.4950
 5030SOL    HW226553   3.852   0.079   1.363  1.2845  0.8304  0.1748
 5031SOL     OW26554   0.741   0.277  14.229 -0.1861 -0.0275  0.0862
 5031SOL    HW126555   0.797   0.342  14.271  0.7624 -1.8410  1.6494
 5031SOL    HW226556   0.687   0.333  14.173  1.2677  0.4877 -0.7956
 5032SOL     OW26557   1.921   1.907   8.303 -0.5586  0.2894  0.2877
 5032SOL    HW126558   1.996   1.847   8.305 -1.1520 -0.6068 -2.5967
 5032SOL    HW226559   1.853   1.870   8.359  0.0781  0.3312  1.0888
 5033SOL     OW26560   3.567   3.782  15.661  0.3972  0.1347  0.2029
 5033SOL    HW126561   3.475   3.765  15.681  0.5046 -2.2846 -1.2298
 5033SOL    HW226562   3.556   3.875  15.641  0.3555  0.3088  1.0422
 5034SOL     OW26563   0.156   3.298   6.880 -0.4655 -0.3060  0.0795
 5034SOL    HW126564   0.225   3.358   6.907  0.6515 -1.5201 -0.0864
 5034SOL    HW226565   0.079   3.326   6.929 -1.3665 -1.6608 -0.5392
 5035SOL     OW26566   2.885   4.557  11.963  0.5529 -0.1304  0.1935
 5035SOL    HW126567   2.861   4.605  11.883 -0.2007  2.2743  1.8528
 5035SOL    HW226568   2.972   4.524  11.943  1.6293  1.7185  1.8500
 5036SOL     OW26569   2.795   3.260   2.465 -0.0643 -0.6367 -0.0908
 5036SOL    HW126570   2.885   3.233   2.444  0.0044  0.5008 -1.2407
 5036SOL    HW226571   2.761   3.180   2.505 -0.4940  0.0378  0.9021
 5037SOL     OW26572   1.488   1.926  16.334  0.4925 -0.3348 -0.4811
 5037SOL    HW126573   1.480   1.940  16.239  0.3712 -0.9109 -0.5569
 5037SOL    HW226574   1.491   2.016  16.365  1.3766 -0.8091  0.8084
 5038SOL     OW26575   0.251   2.155   4.685  0.0482 -0.0710  0.6388
 5038SOL    HW126576   0.273   2.081   4.630 -2.5291  0.4549 -1.1185
 5038SOL    HW226577   0.336   2.199   4.692  0.5176 -0.7901 -0.7458
 5039SOL     OW26578   2.795   0.574   6.767 -0.2234 -0.1800  0.7314
 5039SOL    HW126579   2.835   0.643   6.820 -1.4150 -0.6550  2.2838
 5039SOL    HW226580   2.805   0.604   6.677 -0.0548  1.7997  1.4008
 5040SOL     OW26581   2.769   3.454   7.677  0.2390  0.2154  0.2374
 5040SOL    HW126582   2.738   3.405   7.601 -0.8999 -0.3493  1.0653
 5040SOL    HW226583   2.860   3.425   7.682  0.4474  0.8412  0.0245
 5041SOL     OW26584   1.266   2.867   3.730 -0.1058 -0.0753  0.4233
 5041SOL    HW126585   1.268   2.788   3.677  1.6447  2.2252 -2.9802
 5041SOL    HW226586   1.349   2.865   3.776  0.0562 -0.0350  0.1358
 5042SOL     OW26587   0.725   0.186   4.435  0.0675 -0.3545 -0.0673
 5042SOL    HW126588   0.768   0.106   4.404 -0.6332 -1.1852  1.1072
 5042SOL    HW226589   0.731   0.172   4.529  3.3029  2.0972  0.0833
 5043SOL     OW26590   2.906   3.124  11.167  0.4297 -0.2668 -0.2220
 5043SOL    HW126591   2.965   3.195  11.195 -0.1548  0.4751 -0.8880
 5043SOL    HW226592   2.973   3.070  11.125 -0.1780 -0.5584 -0.7952
 5044SOL     OW26593   4.038   1.406   9.159  0.0936 -0.0544  0.2820
 5044SOL    HW126594   4.127   1.437   9.142  0.1580  0.5410  1.6903
 5044SOL    HW226595   4.001   1.448   9.236  1.7784  0.3382  0.8735
 5045SOL     OW26596   1.425   3.095   8.220  0.0787  0.4398  0.3763
 5045SOL    HW126597   1.471   3.169   8.180  2.7399 -2.4759 -1.9691
 5045SOL    HW226598   1.428   3.122   8.312  1.7128 -3.8475  1.6206
 5046SOL     OW26599   0.810   3.376  14.859  0.0936 -0.4399 -0.2149
 5046SOL    HW126600   0.787   3.465  14.886  0.4004 -0.4886  0.2101
 5046SOL    HW226601   0.887   3.366  14.915 -0.3227 -1.8263  0.1169
 5047SOL     OW26602   4.047   2.791   4.398  0.3153  0.0645 -0.0727
 5047SOL    HW126603   3.963   2.836   4.386 -0.0195 -1.0519 -1.8855
 5047SOL    HW226604   4.088   2.859   4.452  2.9023 -1.3527 -0.2724
 5048SOL     OW26605   1.113   2.700   3.972  0.1865  0.0087  0.6080
 5048SOL    HW126606   1.178   2.689   3.902  0.3412  0.3005  0.7067
 5048SOL    HW226607   1.108   2.795   3.984 -0.9126  0.2070 -1.4173
 5049SOL     OW26608   3.874   4.234   9.357  0.3364  0.6074  0.2423
 5049SOL    HW126609   3.837   4.308   9.405 -0.3007  1.0155 -0.8765
 5049SOL    HW226610   3.872   4.178   9.435  2.2666 -1.5253 -1.2162
 5050SOL     OW26611   2.278   3.729   5.838 -0.1539  0.0159  0.2240
 5050SOL    HW126612   2.298   3.651   5.890 -1.7438 -0.9008 -0.5303
 5050SOL    HW226613   2.321   3.709   5.755  0.0253 -0.2956  0.3903
 5051SOL     OW26614   1.352   2.810   5.841 -0.0452 -0.0103  0.2068
 5051SOL    HW126615   1.329   2.894   5.801 -0.8428 -0.6900 -0.7494
 5051SOL    HW226616   1.269   2.782   5.879  0.3474 -1.6030 -0.1146
 5052SOL     OW26617   0.989   4.326   6.761  0.6350 -0.1574  0.3240
 5052SOL    HW126618   0.905   4.280   6.751  0.4663  0.1487  0.3216
 5052SOL    HW226619   1.044   4.300   6.687  0.3227 -0.8920  0.3529
 5053SOL     OW26620   0.545   1.343   5.127  0.1031 -0.3580  0.0127
 5053SOL    HW126621   0.523   1.420   5.180  1.3050  0.7371 -1.0557
 5053SOL    HW226622   0.639   1.353   5.117  0.3234 -0.7370  1.7078
 5054SOL     OW26623   1.642   0.020   3.928 -0.0883  1.2439 -0.5073
 5054SOL    HW126624   1.714   0.082   3.921 -0.2719  1.6122  0.9948
 5054SOL    HW226625   1.569   0.061   3.881 -1.4204 -2.4002 -1.6523
 5055SOL     OW26626   0.711   1.942  13.632 -0.1058  0.0260 -0.4438
 5055SOL    HW126627   0.685   1.851  13.647  0.9164 -0.4987 -1.8901
 5055SOL    HW226628   0.805   1.949  13.649 -0.0544  0.4339 -0.8875
 5056SOL     OW26629   2.031   1.308  14.565  0.0675  0.6519  0.3930
 5056SOL    HW126630   1.999   1.398  14.558  0.1955  0.8297  2.0740
 5056SOL    HW226631   1.944   1.269  14.574  0.1904  0.3844  0.4224
 5057SOL     OW26632   4.420   3.366   6.318  0.4252  1.1181  0.2355
 5057SOL    HW126633   4.409   3.298   6.386  3.6612  1.8937  1.5277
 5057SOL    HW226634   4.390   3.313   6.244  2.0357  0.9005 -0.2612
 5058SOL     OW26635   3.581   1.192  10.355 -0.2040 -0.1103  0.1872
 5058SOL    HW126636   3.645   1.227  10.416  0.2012  0.1284 -0.3699
 5058SOL    HW226637   3.505   1.249  10.366 -1.4452 -1.8353  0.6356
 5059SOL     OW26638   2.271   3.219   3.083  0.0281 -0.7976 -0.5544
 5059SOL    HW126639   2.261   3.245   2.991  1.6664  0.0037 -0.5089
 5059SOL    HW226640   2.286   3.301   3.129  1.0835 -1.4076  0.1910
 5060SOL     OW26641   3.404   0.862   9.588 -0.9863 -0.5667  0.1528
 5060SOL    HW126642   3.327   0.866   9.644 -1.2638  0.9592 -0.3550
 5060SOL    HW226643   3.460   0.805   9.641  1.9001  0.8541 -1.3239
 5061SOL     OW26644   0.784   0.580  15.547 -0.4428 -0.8995 -0.1135
 5061SOL    HW126645   0.718   0.622  15.602  0.6084 -0.2442  0.6442
 5061SOL    HW226646   0.775   0.624  15.463  3.9496 -0.5792 -0.4192
 5062SOL     OW26647   4.509   3.308   7.232  0.1585 -0.4104 -0.1774
 5062SOL    HW126648   4.525   3.230   7.285  0.9078 -0.7262 -0.8666
 5062SOL    HW226649   4.458   3.351   7.301 -0.3207 -1.0923 -0.0991
 5063SOL     OW26650   1.779   3.211   8.404 -0.4266  0.0187  0.3127
 5063SOL    HW126651   1.759   3.276   8.471  2.9053 -0.0203  1.3195
 5063SOL    HW226652   1.844   3.155   8.446  1.0857  1.8951  0.4710
 5064SOL     OW26653   3.199   1.121   5.911  0.2169 -0.0787  0.0220
 5064SOL    HW126654   3.171   1.208   5.939 -1.5042  0.0578 -2.1077
 5064SOL    HW226655   3.294   1.132   5.904  0.0778  0.3304 -1.1591
 5065SOL     OW26656   4.128   0.610  12.056 -0.4877  0.1556  0.0893
 5065SOL    HW126657   4.117   0.672  11.984  0.3534 -0.0554 -0.2247
 5065SOL    HW226658   4.118   0.666  12.133 -0.6790  1.5660 -0.9601
 5066SOL     OW26659   0.576   3.162   2.582 -0.4756  0.6626 -0.8590
 5066SOL    HW126660   0.667   3.155   2.608 -0.8486 -0.1104  0.2704
 5066SOL    HW226661   0.568   3.082   2.529 -1.2323  0.7620 -0.8995
 5067SOL     OW26662   2.367   2.416   4.012 -0.0346  0.6511  0.7088
 5067SOL    HW126663   2.293   2.363   3.983  0.6544 -0.6667  1.3046
 5067SOL    HW226664   2.321   2.449   4.089  0.6158  3.6752 -0.2064
 5068SOL     OW26665   0.712   0.509   7.637 -0.3284  0.1349  0.4818
 5068SOL    HW126666   0.744   0.457   7.711  0.6143 -1.7200 -1.2517
 5068SOL    HW226667   0.623   0.472   7.632 -0.8280  1.0122  2.6809
 5069SOL     OW26668   3.798   0.551   3.411 -0.3529  0.0072 -0.2351
 5069SOL    HW126669   3.812   0.621   3.476  0.6975 -0.1748 -0.2758
 5069SOL    HW226670   3.802   0.598   3.328  0.7631 -1.0881 -0.8023
 5070SOL     OW26671   3.186   1.137   5.138 -0.0189 -0.0932  0.6238
 5070SOL    HW126672   3.260   1.086   5.171  0.0915 -0.7492 -0.6373
 5070SOL    HW226673   3.190   1.217   5.190  0.6212 -0.7243  1.5662
 5071SOL     OW26674   4.597   3.541   5.791 -0.1528 -0.2763  0.4608
 5071SOL    HW126675   4.681   3.588   5.788  0.5407 -1.4459  1.5753
 5071SOL    HW226676   4.612   3.447   5.786 -0.2731 -0.2979  0.5038
 5072SOL     OW26677   3.990   0.309   4.654 -0.1828  0.4466  0.4154
 5072SOL    HW126678   3.993   0.341   4.744 -1.3318  0.1503  0.5637
 5072SOL    HW226679   3.907   0.350   4.631  0.4365  1.1918 -0.4695
 5073SOL     OW26680   1.120   0.163   5.090 -0.1933 -0.4148  0.5095
 5073SOL    HW126681   1.126   0.080   5.042 -0.3263  0.4094 -0.9193
 5073SOL    HW226682   1.208   0.200   5.077 -1.0000  1.7713  1.2543
 5074SOL     OW26683   0.482   0.959   4.993 -0.3839  0.3457  0.4635
 5074SOL    HW126684   0.576   0.955   4.980 -0.4078  0.7627  0.1463
 5074SOL    HW226685   0.467   0.867   5.016  0.0025  0.1468 -0.0962
 5075SOL     OW26686   4.357   1.292   7.860 -0.4218  0.8281  0.5647
 5075SOL    HW126687   4.275   1.250   7.833  0.4286 -0.7416  0.4588
 5075SOL    HW226688   4.332   1.372   7.905  0.1511  0.3797  1.6863
 5076SOL     OW26689   0.772   3.081   7.738  0.1181 -0.0269 -0.3810
 5076SOL    HW126690   0.786   3.106   7.647 -1.1230 -1.2845 -0.9131
 5076SOL    HW226691   0.839   3.130   7.786  0.2589 -1.5405  0.9413
 5077SOL     OW26692   3.482   3.855   2.654  0.0400  0.0969 -0.2173
 5077SOL    HW126693   3.524   3.938   2.679  0.1633 -0.9109  2.8915
 5077SOL    HW226694   3.549   3.788   2.665 -0.5199 -0.1879  1.4551
 5078SOL     OW26695   2.509   4.351   7.975  0.4808  0.2673  0.2267
 5078SOL    HW126696   2.589   4.404   7.976  1.9921 -2.0146 -0.6155
 5078SOL    HW226697   2.550   4.268   7.998 -1.6388 -0.7400  0.3069
 5079SOL     OW26698   0.125   3.758   7.772  0.5132  0.2688 -0.1813
 5079SOL    HW126699   0.069   3.723   7.703  0.5513  0.7048 -0.4364
 5079SOL    HW226700   0.103   3.851   7.769  3.1808  0.9508  1.0840
 5080SOL     OW26701   2.396   2.596  15.940  0.1955  0.4156  0.5579
 5080SOL    HW126702   2.472   2.601  15.881 -1.1933 -0.8116 -1.3351
 5080SOL    HW226703   2.404   2.685  15.975 -0.2868  0.1289  1.3815
 5081SOL     OW26704   3.932   0.945   2.927 -0.1535  0.1083  0.4490
 5081SOL    HW126705   3.885   0.868   2.897 -0.4201 -0.4742  2.3711
 5081SOL    HW226706   3.864   0.969   2.991 -1.1329 -0.7831 -0.2593
 5082SOL     OW26707   0.444   1.315   4.873 -0.8416  0.6062 -0.5904
 5082SOL    HW126708   0.461   1.305   4.967 -0.4026 -0.3695 -0.7668
 5082SOL    HW226709   0.408   1.403   4.867 -1.2857  0.5348  1.0989
 5083SOL     OW26710   1.966   3.062   1.219 -0.4756  0.1708 -0.0730
 5083SOL    HW126711   2.014   3.131   1.173  1.3231 -0.5533  0.7345
 5083SOL    HW226712   1.876   3.074   1.188  0.3031  3.2452 -1.1849
 5084SOL     OW26713   2.348   4.223   3.738 -0.1681 -0.1277 -0.5038
 5084SOL    HW126714   2.433   4.251   3.772 -0.5841  0.0259  0.4227
 5084SOL    HW226715   2.291   4.277   3.792  0.1936  0.6782 -0.9337
 5085SOL     OW26716   4.060   4.282   4.844 -0.1143 -0.4654 -0.1321
 5085SOL    HW126717   4.063   4.201   4.794  0.6887  0.4295 -1.5522
 5085SOL    HW226718   4.116   4.265   4.919  0.9724 -0.4465 -0.9303
 5086SOL     OW26719   3.135   2.450   3.083 -0.0087 -0.0498  0.1867
 5086SOL    HW126720   3.229   2.462   3.092 -0.3697  0.7188  2.8608
 5086SOL    HW226721   3.111   2.436   3.175  1.2745 -2.6834  0.1305
 5087SOL     OW26722   2.333   3.744   8.109  0.3735 -0.8291  0.1961
 5087SOL    HW126723   2.341   3.757   8.015 -0.6450 -1.6581 -0.0039
 5087SOL    HW226724   2.422   3.717   8.133  0.0484 -1.5121  0.6420
 5088SOL     OW26725   0.939   0.741  12.342  0.2203  0.3544 -0.3707
 5088SOL    HW126726   0.887   0.817  12.317  0.9934  0.7885 -0.6781
 5088SOL    HW226727   1.014   0.744  12.283  2.0537  0.3855  1.9347
 5089SOL     OW26728   3.935   4.213   4.058 -0.0616 -0.1647  0.3459
 5089SOL    HW126729   3.906   4.153   3.990 -1.2160 -1.7828  2.2661
 5089SOL    HW226730   4.008   4.253   4.011 -1.4225 -0.8526 -2.3127
 5090SOL     OW26731   3.296   4.122   4.512  0.0450 -0.4285  0.3422
 5090SOL    HW126732   3.250   4.188   4.459 -2.3807 -1.5264  1.0566
 5090SOL    HW226733   3.263   4.149   4.598  0.1717 -0.5409  0.4250
 5091SOL     OW26734   2.459   3.698  10.599 -0.0015  0.2001  0.5329
 5091SOL    HW126735   2.454   3.743  10.515  1.0489 -1.0565 -0.2042
 5091SOL    HW226736   2.531   3.746  10.638  0.8963  0.4579 -1.4544
 5092SOL     OW26737   1.417   0.161  14.798  0.5225  0.2772  0.2268
 5092SOL    HW126738   1.395   0.071  14.821 -1.2144  0.1829 -1.8681
 5092SOL    HW226739   1.409   0.206  14.883 -1.4221  0.9950 -0.3449
 5093SOL     OW26740   1.556   4.090  12.643  0.1382  0.0568 -0.5763
 5093SOL    HW126741   1.511   4.028  12.700 -0.3581  0.5385 -0.4454
 5093SOL    HW226742   1.648   4.091  12.671 -0.0231  1.9684 -0.1038
 5094SOL     OW26743   2.660   2.374   2.779 -0.0685  0.6242  0.1291
 5094SOL    HW126744   2.630   2.458   2.814  0.7402  1.2603 -0.7457
 5094SOL    HW226745   2.638   2.378   2.686  1.8803 -0.8079 -0.3950
 5095SOL     OW26746   4.096   0.450   9.489 -0.5964 -0.6821 -0.5523
 5095SOL    HW126747   4.013   0.483   9.455 -1.2858 -1.9042 -0.0256
 5095SOL    HW226748   4.085   0.355   9.493 -1.7080 -0.5161  0.5668
 5096SOL     OW26749   1.016   3.195   5.165  0.0247  0.1965 -0.2712
 5096SOL    HW126750   1.064   3.160   5.090 -0.2359 -1.7869  0.4973
 5096SOL    HW226751   0.987   3.276   5.122 -2.1458 -0.8644 -0.7828
 5097SOL     OW26752   0.309   3.222  17.060 -0.0930  0.0590  0.6831
 5097SOL    HW126753   0.274   3.263  17.139  2.5458 -0.2144  1.9925
 5097SOL    HW226754   0.280   3.298  17.008  1.7351 -1.1241 -2.0771
 5098SOL     OW26755   4.094   3.838   6.998  0.1926 -0.4244 -0.5129
 5098SOL    HW126756   4.140   3.918   7.022 -1.1314 -0.0114  0.6698
 5098SOL    HW226757   4.029   3.865   6.933  2.1962  1.9718 -1.4922
 5099SOL     OW26758   4.339   1.441   2.363  0.1188  0.3801  0.6914
 5099SOL    HW126759   4.435   1.438   2.361  0.1629  1.2260  1.6015
 5099SOL    HW226760   4.309   1.350   2.374 -2.9568  1.4121  0.8219
 5100SOL     OW26761   2.966   3.517   2.127 -0.2351 -0.3113  0.0382
 5100SOL    HW126762   2.932   3.556   2.047  0.7100  2.2545  0.8666
 5100SOL    HW226763   2.884   3.486   2.166 -0.9880 -1.4549 -2.4575
 5101SOL     OW26764   4.637   1.449   8.419 -0.0816 -0.5629  0.3245
 5101SOL    HW126765   4.667   1.472   8.507 -1.9246  1.9825  0.2991
 5101SOL    HW226766   4.693   1.500   8.361  0.1116 -1.1761 -0.0280
 5102SOL     OW26767   2.628   2.553   5.568  0.1046 -0.0228  1.0531
 5102SOL    HW126768   2.588   2.540   5.482  0.4495  2.0575  0.5823
 5102SOL    HW226769   2.610   2.646   5.580 -1.1449 -0.2642  0.9704
 5103SOL     OW26770   1.885   1.319   4.260  0.4459 -0.5944  0.8156
 5103SOL    HW126771   1.950   1.342   4.194  0.4572  0.6068  1.2489
 5103SOL    HW226772   1.829   1.262   4.206 -0.3702 -0.7479  1.8150
 5104SOL     OW26773   4.399   3.713   6.195  0.4099  0.1023 -0.2640
 5104SOL    HW126774   4.488   3.731   6.165  0.9008  0.8972  1.6606
 5104SOL    HW226775   4.390   3.621   6.170  3.0965 -0.4762  0.8627
 5105SOL     OW26776   2.522   3.866  10.798  0.0673  0.5242 -0.5293
 5105SOL    HW126777   2.471   3.933  10.843 -0.9673  1.4931 -3.1715
 5105SOL    HW226778   2.602   3.865  10.851  1.3630  1.3061 -2.4898
 5106SOL     OW26779   0.472   2.825  13.350  0.0727  0.2024  0.0712
 5106SOL    HW126780   0.415   2.808  13.275  2.5790 -1.2323 -1.4942
 5106SOL    HW226781   0.451   2.918  13.360  2.1553  0.5861  0.7143
 5107SOL     OW26782   0.651   3.641   6.766 -0.5228  0.1866  0.0734
 5107SOL    HW126783   0.733   3.651   6.815 -0.2526 -1.9204  0.0641
 5107SOL    HW226784   0.675   3.573   6.703 -1.8180 -0.6054  0.4207
 5108SOL     OW26785   1.884   0.466   5.510  0.4311  0.1602  0.8218
 5108SOL    HW126786   1.870   0.380   5.549 -2.1319  0.9024  1.5046
 5108SOL    HW226787   1.875   0.525   5.584 -0.3533 -0.2238  1.0329
 5109SOL     OW26788   2.050   0.298   4.575 -0.3415 -0.0505  0.0658
 5109SOL    HW126789   1.991   0.282   4.501 -1.0665  2.0007  0.2118
 5109SOL    HW226790   2.028   0.388   4.597 -2.2892 -0.6175  0.4615
 5110SOL     OW26791   1.027   1.292  10.644 -0.3718 -0.5769 -0.5308
 5110SOL    HW126792   0.983   1.348  10.580  0.0238 -0.4168 -0.6576
 5110SOL    HW226793   1.064   1.358  10.703 -0.0924  0.8756 -2.3397
 5111SOL     OW26794   1.381   0.614   3.376 -0.1617  0.6755 -0.0282
 5111SOL    HW126795   1.374   0.609   3.281 -2.3619  1.4466  0.0823
 5111SOL    HW226796   1.436   0.687   3.404 -0.4776  1.0035 -0.2770
 5112SOL     OW26797   3.540   0.620   5.707  0.3652  0.5028 -0.0380
 5112SOL    HW126798   3.474   0.642   5.773  0.1490  1.2096 -0.4904
 5112SOL    HW226799   3.607   0.681   5.739  0.2706  0.4286  0.3103
 5113SOL     OW26800   2.514   3.271  13.020 -0.3551 -0.0743 -0.2569
 5113SOL    HW126801   2.485   3.181  13.003 -0.7501 -0.0176  0.0956
 5113SOL    HW226802   2.608   3.257  13.021 -0.4354 -0.6359 -0.2198
 5114SOL     OW26803   1.244   3.748  10.684 -0.4145  0.5366 -0.1300
 5114SOL    HW126804   1.176   3.708  10.630 -0.3814  0.8282 -0.3908
 5114SOL    HW226805   1.308   3.678  10.687  1.5797  2.2737 -1.9606
 5115SOL     OW26806   1.422   1.979   0.068  0.5142 -0.0517  0.0648
 5115SOL    HW126807   1.409   2.073   0.056 -1.8362 -0.6237 -2.0595
 5115SOL    HW226808   1.354   1.939   0.013 -0.6701 -0.0926  1.5802
 5116SOL     OW26809   3.953   0.401  12.657 -0.3426  0.4368 -0.3719
 5116SOL    HW126810   4.026   0.380  12.715 -1.2081 -0.2309  0.4857
 5116SOL    HW226811   4.000   0.449  12.589  0.8383  2.0769  1.6068
 5117SOL     OW26812   2.674   0.077  10.739 -0.0916 -0.4877  0.0827
 5117SOL    HW126813   2.718   0.037  10.664  0.6264 -0.8489  0.6918
 5117SOL    HW226814   2.658   4.719  10.786  2.1094 -0.5018  0.8467
 5118SOL     OW26815   1.798   2.117  13.435  0.2435 -0.0262  0.1417
 5118SOL    HW126816   1.805   2.022  13.422 -2.6868 -0.2558  0.3627
 5118SOL    HW226817   1.856   2.135  13.509  0.4591 -3.3062  0.7546
 5119SOL     OW26818   2.097   1.051  10.380  0.1464  0.1937  0.3795
 5119SOL    HW126819   2.079   1.009  10.296 -0.5842 -0.1585  0.7113
 5119SOL    HW226820   2.160   0.997  10.428  0.8609  0.2381 -0.5144
 5120SOL     OW26821   1.393   1.976  16.655  0.0500 -0.2097 -0.2342
 5120SOL    HW126822   1.428   2.018  16.576  1.2383  0.9723  0.9093
 5120SOL    HW226823   1.470   1.950  16.706 -0.8148 -0.5944  0.8761
 5121SOL     OW26824   0.380   1.026   7.114  0.0917 -0.2756  0.5380
 5121SOL    HW126825   0.369   1.006   7.207  0.3492 -1.6836  0.2640
 5121SOL    HW226826   0.286   1.027   7.099  0.2563  2.5137 -0.2869
 5122SOL     OW26827   0.606   2.476  10.464 -0.0328  0.0308 -0.3583
 5122SOL    HW126828   0.675   2.441  10.520 -0.7977 -2.7487 -1.1272
 5122SOL    HW226829   0.651   2.556  10.438  2.0910 -0.4408  1.8395
 5123SOL     OW26830   1.518   3.716  12.171 -0.0977  0.6564  0.0095
 5123SOL    HW126831   1.606   3.695  12.139  0.0128 -0.6487  1.1853
 5123SOL    HW226832   1.519   3.810  12.150  0.8061  0.4346 -0.9531
 5124SOL     OW26833   1.692   3.180   4.035  0.1560 -0.1447  0.3089
 5124SOL    HW126834   1.708   3.147   4.124 -0.8382 -1.0985  0.1319
 5124SOL    HW226835   1.681   3.102   3.981 -0.2100 -0.4052  0.7593
 5125SOL     OW26836   0.209   1.720   5.453 -0.0948 -0.1943 -0.0603
 5125SOL    HW126837   0.157   1.797   5.475 -1.8721 -2.1302  2.4831
 5125SOL    HW226838   0.178   1.700   5.364 -0.0912  4.4578 -1.0863
 5126SOL     OW26839   3.975   2.819  16.156 -0.2693  0.0566  0.2194
 5126SOL    HW126840   3.961   2.885  16.088 -0.7322 -0.2176  0.0511
 5126SOL    HW226841   3.905   2.856  16.210  1.6871  2.8762  0.8083
 5127SOL     OW26842   3.201   1.099   0.523 -0.6230  0.3225 -0.1038
 5127SOL    HW126843   3.139   1.027   0.523 -0.0722 -0.1501  0.3275
 5127SOL    HW226844   3.175   1.139   0.606  1.5235  1.4433  0.0401
 5128SOL     OW26845   1.057   3.273  16.568  0.1526 -0.5740 -0.1691
 5128SOL    HW126846   1.043   3.336  16.639  2.4142 -0.0309 -0.1939
 5128SOL    HW226847   1.097   3.322  16.495 -1.5073  1.6835  0.4166
 5129SOL     OW26848   3.794   2.719   0.536 -0.1496 -0.2654 -0.2316
 5129SOL    HW126849   3.728   2.774   0.495 -1.8782 -0.6877  1.9645
 5129SOL    HW226850   3.834   2.690   0.454  1.2911  0.4145  0.2324
 5130SOL     OW26851   4.147   1.847  10.607  0.2643  0.1460  0.5599
 5130SOL    HW126852   4.144   1.895  10.690  2.1237 -0.5689  1.0471
 5130SOL    HW226853   4.057   1.831  10.579  0.4875  0.3120 -0.2559
 5131SOL     OW26854   2.292   1.293   6.538 -0.2873  0.0346 -0.4572
 5131SOL    HW126855   2.335   1.376   6.560  0.0877  0.1213 -1.5066
 5131SOL    HW226856   2.200   1.313   6.555 -0.0756  0.4542  0.1926
 5132SOL     OW26857   3.212   4.635   9.591  0.1263 -0.7975 -0.4773
 5132SOL    HW126858   3.255   4.550   9.590  2.8528  0.5935 -0.9402
 5132SOL    HW226859   3.156   4.640   9.669  1.4863  2.1498  0.2983
 5133SOL     OW26860   0.112   1.199   3.537 -1.2707  0.2372  0.0491
 5133SOL    HW126861   0.082   1.283   3.501  0.6754 -1.0770 -4.7336
 5133SOL    HW226862   0.103   1.138   3.464 -3.5781  1.0638 -0.3621
 5134SOL     OW26863   2.847   3.858   6.992 -0.2674 -0.3330 -0.2198
 5134SOL    HW126864   2.887   3.881   6.908 -1.0942 -1.2985 -0.8691
 5134SOL    HW226865   2.756   3.878   6.970 -0.6294 -1.1754  0.5618
 5135SOL     OW26866   2.547   0.447   6.424  0.2803 -0.1343  0.2232
 5135SOL    HW126867   2.553   0.420   6.332 -0.0892  2.4834 -0.5816
 5135SOL    HW226868   2.557   0.358   6.459  1.5474 -0.0919 -0.0287
 5136SOL     OW26869   2.898   0.744   3.871  0.4392 -0.1715  0.2117
 5136SOL    HW126870   2.866   0.792   3.795 -1.3881  0.3409  1.3006
 5136SOL    HW226871   2.921   0.660   3.831  3.1279  0.7699 -0.2230
 5137SOL     OW26872   0.627   0.494  11.687 -0.3744  0.4873  0.5718
 5137SOL    HW126873   0.664   0.581  11.671  0.3904 -0.0716 -0.7519
 5137SOL    HW226874   0.683   0.464  11.758  1.8392  1.1485 -0.8840
 5138SOL     OW26875   3.941   3.050   7.097 -0.2831  0.0697 -0.0594
 5138SOL    HW126876   3.939   2.992   7.021  0.7265 -0.6256  0.4496
 5138SOL    HW226877   3.909   2.991   7.165  1.0171 -0.9127 -0.3148
 5139SOL     OW26878   3.524   0.264   6.575  0.2458  0.1289  0.4270
 5139SOL    HW126879   3.467   0.315   6.632 -1.4310 -2.5355  1.1270
 5139SOL    HW226880   3.571   0.209   6.638  0.3031  0.8532  1.0090
 5140SOL     OW26881   3.412   0.781   6.497 -0.2175 -0.8119 -0.4174
 5140SOL    HW126882   3.479   0.713   6.509  0.6415  0.0718 -0.1832
 5140SOL    HW226883   3.361   0.749   6.423  0.5314 -1.2380 -0.7501
 5141SOL     OW26884   0.039   0.043   7.591  0.5186 -0.2693  0.3423
 5141SOL    HW126885   4.695   0.049   7.524  1.6746 -2.4494 -0.9996
 5141SOL    HW226886   0.082   4.683   7.577 -2.2766 -1.5767 -0.4979
 5142SOL     OW26887   3.162   3.461   4.432 -0.3098  0.3816  0.0133
 5142SOL    HW126888   3.226   3.485   4.499 -0.6525  0.3526  0.3525
 5142SOL    HW226889   3.209   3.382   4.405 -3.1987 -1.0901 -0.6562
 5143SOL     OW26890   2.337   3.520   0.229 -0.8193 -0.2220  0.4423
 5143SOL    HW126891   2.362   3.458   0.161 -0.2953  0.1541  0.2898
 5143SOL    HW226892   2.356   3.482   0.314  0.5496  1.7110  1.0162
 5144SOL     OW26893   4.357   2.682   7.578  0.4748 -0.0327  0.6774
 5144SOL    HW126894   4.310   2.603   7.603  1.4035 -0.6872  0.3275
 5144SOL    HW226895   4.415   2.693   7.654  0.4594 -0.5438  0.7589
 5145SOL     OW26896   3.642   1.467   6.662  0.0898  0.1393 -0.2608
 5145SOL    HW126897   3.727   1.469   6.618  1.4133  0.2204  2.3563
 5145SOL    HW226898   3.635   1.552   6.705 -3.2830 -0.6747  0.7872
 5146SOL     OW26899   2.966   2.215   1.538 -0.1596 -0.8130  0.3434
 5146SOL    HW126900   2.952   2.256   1.623  2.6245  2.6178 -0.8890
 5146SOL    HW226901   2.967   2.122   1.561  0.7815 -1.2962 -1.6555
 5147SOL     OW26902   3.413   3.111   2.895 -0.2681 -0.4860 -0.3116
 5147SOL    HW126903   3.326   3.080   2.918 -1.0265  1.3259 -0.7350
 5147SOL    HW226904   3.440   3.028   2.856  0.0518 -0.3686 -0.3448
 5148SOL     OW26905   1.356   3.306   1.032  0.1298  0.2660 -0.6349
 5148SOL    HW126906   1.318   3.331   0.948  0.2294  0.9796 -0.4669
 5148SOL    HW226907   1.309   3.226   1.056  0.3187  0.7899  1.4757
 5149SOL     OW26908   0.757   2.108   6.129  0.2636 -0.0455 -0.3064
 5149SOL    HW126909   0.663   2.104   6.113  0.3023  0.4263 -0.6583
 5149SOL    HW226910   0.781   2.184   6.076  0.6421 -0.7517 -1.1520
 5150SOL     OW26911   0.508   0.995   3.631  0.7203  0.2836 -0.1391
 5150SOL    HW126912   0.482   0.918   3.683  0.6631 -0.4231 -1.2068
 5150SOL    HW226913   0.571   1.037   3.689  1.5414  1.1181 -1.6614
 5151SOL     OW26914   3.076   3.812  17.669  0.7794  0.4345 -0.2549
 5151SOL    HW126915   3.019   3.872   0.019  0.2857  0.3834 -0.7697
 5151SOL    HW226916   3.154   3.806   0.026  1.1178 -1.8325 -1.0032
 5152SOL     OW26917   0.935   3.184  13.648  0.4488 -0.7215  0.3485
 5152SOL    HW126918   0.999   3.155  13.584 -0.5889 -1.7783 -0.2103
 5152SOL    HW226919   0.881   3.110  13.674 -0.8252 -0.1355 -0.5844
 5153SOL     OW26920   4.172   0.040   1.290 -0.3590  0.1439 -0.1977
 5153SOL    HW126921   4.156   0.115   1.347  0.0735 -2.1190  2.9504
 5153SOL    HW226922   4.078   0.032   1.275 -0.6062 -0.3460  1.5651
 5154SOL     OW26923   0.742   0.091   2.928 -0.1009  0.0813 -0.2236
 5154SOL    HW126924   0.743   0.154   3.000 -0.0760 -0.4307  0.2222
 5154SOL    HW226925   0.822   0.113   2.880  1.2129 -0.0832  1.9173
 5155SOL     OW26926   1.967   1.615  13.671  0.7148 -0.1305 -0.2108
 5155SOL    HW126927   2.008   1.699  13.651 -0.6196  0.9440  1.5482
 5155SOL    HW226928   1.904   1.640  13.738  1.8596 -0.7334  1.0988
 5156SOL     OW26929   2.960   2.856   8.847  0.0932 -0.1297 -0.7010
 5156SOL    HW126930   2.950   2.903   8.930 -2.5844 -0.6124 -0.7460
 5156SOL    HW226931   2.948   2.929   8.787 -0.8047 -0.3185 -0.7620
 5157SOL     OW26932   1.837   4.401  16.448 -0.2185  0.2247 -0.0764
 5157SOL    HW126933   1.753   4.442  16.426  0.3804  1.1881 -0.5307
 5157SOL    HW226934   1.829   4.393  16.543  1.8558 -0.7588  0.0075
 5158SOL     OW26935   0.953   3.674  15.814  0.0568  0.4744 -0.1823
 5158SOL    HW126936   0.952   3.586  15.850 -2.1444  0.7269  0.3706
 5158SOL    HW226937   0.892   3.716  15.874 -1.7748 -1.6921 -0.5525
 5159SOL     OW26938   3.738   4.395   6.717  0.0864  0.1097 -0.3125
 5159SOL    HW126939   3.796   4.445   6.660  0.8798 -0.2835  0.1483
 5159SOL    HW226940   3.699   4.331   6.657 -0.6046 -0.3063  0.5819
 5160SOL     OW26941   2.186   1.380   5.132 -0.9296  0.7488  0.5028
 5160SOL    HW126942   2.258   1.331   5.172 -0.3781  0.0652 -1.3184
 5160SOL    HW226943   2.183   1.463   5.179  2.3256  1.4006 -0.4399
 5161SOL     OW26944   0.270   3.490   2.042 -0.0661 -0.2470  0.8440
 5161SOL    HW126945   0.270   3.457   2.132  0.2301 -1.9748  0.2122
 5161SOL    HW226946   0.185   3.465   2.006  1.6794 -2.9569 -1.4493
 5162SOL     OW26947   1.773   2.678   1.352 -0.2000  0.1845 -0.4624
 5162SOL    HW126948   1.798   2.589   1.378  1.9698  0.6573 -0.9900
 5162SOL    HW226949   1.737   2.663   1.265 -0.2734 -1.0481 -0.2277
 5163SOL     OW26950   0.166   4.699  16.215 -0.3809 -0.3624  0.0580
 5163SOL    HW126951   0.130   4.722  16.129 -0.4481  2.6111  0.8952
 5163SOL    HW226952   0.157   4.603  16.216  3.5559 -0.7252  0.9395
 5164SOL     OW26953   2.951   1.712   6.955  0.2316  0.1266 -0.2480
 5164SOL    HW126954   2.944   1.795   6.907 -0.1974 -0.1018 -0.5821
 5164SOL    HW226955   3.032   1.683   6.912  1.7655  1.5926  1.6277
 5165SOL     OW26956   0.711   1.105   2.923 -0.2949  0.4517 -0.0768
 5165SOL    HW126957   0.799   1.119   2.960 -1.0765  1.8482  1.2650
 5165SOL    HW226958   0.713   1.173   2.856  3.5946 -0.6954 -1.1660
 5166SOL     OW26959   0.376   1.741   0.442 -0.4044  0.0282 -0.4328
 5166SOL    HW126960   0.406   1.695   0.364  0.1871  1.4099 -1.0234
 5166SOL    HW226961   0.446   1.806   0.453  2.1979 -2.4977 -2.0370
 5167SOL     OW26962   1.239   2.311  16.078  0.8607 -0.0702 -0.0224
 5167SOL    HW126963   1.257   2.252  16.005 -1.5314 -0.1011 -0.5811
 5167SOL    HW226964   1.184   2.380  16.041  1.6421  0.3731 -0.3647
 5168SOL     OW26965   2.883   3.404  15.810  0.4040  0.0079  0.2352
 5168SOL    HW126966   2.828   3.453  15.749  0.6936  0.2205  0.1445
 5168SOL    HW226967   2.944   3.474  15.833 -0.6776  0.9823  0.1414
 5169SOL     OW26968   0.369   4.364   3.731  0.1262  0.8044 -0.3147
 5169SOL    HW126969   0.339   4.385   3.643 -2.6635 -0.1857  0.4079
 5169SOL    HW226970   0.424   4.289   3.711  0.9720  1.8234 -1.7642
 5170SOL     OW26971   0.244   3.304   4.464  0.2390 -0.6489  0.4957
 5170SOL    HW126972   0.338   3.309   4.479  0.7290 -1.2868 -2.2942
 5170SOL    HW226973   0.213   3.389   4.495  2.0217  0.4686 -0.7490
 5171SOL     OW26974   4.071   2.580   7.425  0.9543 -0.2495  0.3818
 5171SOL    HW126975   4.087   2.587   7.331 -0.0420  3.1608  0.4799
 5171SOL    HW226976   4.112   2.499   7.456  2.1188 -0.8806 -2.7383
 5172SOL     OW26977   0.982   2.967   2.861  0.4713  0.2014 -0.0612
 5172SOL    HW126978   1.044   2.908   2.904  1.2047 -0.4297 -1.9785
 5172SOL    HW226979   0.895   2.945   2.896  0.2958  1.9784  0.6320
 5173SOL     OW26980   2.845   3.221   0.800  0.3745  0.0468  0.5834
 5173SOL    HW126981   2.779   3.249   0.736  0.8681 -0.2805 -0.0705
 5173SOL    HW226982   2.810   3.256   0.882  0.4417  0.1640  0.5614
 5174SOL     OW26983   0.448   1.886   8.577 -0.0070 -0.1399 -0.2773
 5174SOL    HW126984   0.490   1.815   8.625 -0.7983  0.8611  1.9252
 5174SOL    HW226985   0.395   1.836   8.515  0.8115 -1.4238  0.0756
 5175SOL     OW26986   0.279   0.676  11.803 -0.3623  0.1294 -0.0058
 5175SOL    HW126987   0.290   0.652  11.895  1.1089 -0.5750 -0.3763
 5175SOL    HW226988   0.276   0.593  11.755 -1.9689 -0.1116  0.5017
 5176SOL     OW26989   1.827   4.038   4.480  1.1531  0.1780  0.2978
 5176SOL    HW126990   1.922   4.040   4.492  0.9774 -0.9410  1.7754
 5176SOL    HW226991   1.791   4.071   4.562  0.1838 -1.5179  0.5411
 5177SOL     OW26992   0.089   2.639   0.715  0.3595  0.1750  0.1574
 5177SOL    HW126993   0.014   2.672   0.765  1.3440  0.7810  1.2513
 5177SOL    HW226994   0.080   2.671   0.626  2.5986  1.2397  0.3175
 5178SOL     OW26995   3.637   2.942   0.439 -0.7342  0.1565 -0.1757
 5178SOL    HW126996   3.622   2.994   0.518  2.2260  1.5871 -0.5446
 5178SOL    HW226997   3.608   3.002   0.370  0.7046  3.1039  1.7632
 5179SOL     OW26998   0.064   0.713  11.994 -0.2779  0.2297 -0.1880
 5179SOL    HW126999   0.019   0.657  11.932  2.3526 -1.9000 -0.1385
 5179SOL    HW227000   0.109   0.776  11.937  0.0749 -1.2006 -1.4757
 5180SOL     OW27001   2.002   4.460  15.049  0.0109 -0.2662 -0.2385
 5180SOL    HW127002   1.968   4.434  15.134 -0.1938 -2.2320 -0.9202
 5180SOL    HW227003   2.093   4.433  15.065  0.9819  1.0622 -3.5645
 5181SOL     OW27004   2.157   3.329   7.555  0.2844 -0.3710 -0.3822
 5181SOL    HW127005   2.222   3.275   7.601 -1.3319 -0.2199  2.1033
 5181SOL    HW227006   2.121   3.370   7.634 -0.5889 -2.1651  0.1597
 5182SOL     OW27007   4.604   1.524   5.577 -0.2122  0.1361 -0.3437
 5182SOL    HW127008   4.666   1.465   5.534 -1.2173 -0.9692 -0.2816
 5182SOL    HW227009   4.627   1.492   5.664 -0.2421 -0.8394 -0.6969
 5183SOL     OW27010   2.574   1.490  17.331  0.1094  0.0653 -0.1288
 5183SOL    HW127011   2.563   1.544  17.253  2.5673  2.1129  0.9172
 5183SOL    HW227012   2.579   1.567  17.387  1.3802  0.9350 -1.4195
 5184SOL     OW27013   4.011   4.295   5.440  0.1164 -0.6245 -0.2569
 5184SOL    HW127014   3.956   4.223   5.472 -2.3221  0.8859 -1.0104
 5184SOL    HW227015   3.963   4.373   5.469  0.3932 -0.5627  0.0262
 5185SOL     OW27016   2.064   3.720  14.949  0.2974 -0.0550 -0.4210
 5185SOL    HW127017   2.081   3.651  14.885  1.2038 -1.9740  1.8714
 5185SOL    HW227018   2.150   3.724  14.992  0.5948 -0.9323 -0.9341
 5186SOL     OW27019   3.532   0.143   7.172  0.0971  0.0623 -0.0169
 5186SOL    HW127020   3.586   0.064   7.186  1.1533  0.4618 -1.7930
 5186SOL    HW227021   3.459   0.113   7.118 -2.2651  1.1348  2.5760
 5187SOL     OW27022   3.186   0.909   4.765 -0.1118 -0.6842 -0.0130
 5187SOL    HW127023   3.236   0.829   4.748 -0.3064 -0.7095 -0.4554
 5187SOL    HW227024   3.098   0.877   4.745 -0.1369  0.3892 -1.5267
 5188SOL     OW27025   0.808   2.962   6.166 -0.5316 -0.5809 -0.1196
 5188SOL    HW127026   0.749   3.027   6.130  1.1048 -0.6691 -2.9728
 5188SOL    HW227027   0.867   2.957   6.091 -2.1357  1.3599 -1.4736
 5189SOL     OW27028   0.104   1.560   8.126 -0.8642  0.1154 -0.2811
 5189SOL    HW127029   0.050   1.612   8.186 -0.1698 -1.0485  1.3570
 5189SOL    HW227030   0.157   1.513   8.191  1.3790  0.9853 -1.4556
 5190SOL     OW27031   3.680   1.026   1.441  0.4511 -0.2372  0.0427
 5190SOL    HW127032   3.608   1.074   1.400  0.1723 -1.3251 -0.7717
 5190SOL    HW227033   3.636   0.941   1.450  1.6539 -1.1052 -2.0574
 5191SOL     OW27034   2.243   0.093   8.158 -0.1085  0.1076 -0.5798
 5191SOL    HW127035   2.255   0.084   8.252  0.3808  1.0340 -0.5521
 5191SOL    HW227036   2.179   0.023   8.151  0.7428 -0.6792 -0.5630
 5192SOL     OW27037   1.618   2.591  16.787  0.0636 -0.0779 -0.1205
 5192SOL    HW127038   1.525   2.608  16.798  0.1688  0.0792  0.4856
 5192SOL    HW227039   1.652   2.627  16.868 -1.1078 -1.1171  0.8302
 5193SOL     OW27040   4.075   3.279  11.719 -0.3494  0.0437  0.2158
 5193SOL    HW127041   4.085   3.185  11.732  1.1871 -0.0517 -1.6923
 5193SOL    HW227042   4.075   3.290  11.624  0.0007  2.8836  0.5443
 5194SOL     OW27043   1.011   1.065   4.925  0.2239  0.7428  0.1506
 5194SOL    HW127044   0.967   1.029   5.002  0.6047 -1.4462 -0.6608
 5194SOL    HW227045   1.098   1.025   4.913 -0.4342 -0.9495  1.0020
 5195SOL     OW27046   4.030   3.885   5.580  0.0451 -0.0975 -0.3091
 5195SOL    HW127047   4.117   3.907   5.615 -0.1418 -0.4522  0.3904
 5195SOL    HW227048   3.999   3.841   5.659  1.5275 -0.5442  0.0180
 5196SOL     OW27049   1.241   2.393   8.132  0.2430  0.5178 -0.1920
 5196SOL    HW127050   1.188   2.389   8.211 -0.3065 -0.0780 -0.5904
 5196SOL    HW227051   1.179   2.449   8.085 -0.1941  0.0857 -0.1351
 5197SOL     OW27052   2.221   3.647  13.243  0.0603  0.2370 -0.1351
 5197SOL    HW127053   2.194   3.726  13.291 -1.2568  0.4166 -1.1789
 5197SOL    HW227054   2.145   3.602  13.207  0.5532 -0.8079  0.1289
 5198SOL     OW27055   1.386   2.265   5.749  0.1734  0.7278  0.5709
 5198SOL    HW127056   1.361   2.234   5.836 -1.1993  1.5021  0.4460
 5198SOL    HW227057   1.387   2.359   5.765  4.3032  0.6474  0.7503
 5199SOL     OW27058   2.970   0.400   4.211  0.0931  0.3293  0.7251
 5199SOL    HW127059   2.998   0.492   4.211  1.4849 -0.0787  2.5990
 5199SOL    HW227060   2.880   0.406   4.180 -1.0595 -1.6526  3.7026
 5200SOL     OW27061   1.519   3.332   8.143 -0.4964 -0.1186 -0.4045
 5200SOL    HW127062   1.498   3.417   8.103  1.4612 -0.3974 -2.0637
 5200SOL    HW227063   1.603   3.313   8.100 -0.2078 -0.3858  0.2822
 5201SOL     OW27064   4.440   0.702   8.396  0.1904  0.1863 -0.1766
 5201SOL    HW127065   4.381   0.684   8.322 -1.6646  1.3292  1.0381
 5201SOL    HW227066   4.422   0.630   8.457  1.5727 -0.3891 -0.4354
 5202SOL     OW27067   3.263   0.162   1.256 -0.1317 -0.3138  0.3344
 5202SOL    HW127068   3.312   0.175   1.174 -1.2005 -3.1662 -0.7765
 5202SOL    HW227069   3.245   0.068   1.246 -0.3795 -0.0849 -1.3590
 5203SOL     OW27070   2.572   3.831   2.554  0.1381  0.3002 -0.4431
 5203SOL    HW127071   2.553   3.860   2.464  0.2710  1.3131 -0.1351
 5203SOL    HW227072   2.631   3.900   2.583  1.0109  0.0002 -1.4977
 5204SOL     OW27073   1.270   3.642  14.930 -0.7828  0.1007  0.0328
 5204SOL    HW127074   1.193   3.617  14.981  0.8375 -2.9562  0.9679
 5204SOL    HW227075   1.255   3.736  14.936  2.2714  0.6408 -0.8434
 5205SOL     OW27076   2.092   2.407   0.662 -0.0848  0.1365 -0.1552
 5205SOL    HW127077   2.150   2.471   0.703  0.8247 -1.0298  0.3517
 5205SOL    HW227078   2.029   2.389   0.731  0.2118 -0.7881 -0.1329
 5206SOL     OW27079   3.977   1.544  14.720 -0.5449 -0.1884  0.3571
 5206SOL    HW127080   3.924   1.585  14.652  1.8512  0.9669 -0.7901
 5206SOL    HW227081   3.927   1.469  14.753  2.7397 -1.9614  1.2283
 5207SOL     OW27082   2.274   3.784   2.990 -0.2861 -0.0115 -0.3971
 5207SOL    HW127083   2.328   3.706   2.979  1.3118  1.1324 -0.6449
 5207SOL    HW227084   2.285   3.822   2.903  0.0426  0.5078 -0.1274
 5208SOL     OW27085   3.918   0.869  15.740 -0.6243  0.3256  0.2359
 5208SOL    HW127086   3.908   0.856  15.834  0.1341 -0.7132  0.1707
 5208SOL    HW227087   3.960   0.955  15.730  0.1883 -0.1168 -0.1272
 5209SOL     OW27088   0.397   1.249   1.922  0.9406 -0.6281  0.0117
 5209SOL    HW127089   0.435   1.297   1.848  0.7682 -0.2009  0.2011
 5209SOL    HW227090   0.308   1.241   1.889  0.4973  0.0947  1.0492
 5210SOL     OW27091   1.412   2.526   6.264  0.2171 -0.5966  0.1708
 5210SOL    HW127092   1.437   2.615   6.237  0.6454 -0.5781  0.6171
 5210SOL    HW227093   1.420   2.537   6.359 -0.9539  0.3873  0.1558
 5211SOL     OW27094   1.143   4.429  10.990 -1.0493 -0.0984 -0.3675
 5211SOL    HW127095   1.092   4.421  11.070  0.8029 -3.4288  0.4631
 5211SOL    HW227096   1.071   4.429  10.926  0.0729  0.9811 -1.6470
 5212SOL     OW27097   1.691   4.557  15.215  0.3625 -0.4330  0.4063
 5212SOL    HW127098   1.761   4.495  15.234  0.4965 -0.5980 -0.6312
 5212SOL    HW227099   1.728   4.627  15.162  2.8313 -1.0443  1.3673
 5213SOL     OW27100   1.984   2.980  15.271  1.0275 -0.6565  0.0870
 5213SOL    HW127101   1.964   3.010  15.182  1.1060  1.4895  0.7869
 5213SOL    HW227102   2.020   2.895  15.248 -1.3611 -1.7556  0.4395
 5214SOL     OW27103   2.794   0.963   2.519  0.0638 -0.7095 -0.6511
 5214SOL    HW127104   2.794   0.979   2.425  2.7551 -1.5567 -0.7801
 5214SOL    HW227105   2.715   0.909   2.533 -0.8115  1.0386  1.0974
 5215SOL     OW27106   0.849   2.696   6.536  0.1140 -0.4227  0.4077
 5215SOL    HW127107   0.795   2.650   6.601  2.0635  0.0575  2.3904
 5215SOL    HW227108   0.900   2.626   6.493 -1.8598 -0.9772 -1.0204
 5216SOL     OW27109   0.736   3.403   6.297 -0.6075  0.0865 -0.0982
 5216SOL    HW127110   0.685   3.481   6.318  1.7783  1.0013  2.3754
 5216SOL    HW227111   0.670   3.352   6.250 -0.5247 -1.0131  0.9789
 5217SOL     OW27112   1.698   1.725   8.770  0.2167  0.4193 -0.2355
 5217SOL    HW127113   1.663   1.765   8.850 -0.5665 -1.3261  0.3140
 5217SOL    HW227114   1.726   1.642   8.808 -1.9128 -0.7330 -1.1701
 5218SOL     OW27115   0.995   0.991  13.347 -0.0791 -0.5420  0.2791
 5218SOL    HW127116   0.913   1.032  13.377  1.0091  1.6518  0.2544
 5218SOL    HW227117   0.980   0.907  13.390 -1.8375  0.7175  2.1469
 5219SOL     OW27118   3.117   1.040   3.602 -0.0753  0.0703  0.0729
 5219SOL    HW127119   3.197   1.029   3.551  1.0294  0.1221  1.8360
 5219SOL    HW227120   3.066   1.104   3.552 -0.7831 -0.1084  0.5717
 5220SOL     OW27121   3.244   1.634  13.496  0.0761 -0.6648  0.1102
 5220SOL    HW127122   3.249   1.623  13.401  1.4270 -1.4598  0.2696
 5220SOL    HW227123   3.192   1.559  13.525 -3.4358  1.0720 -1.8175
 5221SOL     OW27124   3.469   2.401   6.515  0.7014  0.0026  0.6632
 5221SOL    HW127125   3.442   2.483   6.474 -1.7245 -2.0388 -1.8142
 5221SOL    HW227126   3.411   2.336   6.475  2.0231 -1.1797  0.6532
 5222SOL     OW27127   2.628   2.723   2.390 -0.1280  0.9558 -0.0534
 5222SOL    HW127128   2.574   2.738   2.312  1.7847  0.7787 -1.4065
 5222SOL    HW227129   2.708   2.767   2.362  0.6935  1.1997  2.6359
 5223SOL     OW27130   4.180   2.588   4.276  0.4399 -0.5558  0.6354
 5223SOL    HW127131   4.117   2.647   4.316 -0.4111 -1.4520  0.6219
 5223SOL    HW227132   4.263   2.625   4.307 -0.1250 -0.8810  2.5104
 5224SOL     OW27133   1.586   4.362  11.286 -0.4392  0.0446 -0.0322
 5224SOL    HW127134   1.551   4.308  11.215 -0.7824  1.1165 -0.6692
 5224SOL    HW227135   1.559   4.449  11.256  3.6808  1.4360  0.2420
 5225SOL     OW27136   1.037   4.088   8.526 -0.2132 -0.6729 -0.7870
 5225SOL    HW127137   1.027   4.157   8.592  1.5927 -1.4000  0.2599
 5225SOL    HW227138   1.005   4.125   8.444  1.6484  0.2274 -1.1001
 5226SOL     OW27139   0.369   3.299   1.861 -0.4364 -0.6912 -0.0170
 5226SOL    HW127140   0.464   3.284   1.862 -0.4234 -0.6167 -0.5744
 5226SOL    HW227141   0.350   3.357   1.936  1.1482  0.7451 -0.7087
 5227SOL     OW27142   0.978   2.585   8.934  0.4341  0.0471 -0.1631
 5227SOL    HW127143   0.979   2.636   8.853 -0.7472  1.4605  0.6940
 5227SOL    HW227144   0.915   2.637   8.985 -0.5643  0.0423 -1.3669
 5228SOL     OW27145   2.751   2.608  10.983  0.1180  0.2816  0.0707
 5228SOL    HW127146   2.701   2.529  10.999  1.7837 -0.9252 -0.6277
 5228SOL    HW227147   2.768   2.602  10.889  0.7316 -0.4101  0.2197
 5229SOL     OW27148   1.877   0.519   2.406  0.4006  0.0117 -0.2394
 5229SOL    HW127149   1.807   0.552   2.462  0.0740  0.2158 -0.7635
 5229SOL    HW227150   1.855   0.543   2.316  2.1694 -1.1617 -0.9899
 5230SOL     OW27151   0.734   1.263   2.428 -0.3193  0.0650  0.3185
 5230SOL    HW127152   0.748   1.222   2.343  1.7339 -1.4797  1.4071
 5230SOL    HW227153   0.709   1.351   2.398 -0.5154 -0.6193 -1.5235
 5231SOL     OW27154   4.260   0.752  13.038  0.0989  0.2182  0.8185
 5231SOL    HW127155   4.166   0.731  13.043 -0.3128  1.4311 -1.9818
 5231SOL    HW227156   4.261   0.847  13.044 -0.3388  0.4122 -2.2169
 5232SOL     OW27157   3.797   1.634   6.979  0.5087 -0.2881 -0.2695
 5232SOL    HW127158   3.736   1.595   7.042 -1.4331  0.4280 -1.6978
 5232SOL    HW227159   3.819   1.554   6.932  2.4451 -2.0224  3.5687
 5233SOL     OW27160   2.675   4.448   4.429 -0.3257 -0.1458 -0.4833
 5233SOL    HW127161   2.627   4.507   4.487 -0.0156  1.1965 -1.5962
 5233SOL    HW227162   2.762   4.489   4.421 -1.4101  2.0088 -1.0961
 5234SOL     OW27163   1.979   4.312   6.710  0.0984 -0.3688  0.4901
 5234SOL    HW127164   2.020   4.379   6.765  2.3186 -2.2357  1.0649
 5234SOL    HW227165   2.008   4.233   6.756 -1.5564 -1.4311 -0.2795
 5235SOL     OW27166   4.076   2.132  10.502 -0.1261  0.2608  0.3232
 5235SOL    HW127167   4.011   2.143  10.433 -0.6875 -2.5783  0.3992
 5235SOL    HW227168   4.031   2.074  10.563  2.7159 -1.6945  0.5766
 5236SOL     OW27169   1.701   1.492  17.205 -0.7930  0.6388 -0.4254
 5236SOL    HW127170   1.726   1.560  17.268 -1.6554  0.2940  0.2768
 5236SOL    HW227171   1.621   1.465  17.249 -0.5623  0.7832  0.0809
 5237SOL     OW27172   1.155   1.503   1.909 -0.3697 -0.4753  0.3152
 5237SOL    HW127173   1.237   1.486   1.862 -0.9090 -1.3785 -0.2828
 5237SOL    HW227174   1.156   1.428   1.968  1.8408 -0.8820 -0.2303
 5238SOL     OW27175   2.580   1.666   8.790  0.2091  0.1937 -0.2709
 5238SOL    HW127176   2.494   1.703   8.769 -0.2947 -2.0614 -2.0914
 5238SOL    HW227177   2.595   1.715   8.871  0.6303 -2.7058  1.3842
 5239SOL     OW27178   3.925   1.325  10.279 -0.5778  0.2542 -0.3935
 5239SOL    HW127179   3.950   1.414  10.255  0.8617 -0.7993 -2.7840
 5239SOL    HW227180   3.874   1.345  10.358  1.2270 -3.5340  1.7580
 5240SOL     OW27181   4.688   4.493   6.542  0.0353 -0.0935 -0.6124
 5240SOL    HW127182   4.674   4.401   6.566 -0.4808  0.3706  0.8185
 5240SOL    HW227183   0.059   4.488   6.550 -0.0549 -1.5104 -0.2802
 5241SOL     OW27184   3.094   2.805  13.438 -0.1798 -0.1023 -0.0294
 5241SOL    HW127185   3.127   2.891  13.412  1.8597 -0.6083  0.8745
 5241SOL    HW227186   3.121   2.811  13.529  0.9625  0.8361 -0.4261
 5242SOL     OW27187   2.501   2.313   6.901  0.4087 -0.6835  0.3635
 5242SOL    HW127188   2.416   2.276   6.876  0.1347  0.8933 -1.0567
 5242SOL    HW227189   2.470   2.383   6.958 -0.8456  1.0168 -2.4281
 5243SOL     OW27190   1.255   1.919   5.028 -0.1173 -0.7197  0.8041
 5243SOL    HW127191   1.238   1.927   5.122 -2.1215  3.1339  0.1412
 5243SOL    HW227192   1.208   1.842   4.998  1.2800 -2.0046  1.9589
 5244SOL     OW27193   4.687   0.819   2.963 -0.0083 -0.4934 -0.1125
 5244SOL    HW127194   4.685   0.737   2.915  1.6902 -0.3097 -0.5100
 5244SOL    HW227195   0.057   0.836   2.948  0.4545 -1.1327  2.0873
 5245SOL     OW27196   0.778   2.993  17.133 -0.7311  0.3737 -0.4504
 5245SOL    HW127197   0.782   2.931  17.206 -1.9217  0.4853 -0.2993
 5245SOL    HW227198   0.853   3.046  17.159 -2.7524  2.7822  0.4589
 5246SOL     OW27199   2.513   1.302   4.102 -0.4881 -0.0255  0.0319
 5246SOL    HW127200   2.566   1.301   4.182 -0.7890 -0.2621  0.2287
 5246SOL    HW227201   2.538   1.375   4.045 -1.3401  0.1517 -0.1249
 5247SOL     OW27202   0.601   2.891  15.109  0.4729  0.3789  0.4238
 5247SOL    HW127203   0.638   2.835  15.040  1.5040 -0.1703  1.4214
 5247SOL    HW227204   0.648   2.868  15.189 -2.1353  2.4635  2.5461
 5248SOL     OW27205   0.343   4.015  16.836  0.0702 -0.8204 -0.2296
 5248SOL    HW127206   0.377   3.968  16.912  0.6081 -0.4469 -0.2421
 5248SOL    HW227207   0.293   3.940  16.804 -2.0749 -0.2456  1.7605
 5249SOL     OW27208   1.782   2.171   7.735 -0.4837 -0.7061  0.1145
 5249SOL    HW127209   1.750   2.219   7.659 -0.0510 -3.1153 -1.5706
 5249SOL    HW227210   1.846   2.116   7.689 -1.9849 -1.3006 -1.2538
 5250SOL     OW27211   1.135   0.246   3.967  0.4089 -0.2308 -0.4294
 5250SOL    HW127212   1.138   0.304   4.043  0.7024 -0.6870 -0.0923
 5250SOL    HW227213   1.064   0.290   3.920  0.0367  0.1029  0.4606
 5251SOL     OW27214   0.921   1.665   7.033 -0.1907  0.3789 -0.6015
 5251SOL    HW127215   0.864   1.589   7.042 -1.4225  1.2253 -1.1404
 5251SOL    HW227216   0.993   1.634   6.979  0.0627  0.7818 -0.4923
 5252SOL     OW27217   2.549   4.269   8.534 -0.0638 -0.2660  0.0601
 5252SOL    HW127218   2.583   4.356   8.556 -0.7898  0.1102 -0.3292
 5252SOL    HW227219   2.493   4.255   8.610  1.8567 -0.1162  1.5091
 5253SOL     OW27220   4.608   3.076  16.690  0.0232  0.1082  0.2664
 5253SOL    HW127221   4.696   3.061  16.658 -0.1394  0.7273 -0.4505
 5253SOL    HW227222   4.636   3.150  16.744 -0.7949  2.4500 -2.4999
 5254SOL     OW27223   3.229   2.419   1.192  0.2201 -0.5256  0.8525
 5254SOL    HW127224   3.324   2.425   1.177  0.0829  0.0677  0.2065
 5254SOL    HW227225   3.227   2.498   1.245  1.7393  0.2533 -0.2209
 5255SOL     OW27226   2.584   4.092  12.364 -0.4717  0.1633  0.2231
 5255SOL    HW127227   2.603   4.149  12.289  0.6980  1.3191  1.4122
 5255SOL    HW227228   2.581   4.162  12.429 -2.5621 -0.6370  0.9986
 5256SOL     OW27229   0.497   3.421   4.186  0.0225 -0.0301 -0.1960
 5256SOL    HW127230   0.548   3.366   4.127  0.6602  2.1029 -1.6125
 5256SOL    HW227231   0.495   3.356   4.257  1.0524  0.5858  0.3864
 5257SOL     OW27232   0.428   0.519   5.294 -0.7389 -0.5939 -0.1553
 5257SOL    HW127233   0.516   0.543   5.324  0.3385 -3.1631 -1.1760
 5257SOL    HW227234   0.439   0.544   5.203 -1.3449 -0.6469 -0.2378
 5258SOL     OW27235   4.517   4.258  15.370  0.5030  0.4305  0.2929
 5258SOL    HW127236   4.518   4.354  15.378 -2.0442  0.3979  0.7629
 5258SOL    HW227237   4.606   4.237  15.342  0.3448  0.6265 -0.3599
 5259SOL     OW27238   1.254   3.905   1.691 -0.4423  0.2084 -0.6186
 5259SOL    HW127239   1.345   3.892   1.664 -0.6891  0.3655 -1.5308
 5259SOL    HW227240   1.234   3.812   1.678  1.0218 -0.2345  0.2608
 5260SOL     OW27241   1.151   1.576   5.553 -0.5174 -0.6148  0.2984
 5260SOL    HW127242   1.236   1.609   5.583  0.1475 -0.9674 -1.1978
 5260SOL    HW227243   1.166   1.514   5.482  0.0199  1.4563 -1.3994
 5261SOL     OW27244   1.649   1.442   6.820 -0.5914  0.5736  0.0423
 5261SOL    HW127245   1.664   1.430   6.726  0.0180  1.9168 -0.0402
 5261SOL    HW227246   1.706   1.375   6.857 -0.1613 -0.2399 -2.1021
 5262SOL     OW27247   0.668   4.069  12.703  0.0421  0.1063 -0.4136
 5262SOL    HW127248   0.667   4.016  12.623  0.2513 -0.5884  0.0464
 5262SOL    HW227249   0.763   4.072  12.717 -0.1833 -0.3192  1.2024
 5263SOL     OW27250   0.543   2.190   0.423 -0.3445 -0.2080  0.1627
 5263SOL    HW127251   0.454   2.200   0.391 -1.0173 -0.7292  1.8703
 5263SOL    HW227252   0.590   2.213   0.343 -3.5649 -1.2749 -1.9978
 5264SOL     OW27253   1.574   3.804   7.984 -0.6352 -0.4553 -0.1946
 5264SOL    HW127254   1.583   3.789   8.079  0.0937  0.5699 -0.1084
 5264SOL    HW227255   1.571   3.899   7.990  0.0903 -0.3865 -0.8994
 5265SOL     OW27256   3.060   1.683  13.739 -0.0722  1.0155  0.1639
 5265SOL    HW127257   3.066   1.601  13.690  2.5734  0.9280  0.6377
 5265SOL    HW227258   2.986   1.729  13.701 -0.9385  0.7516  1.5374
 5266SOL     OW27259   2.319   4.674   6.366  0.0207 -0.6885 -0.3848
 5266SOL    HW127260   2.304   0.044   6.375 -0.5953 -0.9577  1.6192
 5266SOL    HW227261   2.233   4.635   6.350 -0.4531  0.3051 -0.2568
 5267SOL     OW27262   2.199   3.782   4.800 -0.2292 -0.2615 -0.1539
 5267SOL    HW127263   2.236   3.799   4.886 -1.1967  0.0873  0.1861
 5267SOL    HW227264   2.250   3.839   4.743 -4.0706  3.2118 -0.0892
 5268SOL     OW27265   0.916   2.855  10.783  0.4109  0.7130 -0.1137
 5268SOL    HW127266   0.912   2.899  10.868 -0.8579 -0.1177  0.2604
 5268SOL    HW227267   1.009   2.835  10.771  0.7908  2.6788 -0.4595
 5269SOL     OW27268   1.868   0.659  14.586 -0.3592 -0.4648 -0.6560
 5269SOL    HW127269   1.905   0.623  14.666 -0.6209 -0.8561 -0.7091
 5269SOL    HW227270   1.924   0.607  14.528  1.5630 -1.1666  1.8501
 5270SOL     OW27271   0.321   2.836   7.923 -0.1133 -0.1697  0.3363
 5270SOL    HW127272   0.350   2.756   7.967 -0.8220 -0.5988  0.0100
 5270SOL    HW227273   0.227   2.842   7.937  0.0068 -0.2781  1.2157
 5271SOL     OW27274   4.598   3.976   1.554 -0.5733  0.6385  0.0186
 5271SOL    HW127275   4.586   4.038   1.482  1.8314  0.6992 -0.3288
 5271SOL    HW227276   4.588   4.032   1.632  0.0257 -0.7209  1.0718
 5272SOL     OW27277   3.009   0.114   4.338  0.1738  0.2069 -0.8675
 5272SOL    HW127278   2.962   0.172   4.399 -1.3841 -0.4164 -1.4905
 5272SOL    HW227279   3.097   0.153   4.339  0.3550 -0.2300  0.6298
 5273SOL     OW27280   3.167   0.282  12.410 -0.3156 -0.4640  0.7579
 5273SOL    HW127281   3.188   0.189  12.410  0.6262 -0.2396  1.5802
 5273SOL    HW227282   3.081   0.287  12.453 -0.6769 -0.8986  0.0811
 5274SOL     OW27283   3.311   1.905   5.070  0.1912  0.4099 -0.0435
 5274SOL    HW127284   3.396   1.917   5.113  0.9227  0.7083 -1.5780
 5274SOL    HW227285   3.329   1.923   4.978  0.7559  0.9386  0.1673
 5275SOL     OW27286   3.718   0.454   5.953 -0.1391  0.5508 -0.4092
 5275SOL    HW127287   3.766   0.371   5.953  1.4698  1.5037  1.8165
 5275SOL    HW227288   3.635   0.429   5.993  0.9666 -1.5507  0.5863
 5276SOL     OW27289   0.691   4.202   8.168  0.6419  0.0117 -0.1199
 5276SOL    HW127290   0.626   4.267   8.141  0.8264  0.1809 -0.1581
 5276SOL    HW227291   0.771   4.252   8.186  2.2744 -2.2216 -1.2331
 5277SOL     OW27292   2.174   0.911   5.533  0.2383  0.1333 -0.1624
 5277SOL    HW127293   2.104   0.977   5.539  0.6493  0.7371 -2.2303
 5277SOL    HW227294   2.219   0.947   5.456  0.8450  1.1169  0.6416
 5278SOL     OW27295   1.871   3.720   5.848 -0.1281  0.3253 -0.4614
 5278SOL    HW127296   1.781   3.688   5.848 -0.1561  0.4028 -0.3803
 5278SOL    HW227297   1.893   3.703   5.939 -0.0043 -2.8806 -1.1111
 5279SOL     OW27298   0.552   1.006  12.433 -0.1462 -0.1602  0.0940
 5279SOL    HW127299   0.579   0.974  12.519  1.1937  2.2423  0.5590
 5279SOL    HW227300   0.599   1.089  12.437 -1.0034  0.4404 -2.4616
 5280SOL     OW27301   1.428   4.192  15.588 -0.2072  0.3714 -0.2703
 5280SOL    HW127302   1.351   4.214  15.535 -0.9820  0.4462  0.8940
 5280SOL    HW227303   1.475   4.142  15.520 -0.3277  1.7830 -1.3945
 5281SOL     OW27304   2.405   3.883   6.469 -0.6021 -0.7045  0.1783
 5281SOL    HW127305   2.351   3.825   6.523  1.0663 -1.3783  1.0976
 5281SOL    HW227306   2.415   3.828   6.392  1.7557  0.7526 -0.5531
 5282SOL     OW27307   1.605   2.436   5.495 -0.1206  0.1416 -0.1003
 5282SOL    HW127308   1.576   2.378   5.565 -0.2749 -0.1363 -0.3967
 5282SOL    HW227309   1.615   2.360   5.438 -2.1745 -0.8103  0.7863
 5283SOL     OW27310   2.854   0.849   3.632  0.0939  0.7880 -0.2104
 5283SOL    HW127311   2.876   0.763   3.596 -0.8632  0.6020 -0.3574
 5283SOL    HW227312   2.826   0.889   3.550  0.0569 -0.5692 -0.8622
 5284SOL     OW27313   1.595   1.563   4.313 -0.1788 -0.0621 -0.1015
 5284SOL    HW127314   1.686   1.558   4.341 -1.0023  1.2569  2.9045
 5284SOL    HW227315   1.609   1.645   4.265 -0.4843 -0.4288 -0.8219
 5285SOL     OW27316   2.917   3.952   0.682  0.2937 -0.0192  0.0163
 5285SOL    HW127317   2.903   3.859   0.699  3.7297 -0.3161  1.3222
 5285SOL    HW227318   2.831   3.973   0.647  1.1589  1.4010 -1.2653
 5286SOL     OW27319   4.512   0.114   3.504  0.3136  0.2743  0.7312
 5286SOL    HW127320   4.431   0.150   3.539 -0.4233 -3.9969  3.4053
 5286SOL    HW227321   4.536   0.154   3.420  0.5382 -1.1303  0.1126
 5287SOL     OW27322   2.700   3.365   6.679 -0.0006 -0.0067 -0.3688
 5287SOL    HW127323   2.699   3.291   6.740 -1.3666 -0.5384 -1.0394
 5287SOL    HW227324   2.625   3.345   6.623 -1.4052  1.2872  1.0578
 5288SOL     OW27325   3.832   1.536   1.318 -0.6020  0.2136 -0.2458
 5288SOL    HW127326   3.898   1.505   1.380  0.8006 -0.3499 -2.0146
 5288SOL    HW227327   3.753   1.516   1.367  0.0330  0.6424  0.9695
 5289SOL     OW27328   2.871   4.086   2.324 -0.0727  0.1511  0.4360
 5289SOL    HW127329   2.946   4.063   2.268 -1.0740 -1.6939 -0.1692
 5289SOL    HW227330   2.873   4.025   2.398  1.1965 -0.5291 -0.1588
 5290SOL     OW27331   4.641   0.765  11.012 -0.0227  0.1598  0.2700
 5290SOL    HW127332   4.665   0.719  10.931  1.1540  2.1714 -0.5354
 5290SOL    HW227333   4.590   0.699  11.058 -0.8008  0.3310 -0.3494
 5291SOL     OW27334   0.178   2.134   3.414  0.0653  0.4566  0.3632
 5291SOL    HW127335   0.130   2.127   3.496  0.9148  1.1978  0.9173
 5291SOL    HW227336   0.103   2.129   3.356  0.4369 -2.9869  0.1877
 5292SOL     OW27337   2.644   2.483   2.531 -0.1967  0.1537 -0.5155
 5292SOL    HW127338   2.729   2.499   2.572  0.5200 -2.0229 -1.1774
 5292SOL    HW227339   2.629   2.564   2.482  0.4128  0.4751 -0.1787
 5293SOL     OW27340   1.368   1.832   8.577 -0.3018  0.1978 -0.1040
 5293SOL    HW127341   1.431   1.778   8.530 -0.5941  0.2728 -0.5817
 5293SOL    HW227342   1.379   1.920   8.541  0.2056  0.2832  0.2567
 5294SOL     OW27343   0.859   3.506   0.969 -0.6407  0.2717  0.2414
 5294SOL    HW127344   0.776   3.519   1.015 -0.8247  0.3654 -0.1160
 5294SOL    HW227345   0.845   3.572   0.901  1.0161 -0.3315 -0.7034
 5295SOL     OW27346   2.267   2.307  13.689  0.1342 -0.2198  0.0048
 5295SOL    HW127347   2.188   2.265  13.656  0.5261  1.2332 -2.8120
 5295SOL    HW227348   2.229   2.353  13.763  0.1672  1.5594 -1.0684
 5296SOL     OW27349   3.472   3.896   9.180  0.0977 -0.4175 -0.1767
 5296SOL    HW127350   3.544   3.958   9.170  0.4387 -0.6393  0.8931
 5296SOL    HW227351   3.424   3.945   9.247  0.6469  0.1919 -0.2366
 5297SOL     OW27352   2.688   1.059   7.417 -0.0734 -0.1627 -0.1572
 5297SOL    HW127353   2.775   1.022   7.403 -0.3468 -1.8544  2.6402
 5297SOL    HW227354   2.690   1.068   7.512  0.3429 -1.6482 -0.0177
 5298SOL     OW27355   3.769   0.029   7.557 -0.1005  0.4839 -0.9641
 5298SOL    HW127356   3.709   0.051   7.628  0.4092 -0.8149 -0.1247
 5298SOL    HW227357   3.854   0.018   7.600 -1.6650 -0.6585  1.7956
 5299SOL     OW27358   2.559   3.301   4.182  0.5951 -0.4023  0.6138
 5299SOL    HW127359   2.618   3.232   4.212  0.8277  0.0391  1.1832
 5299SOL    HW227360   2.500   3.240   4.137 -1.1799  0.9888  1.0350
 5300SOL     OW27361   0.971   1.330   3.997  0.1707 -0.1728  0.0765
 5300SOL    HW127362   0.901   1.335   3.932 -0.4436 -2.2946  0.5909
 5300SOL    HW227363   1.047   1.376   3.960 -1.1008  0.3056 -1.9322
 5301SOL     OW27364   0.873   3.717   2.464 -0.8840 -0.8182 -0.1294
 5301SOL    HW127365   0.960   3.758   2.461 -1.6334  0.9129  1.3058
 5301SOL    HW227366   0.823   3.797   2.446  1.3898  0.3165 -1.5044
 5302SOL     OW27367   3.294   3.610   2.214 -0.2208  0.5207 -0.2989
 5302SOL    HW127368   3.342   3.685   2.249 -0.5643  0.0197  1.2279
 5302SOL    HW227369   3.360   3.583   2.149 -1.5614  0.3789 -1.6054
 5303SOL     OW27370   3.568   0.370  17.168  0.0120  0.2825 -0.0440
 5303SOL    HW127371   3.516   0.291  17.155 -1.0072  1.2185 -1.6912
 5303SOL    HW227372   3.509   0.414  17.229  0.1374 -0.4693  0.6209
 5304SOL     OW27373   2.706   3.400   4.693  0.1346  0.1857 -0.1418
 5304SOL    HW127374   2.660   3.331   4.644 -1.0310  0.1607  0.9926
 5304SOL    HW227375   2.789   3.412   4.647 -0.4256 -1.1827 -1.5301
 5305SOL     OW27376   3.047   3.513   8.019 -0.1587  0.4006 -0.4529
 5305SOL    HW127377   3.042   3.607   8.041  1.2422  0.1193  1.0468
 5305SOL    HW227378   3.137   3.488   8.040 -0.5949 -0.8872 -0.1052
 5306SOL     OW27379   0.804   3.850  17.667  0.1304  0.1666  0.0274
 5306SOL    HW127380   0.787   3.889   0.055 -2.4760 -1.9841  0.4627
 5306SOL    HW227381   0.731   3.897  17.629 -1.2468 -2.9055 -1.1341
 5307SOL     OW27382   1.628   1.131   4.342 -0.0781 -0.2010  0.2629
 5307SOL    HW127383   1.617   1.187   4.266  3.7940  0.7218  0.4141
 5307SOL    HW227384   1.540   1.094   4.356  0.0209 -0.4056  0.3593
 5308SOL     OW27385   1.243   0.863   3.800 -0.0236  0.3052 -0.1513
 5308SOL    HW127386   1.339   0.873   3.801 -0.1069  0.8841  1.9210
 5308SOL    HW227387   1.239   0.786   3.857  1.4788 -0.1139 -0.6149
 5309SOL     OW27388   1.009   3.125   2.112 -0.5864 -0.2323 -0.1200
 5309SOL    HW127389   1.093   3.169   2.102 -0.5047  0.0906  2.0059
 5309SOL    HW227390   1.032   3.075   2.190  1.4357 -0.7463 -1.0630
 5310SOL     OW27391   0.888   3.805  17.004 -0.0121 -0.1561  0.3121
 5310SOL    HW127392   0.934   3.723  17.021  0.1505 -0.5269 -1.9592
 5310SOL    HW227393   0.908   3.807  16.911 -0.5390 -1.6394  0.1592
 5311SOL     OW27394   0.436   4.401  11.677 -0.0520  0.2425  0.3107
 5311SOL    HW127395   0.366   4.440  11.624  1.0429  1.2316 -0.3935
 5311SOL    HW227396   0.503   4.393  11.609 -0.8967  0.1493 -0.5138
 5312SOL     OW27397   4.089   4.437   7.989 -0.8939 -0.5526  0.0389
 5312SOL    HW127398   4.095   4.415   7.896 -0.8980  0.8527 -0.2928
 5312SOL    HW227399   4.020   4.379   8.022  0.0134 -0.0698  2.8248
 5313SOL     OW27400   4.405   1.748   5.133  0.4924 -0.2042 -0.0518
 5313SOL    HW127401   4.346   1.794   5.192 -1.3209 -2.1274 -0.3819
 5313SOL    HW227402   4.343   1.686   5.097 -1.3631  0.0159  2.7284
 5314SOL     OW27403   4.601   3.823  17.499 -0.1193  0.5190  0.4384
 5314SOL    HW127404   4.527   3.882  17.511  0.1892  0.8500  0.6897
 5314SOL    HW227405   4.579   3.787  17.413  1.6253  1.6328 -0.4742
 5315SOL     OW27406   2.479   2.571   2.952 -0.7385 -0.6139 -0.7909
 5315SOL    HW127407   2.444   2.534   2.871 -0.3597 -2.4034 -0.1361
 5315SOL    HW227408   2.472   2.491   3.004 -0.4206 -0.6877 -0.8605
 5316SOL     OW27409   1.779   3.636  15.053  0.1143  0.1118  0.2194
 5316SOL    HW127410   1.751   3.710  15.108  0.3784  1.4250 -1.4198
 5316SOL    HW227411   1.723   3.627  14.976 -0.2482  0.2727  0.4625
 5317SOL     OW27412   2.916   1.700  15.491 -0.2545 -0.0524  0.3344
 5317SOL    HW127413   2.911   1.687  15.586  0.7584 -0.8271  0.2733
 5317SOL    HW227414   2.958   1.785  15.481 -1.0838  0.1574 -1.3230
 5318SOL     OW27415   3.674   3.788   8.623  0.4788  0.3932  0.2221
 5318SOL    HW127416   3.653   3.826   8.538 -1.0937 -0.4548  0.2251
 5318SOL    HW227417   3.585   3.781   8.658 -0.0511  2.0425 -0.8149
 5319SOL     OW27418   0.412   0.423  16.649 -0.5491  0.5445 -0.0797
 5319SOL    HW127419   0.456   0.363  16.708 -0.8416 -0.6087 -1.0451
 5319SOL    HW227420   0.375   0.486  16.711 -1.6974  0.6919 -0.9110
 5320SOL     OW27421   0.005   3.545   0.327  0.5102  0.2614  0.3626
 5320SOL    HW127422   4.694   3.585   0.407  1.2579  1.8741 -0.1129
 5320SOL    HW227423   0.058   3.623   0.306  0.3566 -0.1884 -1.6619
 5321SOL     OW27424   4.205   0.068  12.944 -0.1055  0.2275  0.2024
 5321SOL    HW127425   4.244   0.033  13.024  3.1153 -0.7053 -1.7715
 5321SOL    HW227426   4.220   4.718  12.885 -2.4457  1.1305 -1.5315
 5322SOL     OW27427   2.087   2.658   2.387  0.0752 -0.5645 -0.0587
 5322SOL    HW127428   2.040   2.726   2.338  0.2348 -0.8309 -0.5754
 5322SOL    HW227429   2.042   2.676   2.470 -0.7657 -1.3992 -0.3257
 5323SOL     OW27430   2.646   1.846  12.980  0.4193 -0.0623  0.2291
 5323SOL    HW127431   2.715   1.796  12.936  0.6895  0.3803  0.1571
 5323SOL    HW227432   2.671   1.835  13.071  0.0356 -0.0069  0.3411
 5324SOL     OW27433   2.954   3.279   2.779  0.1321 -0.0955 -0.3422
 5324SOL    HW127434   2.967   3.373   2.791  0.7126 -0.2983  0.6190
 5324SOL    HW227435   2.872   3.278   2.729  1.5645 -1.0954 -2.6749
 5325SOL     OW27436   4.357   0.332   6.085  0.6242 -0.0806  0.2319
 5325SOL    HW127437   4.447   0.318   6.115 -0.3221  0.7779  3.5011
 5325SOL    HW227438   4.318   0.307   6.168  0.5826  2.0030  0.8518
 5326SOL     OW27439   4.389   2.568  11.679 -0.4551 -0.0204 -0.3626
 5326SOL    HW127440   4.382   2.493  11.738 -0.2711  0.9685  0.9089
 5326SOL    HW227441   4.482   2.581  11.699 -1.3784  0.8597  3.1852
 5327SOL     OW27442   0.872   2.360   3.412 -0.3590 -0.1407  0.2373
 5327SOL    HW127443   0.779   2.365   3.393 -0.3932 -1.4441  0.0644
 5327SOL    HW227444   0.916   2.321   3.337 -1.6653 -1.2552  0.0536
 5328SOL     OW27445   0.158   0.022  11.646  0.3872  0.0268  0.4134
 5328SOL    HW127446   0.218   0.085  11.606  0.0570 -0.3494 -0.6662
 5328SOL    HW227447   0.074   0.066  11.633 -0.2486 -1.7131 -1.3769
 5329SOL     OW27448   0.901   3.215   6.047 -0.1770 -0.2460  0.1490
 5329SOL    HW127449   0.822   3.228   5.995 -1.1476  0.2711  1.7233
 5329SOL    HW227450   0.970   3.232   5.984 -1.9636 -2.0349 -2.2572
 5330SOL     OW27451   2.774   0.437   4.949 -0.3381  0.4076  0.0248
 5330SOL    HW127452   2.783   0.469   5.039  2.0998 -2.6370  0.8456
 5330SOL    HW227453   2.699   0.377   4.943 -0.2669  0.4335 -1.0268
 5331SOL     OW27454   2.708   0.847   4.159 -0.2969 -0.6326 -0.1249
 5331SOL    HW127455   2.710   0.929   4.111  0.4476 -0.9607 -0.6587
 5331SOL    HW227456   2.631   0.860   4.214  0.1570  1.3619  0.0324
 5332SOL     OW27457   1.669   2.836   0.949 -0.2094 -0.6352  0.0824
 5332SOL    HW127458   1.747   2.784   0.928  1.1591  2.0672 -1.6016
 5332SOL    HW227459   1.641   2.843   0.857  0.1748 -2.4426 -0.1837
 5333SOL     OW27460   1.168   4.659   4.926  0.1143  0.2378  0.2429
 5333SOL    HW127461   1.260   4.655   4.899  0.1297  0.8550  0.2140
 5333SOL    HW227462   1.155   4.566   4.946  2.2763 -1.2700 -5.3570
 5334SOL     OW27463   4.209   4.221   0.635 -0.0376 -0.1250  0.5208
 5334SOL    HW127464   4.120   4.208   0.601  0.8561 -2.8809 -0.7915
 5334SOL    HW227465   4.213   4.144   0.692  0.4121 -1.3857 -1.2031
 5335SOL     OW27466   3.008   4.112   8.765  0.1135  0.2816  0.1452
 5335SOL    HW127467   3.081   4.054   8.746 -0.1687 -0.0896  0.1921
 5335SOL    HW227468   3.017   4.119   8.860  0.4539  0.4956  0.0940
 5336SOL     OW27469   1.198   1.237   9.188 -0.0894 -0.6444 -0.0436
 5336SOL    HW127470   1.171   1.325   9.217 -1.0027 -0.6789 -0.7947
 5336SOL    HW227471   1.159   1.175   9.249  0.7376 -2.2539 -1.1738
 5337SOL     OW27472   4.268   3.564   8.847 -0.0737  0.4018  0.1044
 5337SOL    HW127473   4.267   3.658   8.865 -0.5658  0.5675 -0.7458
 5337SOL    HW227474   4.199   3.561   8.780 -0.9925 -1.5945  1.1318
 5338SOL     OW27475   3.489   3.014   6.111 -0.0248 -0.2060 -0.4673
 5338SOL    HW127476   3.444   3.083   6.062 -1.3786 -0.1733  0.8018
 5338SOL    HW227477   3.523   2.950   6.049  0.7814 -0.8860  0.6764
 5339SOL     OW27478   4.271   0.596   6.024 -0.1551 -0.0811  0.4040
 5339SOL    HW127479   4.294   0.505   6.041 -0.0392  0.1212  1.3511
 5339SOL    HW227480   4.236   0.604   6.113  1.4149  0.2552  0.9884
 5340SOL     OW27481   2.835   3.431   8.727 -0.3591 -0.1434  0.0003
 5340SOL    HW127482   2.922   3.393   8.714  0.2680  1.1191  0.5272
 5340SOL    HW227483   2.842   3.478   8.810 -1.0436  1.4081 -0.8281
 5341SOL     OW27484   3.865   1.127   6.283  0.1733  0.2051  0.2910
 5341SOL    HW127485   3.818   1.065   6.227 -1.7154  1.2024  0.7935
 5341SOL    HW227486   3.953   1.112   6.247  0.1871  2.6506 -0.6514
 5342SOL     OW27487   4.721   1.054   7.615  0.1054 -0.4850 -0.8590
 5342SOL    HW127488   0.082   1.071   7.656 -0.1192 -0.4304 -0.4175
 5342SOL    HW227489   4.667   1.106   7.675  0.6793 -0.4774 -0.3462
 5343SOL     OW27490   3.072   3.691   2.393 -0.5289 -0.8470  0.3710
 5343SOL    HW127491   3.098   3.640   2.317 -2.3592  0.1806 -0.9420
 5343SOL    HW227492   3.073   3.614   2.450 -1.4586 -1.0282  0.1318
 5344SOL     OW27493   3.942   1.468  11.110  0.0749  0.0890  0.2934
 5344SOL    HW127494   3.938   1.557  11.075  2.7547  0.0519 -0.0993
 5344SOL    HW227495   3.973   1.480  11.200 -0.1098 -0.7195  0.4632
 5345SOL     OW27496   2.796   1.297   9.140 -0.0560 -0.4071 -0.1778
 5345SOL    HW127497   2.706   1.269   9.123 -0.7907  0.6384  2.0317
 5345SOL    HW227498   2.845   1.215   9.142 -0.2769 -0.5475 -0.5203
 5346SOL     OW27499   1.819   1.535   8.040  0.2516 -0.5807 -0.2938
 5346SOL    HW127500   1.781   1.621   8.027 -1.3878 -1.3070 -0.2586
 5346SOL    HW227501   1.747   1.477   8.016  0.2707 -0.7890  0.1364
 5347SOL     OW27502   3.926   2.958   8.682  0.1550  0.2042 -0.1413
 5347SOL    HW127503   3.968   2.882   8.642  1.5572  0.2432  1.2235
 5347SOL    HW227504   3.930   2.934   8.775  0.9098 -1.6850 -0.6756
 5348SOL     OW27505   2.859   3.081   3.524  0.7535 -0.0408  0.2587
 5348SOL    HW127506   2.921   3.145   3.562 -1.6398  1.1585  2.1405
 5348SOL    HW227507   2.776   3.119   3.553  0.7977  0.0955  0.2101
 5349SOL     OW27508   2.975   2.605   4.463  0.4358  0.3508  0.5612
 5349SOL    HW127509   2.978   2.518   4.424  0.2433  1.8652 -2.8708
 5349SOL    HW227510   2.914   2.650   4.404  0.8585  1.5812  1.0644
 5350SOL     OW27511   1.783   4.605   5.105 -0.2846  0.4508 -0.6620
 5350SOL    HW127512   1.699   4.560   5.109  0.7346 -1.4949 -1.7131
 5350SOL    HW227513   1.828   4.562   5.033  0.2255  1.8804 -1.2082
 5351SOL     OW27514   1.871   1.701  12.888  0.1173 -0.0409 -0.0226
 5351SOL    HW127515   1.886   1.640  12.961 -0.7183  0.3871  0.5020
 5351SOL    HW227516   1.803   1.652  12.843 -1.2042  0.9682  0.9000
 5352SOL     OW27517   3.386   1.643   2.091  0.7884  0.4650  0.6905
 5352SOL    HW127518   3.408   1.620   2.181  1.7399  0.3628  0.4319
 5352SOL    HW227519   3.457   1.610   2.036  1.1721 -0.4155  1.7208
 5353SOL     OW27520   1.439   0.220   4.719 -0.2210  0.0152 -0.1461
 5353SOL    HW127521   1.467   0.256   4.635  0.2027 -2.3188 -1.0054
 5353SOL    HW227522   1.520   0.227   4.769 -0.0995  0.4231 -0.4041
 5354SOL     OW27523   0.460   3.575  15.436  0.5215 -0.1130 -0.2459
 5354SOL    HW127524   0.431   3.496  15.482 -2.3993  0.4714 -1.0399
 5354SOL    HW227525   0.514   3.547  15.361  2.3482  0.2099  0.9618
 5355SOL     OW27526   3.874   2.023   3.145 -0.2684 -0.1011 -0.5715
 5355SOL    HW127527   3.851   2.001   3.055 -2.0454 -0.7406  0.0301
 5355SOL    HW227528   3.792   2.059   3.181  0.0027  0.5847 -0.6460
 5356SOL     OW27529   2.799   2.699   4.852  0.4060  0.7456  0.5017
 5356SOL    HW127530   2.887   2.683   4.817 -0.0421  0.8467 -0.6584
 5356SOL    HW227531   2.743   2.643   4.798 -0.7037  1.6703  0.6954
 5357SOL     OW27532   4.712   2.106   7.887 -0.3562 -0.3447  0.4880
 5357SOL    HW127533   4.715   2.032   7.947  2.6310 -0.8759 -0.3276
 5357SOL    HW227534   4.673   2.169   7.948 -0.0872 -2.8264  3.2321
 5358SOL     OW27535   4.129   4.134   9.300 -0.0048  0.0620 -0.4296
 5358SOL    HW127536   4.046   4.178   9.319  0.7586  0.2025  2.5458
 5358SOL    HW227537   4.187   4.210   9.303  0.2497 -0.2487  2.3552
 5359SOL     OW27538   1.452   3.745   7.210  0.1531  0.1781  0.6125
 5359SOL    HW127539   1.470   3.656   7.238 -2.7537 -0.7352 -0.4740
 5359SOL    HW227540   1.364   3.760   7.244  0.2789 -0.6072  1.2968
 5360SOL     OW27541   2.945   0.426   8.822  0.0008  0.5479  0.1408
 5360SOL    HW127542   2.883   0.376   8.768 -1.5006  1.6067  0.8824
 5360SOL    HW227543   2.902   0.411   8.906 -0.4678  2.4589  0.2322
 5361SOL     OW27544   0.032   3.216   5.424  0.2357  1.0759 -0.5551
 5361SOL    HW127545   4.715   3.284   5.370 -0.4459 -0.0325 -1.4172
 5361SOL    HW227546   0.112   3.186   5.380 -0.6865 -0.8079 -0.9340
 5362SOL     OW27547   1.985   1.251   8.030 -0.2316 -0.0178 -0.0042
 5362SOL    HW127548   2.041   1.322   7.997  1.1076 -1.7007 -1.3754
 5362SOL    HW227549   1.898   1.291   8.031 -0.4852 -0.5006 -3.2998
 5363SOL     OW27550   3.951   2.201   3.777 -0.3670  0.2817  0.2015
 5363SOL    HW127551   4.041   2.180   3.753 -0.0076  0.0818  1.6818
 5363SOL    HW227552   3.941   2.156   3.862  1.0731 -0.1624  0.1352
 5364SOL     OW27553   2.150   0.993   7.187  0.0725 -0.3233 -0.6665
 5364SOL    HW127554   2.087   0.925   7.211 -1.3894  0.8569 -1.2086
 5364SOL    HW227555   2.227   0.936   7.179  1.3893  1.2260  0.9130
 5365SOL     OW27556   2.219   1.540   2.694  0.4907 -0.0996  0.3881
 5365SOL    HW127557   2.292   1.601   2.685  0.5226  0.0352  1.6413
 5365SOL    HW227558   2.199   1.572   2.782  0.7719 -0.4776  0.5894
 5366SOL     OW27559   2.408   3.037  11.651 -0.2855 -0.0224 -0.0495
 5366SOL    HW127560   2.449   2.953  11.671  0.7892  0.4739 -0.2172
 5366SOL    HW227561   2.397   3.027  11.556 -0.6027 -1.1336  0.1067
 5367SOL     OW27562   4.081   3.301   5.841  0.5916 -0.2791 -0.3225
 5367SOL    HW127563   4.011   3.263   5.895  0.0590  0.8120 -0.2463
 5367SOL    HW227564   4.088   3.389   5.879  1.0295  0.4389 -2.0980
 5368SOL     OW27565   2.605   0.919  13.208 -0.3694  0.4905  0.3511
 5368SOL    HW127566   2.544   0.989  13.185 -1.3239  0.1378  1.7710
 5368SOL    HW227567   2.607   0.868  13.127  0.8455  1.1897 -0.0511
 5369SOL     OW27568   3.645   3.905   2.958 -0.0204  0.0848  0.3970
 5369SOL    HW127569   3.563   3.908   2.908 -0.4079  1.9064  1.1234
 5369SOL    HW227570   3.669   3.997   2.966 -0.4450  0.2489 -0.2316
 5370SOL     OW27571   1.423   0.534   4.599  0.5744  0.2050 -0.3918
 5370SOL    HW127572   1.518   0.549   4.596  0.7751 -0.8223  0.7019
 5370SOL    HW227573   1.391   0.624   4.605 -1.1454 -0.4313 -0.0792
 5371SOL     OW27574   0.254   1.033   6.814  1.2887  0.0855 -0.1925
 5371SOL    HW127575   0.230   1.107   6.870  2.0424  0.3701 -0.2370
 5371SOL    HW227576   0.241   1.077   6.730 -2.2490 -0.4136  0.0998
 5372SOL     OW27577   1.036   1.212   5.977 -0.4674  0.7230 -0.1060
 5372SOL    HW127578   1.097   1.258   5.920  0.8872 -0.0538  0.7324
 5372SOL    HW227579   0.983   1.183   5.903 -0.6527  1.8930 -0.4396
 5373SOL     OW27580   3.182   1.115  11.333 -0.1192 -0.4054 -0.6636
 5373SOL    HW127581   3.222   1.029  11.348 -0.2667 -0.2139  0.8237
 5373SOL    HW227582   3.254   1.177  11.348  0.4371 -1.8724  2.5286
 5374SOL     OW27583   3.323   2.283  11.645  0.2337 -0.2774 -0.1563
 5374SOL    HW127584   3.414   2.273  11.672  0.3970 -2.5750 -1.5333
 5374SOL    HW227585   3.313   2.377  11.657  0.3734 -0.2432 -0.3060
 5375SOL     OW27586   0.050   2.916  12.569 -0.4458  0.0172  0.7708
 5375SOL    HW127587   4.706   2.870  12.520 -0.3568 -1.7376  2.2886
 5375SOL    HW227588   0.002   2.956  12.642 -0.5874  1.4546 -0.1194
 5376SOL     OW27589   4.624   2.445   2.292  0.2306 -0.4825 -0.3767
 5376SOL    HW127590   4.574   2.397   2.226  0.7208 -0.1952 -0.9675
 5376SOL    HW227591   4.591   2.398   2.368  1.0196 -0.1420  0.1764
 5377SOL     OW27592   3.391   0.459  13.005  0.5205 -0.2193 -0.1417
 5377SOL    HW127593   3.442   0.496  12.933 -1.8954  1.6357 -0.8930
 5377SOL    HW227594   3.442   0.378  13.000 -2.1669 -2.0544  2.1932
 5378SOL     OW27595   1.182   4.023   3.109  0.1945  0.0898 -0.3726
 5378SOL    HW127596   1.161   4.083   3.181 -0.1402 -0.0250 -0.3754
 5378SOL    HW227597   1.125   4.051   3.038  1.1818 -0.8029 -1.5024
 5379SOL     OW27598   3.443   1.326   2.761  0.0889 -0.2581 -0.9317
 5379SOL    HW127599   3.351   1.341   2.737 -0.8612 -1.5970  1.7549
 5379SOL    HW227600   3.452   1.231   2.769  0.0459 -0.1542  0.4653
 5380SOL     OW27601   0.048   1.710  15.254  0.2875  0.4156 -0.2997
 5380SOL    HW127602   0.059   1.792  15.207  3.0766  0.5041  0.5394
 5380SOL    HW227603   4.682   1.724  15.284 -0.2838 -0.1683 -1.7488
 5381SOL     OW27604   1.281   1.930  10.367  0.0052 -0.3596  0.5539
 5381SOL    HW127605   1.327   1.846  10.365  0.4310 -0.1419  1.7500
 5381SOL    HW227606   1.306   1.963  10.453  1.0637  1.4834 -0.4512
 5382SOL     OW27607   0.459   4.539   3.911  0.3342  0.2010 -0.1055
 5382SOL    HW127608   0.396   4.474   3.878 -1.8693  2.2286  0.1310
 5382SOL    HW227609   0.404   4.613   3.886  0.0609  0.1667  0.3972
 5383SOL     OW27610   4.300   3.114   3.961 -0.4869  0.4546  0.4444
 5383SOL    HW127611   4.269   3.183   3.902 -1.8318  0.7817  1.5473
 5383SOL    HW227612   4.294   3.161   4.044 -1.0267 -0.0619  0.7009
 5384SOL     OW27613   2.151   0.598   6.815 -0.5967  0.3049  0.3157
 5384SOL    HW127614   2.187   0.664   6.874 -0.4290 -2.4040  3.2030
 5384SOL    HW227615   2.111   0.656   6.749 -1.1595 -0.8324 -0.3416
 5385SOL     OW27616   1.264   2.467   7.036  0.1574  0.8819 -0.1875
 5385SOL    HW127617   1.266   2.371   7.027  0.6617  0.8183  0.5100
 5385SOL    HW227618   1.186   2.475   7.091 -0.1617  0.7265 -0.6233
 5386SOL     OW27619   4.371   0.897   5.286 -0.1036  0.3120 -0.6062
 5386SOL    HW127620   4.424   0.841   5.228 -0.7814  1.3529 -2.2338
 5386SOL    HW227621   4.406   0.985   5.298  0.2530  0.1303 -0.3284
 5387SOL     OW27622   0.689   0.091   6.165 -0.7537  0.1141 -0.2313
 5387SOL    HW127623   0.719   0.096   6.074  0.4009  0.3693  0.1590
 5387SOL    HW227624   0.602   0.051   6.164 -1.5890  1.9539 -1.0786
 5388SOL     OW27625   3.973   1.239  15.509  0.9991 -0.0015  0.2357
 5388SOL    HW127626   3.903   1.283  15.557  0.8745  0.0062  0.0470
 5388SOL    HW227627   4.005   1.172  15.571  0.6388  0.2161  0.6591
 5389SOL     OW27628   3.418   4.384   8.171  0.2827 -0.3127  0.2310
 5389SOL    HW127629   3.471   4.415   8.244  0.1946 -2.2121  1.1013
 5389SOL    HW227630   3.464   4.434   8.104 -2.7921 -1.0312 -2.4070
 5390SOL     OW27631   3.119   4.029   9.015  0.2473  0.5153 -0.1716
 5390SOL    HW127632   3.047   4.042   9.076  0.9649  2.3263  0.2649
 5390SOL    HW227633   3.169   3.958   9.056  1.5826  1.4881 -0.1407
 5391SOL     OW27634   1.813   0.024  14.010 -0.3316 -0.0558 -0.1016
 5391SOL    HW127635   1.885   0.021  14.073  0.9175 -0.1641 -1.5388
 5391SOL    HW227636   1.747   4.700  14.061 -2.3510  4.1280  1.2079
 5392SOL     OW27637   2.155   0.020   0.751  0.3063  0.1002  0.5238
 5392SOL    HW127638   2.150   0.056   0.839  2.9343  0.3442  0.5598
 5392SOL    HW227639   2.060   0.009   0.740  1.0797 -4.2667 -1.9179
 5393SOL     OW27640   3.031   3.104   6.568 -0.1179  0.4717 -0.2950
 5393SOL    HW127641   3.025   3.091   6.473  2.0756 -1.4998 -0.1770
 5393SOL    HW227642   3.000   3.020   6.603  1.5373 -1.5014 -3.5177
 5394SOL     OW27643   2.355   0.050   7.816 -0.7467 -0.3581 -0.0834
 5394SOL    HW127644   2.413   0.036   7.891  0.8086  2.1870 -0.7891
 5394SOL    HW227645   2.326   4.685   7.799  2.8969 -1.5890  0.0555
 5395SOL     OW27646   4.394   1.144   1.696  0.4597 -0.2051  0.4176
 5395SOL    HW127647   4.367   1.081   1.763 -0.2355  0.1172  0.4437
 5395SOL    HW227648   4.479   1.169   1.734 -0.8687  1.7462  2.0866
 5396SOL     OW27649   0.949   1.362   4.489 -0.1818 -0.4640 -0.9104
 5396SOL    HW127650   0.916   1.307   4.418  2.0176 -0.7111 -1.7564
 5396SOL    HW227651   1.016   1.306   4.527  0.7263  1.2637  0.0147
 5397SOL     OW27652   2.642   3.086   2.609 -0.1470  0.3293 -0.4038
 5397SOL    HW127653   2.619   3.001   2.647  0.3852 -0.3106 -1.5296
 5397SOL    HW227654   2.656   3.135   2.690  2.0425 -1.4556  0.3056
 5398SOL     OW27655   0.755   0.530   0.664  0.1202  0.8093 -0.1850
 5398SOL    HW127656   0.702   0.456   0.695  0.0288  1.1157  0.3824
 5398SOL    HW227657   0.782   0.492   0.581 -2.8586  0.3502 -0.9354
 5399SOL     OW27658   3.584   1.236   9.767  0.1646 -0.7450 -0.4034
 5399SOL    HW127659   3.608   1.162   9.712 -1.2496  0.6809 -2.9224
 5399SOL    HW227660   3.612   1.215   9.856 -2.1950 -1.1097  0.2579
 5400SOL     OW27661   0.381   4.122   7.335 -0.0145 -0.0200  0.1264
 5400SOL    HW127662   0.378   4.112   7.240 -0.9753 -0.4842  0.2045
 5400SOL    HW227663   0.355   4.043   7.382  0.1178 -0.1121  0.0459
 5401SOL     OW27664   3.137   1.417   0.975 -0.1049 -0.2932  0.1307
 5401SOL    HW127665   3.194   1.494   0.975  2.4555 -2.1681  1.2259
 5401SOL    HW227666   3.179   1.352   1.032  2.2170  1.1600  0.0959
 5402SOL     OW27667   3.160   2.378   8.543 -0.0597 -0.1006 -0.0937
 5402SOL    HW127668   3.073   2.371   8.583 -0.0843  0.7894  0.0179
 5402SOL    HW227669   3.175   2.306   8.482 -2.2120 -0.2691 -0.4193
 5403SOL     OW27670   2.796   2.588   9.113  0.3336 -0.2074 -0.3767
 5403SOL    HW127671   2.857   2.538   9.060  0.2532  0.8405 -1.4783
 5403SOL    HW227672   2.864   2.644   9.151  1.8248 -1.2312 -1.5322
 5404SOL     OW27673   2.274   1.546   3.485  0.1242  0.2489  0.0658
 5404SOL    HW127674   2.194   1.595   3.469  0.3409  0.4324 -0.4675
 5404SOL    HW227675   2.297   1.508   3.400  0.4051 -0.2466  0.3633
 5405SOL     OW27676   0.730   4.194   6.794  0.2883  0.3835  0.1464
 5405SOL    HW127677   0.748   4.189   6.888  0.1277 -0.0911  0.1487
 5405SOL    HW227678   0.690   4.108   6.783  0.6996  0.2044  0.0499
 5406SOL     OW27679   3.068   4.659   9.365  0.3895  0.5199  0.6243
 5406SOL    HW127680   3.085   0.020   9.325  0.7934  0.2572  0.2418
 5406SOL    HW227681   3.128   4.660   9.440 -0.5991 -0.2946  1.4243
 5407SOL     OW27682   2.899   4.650   0.952 -0.0876  0.0751 -0.1834
 5407SOL    HW127683   2.857   4.650   0.867 -0.6748  0.8611  0.1038
 5407SOL    HW227684   2.962   4.722   0.942 -0.9747  1.0082  0.8536
 5408SOL     OW27685   4.095   0.993   5.347  0.1384  0.1165 -0.8404
 5408SOL    HW127686   4.077   0.964   5.436 -0.8201  0.0414 -1.0597
 5408SOL    HW227687   4.184   0.964   5.326 -1.0343 -3.4630 -0.8808
 5409SOL     OW27688   2.373   1.800   9.118 -0.1651  0.4634  0.0140
 5409SOL    HW127689   2.353   1.880   9.167 -2.1147 -0.0223  0.0394
 5409SOL    HW227690   2.436   1.829   9.052 -0.9061  0.8241 -0.5346
 5410SOL     OW27691   2.158   3.543   8.761 -0.3308  0.1205 -0.0119
 5410SOL    HW127692   2.222   3.604   8.722 -0.4517 -0.2639 -0.8037
 5410SOL    HW227693   2.216   3.468   8.773 -1.8488 -0.6940  2.2490
 5411SOL     OW27694   2.531   2.741  13.037  0.0021  0.2138 -0.0677
 5411SOL    HW127695   2.589   2.679  13.081  0.4885 -0.7500 -2.0787
 5411SOL    HW227696   2.583   2.771  12.963 -1.0546 -1.0329 -1.3031
 5412SOL     OW27697   4.266   3.779   8.633 -0.2642  0.4151 -0.0695
 5412SOL    HW127698   4.290   3.778   8.726 -0.3378 -2.9833 -0.0883
 5412SOL    HW227699   4.353   3.782   8.595 -0.6367 -1.1705 -1.0140
 5413SOL     OW27700   3.863   2.937  10.725  0.0586 -0.5106  0.1397
 5413SOL    HW127701   3.886   3.016  10.775 -0.2508 -0.3208 -0.0121
 5413SOL    HW227702   3.939   2.879  10.733  0.4536 -0.0572 -0.3075
 5414SOL     OW27703   1.009   3.543  14.250 -0.5297  0.3149  0.2330
 5414SOL    HW127704   1.048   3.555  14.337  1.1793 -0.6534 -0.3972
 5414SOL    HW227705   1.023   3.449  14.241 -1.3705  0.1775  0.3748
 5415SOL     OW27706   0.444   3.188   9.005 -0.1279 -0.1909 -0.0707
 5415SOL    HW127707   0.466   3.280   9.018 -4.6740  1.0333 -1.2706
 5415SOL    HW227708   0.374   3.185   8.941  0.8364  0.7601 -1.1614
 5416SOL     OW27709   0.772   4.538   7.537  0.3152  0.0532 -0.0700
 5416SOL    HW127710   0.842   4.598   7.564  0.4744  0.1038 -0.5963
 5416SOL    HW227711   0.750   4.488   7.616  0.8139 -0.0126  0.0337
 5417SOL     OW27712   2.627   4.303   4.813  0.2906 -0.1817  0.0320
 5417SOL    HW127713   2.608   4.214   4.841 -1.6848  0.5276  0.9692
 5417SOL    HW227714   2.624   4.352   4.895 -2.0757  3.3194 -2.1259
 5418SOL     OW27715   0.878   3.536   0.420  0.5639 -0.1463 -0.3833
 5418SOL    HW127716   0.950   3.589   0.453 -0.2322  1.1322 -0.7407
 5418SOL    HW227717   0.808   3.601   0.423 -0.7493 -1.4886 -1.8286
 5419SOL     OW27718   2.412   3.717   9.251 -0.4253 -0.0286  0.5749
 5419SOL    HW127719   2.370   3.802   9.251  0.3149  0.3398 -1.3769
 5419SOL    HW227720   2.501   3.747   9.270 -0.4437 -0.6899  1.7284
 5420SOL     OW27721   2.278   1.929   6.512  0.7621 -0.7870 -0.0712
 5420SOL    HW127722   2.280   1.898   6.421  1.2587 -0.2929 -0.2298
 5420SOL    HW227723   2.192   1.905   6.547  1.6624 -1.6019  1.5346
 5421SOL     OW27724   4.278   4.000   6.641  0.0416  0.3745 -0.3278
 5421SOL    HW127725   4.352   4.023   6.585  1.5318 -4.0754 -0.1720
 5421SOL    HW227726   4.297   3.906   6.647  0.6129  0.5080  0.0076
 5422SOL     OW27727   4.444   2.555   3.517  0.0354  0.4432  0.5618
 5422SOL    HW127728   4.461   2.461   3.527 -0.1874  0.3586  0.1586
 5422SOL    HW227729   4.480   2.594   3.596  0.4135 -2.5043  1.8462
 5423SOL     OW27730   1.209   1.246  11.415  0.1351  0.2002 -0.1661
 5423SOL    HW127731   1.239   1.311  11.352 -1.8362  3.1707  1.9470
 5423SOL    HW227732   1.135   1.288  11.460 -0.1573 -0.5328  0.0472
 5424SOL     OW27733   1.500   2.197   7.097 -0.3352  0.2432 -0.0671
 5424SOL    HW127734   1.537   2.122   7.049 -0.4291  0.7146 -0.8708
 5424SOL    HW227735   1.451   2.149   7.164  0.0629 -0.9263 -0.6126
 5425SOL     OW27736   1.168   2.819   6.969 -0.3844  0.1292  0.2495
 5425SOL    HW127737   1.099   2.843   7.030 -0.0668  0.4883  0.4636
 5425SOL    HW227738   1.134   2.734   6.941  1.1685 -0.1003 -0.9476
 5426SOL     OW27739   4.408   2.961   4.656 -0.2099 -0.3922  0.0988
 5426SOL    HW127740   4.434   2.926   4.742 -2.3889 -1.9333  0.1375
 5426SOL    HW227741   4.489   2.941   4.610  0.9227  0.8418  1.5560
 5427SOL     OW27742   3.113   0.081   0.512  0.1574  0.1640 -0.1067
 5427SOL    HW127743   3.087   4.721   0.548 -2.2845  1.5740  1.3675
 5427SOL    HW227744   3.203   0.063   0.485 -0.1156 -1.4974  0.1402
 5428SOL     OW27745   3.884   0.202   5.915 -0.0206  0.0230  0.1811
 5428SOL    HW127746   3.974   0.232   5.924 -0.1941  0.6369 -0.0881
 5428SOL    HW227747   3.903   0.122   5.867 -2.8424 -0.3824 -0.2539
 5429SOL     OW27748   0.017   2.050   3.833 -0.2558 -0.2069  0.1512
 5429SOL    HW127749   4.714   2.124   3.779  1.8346  0.1002 -0.4562
 5429SOL    HW227750   0.032   2.101   3.913  2.6479  1.1040 -1.2080
 5430SOL     OW27751   2.721   1.276   4.823  0.0602 -0.0406 -0.5640
 5430SOL    HW127752   2.628   1.256   4.829  0.4044 -1.1077  1.0562
 5430SOL    HW227753   2.742   1.276   4.729 -1.2186 -0.3526 -0.8466
 5431SOL     OW27754   1.562   2.906   4.561  0.2324 -0.2683  0.2688
 5431SOL    HW127755   1.543   2.994   4.591  0.7913  0.4229 -1.4135
 5431SOL    HW227756   1.506   2.854   4.619 -0.2458 -0.8903 -0.7491
 5432SOL     OW27757   1.024   0.685   9.082  0.1010 -0.5717 -0.4413
 5432SOL    HW127758   1.098   0.704   9.024 -0.1679  1.3235 -0.1390
 5432SOL    HW227759   0.972   0.616   9.040 -0.4856  0.3046 -1.1542
 5433SOL     OW27760   2.845   2.362  10.818 -0.1292 -0.4509  0.5258
 5433SOL    HW127761   2.831   2.339  10.726 -1.5785  2.6501 -0.0607
 5433SOL    HW227762   2.930   2.405  10.815 -0.0625 -0.4840  1.9013
 5434SOL     OW27763   1.287   3.917   0.903 -0.0158 -0.1514 -0.7591
 5434SOL    HW127764   1.311   3.836   0.858 -1.2387 -1.7031  1.3841
 5434SOL    HW227765   1.367   3.967   0.888 -1.0853  1.5400 -0.7425
 5435SOL     OW27766   2.427   3.166   2.395  0.0192  0.2883 -0.5978
 5435SOL    HW127767   2.361   3.098   2.383 -0.1799  0.4120 -0.2123
 5435SOL    HW227768   2.514   3.134   2.369  0.7248  2.8412 -1.4075
 5436SOL     OW27769   3.252   1.001   2.206  0.5195  0.1345 -0.3339
 5436SOL    HW127770   3.258   0.908   2.226 -1.0112 -0.1703 -1.3173
 5436SOL    HW227771   3.293   0.999   2.119  0.9084 -0.6830 -0.1260
 5437SOL     OW27772   1.873   2.365   6.024  0.1661 -0.1218 -0.2879
 5437SOL    HW127773   1.877   2.273   6.051  0.6235  0.7128  2.5222
 5437SOL    HW227774   1.895   2.407   6.107  1.3140  0.1301 -0.7124
 5438SOL     OW27775   2.170   1.888  17.678  0.2266 -1.0628 -0.2414
 5438SOL    HW127776   2.218   1.831  17.618 -0.1274  0.1625 -1.6870
 5438SOL    HW227777   2.243   1.922   0.032  0.1286 -0.9228 -0.1949
 5439SOL     OW27778   2.406   2.778   0.790 -0.2755  0.4476  0.4189
 5439SOL    HW127779   2.474   2.768   0.857  0.6760  0.3023 -0.5704
 5439SOL    HW227780   2.432   2.858   0.745 -0.0278  0.1410  0.0094
 5440SOL     OW27781   1.787   1.648  13.876  0.0422 -0.5172 -0.0939
 5440SOL    HW127782   1.692   1.648  13.877  0.0504 -1.5582  0.6428
 5440SOL    HW227783   1.806   1.686  13.962 -0.4784  1.2588 -0.7524
 5441SOL     OW27784   0.692   2.921   4.613  0.6132  0.3806 -0.7034
 5441SOL    HW127785   0.722   2.831   4.624 -0.0511  0.3234  0.7027
 5441SOL    HW227786   0.770   2.971   4.591 -1.2169  2.9473 -1.3896
 5442SOL     OW27787   4.688   4.613   7.096 -0.4166 -0.1457 -0.6107
 5442SOL    HW127788   4.595   4.626   7.111 -0.0396  0.7534  0.9154
 5442SOL    HW227789   4.703   4.547   7.028 -0.2855 -1.3983  0.6374
 5443SOL     OW27790   0.103   1.301  16.886 -0.4484 -0.4673  0.1469
 5443SOL    HW127791   0.181   1.293  16.940 -0.6322  1.5156  0.7181
 5443SOL    HW227792   0.038   1.322  16.954 -0.1621  0.3995  0.1506
 5444SOL     OW27793   1.284   2.717   2.706  0.1507 -0.4084 -0.4212
 5444SOL    HW127794   1.268   2.624   2.687  1.8149 -1.1176  1.6828
 5444SOL    HW227795   1.334   2.746   2.630 -1.5060  1.3692 -0.8269
 5445SOL     OW27796   0.735   2.721  10.397  0.0381 -0.7800  0.3735
 5445SOL    HW127797   0.646   2.753  10.385  0.0940 -0.9206 -0.4127
 5445SOL    HW227798   0.761   2.787  10.462 -2.0997 -0.5608  0.9912
 5446SOL     OW27799   3.489   0.787  11.669  1.0839 -0.4614  0.1220
 5446SOL    HW127800   3.425   0.716  11.671  2.0854 -1.4262 -1.5061
 5446SOL    HW227801   3.469   0.838  11.590 -0.9985  0.1171  1.0250
 5447SOL     OW27802   2.164   2.415   7.233 -0.5424 -0.0099  0.5648
 5447SOL    HW127803   2.084   2.366   7.253 -0.2822 -0.9346 -0.6888
 5447SOL    HW227804   2.165   2.490   7.292  1.2986  0.1485  0.3188
 5448SOL     OW27805   1.795   2.761   6.151  0.3816 -0.1977 -0.2443
 5448SOL    HW127806   1.863   2.807   6.103  0.0700  1.0806  0.5367
 5448SOL    HW227807   1.749   2.836   6.189  2.4796  0.7667  0.3592
 5449SOL     OW27808   1.720   2.461  13.019  0.3240 -0.0724  0.0570
 5449SOL    HW127809   1.717   2.545  13.063  0.0503 -0.4835  0.8200
 5449SOL    HW227810   1.777   2.410  13.077  0.7373  2.2935  1.7336
 5450SOL     OW27811   3.249   1.769   2.777  0.0120 -0.2977  0.1222
 5450SOL    HW127812   3.185   1.761   2.706 -0.3684 -0.2285  0.4526
 5450SOL    HW227813   3.305   1.826   2.725 -0.6214 -0.2960 -0.5599
 5451SOL     OW27814   0.250   0.163  14.288  0.3178  0.1877  0.1079
 5451SOL    HW127815   0.296   0.092  14.243 -3.0726 -1.2520 -1.1021
 5451SOL    HW227816   0.302   0.240  14.264 -0.7581  1.1126  0.7101
 5452SOL     OW27817   0.653   0.970   7.077 -0.0721 -0.4362 -0.1953
 5452SOL    HW127818   0.567   1.012   7.075 -0.6689 -1.7069 -1.7301
 5452SOL    HW227819   0.672   0.978   7.170 -0.4442  2.2325 -0.3353
 5453SOL     OW27820   0.205   4.424  13.843  0.4575 -0.4060 -0.8617
 5453SOL    HW127821   0.258   4.400  13.919 -0.1339 -1.2324 -0.7064
 5453SOL    HW227822   0.195   4.516  13.865  1.5945 -0.5319  0.2058
 5454SOL     OW27823   2.770   4.299   5.863  0.0659 -0.8417 -0.0895
 5454SOL    HW127824   2.804   4.251   5.787 -1.5844 -0.3046 -1.1498
 5454SOL    HW227825   2.810   4.382   5.838 -0.5356  0.2359  2.5557
 5455SOL     OW27826   0.998   3.894   7.232 -0.0277  0.0085  0.1992
 5455SOL    HW127827   0.930   3.908   7.298  0.1917 -1.7293  0.7826
 5455SOL    HW227828   1.074   3.890   7.291 -1.0763 -1.3795  1.4336
 5456SOL     OW27829   2.186   1.628   5.252  0.2901  0.2343  0.3106
 5456SOL    HW127830   2.092   1.608   5.255  0.8962 -2.2887  2.8899
 5456SOL    HW227831   2.184   1.720   5.225 -0.4712 -0.3136 -1.4676
 5457SOL     OW27832   3.052   2.566   8.377  0.4103  0.3129 -0.4508
 5457SOL    HW127833   3.089   2.515   8.449 -2.6274  2.1654  2.4375
 5457SOL    HW227834   3.036   2.496   8.313  0.2759 -1.2127  1.2496
 5458SOL     OW27835   1.350   4.492   8.371 -0.4708 -0.3464 -0.0988
 5458SOL    HW127836   1.349   4.575   8.324  2.2880 -0.6265 -0.6363
 5458SOL    HW227837   1.444   4.489   8.389 -0.1082  3.6698 -1.2700
 5459SOL     OW27838   2.204   1.508  15.517  0.8970 -0.0449 -0.0587
 5459SOL    HW127839   2.188   1.461  15.599  1.3822  0.1012  0.1200
 5459SOL    HW227840   2.229   1.433  15.463 -0.4762 -1.3739  1.1519
 5460SOL     OW27841   3.903   0.857   1.734 -0.1557  0.5096 -0.0610
 5460SOL    HW127842   3.957   0.848   1.812 -0.8528 -1.3957  0.1997
 5460SOL    HW227843   3.855   0.776   1.751 -0.8816  0.8887 -0.3293
 5461SOL     OW27844   0.442   0.279   2.204  0.6209  0.1578 -0.5485
 5461SOL    HW127845   0.526   0.241   2.178 -0.3596 -1.0837 -1.9293
 5461SOL    HW227846   0.408   0.308   2.119 -4.2657 -1.2191  0.9326
 5462SOL     OW27847   1.616   1.508   7.799 -0.1814  0.2459 -0.2084
 5462SOL    HW127848   1.550   1.465   7.745 -2.0527  1.6942  0.9555
 5462SOL    HW227849   1.632   1.597   7.769 -0.0222  0.7701  1.4604
 5463SOL     OW27850   0.241   2.216   8.832  0.8192 -0.2439  0.3928
 5463SOL    HW127851   0.229   2.122   8.821 -0.8583 -0.0402  0.5385
 5463SOL    HW227852   0.185   2.254   8.764 -2.4175 -0.5691  2.9215
 5464SOL     OW27853   2.336   2.768  10.537  0.5435 -0.6237 -0.0030
 5464SOL    HW127854   2.301   2.855  10.519  1.6232 -0.4478 -1.2664
 5464SOL    HW227855   2.424   2.776  10.499  1.4941  0.0739  2.3500
 5465SOL     OW27856   0.975   3.230   7.870  0.3378 -0.5526  0.2986
 5465SOL    HW127857   1.060   3.236   7.914  0.1262  0.1900  0.6003
 5465SOL    HW227858   1.002   3.267   7.785  0.9569  1.0633  1.2015
 5466SOL     OW27859   3.203   0.588   1.241  0.0778 -0.0561 -0.3813
 5466SOL    HW127860   3.204   0.684   1.244 -1.4310 -0.0756  1.2493
 5466SOL    HW227861   3.270   0.564   1.178 -1.7405 -1.5538 -1.7349
 5467SOL     OW27862   0.598   2.534   7.253 -0.2560 -0.4028  0.2456
 5467SOL    HW127863   0.668   2.563   7.195  0.4698 -0.5366  1.0592
 5467SOL    HW227864   0.641   2.530   7.338  1.1080  2.8044 -0.2903
 5468SOL     OW27865   2.980   2.615  12.804  0.4093  0.2676 -0.0315
 5468SOL    HW127866   3.022   2.701  12.793 -1.0473  0.9364 -0.3634
 5468SOL    HW227867   2.957   2.593  12.714 -0.0205 -2.4169  0.7460
 5469SOL     OW27868   3.788   4.088   6.999  0.8872  0.2355  0.1962
 5469SOL    HW127869   3.872   4.130   6.980  1.0260  0.4175  1.1982
 5469SOL    HW227870   3.799   4.010   6.945 -0.7854 -0.8744  1.4895
 5470SOL     OW27871   0.090   2.493  16.638  0.3221  0.1267 -0.1663
 5470SOL    HW127872   0.105   2.416  16.692 -0.9463  0.9777  1.4131
 5470SOL    HW227873   0.105   2.566  16.698  0.1231  0.2582 -0.2759
 5471SOL     OW27874   4.015   4.013  10.084 -0.1022  0.3472  0.3448
 5471SOL    HW127875   3.950   4.014  10.154 -1.5766  0.1952 -1.0164
 5471SOL    HW227876   4.022   4.105  10.058 -0.9798  0.6396  1.1570
 5472SOL     OW27877   3.592   3.557   5.691  0.3583  0.6031 -0.8294
 5472SOL    HW127878   3.558   3.612   5.620  0.1324  0.9043 -0.4864
 5472SOL    HW227879   3.617   3.625   5.753  0.3504  1.7140 -2.0674
 5473SOL     OW27880   3.368   1.938   2.603  0.2099  0.3830  0.8727
 5473SOL    HW127881   3.299   1.942   2.536  0.8343  2.1333  0.3414
 5473SOL    HW227882   3.434   1.995   2.564  1.1609 -1.7081 -0.6236
 5474SOL     OW27883   4.029   2.530  14.598 -0.4868 -0.7172  0.2482
 5474SOL    HW127884   4.079   2.593  14.547 -0.0935  1.7482  3.7219
 5474SOL    HW227885   4.006   2.470  14.526 -0.1761  0.1411 -0.5693
 5475SOL     OW27886   4.175   2.330   0.537  0.4332  0.0480 -0.2116
 5475SOL    HW127887   4.111   2.297   0.599 -0.8784  1.0484 -1.0443
 5475SOL    HW227888   4.131   2.403   0.495 -0.9351  0.2928  1.6556
 5476SOL     OW27889   2.506   2.823  11.057  0.5527  0.7405 -0.0703
 5476SOL    HW127890   2.447   2.863  10.993 -1.1146 -1.4834  0.1003
 5476SOL    HW227891   2.592   2.832  11.016  0.0095 -2.6077 -1.8901
 5477SOL     OW27892   2.721   0.635   9.180  0.0182  0.0188  0.0565
 5477SOL    HW127893   2.765   0.664   9.259  1.0122  1.4736 -1.0426
 5477SOL    HW227894   2.627   0.643   9.197 -0.0166  3.3977 -1.7392
 5478SOL     OW27895   2.175   1.780  14.068 -0.7317  0.1024  0.2936
 5478SOL    HW127896   2.162   1.685  14.069 -0.4221 -0.0118 -6.5479
 5478SOL    HW227897   2.216   1.784  13.981 -2.1307 -0.5813 -0.3853
 5479SOL     OW27898   0.803   3.390   2.040  0.0397  0.1553 -0.1472
 5479SOL    HW127899   0.789   3.471   2.090  0.6286 -0.0543  0.3639
 5479SOL    HW227900   0.825   3.332   2.113  1.0269 -0.4347 -0.9070
 5480SOL     OW27901   2.534   0.931   1.959  0.4574 -0.0091 -0.3574
 5480SOL    HW127902   2.519   0.888   2.043  0.0878 -2.4125 -1.6767
 5480SOL    HW227903   2.603   0.996   1.975  1.2202 -0.1304 -3.2014
 5481SOL     OW27904   1.323   0.066   6.512 -0.5148  0.3283  0.7280
 5481SOL    HW127905   1.260   0.035   6.577  0.3341 -0.8223  0.9983
 5481SOL    HW227906   1.300   0.158   6.499  0.3533  0.3665 -0.5573
 5482SOL     OW27907   4.374   0.907   4.008 -0.5609  0.0348  0.0908
 5482SOL    HW127908   4.308   0.838   4.014 -1.3288  0.8292  0.5873
 5482SOL    HW227909   4.457   0.862   4.028 -0.3254 -0.8978 -2.8865
 5483SOL     OW27910   2.852   2.259   7.564 -0.6936 -0.4434 -0.5494
 5483SOL    HW127911   2.769   2.304   7.555  0.7981  2.2581 -0.8226
 5483SOL    HW227912   2.848   2.206   7.484  1.0375 -2.0569  0.4208
 5484SOL     OW27913   3.085   4.673  10.118  0.4001  0.1551  0.0649
 5484SOL    HW127914   3.085   0.003  10.197 -1.5738  1.5453 -0.8831
 5484SOL    HW227915   3.136   4.600  10.154  1.5521  1.1102  0.3644
 5485SOL     OW27916   3.351   0.073   6.967 -0.3994  0.2668 -0.0518
 5485SOL    HW127917   3.298   0.148   6.995  1.3133  1.1280  0.9086
 5485SOL    HW227918   3.275   0.019   6.944 -0.9674  1.9569 -2.1209
 5486SOL     OW27919   0.693   2.692   6.768  0.3827  0.0056 -1.0355
 5486SOL    HW127920   0.665   2.604   6.792  0.3260 -0.0469 -1.2885
 5486SOL    HW227921   0.619   2.713   6.712 -0.2143  0.9714  0.1465
 5487SOL     OW27922   0.424   2.710   1.024  0.0634  0.5870 -0.1188
 5487SOL    HW127923   0.412   2.749   1.110 -1.1945  0.8569 -0.4118
 5487SOL    HW227924   0.350   2.744   0.974  0.4098  0.5397 -0.6663
 5488SOL     OW27925   4.556   0.931   9.597 -0.0069 -0.4119 -0.1618
 5488SOL    HW127926   4.461   0.922   9.593  0.0321 -1.3854  1.2120
 5488SOL    HW227927   4.588   0.843   9.614 -0.2351 -0.3048  0.8447
 5489SOL     OW27928   0.805   1.776   9.021 -0.1734  0.0739  0.1640
 5489SOL    HW127929   0.776   1.823   9.099  0.4952  0.3431  0.2543
 5489SOL    HW227930   0.766   1.691   9.044 -1.8540  1.2139  1.5537
 5490SOL     OW27931   0.066   2.942  13.200 -0.2935 -0.4394  0.1195
 5490SOL    HW127932   0.076   2.989  13.283  1.6383 -1.7929  0.6723
 5490SOL    HW227933   0.111   3.012  13.153 -3.6469  2.4484  1.2216
 5491SOL     OW27934   3.991   1.687   3.269  0.1948 -0.0619  0.7900
 5491SOL    HW127935   3.932   1.655   3.201  0.3193  0.5874  0.3776
 5491SOL    HW227936   4.078   1.655   3.246 -0.6988 -0.4994 -1.9317
 5492SOL     OW27937   0.517   4.033  17.233  0.1837  0.4853  0.0486
 5492SOL    HW127938   0.556   3.949  17.209 -0.4430  0.1545  0.1830
 5492SOL    HW227939   0.584   4.101  17.222 -1.0251  2.0531  2.3399
 5493SOL     OW27940   4.346   0.088   8.175 -0.1140 -0.0668  1.2433
 5493SOL    HW127941   4.346   0.145   8.098  1.1101 -0.5955  0.8460
 5493SOL    HW227942   4.412   0.134   8.226  2.0350 -2.0410  0.2236
 5494SOL     OW27943   1.902   3.827  10.127  0.0443 -0.1716 -0.0932
 5494SOL    HW127944   1.934   3.904  10.174 -1.2750 -1.0160  2.1633
 5494SOL    HW227945   1.874   3.859  10.041  1.7187  0.6055 -0.3520
 5495SOL     OW27946   0.342   2.895   7.269 -0.1717 -0.0705  0.0136
 5495SOL    HW127947   0.337   2.801   7.250 -1.3739 -0.3452  1.6295
 5495SOL    HW227948   0.289   2.937   7.202 -0.1105 -1.1167 -0.6953
 5496SOL     OW27949   1.157   1.312   4.212  0.2518 -0.1918 -0.2853
 5496SOL    HW127950   1.226   1.379   4.215 -2.3004  2.3645  1.6070
 5496SOL    HW227951   1.107   1.331   4.133  0.2663  0.8822 -0.0378
 5497SOL     OW27952   2.966   4.180   0.983 -0.3255  0.0580 -0.2771
 5497SOL    HW127953   2.876   4.208   0.999  0.5749  1.7310  1.8343
 5497SOL    HW227954   2.973   4.215   0.894  1.8410  2.8313  1.0136
 5498SOL     OW27955   1.354   4.703   7.465 -0.4271  0.1575 -0.4905
 5498SOL    HW127956   1.374   0.046   7.400 -2.1907  0.6738 -0.5098
 5498SOL    HW227957   1.421   4.720   7.531  0.2837  0.6725 -1.3527
 5499SOL     OW27958   2.319   2.149   5.724 -0.3664 -0.2764 -0.3690
 5499SOL    HW127959   2.387   2.163   5.791 -1.0395  1.6317 -0.1024
 5499SOL    HW227960   2.373   2.088   5.673  0.0144  0.5943 -0.9924
 5500SOL     OW27961   3.436   0.204  12.053  0.2693 -0.8726  0.7115
 5500SOL    HW127962   3.376   0.147  12.005  0.7451  0.3818 -1.3329
 5500SOL    HW227963   3.508   0.226  11.994  0.1430  0.1707  0.9444
 5501SOL     OW27964   2.689   3.433   5.548  0.6090  0.0503 -0.0464
 5501SOL    HW127965   2.642   3.362   5.505  2.5078 -0.5494 -1.1457
 5501SOL    HW227966   2.721   3.479   5.470  0.5753 -1.3638 -0.8858
 5502SOL     OW27967   2.992   0.583  16.694 -0.0312 -0.0223  0.5283
 5502SOL    HW127968   2.989   0.650  16.627 -2.3909 -0.6548  0.0331
 5502SOL    HW227969   2.949   0.507  16.654 -1.3283 -0.0951  2.0762
 5503SOL     OW27970   0.869   1.047   5.451  1.0067 -0.1617  0.5198
 5503SOL    HW127971   0.777   1.050   5.478 -0.0930 -3.7992 -2.7676
 5503SOL    HW227972   0.883   0.953   5.459 -0.7767 -0.0957  4.5318
 5504SOL     OW27973   3.257   0.740   8.832 -0.2756  0.3161 -0.3397
 5504SOL    HW127974   3.333   0.693   8.866 -1.3732  0.2588  1.9957
 5504SOL    HW227975   3.218   0.779   8.910  0.0829  1.3507 -0.6836
 5505SOL     OW27976   2.476   3.226  10.406  0.0866 -0.2090  0.0620
 5505SOL    HW127977   2.466   3.160  10.475 -1.8579  0.3426  0.3084
 5505SOL    HW227978   2.457   3.301  10.463 -1.6726 -0.7770  0.2248
 5506SOL     OW27979   3.430   4.027   5.918  0.5072  0.2097 -0.0626
 5506SOL    HW127980   3.373   4.024   5.995  0.6209  0.3583  0.0252
 5506SOL    HW227981   3.372   4.047   5.844 -1.2627  0.5079  1.4088
 5507SOL     OW27982   3.316   2.680   6.430  0.3133 -0.0687 -0.3044
 5507SOL    HW127983   3.298   2.751   6.492  0.0962 -1.2084  0.9408
 5507SOL    HW227984   3.302   2.713   6.341 -1.0380  0.9010  0.2810
 5508SOL     OW27985   2.570   3.653   8.170  0.0782  0.4725 -0.0710
 5508SOL    HW127986   2.621   3.692   8.242 -0.4203 -0.6192  0.8695
 5508SOL    HW227987   2.643   3.639   8.110  0.3024  1.0946  0.0569
 5509SOL     OW27988   2.023   1.836   3.426  0.1423  0.2086  0.2787
 5509SOL    HW127989   2.029   1.872   3.515  1.9287  1.3077 -0.3054
 5509SOL    HW227990   2.021   1.920   3.381 -0.1739  1.0513  1.8556
 5510SOL     OW27991   0.517   3.975   8.834 -0.1526 -0.0297 -0.3918
 5510SOL    HW127992   0.485   4.061   8.859 -1.0463  0.1117 -2.0486
 5510SOL    HW227993   0.448   3.918   8.867 -1.6811  0.5852 -2.5593
 5511SOL     OW27994   0.510   2.799   2.723  0.0029 -0.5169 -0.3473
 5511SOL    HW127995   0.596   2.779   2.759 -0.0407 -1.8904 -1.0391
 5511SOL    HW227996   0.462   2.821   2.803 -0.3273 -1.9309 -0.1692
 5512SOL     OW27997   2.600   3.123  11.152 -0.2874 -0.1073 -0.3789
 5512SOL    HW127998   2.623   3.099  11.242 -0.8810  3.0872  0.6102
 5512SOL    HW227999   2.684   3.140  11.109  0.9991 -1.9782  1.3641
 5513SOL     OW28000   0.009   0.217   5.889 -0.2970  0.2901  0.0873
 5513SOL    HW128001   0.096   0.219   5.928 -0.4595 -0.8529  0.5009
 5513SOL    HW228002   0.001   0.298   5.839  1.9261  0.7715  0.4834
 5514SOL     OW28003   0.978   3.839   8.991  0.1189  0.7728  0.2333
 5514SOL    HW128004   0.953   3.902   8.924 -0.1071 -0.6089 -0.9810
 5514SOL    HW228005   1.074   3.841   8.987  0.0517 -1.4311 -3.0171
 5515SOL     OW28006   2.992   0.364  12.628  0.0288 -0.4018  0.1243
 5515SOL    HW128007   3.065   0.422  12.651 -1.2496  2.4214 -2.9627
 5515SOL    HW228008   2.937   0.373  12.705  1.0229 -1.6250  0.9730
 5516SOL     OW28009   3.491   3.439   5.431 -0.5545  0.2813  0.1482
 5516SOL    HW128010   3.514   3.353   5.397 -2.2011  0.5798 -1.7217
 5516SOL    HW228011   3.495   3.428   5.526  0.2558 -1.8054 -0.1360
 5517SOL     OW28012   1.335   4.045  11.298 -0.0843 -0.1042  0.2697
 5517SOL    HW128013   1.245   4.064  11.273 -0.2573 -1.4199 -0.0963
 5517SOL    HW228014   1.368   4.039  11.208 -1.5659 -1.8188 -0.1444
 5518SOL     OW28015   4.587   4.494   3.120  0.2379 -0.2311  0.2263
 5518SOL    HW128016   4.608   4.491   3.214 -0.7903 -0.8420  0.4408
 5518SOL    HW228017   4.512   4.552   3.123  1.0096  0.7250  1.1318
 5519SOL     OW28018   0.590   4.512   5.977  0.3490 -0.1879  0.0682
 5519SOL    HW128019   0.545   4.592   6.003 -0.1800 -0.3154 -0.4529
 5519SOL    HW228020   0.676   4.522   6.018  0.6259 -2.3185  0.0110
 5520SOL     OW28021   1.292   4.206   2.883  0.4535 -0.0564  0.1406
 5520SOL    HW128022   1.348   4.284   2.892 -0.5400  0.7021 -0.2638
 5520SOL    HW228023   1.206   4.242   2.905  0.7223  0.4360  0.3773
 5521SOL     OW28024   1.460   3.247   6.505 -0.1714  0.0522 -0.4291
 5521SOL    HW128025   1.536   3.236   6.448 -0.4973  2.1745 -1.2957
 5521SOL    HW228026   1.500   3.257   6.591 -0.8828 -0.6683 -0.0134
 5522SOL     OW28027   0.715   3.399   6.598  0.2171  0.3586 -0.1926
 5522SOL    HW128028   0.678   3.311   6.597  1.1229 -0.0146 -1.5916
 5522SOL    HW228029   0.752   3.395   6.510 -0.9262 -0.0237 -0.6510
 5523SOL     OW28030   3.181   4.721   2.780  0.0048 -0.0398  0.1481
 5523SOL    HW128031   3.224   4.705   2.864  0.9899  1.4031 -0.0819
 5523SOL    HW228032   3.178   0.092   2.773  0.6800 -0.0781 -0.7261
 5524SOL     OW28033   0.770   0.978   0.118 -0.2470  0.0995  0.3412
 5524SOL    HW128034   0.844   1.005   0.064 -1.5981 -0.5519 -1.8483
 5524SOL    HW228035   0.786   1.034   0.194  4.9046 -0.2698 -0.4336
 5525SOL     OW28036   0.834   2.568  10.196 -0.0181 -0.6126 -0.5532
 5525SOL    HW128037   0.775   2.614  10.135 -0.5083 -1.3445 -0.6324
 5525SOL    HW228038   0.815   2.618  10.275 -0.6679 -1.3559 -0.2375
 5526SOL     OW28039   0.313   3.592   0.282  0.2642 -0.3881 -0.2455
 5526SOL    HW128040   0.356   3.553   0.206  1.6301  1.0260 -0.2010
 5526SOL    HW228041   0.353   3.678   0.272  2.2948 -1.3281 -0.3111
 5527SOL     OW28042   4.278   3.453   0.222  0.2796  0.5065 -0.3077
 5527SOL    HW128043   4.215   3.524   0.229 -2.8127 -2.2725  0.1560
 5527SOL    HW228044   4.292   3.437   0.129 -1.5028 -0.4593 -0.4066
 5528SOL     OW28045   0.692   3.749   7.643 -0.3194 -0.4318 -0.3369
 5528SOL    HW128046   0.671   3.719   7.555 -0.2252  1.0711 -0.8832
 5528SOL    HW228047   0.616   3.714   7.689 -1.4485  1.7740 -0.4951
 5529SOL     OW28048   0.787   1.808   5.458  0.3012  0.0613  0.0039
 5529SOL    HW128049   0.737   1.838   5.534  2.1560 -3.3473  2.6138
 5529SOL    HW228050   0.748   1.847   5.380 -0.5544  1.2994  1.0587
 5530SOL     OW28051   1.676   2.194   4.829 -0.3121  0.5176 -0.2240
 5530SOL    HW128052   1.675   2.285   4.859  1.0642 -0.0308  1.5076
 5530SOL    HW228053   1.595   2.157   4.865  1.6415 -2.5404  0.9436
 5531SOL     OW28054   2.352   4.020   4.640  0.1902 -0.3269 -0.4678
 5531SOL    HW128055   2.373   4.107   4.607 -1.4930  0.8142  1.4651
 5531SOL    HW228056   2.409   4.024   4.717 -0.3153 -1.3054 -0.0370
 5532SOL     OW28057   4.710   4.254   5.440  0.2120 -0.3231  0.0239
 5532SOL    HW128058   4.690   4.164   5.414  0.2888 -0.2886 -0.1539
 5532SOL    HW228059   0.022   4.287   5.358  0.3711  1.4400  0.7925
 5533SOL     OW28060   3.761   1.303  10.514  0.5425  0.1013 -0.3789
 5533SOL    HW128061   3.732   1.350  10.592  2.1363 -1.3538  1.0946
 5533SOL    HW228062   3.843   1.282  10.557  0.1528 -0.2415  0.2038
 5534SOL     OW28063   3.390   4.129  13.285 -0.1804  0.0530 -0.3632
 5534SOL    HW128064   3.450   4.204  13.293  0.5441 -0.3602 -1.8545
 5534SOL    HW228065   3.374   4.122  13.191  1.9115  1.4905 -0.8302
 5535SOL     OW28066   3.345   3.737   5.639  0.1674 -0.2344 -0.1492
 5535SOL    HW128067   3.260   3.730   5.683  0.6801  2.0245  1.1712
 5535SOL    HW228068   3.324   3.765   5.550  1.8349 -3.6892 -1.6204
 5536SOL     OW28069   2.275   4.483  15.938 -0.4212 -0.3314  0.4319
 5536SOL    HW128070   2.233   4.503  16.021  0.4587 -0.8498  1.0020
 5536SOL    HW228071   2.192   4.454  15.900 -1.1379 -0.1974  1.9004
 5537SOL     OW28072   3.354   2.800  15.682  0.4611 -0.8635  0.0240
 5537SOL    HW128073   3.382   2.734  15.746  0.6090 -0.8967 -0.0754
 5537SOL    HW228074   3.299   2.758  15.615 -0.4095  0.7342 -0.2522
 5538SOL     OW28075   4.674   3.986   5.367  0.2617  0.5271  0.2996
 5538SOL    HW128076   4.587   3.951   5.346  0.4106 -0.7316  1.8156
 5538SOL    HW228077   0.005   3.909   5.375  2.4160  1.8225 -2.0645
 5539SOL     OW28078   0.204   1.835  13.469 -0.0836  0.4131 -0.0064
 5539SOL    HW128079   0.150   1.788  13.405 -0.5155 -1.8620  2.0171
 5539SOL    HW228080   0.244   1.764  13.519 -1.2783  0.3493  0.8681
 5540SOL     OW28081   0.060   1.938  15.130  0.3722  0.3063 -0.1912
 5540SOL    HW128082   4.691   1.958  15.145  0.4249  1.0602 -0.8979
 5540SOL    HW228083   0.079   2.010  15.070 -3.4109 -0.0042 -1.7396
 5541SOL     OW28084   2.449   0.746   8.820 -0.2533  0.1540  0.3890
 5541SOL    HW128085   2.544   0.747   8.821 -0.2061 -3.5542 -1.1370
 5541SOL    HW228086   2.419   0.815   8.760 -3.0937 -0.4363  1.1113
 5542SOL     OW28087   3.670   0.725  10.283 -0.0723 -0.3074  0.2121
 5542SOL    HW128088   3.760   0.720  10.316 -0.4473  1.6869  1.5307
 5542SOL    HW228089   3.677   0.665  10.209 -2.1051  0.3378 -0.4927
 5543SOL     OW28090   1.809   0.599   6.398 -0.4539 -0.2319 -0.5246
 5543SOL    HW128091   1.794   0.505   6.414 -0.6679 -0.2822 -1.0073
 5543SOL    HW228092   1.891   0.590   6.349  0.9317  0.8799  1.6167
 5544SOL     OW28093   3.752   1.159   5.873  0.0857  0.3650  0.0519
 5544SOL    HW128094   3.717   1.212   5.802  3.9183  1.3625 -1.0693
 5544SOL    HW228095   3.837   1.200   5.886  0.2773 -0.2957  0.9176
 5545SOL     OW28096   1.189   1.919   9.732 -0.2426 -0.4739 -0.3276
 5545SOL    HW128097   1.145   1.997   9.699 -3.0701 -0.7503  2.8379
 5545SOL    HW228098   1.225   1.965   9.808 -3.1756  1.6027 -0.2227
 5546SOL     OW28099   2.206   2.144   1.450 -0.2191  0.0285 -0.0284
 5546SOL    HW128100   2.174   2.233   1.433 -2.0243 -0.6763 -0.3362
 5546SOL    HW228101   2.126   2.091   1.454  0.9569 -1.6896  0.5085
 5547SOL     OW28102   3.704   4.279   4.778  0.0678  0.1447  0.3269
 5547SOL    HW128103   3.694   4.192   4.817  0.2638 -0.2384 -0.4845
 5547SOL    HW228104   3.723   4.256   4.687  1.5360  3.7931 -0.2846
 5548SOL     OW28105   3.951   3.976   8.990 -0.3101 -0.1098  0.3252
 5548SOL    HW128106   3.894   4.053   8.997 -1.3171 -0.8000 -0.2338
 5548SOL    HW228107   3.897   3.911   9.034 -0.3893  0.2210  0.7158
 5549SOL     OW28108   0.803   2.661   3.872 -0.4159 -0.0015  0.0350
 5549SOL    HW128109   0.846   2.591   3.921 -2.4208 -0.8277  0.6069
 5549SOL    HW228110   0.771   2.724   3.937  2.3429  1.1705  0.2604
 5550SOL     OW28111   4.472   4.011  14.167  0.6972 -0.4709  0.1811
 5550SOL    HW128112   4.418   3.933  14.182  1.9126 -1.3298  0.1069
 5550SOL    HW228113   4.411   4.048  14.103  0.0057  0.4086  1.3531
 5551SOL     OW28114   2.001   3.782   7.014 -0.2115  0.1026  0.8640
 5551SOL    HW128115   1.934   3.737   7.065 -0.2590  0.7339  1.3612
 5551SOL    HW228116   2.062   3.709   7.013 -1.2450 -0.7990  2.7546
 5552SOL     OW28117   1.517   1.191   5.014  0.0727 -0.4433 -0.0636
 5552SOL    HW128118   1.512   1.156   4.925  1.2204  0.5430 -0.5091
 5552SOL    HW228119   1.573   1.120   5.047  1.3773  0.4338 -0.4022
 5553SOL     OW28120   0.255   2.996   1.100 -0.1308 -0.2548  0.2813
 5553SOL    HW128121   0.272   2.919   1.046  0.5574  0.9963 -1.3239
 5553SOL    HW228122   0.334   3.049   1.088  0.6108 -1.2189  0.8689
 5554SOL     OW28123   2.101   4.429  16.380  0.2792 -0.2519  0.3303
 5554SOL    HW128124   2.152   4.492  16.431  0.7372  0.7143 -1.3025
 5554SOL    HW228125   2.018   4.424  16.426 -0.0723 -4.6198 -0.8339
 5555SOL     OW28126   3.912   0.278   3.289 -0.6378  0.3825  0.1299
 5555SOL    HW128127   3.833   0.243   3.248  0.6185 -1.5374 -0.6534
 5555SOL    HW228128   3.879   0.346   3.349  2.9446  1.7074  0.6170
 5556SOL     OW28129   3.625   3.539   7.113  0.1584  0.0887  0.0751
 5556SOL    HW128130   3.544   3.586   7.091 -1.8161 -2.9552  0.8412
 5556SOL    HW228131   3.676   3.548   7.032  0.3605  0.9538  0.2913
 5557SOL     OW28132   3.817   4.000   3.904  0.4895  0.0093 -0.2585
 5557SOL    HW128133   3.844   3.918   3.864 -0.4187 -1.0225  1.2414
 5557SOL    HW228134   3.777   4.053   3.835 -1.0507 -1.7640 -0.7165
 5558SOL     OW28135   2.042   0.433   2.735  0.3778 -0.1240  0.0223
 5558SOL    HW128136   2.072   0.519   2.765  1.8258 -0.4852 -0.3865
 5558SOL    HW228137   2.126   0.388   2.722  0.7086 -0.1947  2.5233
 5559SOL     OW28138   3.971   3.175  10.353  0.3162 -0.2312  0.2026
 5559SOL    HW128139   3.878   3.191  10.367  0.2118 -0.3673 -0.3231
 5559SOL    HW228140   4.002   3.264  10.367  1.6695 -0.7118  0.2376
 5560SOL     OW28141   4.613   0.574   6.858 -0.0637 -0.2929  0.7037
 5560SOL    HW128142   4.546   0.512   6.829 -2.0889  1.2234  2.0957
 5560SOL    HW228143   4.694   0.549   6.814 -0.9021 -0.5977 -0.6652
 5561SOL     OW28144   1.362   3.646   1.031 -0.1228  0.5299  0.1143
 5561SOL    HW128145   1.341   3.554   1.047 -2.9126  1.1649  0.1141
 5561SOL    HW228146   1.371   3.651   0.936  1.9356 -1.3442  0.2219
 5562SOL     OW28147   2.475   2.619   6.037 -0.6183  0.0129  0.5162
 5562SOL    HW128148   2.475   2.689   6.102  1.6181  0.6854 -0.2068
 5562SOL    HW228149   2.570   2.625   6.031 -0.5853 -2.3187 -1.3593
 5563SOL     OW28150   2.909   3.727  12.938 -0.4923 -0.7556  0.3899
 5563SOL    HW128151   2.833   3.684  12.978  0.3604 -0.8110  1.9398
 5563SOL    HW228152   2.869   3.786  12.873 -1.3216 -0.1420  1.4539
 5564SOL     OW28153   1.191   0.739   8.873 -0.5480 -0.2284  0.1773
 5564SOL    HW128154   1.123   0.717   8.810 -1.2640 -3.5180  2.1162
 5564SOL    HW228155   1.272   0.737   8.821 -0.6362  0.0747  0.0273
 5565SOL     OW28156   2.587   2.832  16.880  0.2718  0.3147 -0.7265
 5565SOL    HW128157   2.621   2.833  16.969 -0.8246 -0.8386 -0.2930
 5565SOL    HW228158   2.519   2.900  16.880  1.0018  1.0362 -0.0862
 5566SOL     OW28159   1.874   0.432  15.939 -0.9607 -0.3306 -0.8816
 5566SOL    HW128160   1.877   0.362  15.874 -2.6470 -1.2526  0.0164
 5566SOL    HW228161   1.969   0.446  15.942 -0.7328 -1.8609 -0.7342
 5567SOL     OW28162   2.069   1.725   9.817  0.4967 -0.3072  0.3846
 5567SOL    HW128163   2.064   1.698   9.908  1.6460 -4.8281 -0.9125
 5567SOL    HW228164   2.155   1.688   9.797  0.1972 -1.4163  1.1330
 5568SOL     OW28165   3.034   4.118   5.131 -0.6727  0.0016 -0.0687
 5568SOL    HW128166   3.000   4.186   5.073 -2.2233  0.8563  1.8677
 5568SOL    HW228167   3.082   4.061   5.070 -0.4222  0.1537 -0.0134
 5569SOL     OW28168   0.564   3.098  15.509  0.0465 -0.4236  0.1051
 5569SOL    HW128169   0.552   3.192  15.525  2.6607 -0.0529 -0.1753
 5569SOL    HW228170   0.513   3.060  15.581 -1.6302 -0.3663 -1.0521
 5570SOL     OW28171   0.431   2.045  12.691  0.1402  0.3195  0.0648
 5570SOL    HW128172   0.509   1.991  12.700  0.8156  1.4005  0.6284
 5570SOL    HW228173   0.367   1.977  12.713 -0.5559  0.4868 -1.3885
 5571SOL     OW28174   1.335   3.012   1.034  0.0276  0.3674  0.1121
 5571SOL    HW128175   1.276   2.992   0.961 -0.3394  1.8962 -0.0131
 5571SOL    HW228176   1.278   3.051   1.101 -0.7553  0.7496 -0.7676
 5572SOL     OW28177   1.909   3.135  13.850  0.1917  0.0795 -0.1968
 5572SOL    HW128178   1.862   3.187  13.915 -3.1676 -3.1571  0.0019
 5572SOL    HW228179   1.991   3.180  13.832  1.0714 -1.1798  0.6598
 5573SOL     OW28180   3.461   2.462   4.321  0.1702  0.7252 -0.3403
 5573SOL    HW128181   3.479   2.375   4.286  0.2001  0.9111 -0.7948
 5573SOL    HW228182   3.421   2.438   4.404 -1.3018  2.7240 -0.4691
 5574SOL     OW28183   1.233   3.074   3.512 -0.3165 -0.4743  0.1853
 5574SOL    HW128184   1.244   3.046   3.603 -0.9296 -1.8646 -0.1736
 5574SOL    HW228185   1.309   3.133   3.518  1.0713 -2.6037  3.4381
 5575SOL     OW28186   1.661   2.640   2.521  0.6174 -0.0243 -0.5652
 5575SOL    HW128187   1.666   2.677   2.432 -1.0189  0.1271 -0.6087
 5575SOL    HW228188   1.751   2.647   2.550  0.3356  1.2193  0.0154
 5576SOL     OW28189   4.177   2.497   4.696  0.0698 -0.4008  0.1638
 5576SOL    HW128190   4.240   2.445   4.646 -1.2622 -0.3263 -1.5860
 5576SOL    HW228191   4.195   2.478   4.788  0.1888 -2.6820 -0.3219
 5577SOL     OW28192   0.773   0.923   8.139  0.4245 -0.2169 -0.1522
 5577SOL    HW128193   0.713   0.866   8.091  0.7958 -2.7914  2.4239
 5577SOL    HW228194   0.837   0.958   8.077 -0.4190 -2.0802 -2.0644
 5578SOL     OW28195   1.041   0.814   7.829 -0.1763  0.2162  0.4699
 5578SOL    HW128196   1.077   0.795   7.743  0.1705  0.3924  0.5714
 5578SOL    HW228197   0.977   0.744   7.840 -0.8370  0.9415  1.2909
 5579SOL     OW28198   1.288   4.336  13.388 -0.2233  0.3319  0.6935
 5579SOL    HW128199   1.272   4.301  13.476  0.8911  0.2314  0.8511
 5579SOL    HW228200   1.246   4.422  13.398  2.1104  1.6678 -0.9134
 5580SOL     OW28201   2.532   3.180   3.858 -0.4134 -0.4406 -0.5317
 5580SOL    HW128202   2.576   3.137   3.932 -0.2358 -0.4064 -0.6179
 5580SOL    HW228203   2.446   3.139   3.851  0.6709 -2.4488 -1.8970
 5581SOL     OW28204   1.094   3.844   4.492 -0.7674  0.2620 -0.5802
 5581SOL    HW128205   1.115   3.842   4.585  0.8290 -3.2467 -1.0095
 5581SOL    HW228206   1.106   3.938   4.479  1.4162  0.2625  1.3497
 5582SOL     OW28207   2.450   1.179  15.945  0.8134  0.2731  0.0438
 5582SOL    HW128208   2.457   1.249  16.010  2.8714 -1.9812  2.2557
 5582SOL    HW228209   2.442   1.243  15.874 -0.1844 -0.6667 -0.6894
 5583SOL     OW28210   3.669   3.828   6.896 -0.1570 -0.3245 -0.0772
 5583SOL    HW128211   3.612   3.813   6.971  0.5808  0.3352  0.6158
 5583SOL    HW228212   3.691   3.737   6.873  1.6093  0.0364  0.1355
 5584SOL     OW28213   2.159   2.546   6.860 -0.1384 -0.5811  0.1447
 5584SOL    HW128214   2.231   2.557   6.922 -1.6418 -0.8535  1.9380
 5584SOL    HW228215   2.210   2.518   6.784 -0.2120 -0.2606 -0.0224
 5585SOL     OW28216   4.546   1.049   3.371  0.3743  0.3136  0.0585
 5585SOL    HW128217   4.619   1.106   3.346 -0.5420  0.6936 -1.7053
 5585SOL    HW228218   4.486   1.123   3.366 -0.0321 -0.1287 -1.4062
 5586SOL     OW28219   1.778   0.786   7.759  0.2485 -0.3220 -0.1324
 5586SOL    HW128220   1.792   0.880   7.744 -0.6803 -0.4143 -1.5453
 5586SOL    HW228221   1.857   0.741   7.730  1.7081  0.3398  2.7706
 5587SOL     OW28222   3.759   3.817   9.444 -0.0348  0.1530  0.4618
 5587SOL    HW128223   3.799   3.902   9.464  1.3620 -0.9885  2.4813
 5587SOL    HW228224   3.831   3.762   9.475 -0.2777 -0.5374 -0.1867
 5588SOL     OW28225   0.184   1.174   5.321 -0.4121 -0.2865  0.2163
 5588SOL    HW128226   0.125   1.106   5.289 -0.1097  1.1527 -3.4570
 5588SOL    HW228227   0.267   1.143   5.285 -1.0121 -0.3868 -1.0851
 5589SOL     OW28228   0.583   2.114   5.748  0.3453 -0.1486 -0.6258
 5589SOL    HW128229   0.533   2.036   5.775 -0.1144  0.0787 -0.8192
 5589SOL    HW228230   0.579   2.160   5.832 -0.5987  1.5714 -1.6107
 5590SOL     OW28231   2.738   3.461   7.178 -0.1071  0.9510 -0.2764
 5590SOL    HW128232   2.811   3.523   7.168  0.4194  0.5157  0.8645
 5590SOL    HW228233   2.777   3.394   7.123 -0.2925  0.2985  0.3921
 5591SOL     OW28234   3.569   2.066   6.638 -0.1280 -0.0686 -0.4876
 5591SOL    HW128235   3.518   2.075   6.718  1.1515 -1.6041  0.4931
 5591SOL    HW228236   3.638   2.006   6.667 -1.0756  0.3336  2.5927
 5592SOL     OW28237   0.117   3.007   6.214  0.2509 -0.0602  0.2771
 5592SOL    HW128238   0.124   2.991   6.308  0.4394 -3.1934 -0.2787
 5592SOL    HW228239   0.072   3.091   6.218  1.0405  0.2846  1.7709
 5593SOL     OW28240   1.669   2.694   8.102 -0.3083  0.0768  0.7205
 5593SOL    HW128241   1.630   2.613   8.134  0.7314 -0.1977  1.2897
 5593SOL    HW228242   1.606   2.762   8.126 -0.0088 -0.3529  2.6578
 5594SOL     OW28243   0.326   1.092  12.189  0.5226 -0.6240  0.0216
 5594SOL    HW128244   0.401   1.135  12.147  1.5984  0.7663  3.4108
 5594SOL    HW228245   0.253   1.096  12.128 -1.8490 -2.2916  2.7869
 5595SOL     OW28246   1.417   4.308  15.311 -0.8446 -0.3115  0.0038
 5595SOL    HW128247   1.394   4.371  15.379  2.5228  3.4982 -2.3670
 5595SOL    HW228248   1.480   4.348  15.251 -0.6185  0.9018  1.0375
 5596SOL     OW28249   2.077   3.768   2.670  0.0706  0.0076  0.3035
 5596SOL    HW128250   2.164   3.790   2.705  0.0477  1.1836 -0.3897
 5596SOL    HW228251   2.030   3.847   2.695 -0.3477 -0.4467  0.9580
 5597SOL     OW28252   0.246   1.873   6.134  0.1310  0.0908 -0.2891
 5597SOL    HW128253   0.283   1.798   6.088  0.8044  0.3627 -0.1898
 5597SOL    HW228254   0.159   1.875   6.092  0.0690  0.6707 -0.1393
 5598SOL     OW28255   4.339   1.144   2.110  0.1532  0.4232 -0.1591
 5598SOL    HW128256   4.257   1.168   2.067  0.3693  1.7432  0.1812
 5598SOL    HW228257   4.315   1.118   2.199  0.2484 -2.6792 -1.0357
 5599SOL     OW28258   0.085   0.700   7.525  0.2898 -0.2243  0.2139
 5599SOL    HW128259   0.020   0.761   7.489  1.3553  1.4847  1.2096
 5599SOL    HW228260   0.035   0.628   7.564 -1.2255  1.7941  1.9878
 5600SOL     OW28261   4.313   0.976   1.889 -0.1282  0.1342 -0.0485
 5600SOL    HW128262   4.350   1.006   1.973  1.2079  0.3728 -0.7271
 5600SOL    HW228263   4.224   0.963   1.923  0.9048 -1.2083  2.1077
 5601SOL     OW28264   0.966   0.710   1.956  0.6201  0.5602  0.1299
 5601SOL    HW128265   1.011   0.627   1.973 -2.5834 -1.2348 -0.1471
 5601SOL    HW228266   1.022   0.744   1.886  4.8502 -0.3069  3.0859
 5602SOL     OW28267   1.888   3.577   2.715  0.1052  0.4644 -0.1538
 5602SOL    HW128268   1.821   3.645   2.724 -1.6862 -1.2051 -0.8988
 5602SOL    HW228269   1.970   3.625   2.718  0.9011 -0.9145  0.0128
 5603SOL     OW28270   3.190   2.277  13.324 -0.0177 -0.2156  0.1264
 5603SOL    HW128271   3.240   2.203  13.358 -0.8977 -1.0433 -0.3670
 5603SOL    HW228272   3.109   2.266  13.374 -0.1707 -1.4144 -0.3683
 5604SOL     OW28273   0.807   3.638   4.001  0.3950  0.3301 -0.2491
 5604SOL    HW128274   0.799   3.571   4.069  0.2848 -1.8199 -2.3573
 5604SOL    HW228275   0.717   3.669   4.009  0.6260  0.5432  1.5261
 5605SOL     OW28276   4.175   0.511   2.569  0.6066 -0.2025  0.0126
 5605SOL    HW128277   4.252   0.492   2.622  0.1161  0.3133  0.9215
 5605SOL    HW228278   4.116   0.497   2.644  1.2810 -0.3022  0.5195
 5606SOL     OW28279   2.133   3.801   3.730  0.4791  0.1551  0.3765
 5606SOL    HW128280   2.108   3.868   3.666  2.1380  0.8233  0.4352
 5606SOL    HW228281   2.083   3.725   3.701  0.3331  1.5830 -3.2082
 5607SOL     OW28282   3.782   0.766   8.966 -0.2316  0.0076  0.5528
 5607SOL    HW128283   3.814   0.830   8.902  0.4893 -0.3943  0.5115
 5607SOL    HW228284   3.721   0.817   9.020 -2.0103 -0.5527 -0.9345
 5608SOL     OW28285   0.225   4.251   4.805 -0.3250 -0.1659  0.5119
 5608SOL    HW128286   0.314   4.241   4.771 -1.2996 -1.4138 -1.6802
 5608SOL    HW228287   0.177   4.231   4.725  0.9427 -2.2753  0.2688
 5609SOL     OW28288   2.791   1.081   3.784  0.0897 -0.2441  0.3735
 5609SOL    HW128289   2.872   1.110   3.826 -0.9574 -0.1139  2.2991
 5609SOL    HW228290   2.820   1.007   3.731  0.3548  0.2818 -0.2031
 5610SOL     OW28291   4.486   4.235   0.632  0.9023  0.2293  0.0285
 5610SOL    HW128292   4.403   4.228   0.585  0.4361  1.2375  0.7045
 5610SOL    HW228293   4.549   4.178   0.587  1.5004  0.8573  0.0696
 5611SOL     OW28294   1.693   2.936   6.335  0.4122 -0.2431  0.2433
 5611SOL    HW128295   1.627   2.876   6.368 -0.5822 -0.3380 -1.9052
 5611SOL    HW228296   1.708   2.995   6.409 -0.0021 -0.3201  0.3906
 5612SOL     OW28297   1.450   1.051   2.353 -0.8362 -0.2168 -0.8586
 5612SOL    HW128298   1.467   1.124   2.412 -0.4216 -1.2070  0.2331
 5612SOL    HW228299   1.521   0.997   2.386  0.7150  0.8526 -2.4510
 5613SOL     OW28300   0.662   4.032   0.159  0.2034 -0.4991  0.0078
 5613SOL    HW128301   0.683   4.109   0.212 -0.1851 -0.5206  0.1879
 5613SOL    HW228302   0.611   4.068   0.087 -0.4422  0.2257  0.8368
 5614SOL     OW28303   1.482   1.429   8.972  0.0093  0.4659 -0.3591
 5614SOL    HW128304   1.411   1.370   8.943  0.3730  0.1193 -0.5526
 5614SOL    HW228305   1.437   1.480   9.039  0.0866  1.3509 -0.9917
 5615SOL     OW28306   0.302   3.640   2.577  0.0572  0.5334  0.0213
 5615SOL    HW128307   0.258   3.561   2.546  3.1217 -0.8526 -0.8134
 5615SOL    HW228308   0.234   3.705   2.595  0.2552  0.3072  1.5866
 5616SOL     OW28309   0.966   4.087   1.060  0.5112 -0.0379  0.2303
 5616SOL    HW128310   0.914   4.127   0.990 -0.5330  0.6505  1.4016
 5616SOL    HW228311   0.921   4.120   1.138 -1.3543  0.0698 -0.8844
 5617SOL     OW28312   3.668   0.759   4.412 -0.2456  0.3384 -0.4808
 5617SOL    HW128313   3.654   0.805   4.495  0.8469 -0.0614 -0.0625
 5617SOL    HW228314   3.651   0.831   4.352  2.9434  2.5322  1.1980
 5618SOL     OW28315   3.322   1.623   5.131 -0.2081 -0.0280  0.5034
 5618SOL    HW128316   3.230   1.602   5.149 -0.2835 -1.0753 -1.1492
 5618SOL    HW228317   3.313   1.701   5.076 -0.1004 -0.6576 -0.3942
 5619SOL     OW28318   2.670   3.834   4.109 -0.2448 -0.3893  0.1300
 5619SOL    HW128319   2.627   3.797   4.032 -1.7426 -1.0425  1.2627
 5619SOL    HW228320   2.687   3.922   4.076 -3.7529  0.2669 -0.0081
 5620SOL     OW28321   1.133   1.300   5.737  0.0967 -0.3497  0.6650
 5620SOL    HW128322   1.086   1.280   5.656 -0.9468  0.8021  0.9840
 5620SOL    HW228323   1.209   1.341   5.695 -0.4936  1.5012  1.4100
 5621SOL     OW28324   4.124   0.796  11.840  0.3848 -0.3242  0.2028
 5621SOL    HW128325   4.212   0.829  11.821 -0.1244  1.1647  0.4657
 5621SOL    HW228326   4.077   0.841  11.770  0.9062  0.1719  0.1748
 5622SOL     OW28327   4.033   1.314   8.882  0.2541  0.3191  0.5645
 5622SOL    HW128328   4.065   1.318   8.972  1.1234 -0.6984  0.2978
 5622SOL    HW228329   4.062   1.226   8.859 -1.8251  0.3370 -2.1066
 5623SOL     OW28330   0.239   0.260   6.012  0.3570  0.0371  0.3423
 5623SOL    HW128331   0.194   0.294   6.089 -0.3770 -0.0191 -0.0583
 5623SOL    HW228332   0.326   0.299   6.020  0.3528  0.1859 -0.3418
 5624SOL     OW28333   3.321   0.901  10.647  0.0370 -0.3030 -0.2187
 5624SOL    HW128334   3.237   0.864  10.675 -0.2344  0.5392  0.0851
 5624SOL    HW228335   3.292   0.952  10.571 -1.0026  1.8187  1.5816
 5625SOL     OW28336   2.971   1.859   3.840  0.8380 -0.3693 -0.3789
 5625SOL    HW128337   2.996   1.882   3.750 -1.4235  1.1972 -0.5909
 5625SOL    HW228338   2.883   1.896   3.848  1.0545 -0.1734  1.0858
 5626SOL     OW28339   1.948   2.713   0.466  0.0910 -0.0232 -0.1469
 5626SOL    HW128340   1.863   2.757   0.468 -0.1002 -0.5570  2.7819
 5626SOL    HW228341   1.915   2.630   0.430 -0.4393 -0.8320  2.2231
 5627SOL     OW28342   1.843   2.096   6.814  0.1068 -0.5949 -0.3554
 5627SOL    HW128343   1.777   2.165   6.821  0.3693 -0.0096 -3.3411
 5627SOL    HW228344   1.919   2.150   6.793 -0.1906  0.6472  1.8201
 5628SOL     OW28345   3.163   2.027   6.657  0.3308  0.3365  0.4008
 5628SOL    HW128346   3.109   2.020   6.578  0.6580  1.0827  0.1071
 5628SOL    HW228347   3.100   1.999   6.723  1.2914 -0.6451  0.9050
 5629SOL     OW28348   4.167   0.913   8.639  0.5850 -0.2293  0.0431
 5629SOL    HW128349   4.234   0.959   8.589 -0.7577  0.2896 -1.2576
 5629SOL    HW228350   4.224   0.844   8.674 -1.4385 -2.3825 -0.9134
 5630SOL     OW28351   0.711   3.122   5.186 -0.0447  0.4783  0.3836
 5630SOL    HW128352   0.641   3.070   5.146 -0.4451  0.2718  1.3580
 5630SOL    HW228353   0.789   3.071   5.162  1.3494  1.6399  2.4589
 5631SOL     OW28354   0.354   2.614   2.553 -0.2487 -0.5299  0.3475
 5631SOL    HW128355   0.420   2.672   2.591 -0.5494 -0.6262  1.0092
 5631SOL    HW228356   0.276   2.658   2.585 -0.4204 -0.9326  0.4765
 5632SOL     OW28357   2.076   2.146  17.469  0.3142  0.1634 -0.5765
 5632SOL    HW128358   2.130   2.174  17.396  0.0021  0.9288 -0.5098
 5632SOL    HW228359   2.115   2.195  17.541  0.9992  0.4683 -1.1580
 5633SOL     OW28360   0.146   4.586   4.150  0.2067  0.4509 -0.3738
 5633SOL    HW128361   0.206   4.558   4.080  0.2205  2.2048 -1.0420
 5633SOL    HW228362   0.201   4.575   4.228 -1.3412  0.7078  0.7544
 5634SOL     OW28363   0.415   2.479   2.991  0.1644 -0.2224 -0.4018
 5634SOL    HW128364   0.425   2.504   3.083  0.1061  0.0450 -0.4686
 5634SOL    HW228365   0.381   2.563   2.962  1.8486  0.8223  0.7048
 5635SOL     OW28366   1.115   3.377  11.515 -0.3658  0.3435  0.5015
 5635SOL    HW128367   1.195   3.335  11.547 -0.4085 -1.2673 -1.5200
 5635SOL    HW228368   1.139   3.415  11.430  0.8781 -2.5058 -0.4225
 5636SOL     OW28369   0.222   2.983   5.628 -0.6436 -0.0871  0.4629
 5636SOL    HW128370   0.134   2.964   5.593 -1.3259  2.3983  0.8933
 5636SOL    HW228371   0.218   2.925   5.704  2.6014 -0.0935  0.6233
 5637SOL     OW28372   1.323   0.827   0.214 -0.3303 -0.3312 -0.0561
 5637SOL    HW128373   1.394   0.881   0.248 -0.8293  1.3262 -1.6245
 5637SOL    HW228374   1.257   0.826   0.283 -0.3564  0.2872 -0.0745
 5638SOL     OW28375   1.075   1.951   9.118 -0.4990 -0.4515  0.5175
 5638SOL    HW128376   1.047   1.891   9.186 -0.2554 -0.8111  0.2998
 5638SOL    HW228377   1.078   2.034   9.166 -0.8344  0.8993 -1.7887
 5639SOL     OW28378   0.570   1.595   7.220  0.3415  0.5109 -0.5760
 5639SOL    HW128379   0.513   1.526   7.186  0.5022  0.2672 -0.3582
 5639SOL    HW228380   0.506   1.643   7.271  0.6957  0.9550 -0.5513
 5640SOL     OW28381   3.109   1.741   5.725 -0.1948 -0.2260  0.0913
 5640SOL    HW128382   3.199   1.756   5.695  0.1021  1.2430  1.7856
 5640SOL    HW228383   3.112   1.763   5.818  0.9506  2.5581 -0.6069
 5641SOL     OW28384   1.694   3.421  16.096 -0.3302  0.3487 -0.1864
 5641SOL    HW128385   1.759   3.381  16.038  1.1418  0.6358  1.2556
 5641SOL    HW228386   1.750   3.490  16.132 -0.7640  0.3844  0.4190
 5642SOL     OW28387   1.156   3.069   4.746 -0.2989 -0.3417  0.3874
 5642SOL    HW128388   1.169   3.147   4.800  0.2954  0.2132 -0.5570
 5642SOL    HW228389   1.247   3.053   4.718 -0.1646  0.9720  0.0742
 5643SOL     OW28390   4.629   1.394   2.400 -0.1570 -0.1670  0.0389
 5643SOL    HW128391   4.664   1.326   2.458  4.0382 -1.0277 -3.5370
 5643SOL    HW228392   4.682   1.465   2.436 -0.4707 -0.2234  0.6143
 5644SOL     OW28393   0.280   4.714   3.778  0.1587 -0.8492 -0.9850
 5644SOL    HW128394   0.301   0.050   3.850 -3.0981  0.3108 -1.0272
 5644SOL    HW228395   0.192   0.021   3.757  0.1938  0.2504  0.4870
 5645SOL     OW28396   3.859   3.935   2.694  0.3459 -0.7728 -0.3923
 5645SOL    HW128397   3.953   3.950   2.686  0.8586 -3.4287  0.7857
 5645SOL    HW228398   3.839   3.929   2.787 -1.4167  1.5636 -0.6074
 5646SOL     OW28399   4.389   2.013   0.419  0.4397 -0.2115 -0.1649
 5646SOL    HW128400   4.427   2.023   0.332  0.5413 -3.6653 -0.4968
 5646SOL    HW228401   4.321   1.948   0.401 -2.0990  2.3726  0.0850
 5647SOL     OW28402   3.326   2.548  11.727 -0.1675  0.0506 -0.2499
 5647SOL    HW128403   3.336   2.642  11.738  0.5694 -0.1478  0.7158
 5647SOL    HW228404   3.414   2.511  11.735 -0.3726 -0.3895 -0.0508
 5648SOL     OW28405   0.806   3.935  12.432 -0.4415  0.2040  0.1135
 5648SOL    HW128406   0.839   3.915  12.519 -1.2702 -1.8193 -0.0327
 5648SOL    HW228407   0.820   4.028  12.416 -0.4377  0.1148 -0.3988
 5649SOL     OW28408   3.182   2.258  12.850 -0.3658 -0.0671  0.1355
 5649SOL    HW128409   3.159   2.201  12.924 -0.5963  0.1303  0.2150
 5649SOL    HW228410   3.187   2.337  12.903 -0.5898 -1.0739  1.6576
 5650SOL     OW28411   2.524   3.357  10.128  0.8189 -0.2327 -0.5413
 5650SOL    HW128412   2.575   3.426  10.086 -0.1755  1.2189  0.6415
 5650SOL    HW228413   2.441   3.366  10.082  1.4829  0.2672 -1.6315
 5651SOL     OW28414   3.331   4.178   9.600  0.0146  0.1026  0.5563
 5651SOL    HW128415   3.302   4.250   9.655  0.9056 -0.6633  2.0436
 5651SOL    HW228416   3.392   4.212   9.534  1.0304  0.2796  1.5812
 5652SOL     OW28417   2.103   3.089   5.979  0.6988  0.0025  0.1536
 5652SOL    HW128418   2.150   3.013   5.945 -1.4149 -1.0732 -0.3446
 5652SOL    HW228419   2.025   3.080   5.925 -1.1358 -3.4196  3.3463
 5653SOL     OW28420   1.767   3.617   4.377  0.5252  0.6508 -0.6119
 5653SOL    HW128421   1.769   3.693   4.319 -1.5881  1.6414  0.6116
 5653SOL    HW228422   1.846   3.629   4.430 -0.9221 -1.8955  2.1058
 5654SOL     OW28423   0.119   1.055   6.003 -0.0157  0.1111  0.0391
 5654SOL    HW128424   0.124   0.961   6.020 -1.3641  0.0748  0.2719
 5654SOL    HW228425   0.070   1.072   6.083  0.3473  2.0288 -0.1577
 5655SOL     OW28426   0.892   3.193   8.392  0.3504 -0.0094 -0.0810
 5655SOL    HW128427   0.957   3.259   8.417 -0.6151  0.4179  1.3375
 5655SOL    HW228428   0.904   3.130   8.463 -0.1782  0.4509  0.4240
 5656SOL     OW28429   2.636   3.726   8.894 -0.5362  0.2788  0.8396
 5656SOL    HW128430   2.566   3.662   8.887 -1.0177  0.9705 -0.6616
 5656SOL    HW228431   2.586   3.802   8.922 -1.2487 -0.2343  0.9463
 5657SOL     OW28432   0.714   4.052   6.293  0.3800  0.1829 -0.2885
 5657SOL    HW128433   0.804   4.085   6.301  0.2852  0.3261  0.1904
 5657SOL    HW228434   0.684   4.141   6.276  3.8113  1.5091  0.5522
 5658SOL     OW28435   1.133   0.678   0.098 -0.3331  0.1692 -0.2350
 5658SOL    HW128436   1.112   0.728   0.019  0.3962  1.7988  0.6122
 5658SOL    HW228437   1.188   0.746   0.137 -0.9878 -0.5673  1.9868
 5659SOL     OW28438   1.444   1.155   3.510 -0.0582  0.6672  0.1533
 5659SOL    HW128439   1.396   1.230   3.545  0.2600  1.9030 -2.0362
 5659SOL    HW228440   1.475   1.197   3.430  1.3911  0.5342  0.6375
 5660SOL     OW28441   0.643   2.803   6.315 -0.6275  0.2452  0.0679
 5660SOL    HW128442   0.705   2.860   6.270  0.2203 -0.9106 -0.2535
 5660SOL    HW228443   0.671   2.715   6.288  0.0810  1.2686 -2.6162
 5661SOL     OW28444   3.034   3.116  13.658  0.6713 -0.4085  0.0372
 5661SOL    HW128445   3.069   3.047  13.714  0.1120 -0.2272  0.6213
 5661SOL    HW228446   3.120   3.159  13.649  0.1221  0.6862 -0.0122
 5662SOL     OW28447   2.722   2.726   2.940  0.4119 -0.6328  0.0951
 5662SOL    HW128448   2.750   2.764   2.856 -2.2423 -1.2038 -1.0486
 5662SOL    HW228449   2.642   2.678   2.916 -0.5239  0.3682  1.1961
 5663SOL     OW28450   1.672   4.269   3.108 -0.1761 -0.3319  0.0189
 5663SOL    HW128451   1.727   4.345   3.128  1.8457 -1.4658 -1.2684
 5663SOL    HW228452   1.697   4.265   3.016  0.1225  1.4146  0.0130
 5664SOL     OW28453   3.001   1.968   6.176 -0.3592  0.0956 -0.0080
 5664SOL    HW128454   3.074   1.983   6.116  1.5256  0.6651  2.3891
 5664SOL    HW228455   3.048   1.931   6.252 -1.7627 -0.6068  0.5246
 5665SOL     OW28456   4.148   4.026   8.507 -0.7023  0.2326  0.1449
 5665SOL    HW128457   4.092   3.975   8.449  0.2180 -0.8648  0.2334
 5665SOL    HW228458   4.169   3.951   8.563  1.6352 -0.2541 -1.4318
 5666SOL     OW28459   0.445   1.627   0.203  0.3677 -0.3002 -0.3706
 5666SOL    HW128460   0.455   1.701   0.143 -0.3345 -0.1589 -0.3096
 5666SOL    HW228461   0.487   1.564   0.145 -0.8004 -1.6938  0.3082
 5667SOL     OW28462   3.765   1.838   7.227  0.1775 -0.5691 -0.1562
 5667SOL    HW128463   3.762   1.768   7.161  0.6116 -1.0171  0.3044
 5667SOL    HW228464   3.857   1.857   7.246  0.0861 -1.9947  1.7336
 5668SOL     OW28465   3.985   0.015   9.719 -0.0213  0.0631  0.5153
 5668SOL    HW128466   4.063   4.695   9.686 -1.1974 -1.7134  0.1190
 5668SOL    HW228467   3.974   4.700   9.806  0.5915  0.2205  0.6666
 5669SOL     OW28468   1.630   0.798  14.451  0.5018 -0.4537 -0.9040
 5669SOL    HW128469   1.564   0.748  14.403  0.5252 -1.0422 -0.3225
 5669SOL    HW228470   1.707   0.742  14.462 -1.6982 -3.1457  0.8063
 5670SOL     OW28471   2.001   1.910   0.555  0.0734  0.1871 -0.1127
 5670SOL    HW128472   2.023   1.910   0.462  1.5503  2.1781  0.2406
 5670SOL    HW228473   2.079   1.861   0.582  0.6632  0.6715 -0.9676
 5671SOL     OW28474   3.459   1.713   6.382 -0.9004  0.2710  0.0171
 5671SOL    HW128475   3.415   1.786   6.338  1.4729  0.9759 -1.1395
 5671SOL    HW228476   3.551   1.737   6.381 -0.5541 -0.9538  2.2278
 5672SOL     OW28477   1.417   3.102   7.831  0.3533  0.0802  0.0439
 5672SOL    HW128478   1.483   3.137   7.772  0.3933 -0.3520 -0.1744
 5672SOL    HW228479   1.365   3.178   7.856  1.1302 -0.5038  3.5017
 5673SOL     OW28480   3.878   4.468   4.917  0.5259 -0.0735 -0.2552
 5673SOL    HW128481   3.817   4.414   4.867  0.6673 -0.7078  0.2600
 5673SOL    HW228482   3.956   4.421   4.886  1.0497  1.7914 -1.8157
 5674SOL     OW28483   2.105   1.772   9.168 -0.0971 -0.5741  0.4361
 5674SOL    HW128484   2.196   1.793   9.145  0.5883 -1.3477  2.4504
 5674SOL    HW228485   2.088   1.688   9.127 -0.5957 -0.9556  1.4356
 5675SOL     OW28486   1.210   2.952   7.747  0.7099 -0.3912 -0.2878
 5675SOL    HW128487   1.251   2.926   7.665  0.5951 -0.6086 -0.2757
 5675SOL    HW228488   1.286   2.998   7.782 -0.0866  1.1066 -0.5354
 5676SOL     OW28489   3.299   3.171   7.267  0.1077 -0.2520 -0.4693
 5676SOL    HW128490   3.279   3.083   7.300  0.3535 -1.1113 -2.6508
 5676SOL    HW228491   3.289   3.228   7.344 -2.1497 -1.2140 -0.0531
 5677SOL     OW28492   2.420   2.839  13.764  0.7207  0.0951  0.1622
 5677SOL    HW128493   2.466   2.919  13.790 -0.5502  0.9684 -0.2926
 5677SOL    HW228494   2.333   2.874  13.783 -0.1029 -2.6632  1.3316
 5678SOL     OW28495   0.455   2.420  13.793  0.7763 -0.1659  0.6740
 5678SOL    HW128496   0.464   2.512  13.817  0.7610 -0.1510  0.6242
 5678SOL    HW228497   0.368   2.406  13.831  0.6902 -1.1471  0.1251
 5679SOL     OW28498   4.327   0.873   3.098 -0.3320 -0.0557 -0.9319
 5679SOL    HW128499   4.321   0.821   3.017 -0.5268 -2.4484  0.6125
 5679SOL    HW228500   4.410   0.846   3.138  0.1284 -0.2014 -1.9884
 5680SOL     OW28501   0.909   0.804   5.349  0.0260  0.1940 -0.5006
 5680SOL    HW128502   0.909   0.723   5.297  1.2678 -0.4988  0.6056
 5680SOL    HW228503   0.949   0.765   5.426 -1.3193  1.5954  0.8981
 5681SOL     OW28504   3.411   1.821   5.469 -0.0754 -0.1868 -0.4766
 5681SOL    HW128505   3.470   1.855   5.537 -0.2895  1.1838 -0.9688
 5681SOL    HW228506   3.453   1.865   5.395  1.6349  1.5509  1.5369
 5682SOL     OW28507   1.574   3.883   3.811 -0.0829  0.1391 -0.4978
 5682SOL    HW128508   1.509   3.812   3.809  1.2810 -1.1513  1.4419
 5682SOL    HW228509   1.570   3.923   3.724 -0.5068 -0.6873 -0.8597
 5683SOL     OW28510   4.332   1.832   5.557 -0.0074  0.2839 -0.4581
 5683SOL    HW128511   4.427   1.830   5.544  0.0500  0.2113 -0.0175
 5683SOL    HW228512   4.315   1.886   5.634  1.3599  0.0041  0.0404
 5684SOL     OW28513   2.036   1.172   6.290 -0.1994 -0.6322 -0.5667
 5684SOL    HW128514   2.103   1.210   6.233 -0.2308 -1.1353 -0.9337
 5684SOL    HW228515   2.022   1.092   6.239 -0.6115 -0.5245 -0.6181
 5685SOL     OW28516   0.077   2.654  11.018  0.0526  0.0946  0.3059
 5685SOL    HW128517   0.039   2.696  10.941 -2.0447 -0.0373  1.2695
 5685SOL    HW228518   0.148   2.600  10.983 -2.2404 -2.4479 -0.4293
 5686SOL     OW28519   2.868   0.776   8.988 -0.1799 -0.0767  0.4607
 5686SOL    HW128520   2.964   0.774   8.999 -0.1041 -0.5857 -0.2815
 5686SOL    HW228521   2.833   0.723   9.059 -1.3895  0.5839  0.3576
 5687SOL     OW28522   0.277   1.826   5.191 -0.1131 -0.0416 -0.8199
 5687SOL    HW128523   0.312   1.751   5.240  0.2449  1.6116  1.4703
 5687SOL    HW228524   0.348   1.846   5.130  2.0436 -0.6353  1.4864
 5688SOL     OW28525   2.641   4.274   7.261 -0.5246  0.3350  0.1375
 5688SOL    HW128526   2.677   4.271   7.350  0.7515  1.7311 -0.3277
 5688SOL    HW228527   2.711   4.216   7.229 -0.5083  0.0129  0.7711
 5689SOL     OW28528   3.046   3.531   3.788  0.3634  0.2503 -0.2116
 5689SOL    HW128529   3.023   3.607   3.842 -1.4250  0.1338 -0.8304
 5689SOL    HW228530   2.999   3.548   3.707  1.1690  0.6646 -0.6009
 5690SOL     OW28531   1.833   0.236   3.854 -0.0333 -0.2651 -0.5147
 5690SOL    HW128532   1.789   0.249   3.770 -0.6046 -1.2973 -0.3781
 5690SOL    HW228533   1.910   0.182   3.837 -1.2513 -2.3109  0.3298
 5691SOL     OW28534   3.154   1.706   4.292  0.3529  0.1747  0.6049
 5691SOL    HW128535   3.156   1.710   4.197  1.1521  0.6077  0.6425
 5691SOL    HW228536   3.066   1.670   4.304 -1.1039  3.2784 -0.5464
 5692SOL     OW28537   0.135   1.877  12.419 -0.0991 -0.2817 -0.1197
 5692SOL    HW128538   0.040   1.871  12.429 -0.3015  0.4430 -1.6348
 5692SOL    HW228539   0.156   1.805  12.360 -3.4543  0.7156 -2.5437
 5693SOL     OW28540   0.024   0.939  10.790 -0.3620  0.3460  0.4277
 5693SOL    HW128541   0.061   0.953  10.703 -1.5390 -2.5375 -0.5417
 5693SOL    HW228542   0.103   0.947  10.843  0.4099 -0.3656 -0.6064
 5694SOL     OW28543   3.062   3.481   1.702  0.2270  0.6893 -0.5019
 5694SOL    HW128544   3.103   3.536   1.769  1.5505  0.0959 -0.8140
 5694SOL    HW228545   2.993   3.535   1.663 -0.5330  0.2308  0.2298
 5695SOL     OW28546   3.312   1.885  17.495  0.3985  0.2312  0.0370
 5695SOL    HW128547   3.235   1.848  17.537  0.2853 -0.2104 -0.5561
 5695SOL    HW228548   3.320   1.948  17.566 -1.9276 -0.2558  0.7396
 5696SOL     OW28549   1.805   0.717   5.704 -0.0162  0.4143 -0.3671
 5696SOL    HW128550   1.861   0.711   5.781  1.6288  1.3958 -1.4728
 5696SOL    HW228551   1.770   0.802   5.730  0.0056  0.4903 -0.5840
 5697SOL     OW28552   0.434   1.585   5.237  0.4788  0.2240  0.4065
 5697SOL    HW128553   0.359   1.526   5.232  0.5633  0.1242  0.3254
 5697SOL    HW228554   0.476   1.565   5.321  2.9253 -1.8339 -1.3452
 5698SOL     OW28555   0.925   0.712   6.670  0.1086  0.1921  0.0831
 5698SOL    HW128556   0.993   0.772   6.699  1.2444 -0.7455 -0.6402
 5698SOL    HW228557   0.852   0.768   6.697  1.3657  0.7478  2.2357
 5699SOL     OW28558   0.261   4.566   3.553 -0.2929  0.4832  0.4595
 5699SOL    HW128559   0.186   4.623   3.537 -0.9418 -0.0925  1.5001
 5699SOL    HW228560   0.291   4.610   3.632  0.5230  0.2522  0.2828
 5700SOL     OW28561   0.134   1.428   7.132 -0.0576 -0.1882  0.3398
 5700SOL    HW128562   0.040   1.425   7.146 -0.0965 -1.4136 -0.0870
 5700SOL    HW228563   0.140   1.393   7.042 -0.0038 -3.1184  1.4684
 5701SOL     OW28564   1.270   0.323   3.491 -0.4186 -0.7678  0.0913
 5701SOL    HW128565   1.227   0.330   3.576 -0.1730  1.2334  0.0653
 5701SOL    HW228566   1.221   0.388   3.441 -0.9932 -1.0212  0.3239
 5702SOL     OW28567   3.704   2.138   6.163 -0.6350  0.1683  0.3108
 5702SOL    HW128568   3.776   2.145   6.226 -0.9899 -2.4816  1.0008
 5702SOL    HW228569   3.636   2.108   6.223 -0.9203  0.3780  0.0927
 5703SOL     OW28570   3.534   1.051   8.043  0.3885  0.1136  0.0752
 5703SOL    HW128571   3.440   1.034   8.043 -0.1252  3.0358 -1.2922
 5703SOL    HW228572   3.551   1.006   7.960  1.7947  1.6526 -0.4648
 5704SOL     OW28573   4.595   0.505   7.521 -0.5367  0.1797 -0.2681
 5704SOL    HW128574   4.538   0.453   7.464  0.5407 -0.0969 -1.0926
 5704SOL    HW228575   4.538   0.581   7.528  0.2576  0.6430  1.1530
 5705SOL     OW28576   2.591   0.840   9.447  0.2739  0.2842 -0.4541
 5705SOL    HW128577   2.628   0.903   9.510 -0.2672  0.5810 -0.4279
 5705SOL    HW228578   2.666   0.798   9.405 -0.3603 -1.3593  0.0858
 5706SOL     OW28579   0.212   3.365   2.528  0.0121 -0.1139  0.2091
 5706SOL    HW128580   0.133   3.408   2.560  0.8185  1.6657 -0.2179
 5706SOL    HW228581   0.180   3.284   2.487 -1.7110  0.6047  0.1544
 5707SOL     OW28582   4.721   3.642   8.206  0.1921  0.0261  0.3750
 5707SOL    HW128583   4.696   3.590   8.282  0.0576  0.2326  0.4713
 5707SOL    HW228584   0.072   3.590   8.178 -0.6592 -1.7546  1.3996
 5708SOL     OW28585   4.205   3.326   3.825 -0.3585  0.1426  0.1943
 5708SOL    HW128586   4.239   3.308   3.737 -3.9407 -0.5877 -1.0147
 5708SOL    HW228587   4.116   3.302   3.802  0.1249 -2.0365  0.5468
 5709SOL     OW28588   2.093   0.074   6.454 -0.0995 -0.4303  0.2820
 5709SOL    HW128589   2.061   0.133   6.386  0.9195  2.3987  2.2130
 5709SOL    HW228590   2.065   4.716   6.415  1.8585  0.4387 -2.9304
 5710SOL     OW28591   3.298   0.558  13.987 -0.5894  0.1138  0.4813
 5710SOL    HW128592   3.367   0.600  14.039  0.3903  1.5970 -2.0246
 5710SOL    HW228593   3.275   0.635  13.935 -1.2600 -0.6867 -0.3892
 5711SOL     OW28594   0.872   0.964   1.003  0.3934  0.0945 -0.2513
 5711SOL    HW128595   0.897   0.951   0.911  2.2904  0.1004  0.2703
 5711SOL    HW228596   0.780   0.991   1.002  0.4943  0.4327 -0.9732
 5712SOL     OW28597   4.628   0.725   4.050 -0.3415  0.0148 -0.1252
 5712SOL    HW128598   4.711   0.690   4.079 -0.9032 -1.3077 -0.1350
 5712SOL    HW228599   4.623   0.811   4.093  0.3688 -0.4957  0.9642
 5713SOL     OW28600   0.574   4.341   5.378  0.5358 -0.6600 -0.4778
 5713SOL    HW128601   0.660   4.318   5.414  0.9679 -0.0156 -1.0969
 5713SOL    HW228602   0.516   4.315   5.449 -0.3517  0.5974 -0.7387
 5714SOL     OW28603   0.875   2.607  12.490 -0.0761  0.1181  0.0631
 5714SOL    HW128604   0.942   2.600  12.421 -0.7969 -0.8513 -0.5415
 5714SOL    HW228605   0.849   2.520  12.520  3.5541 -0.4111  1.7228
 5715SOL     OW28606   0.843   3.938   3.272 -0.2953 -0.2220  0.2693
 5715SOL    HW128607   0.918   3.925   3.331 -0.7166 -0.9928  0.6416
 5715SOL    HW228608   0.772   3.878   3.295 -0.9635  0.4062 -0.1543
 5716SOL     OW28609   3.118   4.403   5.798 -0.3199  0.2171  0.2782
 5716SOL    HW128610   3.046   4.464   5.809  1.5577  2.8439 -2.1437
 5716SOL    HW228611   3.116   4.369   5.888  1.1704 -0.4597  0.0606
 5717SOL     OW28612   0.347   3.532   1.628  0.0864 -0.2197 -0.0313
 5717SOL    HW128613   0.345   3.471   1.702  1.9750 -2.6712 -1.9927
 5717SOL    HW228614   0.255   3.539   1.603  0.2234  0.7807 -0.2738
 5718SOL     OW28615   3.422   2.323  12.081 -0.0101 -0.1024  0.1594
 5718SOL    HW128616   3.400   2.275  12.161 -0.2322  0.2873  0.3276
 5718SOL    HW228617   3.490   2.389  12.096  0.9930 -0.7713 -1.3799
 5719SOL     OW28618   3.084   1.406   4.874  0.2905  0.4079 -0.2026
 5719SOL    HW128619   3.077   1.320   4.832 -1.6839  1.1434 -1.3598
 5719SOL    HW228620   3.172   1.431   4.845  0.3950  3.0446  2.4003
 5720SOL     OW28621   2.796   0.794   5.349 -0.0684  0.0444 -0.1509
 5720SOL    HW128622   2.835   0.847   5.279  0.8167 -0.3644  0.0360
 5720SOL    HW228623   2.725   0.853   5.376 -0.0783  0.2847 -0.6843
 5721SOL     OW28624   0.561   0.751  13.357  0.1828 -0.2853  0.1009
 5721SOL    HW128625   0.495   0.768  13.424 -0.1504 -2.2236  0.2687
 5721SOL    HW228626   0.563   0.657  13.373 -0.8605 -0.0168  1.8115
 5722SOL     OW28627   0.686   1.874   4.408 -0.2261  0.3329  0.0470
 5722SOL    HW128628   0.767   1.854   4.455 -0.5106  1.5705  1.0506
 5722SOL    HW228629   0.643   1.789   4.410 -1.7014  0.9853 -3.4229
 5723SOL     OW28630   2.382   0.859   7.161 -0.0214 -0.3235 -0.0985
 5723SOL    HW128631   2.467   0.902   7.151  1.5186 -2.9500  1.7490
 5723SOL    HW228632   2.401   0.782   7.106  0.6681  1.6746 -2.6646
 5724SOL     OW28633   1.993   4.598   4.892 -0.0305  0.4875 -0.6625
 5724SOL    HW128634   2.024   4.597   4.982  3.5682  0.4734 -1.9066
 5724SOL    HW228635   2.011   4.687   4.863 -0.5286  0.9809  0.5424
 5725SOL     OW28636   2.824   2.099   3.863 -0.1852 -0.3326 -0.3719
 5725SOL    HW128637   2.894   2.162   3.880 -0.3209 -0.4165  0.4911
 5725SOL    HW228638   2.771   2.148   3.801 -0.7831 -0.2629  0.2009
 5726SOL     OW28639   4.656   1.682   8.292 -0.9448 -0.3147  0.1730
 5726SOL    HW128640   4.676   1.756   8.350  0.5651  0.2258 -1.0449
 5726SOL    HW228641   4.560   1.686   8.284 -0.7375 -3.3669 -3.4430
 5727SOL     OW28642   4.530   1.324  15.764  0.3606 -0.1156  0.3279
 5727SOL    HW128643   4.606   1.301  15.817 -0.5967 -3.2403  0.3231
 5727SOL    HW228644   4.459   1.309  15.825  1.5447 -1.2283  1.4336
 5728SOL     OW28645   1.076   4.602   7.354  0.7946  0.9567 -0.1124
 5728SOL    HW128646   1.063   4.520   7.401 -0.6111 -0.3461 -2.7636
 5728SOL    HW228647   1.031   4.668   7.407 -2.2733 -1.4666  0.3234
 5729SOL     OW28648   2.661   0.853   8.034 -0.2011 -0.5431  0.3833
 5729SOL    HW128649   2.641   0.796   8.108  0.0826  1.3684  1.9499
 5729SOL    HW228650   2.600   0.924   8.059  3.6436  3.0519 -0.4302
 5730SOL     OW28651   0.073   0.525   2.306  0.2508  0.4111  0.6717
 5730SOL    HW128652   0.030   0.610   2.321  1.3894  1.2830 -0.9701
 5730SOL    HW228653   0.153   0.544   2.354  0.4756  1.7119 -0.2219
 5731SOL     OW28654   1.348   1.704  16.405 -0.1446 -0.1789  0.3736
 5731SOL    HW128655   1.257   1.708  16.375  0.0012  2.3186  0.2317
 5731SOL    HW228656   1.381   1.787  16.371  2.6389 -2.2122 -1.9004
 5732SOL     OW28657   4.198   2.645  11.493 -0.0895 -0.0969  0.2293
 5732SOL    HW128658   4.261   2.620  11.560  2.2941 -1.1265 -2.3906
 5732SOL    HW228659   4.248   2.687  11.423 -2.7857  1.0046 -1.0576
 5733SOL     OW28660   1.436   3.980   5.108  0.4451  0.2013 -0.2944
 5733SOL    HW128661   1.520   3.937   5.099 -0.1953 -0.8837 -1.0382
 5733SOL    HW228662   1.369   3.912   5.095 -0.8295  1.7072 -1.5492
 5734SOL     OW28663   0.962   3.525   2.655  0.4689 -0.0424  0.5610
 5734SOL    HW128664   0.883   3.473   2.669  1.2216 -0.4553  3.2307
 5734SOL    HW228665   0.923   3.593   2.599 -1.0541 -0.8833  0.5946
 5735SOL     OW28666   4.571   1.480  13.364 -0.1768  0.2019  0.3555
 5735SOL    HW128667   4.651   1.532  13.359 -1.7873  2.5709 -0.8130
 5735SOL    HW228668   4.520   1.519  13.435 -1.0132 -0.3500  0.0551
 5736SOL     OW28669   2.829   0.406   9.062 -0.3047 -0.2191 -0.0466
 5736SOL    HW128670   2.778   0.478   9.101 -2.6682 -1.6282 -0.5220
 5736SOL    HW228671   2.877   0.378   9.140 -2.1053 -1.2841  0.6902
 5737SOL     OW28672   2.680   4.159  15.152  0.1169  0.1507 -0.2401
 5737SOL    HW128673   2.692   4.130  15.242 -0.3268 -1.1108 -0.5839
 5737SOL    HW228674   2.585   4.147  15.147 -0.1359  1.7573  0.8555
 5738SOL     OW28675   3.904   1.541   0.261  0.1205 -0.1857  0.6818
 5738SOL    HW128676   3.955   1.614   0.297 -0.2893  0.4840 -0.1105
 5738SOL    HW228677   3.821   1.585   0.246 -0.1960 -0.8207  0.5744
 5739SOL     OW28678   3.487   3.361   5.892  0.2053  0.1439 -0.7547
 5739SOL    HW128679   3.441   3.314   5.822  0.4659 -2.4919  0.8765
 5739SOL    HW228680   3.526   3.432   5.841  0.1541 -1.0612 -2.4624
 5740SOL     OW28681   1.077   1.603   7.297  0.1218  0.1600 -0.4431
 5740SOL    HW128682   1.159   1.569   7.262  0.1019  0.5198 -0.8370
 5740SOL    HW228683   1.012   1.560   7.242  0.8470 -1.0554 -0.3488
 5741SOL     OW28684   2.388   0.973   9.070 -0.2558 -0.4418 -0.2581
 5741SOL    HW128685   2.442   0.897   9.092  1.3230  0.8372  0.2271
 5741SOL    HW228686   2.377   0.966   8.976  0.0016 -0.1801 -0.3051
 5742SOL     OW28687   4.145   0.262   5.914 -0.2436 -0.0409 -0.4474
 5742SOL    HW128688   4.208   0.287   5.982 -0.7970 -0.3529  0.1888
 5742SOL    HW228689   4.180   0.299   5.833  0.3341 -0.4248 -0.3742
 5743SOL     OW28690   3.862   4.061   3.469  0.1132 -0.4324  0.2848
 5743SOL    HW128691   3.845   4.018   3.385  0.5650  0.7810 -0.4325
 5743SOL    HW228692   3.937   4.118   3.450 -2.3041  1.5320 -3.3993
 5744SOL     OW28693   1.956   1.769   9.397  0.1660 -0.5707 -0.7100
 5744SOL    HW128694   1.895   1.695   9.399  0.5907 -0.9375 -1.1329
 5744SOL    HW228695   1.977   1.770   9.304 -0.3461  1.9391 -0.7840
 5745SOL     OW28696   2.224   2.399   5.121  0.0441  0.3086 -0.1356
 5745SOL    HW128697   2.179   2.361   5.045 -0.1136  0.9868 -0.3845
 5745SOL    HW228698   2.154   2.451   5.159 -3.0437 -3.3244 -0.8206
 5746SOL     OW28699   1.479   4.497  14.316  0.5417  0.0874 -0.5393
 5746SOL    HW128700   1.388   4.525  14.321  0.4362 -0.3296 -0.1520
 5746SOL    HW228701   1.465   4.405  14.339  1.1261 -0.2838 -1.6484
 5747SOL     OW28702   2.106   4.397  12.373  0.1010  0.0972  0.3149
 5747SOL    HW128703   2.061   4.341  12.437  1.4947 -1.8723 -0.4295
 5747SOL    HW228704   2.139   4.337  12.307 -2.9736  0.2662 -1.3668
 5748SOL     OW28705   1.120   3.908  14.247  0.2045  0.0338  0.0514
 5748SOL    HW128706   1.206   3.948  14.261  0.2749  0.3884 -1.3733
 5748SOL    HW228707   1.064   3.986  14.246 -0.1877 -0.2351  1.0712
 5749SOL     OW28708   2.609   4.121   5.563  0.1138  0.9080  0.0559
 5749SOL    HW128709   2.691   4.117   5.611  1.0602 -0.3121 -1.6691
 5749SOL    HW228710   2.632   4.051   5.502 -1.1976 -0.1554  0.7623
 5750SOL     OW28711   1.945   1.056   8.467 -0.0727 -0.0714 -0.0759
 5750SOL    HW128712   1.969   1.091   8.381 -0.9348 -0.3829 -0.4419
 5750SOL    HW228713   2.029   1.064   8.511  0.2264 -0.3222 -0.5922
 5751SOL     OW28714   3.710   1.847   9.252  0.0894 -0.0645 -0.0336
 5751SOL    HW128715   3.661   1.813   9.177  1.6724 -1.7778 -0.2803
 5751SOL    HW228716   3.640   1.817   9.310  0.3338  1.7140  1.1962
 5752SOL     OW28717   0.219   4.586   1.579 -0.0117 -0.2835 -0.3815
 5752SOL    HW128718   0.225   4.586   1.674 -0.9822  1.1947 -0.3180
 5752SOL    HW228719   0.210   4.681   1.569 -0.1707 -0.2596 -0.0117
 5753SOL     OW28720   0.749   3.589   1.336  0.3157  0.3675 -0.1652
 5753SOL    HW128721   0.832   3.618   1.297  1.1349 -2.3073 -0.4251
 5753SOL    HW228722   0.729   3.656   1.402  0.7304 -1.0811  1.4556
 5754SOL     OW28723   3.029   3.830   6.067  0.6778  0.4086 -0.0708
 5754SOL    HW128724   2.993   3.820   6.155  0.7567 -1.0277 -0.2060
 5754SOL    HW228725   3.109   3.779   6.071  1.4830  1.7986  1.5183
 5755SOL     OW28726   3.299   2.114   9.270 -0.1351 -0.1513  0.0979
 5755SOL    HW128727   3.239   2.166   9.323  0.6459  1.3004 -0.4299
 5755SOL    HW228728   3.360   2.092   9.341  1.3549  2.1042 -0.4891
 5756SOL     OW28729   3.132   1.319   6.595 -0.2885 -0.2662  0.2969
 5756SOL    HW128730   3.119   1.309   6.689 -0.8200  2.8601  0.5489
 5756SOL    HW228731   3.227   1.308   6.590 -0.2328  1.5751 -2.4895
 5757SOL     OW28732   3.254   4.668   3.056  0.4232  0.1822 -0.4094
 5757SOL    HW128733   3.164   4.699   3.046  0.7639  0.5160 -2.4083
 5757SOL    HW228734   3.269   4.675   3.150 -0.9465 -0.1087 -0.1713
 5758SOL     OW28735   1.897   2.983  17.617  0.1757 -0.1352  0.2160
 5758SOL    HW128736   1.891   3.050  17.685  0.3175 -0.5320  0.6172
 5758SOL    HW228737   1.950   2.916  17.659 -0.1154 -0.0370  0.7386
 5759SOL     OW28738   3.483   0.002  12.267 -0.3013  0.1767  0.2657
 5759SOL    HW128739   3.441   0.080  12.230  0.1377  0.6560  0.7673
 5759SOL    HW228740   3.488   0.009  12.363  1.2817  1.3529  0.0891
 5760SOL     OW28741   3.781   1.130   1.684 -0.0811  0.1837 -0.6777
 5760SOL    HW128742   3.784   1.132   1.589  0.4711 -0.7937 -0.6714
 5760SOL    HW228743   3.806   1.038   1.692  1.7782  0.6360 -1.2996
 5761SOL     OW28744   0.589   2.060   4.711  0.1254  0.7159  0.3924
 5761SOL    HW128745   0.532   1.986   4.734 -0.3471  1.5380  1.9046
 5761SOL    HW228746   0.544   2.080   4.630  1.6181  1.0804 -0.3510
 5762SOL     OW28747   0.513   0.666   8.726  0.0026  0.2814 -0.3565
 5762SOL    HW128748   0.540   0.757   8.738  0.6461 -0.0553  0.7260
 5762SOL    HW228749   0.461   0.654   8.805 -1.0687 -1.0910 -1.2683
 5763SOL     OW28750   1.302   0.908   3.218  0.0032 -0.8133 -0.2719
 5763SOL    HW128751   1.296   0.866   3.304 -0.0920  1.7211  0.9788
 5763SOL    HW228752   1.268   0.991   3.252 -0.8925 -1.0430 -0.6156
 5764SOL     OW28753   4.584   2.745   7.340  0.2649 -0.1346 -0.1776
 5764SOL    HW128754   4.669   2.710   7.369 -0.5803 -0.2630  2.1868
 5764SOL    HW228755   4.523   2.696   7.394  0.0143  0.0490 -0.2957
 5765SOL     OW28756   3.324   0.753   6.779 -0.0157  0.3542 -0.1219
 5765SOL    HW128757   3.332   0.751   6.684 -0.5038 -2.9231 -0.0848
 5765SOL    HW228758   3.383   0.684   6.809  0.3761  0.3021 -1.0154
 5766SOL     OW28759   2.012   2.990   5.644 -0.3754 -0.4532 -0.2324
 5766SOL    HW128760   2.067   2.918   5.613  2.0030  1.2774 -0.0997
 5766SOL    HW228761   1.965   2.948   5.716 -0.7227  0.4291  0.0511
 5767SOL     OW28762   2.528   2.899   5.234  0.3982  0.0506  0.0300
 5767SOL    HW128763   2.540   2.821   5.180 -0.2907  1.0861 -1.6132
 5767SOL    HW228764   2.591   2.889   5.305 -0.4022  2.3533  1.0554
 5768SOL     OW28765   0.670   1.901   3.451 -0.1531  0.7069  0.3248
 5768SOL    HW128766   0.635   1.840   3.516 -0.5184  2.8196  2.1029
 5768SOL    HW228767   0.619   1.980   3.470  0.5354  1.0122  0.8677
 5769SOL     OW28768   1.017   0.142  12.854  0.7109  0.3744 -0.4232
 5769SOL    HW128769   1.004   0.060  12.902  0.4735 -1.3490 -3.4392
 5769SOL    HW228770   1.109   0.130  12.830  1.0314 -1.0146  1.4903
 5770SOL     OW28771   3.451   1.411   4.992 -0.5467 -0.1381  0.0896
 5770SOL    HW128772   3.407   1.486   5.032  1.8080  1.5022 -0.4001
 5770SOL    HW228773   3.432   1.426   4.900  1.1602  2.9364  0.2346
 5771SOL     OW28774   0.200   2.567   9.948  0.2375  0.0807  0.4157
 5771SOL    HW128775   0.277   2.589  10.000  0.6851 -1.2080  0.3012
 5771SOL    HW228776   0.143   2.568  10.025 -0.2813  3.4880 -0.0241
 5772SOL     OW28777   1.996   4.008   6.868  0.2187 -0.5213  0.1040
 5772SOL    HW128778   1.942   4.073   6.913  0.1815 -0.5347  0.0787
 5772SOL    HW228779   1.996   3.939   6.934  0.9438  0.0666  0.7280
 5773SOL     OW28780   4.229   2.703   0.952 -0.0282  0.1616  0.3610
 5773SOL    HW128781   4.217   2.616   0.915 -2.4552  0.3044  0.8056
 5773SOL    HW228782   4.138   2.734   0.948 -0.5569 -1.4427  0.1083
 5774SOL     OW28783   2.173   0.337   6.747  0.6571 -0.7459  0.2146
 5774SOL    HW128784   2.158   0.409   6.809  0.6409  0.5348 -1.2736
 5774SOL    HW228785   2.269   0.332   6.747  0.6715 -0.4669  0.5400
 5775SOL     OW28786   2.811   4.348   2.397  0.1401  0.6474 -0.0157
 5775SOL    HW128787   2.810   4.253   2.384  3.1901  0.6649 -0.4696
 5775SOL    HW228788   2.781   4.363   2.486 -0.6455 -0.9943 -0.0087
 5776SOL     OW28789   0.169   3.261   3.808  0.0219  0.1930  0.6519
 5776SOL    HW128790   0.103   3.200   3.775  2.7664 -0.9658 -2.6560
 5776SOL    HW228791   0.199   3.296   3.724  0.3369 -0.9142  0.2990
 5777SOL     OW28792   3.622   2.493   4.836  0.1551 -0.0350 -0.1281
 5777SOL    HW128793   3.626   2.569   4.779 -2.3518 -0.1536 -0.4566
 5777SOL    HW228794   3.711   2.496   4.871 -0.2479 -0.3234  0.9230
 5778SOL     OW28795   3.058   1.499   5.121 -0.1490 -0.3875  0.4461
 5778SOL    HW128796   3.080   1.464   5.035  1.6563  1.4669  0.1473
 5778SOL    HW228797   2.964   1.481   5.119 -0.3686  0.6437  1.6500
 5779SOL     OW28798   4.709   2.824   5.077 -0.4713 -0.7588 -0.8113
 5779SOL    HW128799   0.067   2.787   5.043  1.0789 -0.4090  2.4849
 5779SOL    HW228800   0.021   2.881   5.145 -1.0755  0.5718 -1.6135
 5780SOL     OW28801   1.895   1.699   0.956 -0.4504 -0.1916  0.7622
 5780SOL    HW128802   1.814   1.750   0.963  0.1233  0.7857  0.2534
 5780SOL    HW228803   1.876   1.663   0.870  2.5058 -2.4039  1.0473
 5781SOL     OW28804   0.993   1.201  13.548 -0.3279 -0.2736 -0.0892
 5781SOL    HW128805   1.080   1.239  13.553  0.7392 -2.7716  0.6360
 5781SOL    HW228806   1.004   1.120  13.598 -1.1261 -0.3739 -0.0730
 5782SOL     OW28807   4.120   0.924   7.648 -0.8531  0.2051  0.8287
 5782SOL    HW128808   4.198   0.895   7.695 -0.3259  2.0268  1.0998
 5782SOL    HW228809   4.079   0.840   7.632  0.3802  0.0934 -1.6768
 5783SOL     OW28810   0.791   2.980  11.025 -0.3193 -0.5706  0.5882
 5783SOL    HW128811   0.696   2.967  11.028 -0.5334  0.9077 -0.0272
 5783SOL    HW228812   0.818   2.970  11.116 -2.8630 -1.2795  1.2796
 5784SOL     OW28813   1.250   0.878   4.309  0.5528  0.3804 -0.0100
 5784SOL    HW128814   1.292   0.839   4.232 -2.0993 -2.7982  0.1571
 5784SOL    HW228815   1.159   0.860   4.285  0.9377  1.6827 -2.4428
 5785SOL     OW28816   1.675   0.068   6.323 -0.0593  0.3891  0.2142
 5785SOL    HW128817   1.747   0.128   6.337  1.5438 -0.8090 -2.7669
 5785SOL    HW228818   1.612   0.139   6.311 -1.2248 -0.3899  1.8179
 5786SOL     OW28819   0.496   0.704   2.874 -0.2624 -0.7117  0.3752
 5786SOL    HW128820   0.490   0.655   2.792  2.4642 -1.1969  0.4529
 5786SOL    HW228821   0.574   0.672   2.919  0.2491  0.8520  0.6095
 5787SOL     OW28822   0.743   1.309   5.627  0.2102  0.0866  0.1695
 5787SOL    HW128823   0.797   1.370   5.577 -0.5827 -0.1020 -0.9203
 5787SOL    HW228824   0.708   1.259   5.553 -1.0682  1.7104 -0.3273
 5788SOL     OW28825   0.389   1.580   1.954  0.3609 -0.0980  0.4225
 5788SOL    HW128826   0.372   1.666   1.916 -0.0207 -0.6495 -0.6313
 5788SOL    HW228827   0.302   1.543   1.945 -0.2104  1.1757  0.7478
 5789SOL     OW28828   0.690   1.946  15.166 -0.1284  0.5579 -0.2466
 5789SOL    HW128829   0.609   1.965  15.214 -0.7370 -0.2909 -0.9370
 5789SOL    HW228830   0.662   1.860  15.135 -0.9771  1.6618 -2.6018
 5790SOL     OW28831   4.382   1.740   8.247 -0.1844  0.4185  0.5214
 5790SOL    HW128832   4.371   1.701   8.334 -0.5994  1.9750  1.1775
 5790SOL    HW228833   4.304   1.795   8.246 -0.5529 -0.1093  0.2071
 5791SOL     OW28834   1.956   3.235   4.333  1.2620  0.1648  0.5890
 5791SOL    HW128835   2.007   3.155   4.323  2.0989  0.8599 -0.7040
 5791SOL    HW228836   1.948   3.250   4.428 -1.8556  1.0097  0.1863
 5792SOL     OW28837   4.295   1.767   3.188 -0.6436 -0.0373  0.4742
 5792SOL    HW128838   4.243   1.772   3.108  0.0926  0.7414  0.0481
 5792SOL    HW228839   4.330   1.682   3.162  0.1392  1.5409 -3.5802
 5793SOL     OW28840   1.184   0.819   1.749 -0.0007  0.5599 -0.3451
 5793SOL    HW128841   1.115   0.811   1.683 -1.5034 -1.9545  1.5216
 5793SOL    HW228842   1.258   0.861   1.705 -1.2979  0.7603 -2.3561
 5794SOL     OW28843   2.904   0.530  11.880  0.5678  0.4006  0.0310
 5794SOL    HW128844   2.817   0.492  11.865 -0.1767  1.7665  0.7471
 5794SOL    HW228845   2.882   0.623  11.892 -1.7321 -0.0917 -0.2836
 5795SOL     OW28846   1.900   3.268   4.594  0.0222 -0.5087  0.8900
 5795SOL    HW128847   1.830   3.209   4.622 -0.2634  0.5044  2.2309
 5795SOL    HW228848   1.876   3.352   4.631  1.1769  0.3215 -0.2428
 5796SOL     OW28849   1.477   3.548   4.298 -0.1042 -0.3108  0.2999
 5796SOL    HW128850   1.473   3.614   4.228  1.5483 -0.9577 -0.3976
 5796SOL    HW228851   1.571   3.530   4.302 -0.4028 -1.5174  1.5432
 5797SOL     OW28852   4.202   4.328  15.631 -0.3670 -0.9620 -0.3324
 5797SOL    HW128853   4.285   4.284  15.650  0.4108  0.1382 -1.1467
 5797SOL    HW228854   4.135   4.286  15.685 -2.5487  1.0984 -1.4058
 5798SOL     OW28855   2.047   1.842   8.015 -0.1798 -0.5898  0.3643
 5798SOL    HW128856   2.063   1.812   8.104 -1.8645  0.4163  1.0052
 5798SOL    HW228857   2.094   1.925   8.012  2.5309 -2.1221  0.4425
 5799SOL     OW28858   2.474   1.764   7.046  0.3891  0.6280 -1.0456
 5799SOL    HW128859   2.541   1.776   7.114 -1.3727 -0.8232  0.9607
 5799SOL    HW228860   2.521   1.713   6.980  0.0392  1.1476 -1.6942
 5800SOL     OW28861   1.536   0.459   2.723  0.3033  0.0483  0.4488
 5800SOL    HW128862   1.472   0.529   2.735  0.2943  0.1363 -0.1259
 5800SOL    HW228863   1.484   0.384   2.694 -2.2900  2.1722 -0.3337
 5801SOL     OW28864   1.081   0.632   4.727  0.3289 -0.2966  0.3172
 5801SOL    HW128865   1.132   0.680   4.661  0.2585  0.5286  0.8680
 5801SOL    HW228866   1.157   0.605   4.778  0.3575  0.2112  0.5448
 5802SOL     OW28867   4.533   4.549   2.082 -0.5298  0.1462  0.0675
 5802SOL    HW128868   4.515   4.547   1.988 -1.3771 -0.8376  0.2451
 5802SOL    HW228869   4.493   4.628   2.118 -1.5899  0.1196 -1.0276
 5803SOL     OW28870   1.139   2.075   5.822 -0.7190 -0.8077  0.4950
 5803SOL    HW128871   1.130   2.128   5.742 -0.6716 -0.2034  0.8910
 5803SOL    HW228872   1.195   2.126   5.881  0.5234 -0.3697 -1.0436
 5804SOL     OW28873   4.237   1.181  10.467 -0.3159  0.1958  0.6475
 5804SOL    HW128874   4.201   1.155  10.552 -1.0036  0.5713  0.4666
 5804SOL    HW228875   4.164   1.172  10.406 -0.4854  2.6041  0.4865
 5805SOL     OW28876   2.060   0.704  11.309 -0.0854  0.2292 -0.1300
 5805SOL    HW128877   2.011   0.627  11.280  1.4874 -1.2868  1.2440
 5805SOL    HW228878   1.986   0.764  11.301  1.3172  2.0283  0.5553
 5806SOL     OW28879   2.897   2.205   8.589 -0.3350 -0.0016  0.1780
 5806SOL    HW128880   2.955   2.132   8.611 -1.1678 -0.7482 -0.0792
 5806SOL    HW228881   2.821   2.158   8.553  1.2653 -2.5556  0.1223
 5807SOL     OW28882   2.616   4.606   9.049 -0.4334 -1.0184  0.3269
 5807SOL    HW128883   2.684   4.583   8.985  0.4429  0.5975  0.6797
 5807SOL    HW228884   2.634   4.698   9.068  1.9127 -1.1502 -1.2131
 5808SOL     OW28885   4.557   1.534   6.649 -0.1333 -0.2209 -0.2739
 5808SOL    HW128886   4.491   1.554   6.582 -1.5337  0.0621  1.1957
 5808SOL    HW228887   4.598   1.621   6.658 -0.9680 -0.1340  2.4237
 5809SOL     OW28888   2.424   2.528   0.559  0.7103 -0.3743  0.2090
 5809SOL    HW128889   2.407   2.434   0.557  0.2966 -0.3495  2.8019
 5809SOL    HW228890   2.488   2.541   0.629  0.4794  0.5230  0.2518
 5810SOL     OW28891   1.200   3.145  14.940  0.5858  0.6914 -0.3474
 5810SOL    HW128892   1.166   3.132  14.852  0.4593  0.1777 -0.2249
 5810SOL    HW228893   1.132   3.101  14.991 -0.0606  4.1100  1.7455
 5811SOL     OW28894   3.978   2.986   3.318 -0.0617  0.0456 -0.9890
 5811SOL    HW128895   3.999   3.048   3.388 -1.5485 -1.5894  0.9422
 5811SOL    HW228896   4.026   3.012   3.240  1.2216  0.7033  0.0183
 5812SOL     OW28897   3.095   0.260  10.734 -0.1892 -0.7495  0.2370
 5812SOL    HW128898   3.060   0.239  10.821 -0.2968  0.6630  0.5443
 5812SOL    HW228899   3.042   0.207  10.676  0.6325 -1.4099  0.0939
 5813SOL     OW28900   2.677   0.869  11.150 -0.2089  0.0717 -0.0924
 5813SOL    HW128901   2.625   0.790  11.166 -1.9827  0.9821 -1.4546
 5813SOL    HW228902   2.608   0.912  11.100 -1.9345 -1.3760  1.0658
 5814SOL     OW28903   0.966   0.078   4.789  0.6094 -0.2942  0.1753
 5814SOL    HW128904   1.034   0.025   4.829  1.2722 -2.7204 -4.1577
 5814SOL    HW228905   1.022   0.122   4.725  0.6940 -0.3103  0.2393
 5815SOL     OW28906   3.382   1.041  14.461 -0.3732 -0.1334  0.1553
 5815SOL    HW128907   3.354   1.023  14.371 -2.0267 -0.1744  0.6668
 5815SOL    HW228908   3.438   1.118  14.461 -1.1762  0.4543 -0.6034
 5816SOL     OW28909   3.356   2.260   2.742  0.0306  0.0503 -0.5039
 5816SOL    HW128910   3.346   2.353   2.721 -0.0192 -0.2223 -1.6715
 5816SOL    HW228911   3.347   2.235   2.650  1.5138 -0.7330 -0.4380
 5817SOL     OW28912   1.250   0.003  14.959  0.3994  0.0134  0.4022
 5817SOL    HW128913   1.214   4.654  14.910  2.6841 -0.0289 -1.2265
 5817SOL    HW228914   1.167   0.045  14.983  0.8016  1.1772 -0.2590
 5818SOL     OW28915   2.386   1.844   6.121  0.6952  0.1334  0.3933
 5818SOL    HW128916   2.332   1.813   6.048  1.8311 -2.3525  0.6077
 5818SOL    HW228917   2.356   1.934   6.115  0.8903  0.1974  0.3939
 5819SOL     OW28918   3.575   4.424   2.238 -0.0045 -0.8396  0.1645
 5819SOL    HW128919   3.510   4.478   2.193  0.4216 -1.9777 -1.8519
 5819SOL    HW228920   3.654   4.466   2.205 -1.7501  2.1341 -0.2502
 5820SOL     OW28921   1.156   2.034   2.946 -1.2841  0.5162 -0.3845
 5820SOL    HW128922   1.175   1.951   2.903 -0.9638  0.8681 -0.9183
 5820SOL    HW228923   1.092   2.073   2.886  0.6531 -0.2258 -2.9424
 5821SOL     OW28924   2.570   1.883   4.959  0.2360  0.6265  0.0673
 5821SOL    HW128925   2.599   1.793   4.972 -0.8643  0.4010  0.9796
 5821SOL    HW228926   2.476   1.866   4.963 -0.0462  2.0604 -0.3135
 5822SOL     OW28927   3.988   3.216   6.567  0.0615 -0.4627 -0.1706
 5822SOL    HW128928   4.036   3.263   6.499 -0.1738  0.0939  0.0454
 5822SOL    HW228929   4.029   3.257   6.644 -0.5629  0.7400 -0.4680
 5823SOL     OW28930   4.490   2.570   7.093 -0.0296  0.0074  0.5605
 5823SOL    HW128931   4.442   2.645   7.128 -0.2164  0.5900 -0.9737
 5823SOL    HW228932   4.582   2.597   7.088  0.4426 -2.0224 -1.6396
 5824SOL     OW28933   2.700   3.567  13.014 -0.1667 -0.1210  0.0907
 5824SOL    HW128934   2.735   3.494  12.963  0.1658 -0.0730  0.2463
 5824SOL    HW228935   2.734   3.556  13.102  2.2920  2.3728 -0.5388
 5825SOL     OW28936   4.271   3.306   4.770  0.8068 -0.3432 -0.8682
 5825SOL    HW128937   4.367   3.295   4.770  1.0638  1.8996 -0.0593
 5825SOL    HW228938   4.261   3.359   4.691 -0.8382  0.6966  0.0582
 5826SOL     OW28939   0.508   4.169  15.662  1.1244  0.1311  0.5536
 5826SOL    HW128940   0.485   4.145  15.573 -0.7048 -0.7608  1.2668
 5826SOL    HW228941   0.418   4.179  15.692  1.1551  0.6670  0.4698
 5827SOL     OW28942   4.079   0.449   6.201  0.7417 -0.0792  0.4751
 5827SOL    HW128943   4.034   0.370   6.230  0.6006  0.1462  0.8700
 5827SOL    HW228944   4.027   0.465   6.122 -0.9772 -0.9243  1.4554
 5828SOL     OW28945   2.783   0.522   5.210  0.2053  0.0017  0.3146
 5828SOL    HW128946   2.800   0.609   5.246 -1.3265  1.8676 -3.5174
 5828SOL    HW228947   2.841   0.467   5.263  1.8871  1.2022 -0.2803
 5829SOL     OW28948   2.504   4.035   4.886  0.3027 -0.1279  0.3028
 5829SOL    HW128949   2.498   3.944   4.915  0.2929 -0.0524  0.5364
 5829SOL    HW228950   2.478   4.074   4.969 -1.4003 -2.0344  0.6536
 5830SOL     OW28951   0.535   3.540   6.129  0.0119  0.3283  0.1193
 5830SOL    HW128952   0.476   3.548   6.054  1.3017  1.9223 -0.7243
 5830SOL    HW228953   0.571   3.629   6.124  0.2971  0.2554  0.9630
 5831SOL     OW28954   0.770   3.811  12.188 -0.2515 -0.1205 -0.1731
 5831SOL    HW128955   0.855   3.811  12.144 -0.2614 -1.9601 -0.1864
 5831SOL    HW228956   0.788   3.849  12.274 -0.8403 -0.6675  0.1949
 5832SOL     OW28957   2.273   0.329   2.604  0.5438  0.0359 -0.2162
 5832SOL    HW128958   2.304   0.346   2.515 -0.5124  1.4459 -0.3166
 5832SOL    HW228959   2.227   0.247   2.588  2.1144 -1.1695  1.5234
 5833SOL     OW28960   3.164   0.740   8.053 -0.1691  0.1379  0.4031
 5833SOL    HW128961   3.211   0.681   8.112  0.6159  0.0606 -0.3167
 5833SOL    HW228962   3.071   0.714   8.057 -0.4645  1.0244 -0.8224
 5834SOL     OW28963   2.169   3.757   5.546  0.2035  0.2813 -0.0127
 5834SOL    HW128964   2.256   3.752   5.585 -0.3533  0.9310  1.3010
 5834SOL    HW228965   2.141   3.669   5.571 -2.5001  1.0982 -0.1309
 5835SOL     OW28966   2.794   1.356  17.505 -0.2333 -0.0644 -0.7773
 5835SOL    HW128967   2.752   1.379  17.422 -2.0431 -1.2924 -0.1863
 5835SOL    HW228968   2.742   1.408  17.567  0.2159 -1.6140  0.9200
 5836SOL     OW28969   0.694   1.060   3.806 -0.2007 -0.1630  0.2983
 5836SOL    HW128970   0.729   0.974   3.832 -0.4988 -0.3829 -0.0163
 5836SOL    HW228971   0.777   1.103   3.785 -0.5049  0.0243 -0.5048
 5837SOL     OW28972   4.187   3.265   4.439  0.0072 -0.2009  0.5344
 5837SOL    HW128973   4.260   3.326   4.445  0.2893 -0.2685 -2.5017
 5837SOL    HW228974   4.115   3.324   4.462 -1.0466 -2.4760  3.2079
 5838SOL     OW28975   1.829   0.082   9.473  0.1208 -0.6086 -0.5665
 5838SOL    HW128976   1.872   0.009   9.429 -1.2393 -1.9867  0.3447
 5838SOL    HW228977   1.789   0.033   9.545 -0.5835  1.9506  0.7731
 5839SOL     OW28978   0.699   0.836   8.451  0.4417  0.3501 -0.1678
 5839SOL    HW128979   0.698   0.748   8.414 -1.6003  0.0593  0.6164
 5839SOL    HW228980   0.608   0.864   8.447 -0.4216 -2.0647  3.7700
 5840SOL     OW28981   2.898   1.262   7.801  0.0870 -0.0503  0.4595
 5840SOL    HW128982   2.966   1.326   7.780 -0.7944  0.2177 -1.5619
 5840SOL    HW228983   2.825   1.307   7.760 -1.0333 -2.1420  0.1577
 5841SOL     OW28984   2.069   3.311  12.127 -0.2563  0.1005 -0.2918
 5841SOL    HW128985   2.009   3.311  12.052 -1.0072  1.1891  0.2935
 5841SOL    HW228986   2.140   3.264  12.084  0.4154  1.1007 -0.2928
 5842SOL     OW28987   3.839   2.757   1.691  0.3512  0.2495 -0.0274
 5842SOL    HW128988   3.923   2.751   1.737  0.1130 -0.6858  0.2872
 5842SOL    HW228989   3.823   2.847   1.721  1.0658  0.0334  1.0020
 5843SOL     OW28990   3.382   1.156   3.755 -0.0003  0.1091 -0.1986
 5843SOL    HW128991   3.335   1.200   3.684 -1.1206 -0.3716  0.2499
 5843SOL    HW228992   3.383   1.217   3.829  1.5449 -2.4576  1.9445
 5844SOL     OW28993   0.911   4.436   5.870 -0.3533  0.2118  0.0634
 5844SOL    HW128994   0.887   4.523   5.839  1.9639  0.9809  0.4038
 5844SOL    HW228995   0.946   4.449   5.958  1.4688 -1.8123 -0.3632
 5845SOL     OW28996   2.268   1.051   4.062 -0.1479 -0.1684  0.7327
 5845SOL    HW128997   2.328   1.097   4.003 -0.1327 -0.2094  0.7161
 5845SOL    HW228998   2.280   0.960   4.035 -2.5468 -0.2024 -0.2691
 5846SOL     OW28999   4.654   3.571   4.443  1.2024 -0.9835 -0.0325
 5846SOL    HW129000   4.661   3.532   4.356 -1.4087 -2.3345  0.3794
 5846SOL    HW229001   0.011   3.623   4.446  0.0793  0.7137  1.1311
 5847SOL     OW29002   4.284   0.902   9.551 -0.5285  0.5454  0.4532
 5847SOL    HW129003   4.252   0.941   9.469 -1.8554  0.1869  0.8035
 5847SOL    HW229004   4.283   0.810   9.524 -1.3320  0.8026 -0.3809
 5848SOL     OW29005   2.250   3.430  15.611  0.4841 -0.2235  0.0909
 5848SOL    HW129006   2.255   3.515  15.656  1.6180  0.3691 -1.1384
 5848SOL    HW229007   2.195   3.377  15.669  0.0648 -0.5253 -0.5890
 5849SOL     OW29008   3.265   1.231   8.237  0.2322 -0.6050 -0.1002
 5849SOL    HW129009   3.210   1.154   8.223  1.4390 -1.6862  1.1875
 5849SOL    HW229010   3.242   1.247   8.328  0.0409 -1.4894  0.0026
 5850SOL     OW29011   1.450   0.778   4.143  0.1491 -0.3714 -0.1353
 5850SOL    HW129012   1.457   0.720   4.067  0.7240 -0.8430  0.2681
 5850SOL    HW229013   1.515   0.843   4.115  0.5399 -1.7366 -2.4178
 5851SOL     OW29014   0.385   1.953   5.852  0.3281 -0.7564 -0.2918
 5851SOL    HW129015   0.307   1.984   5.805 -0.7490 -1.0785  1.2939
 5851SOL    HW229016   0.367   1.864   5.880 -1.1167 -0.3805 -0.0126
 5852SOL     OW29017   2.988   3.825   5.334 -0.6029  0.6273  0.5591
 5852SOL    HW129018   2.903   3.858   5.305 -0.8980 -0.5385  0.0982
 5852SOL    HW229019   3.026   3.787   5.254  1.2695  1.0133  1.2728
 5853SOL     OW29020   2.528   2.609  11.207 -0.6899 -0.4692 -0.1508
 5853SOL    HW129021   2.544   2.694  11.165 -0.5484  1.6796  4.1688
 5853SOL    HW229022   2.433   2.611  11.202 -0.7011  2.8018  1.2267
 5854SOL     OW29023   1.636   4.240  13.005  0.0544  0.7559 -0.0415
 5854SOL    HW129024   1.587   4.185  12.944 -2.5327  1.0838  1.7430
 5854SOL    HW229025   1.581   4.237  13.083  0.5000 -0.9075  0.2060
 5855SOL     OW29026   3.760   0.306  15.533 -0.0022 -0.0528  0.3924
 5855SOL    HW129027   3.693   0.269  15.591 -0.0881  0.6064  0.7112
 5855SOL    HW229028   3.770   0.391  15.575  0.7104  0.5030 -0.9104
 5856SOL     OW29029   2.648   0.370   5.442 -0.3141 -0.7564 -0.1259
 5856SOL    HW129030   2.686   0.305   5.383 -0.8895  1.7618 -3.2716
 5856SOL    HW229031   2.725   0.421   5.467  0.2716 -1.6104 -0.1495
 5857SOL     OW29032   1.876   0.674  16.078 -0.2030 -0.6713 -0.1452
 5857SOL    HW129033   1.795   0.712  16.045 -0.8769 -0.9344  1.1808
 5857SOL    HW229034   1.905   0.606  16.018 -0.0707 -0.5123 -0.2620
 5858SOL     OW29035   1.948   1.490   9.715  0.8854 -0.6507 -0.9976
 5858SOL    HW129036   2.004   1.559   9.751 -0.7433  0.5251 -0.7101
 5858SOL    HW229037   1.888   1.543   9.663  1.5625  1.0268 -0.0829
 5859SOL     OW29038   0.534   0.551   3.603  0.8394  0.3470  0.8997
 5859SOL    HW129039   0.564   0.549   3.513 -1.1325  0.9957  0.2156
 5859SOL    HW229040   0.440   0.569   3.600  0.9441  0.9894  1.2543
 5860SOL     OW29041   4.497   3.079   0.150  0.2539 -0.3268 -0.0600
 5860SOL    HW129042   4.433   3.044   0.088  0.0689 -1.2535  0.6469
 5860SOL    HW229043   4.553   3.005   0.175 -0.4104 -1.0424 -0.6945
 5861SOL     OW29044   0.354   1.367   2.206 -0.4872 -0.2039 -0.3753
 5861SOL    HW129045   0.360   1.361   2.111  2.8318  1.1044 -0.2338
 5861SOL    HW229046   0.406   1.291   2.233  1.0336  0.7552 -0.5980
 5862SOL     OW29047   3.811   2.085   0.342 -0.0610 -0.0613 -0.1397
 5862SOL    HW129048   3.750   2.080   0.415  0.7527  1.3075  0.6358
 5862SOL    HW229049   3.788   2.010   0.288 -1.3171 -1.0126  1.7334
 5863SOL     OW29050   0.552   3.659   4.069 -0.0433 -0.3003 -0.1158
 5863SOL    HW129051   0.516   3.581   4.111 -0.5854  0.0529  0.0712
 5863SOL    HW229052   0.550   3.715   4.147  0.0154  0.1906 -0.4702
 5864SOL     OW29053   1.169   3.895  10.389 -0.4070  0.1310  0.5017
 5864SOL    HW129054   1.224   3.818  10.398 -0.1879  0.0308 -1.6775
 5864SOL    HW229055   1.103   3.869  10.452 -0.6106  0.1979  0.3191
 5865SOL     OW29056   1.821   3.282   5.933  0.3758  0.4534 -0.3679
 5865SOL    HW129057   1.835   3.270   6.027 -2.5491 -0.7358 -0.0844
 5865SOL    HW229058   1.899   3.337   5.922  0.5528  0.4907  1.1154
 5866SOL     OW29059   2.709   2.090  15.499  0.4562 -0.4865 -0.0569
 5866SOL    HW129060   2.755   2.031  15.559  2.5745  1.2656 -0.0095
 5866SOL    HW229061   2.697   2.023  15.431  0.6497 -2.0240  1.4200
 5867SOL     OW29062   3.753   0.274  12.807 -0.0208  0.0275 -0.2069
 5867SOL    HW129063   3.817   0.327  12.760 -2.6800  0.4899 -3.3763
 5867SOL    HW229064   3.809   0.207  12.847  0.2230  1.2015  1.4015
 5868SOL     OW29065   1.603   4.663   3.419  0.0270 -0.0841  0.1494
 5868SOL    HW129066   1.573   4.717   3.345  0.6186  1.6496  1.1753
 5868SOL    HW229067   1.694   4.690   3.406 -0.2867  0.8828 -0.0502
 5869SOL     OW29068   1.297   4.537  15.473 -0.1187  0.2593 -0.1724
 5869SOL    HW129069   1.349   4.577  15.543 -0.4589  0.7079 -0.1709
 5869SOL    HW229070   1.302   4.595  15.397 -0.0525  0.0165 -0.3505
 5870SOL     OW29071   0.089   2.535   5.771  0.1991  0.1169  0.2129
 5870SOL    HW129072   0.024   2.559   5.838  0.4191  1.3669 -0.0272
 5870SOL    HW229073   0.048   2.462   5.724 -2.3313  0.6820  1.5071
 5871SOL     OW29074   1.829   1.991  17.680 -0.2119 -0.2629 -0.7307
 5871SOL    HW129075   1.798   2.072   0.023  1.0754 -0.6938  1.1155
 5871SOL    HW229076   1.764   1.921  17.688  1.1235 -1.3778  0.5250
 5872SOL     OW29077   2.887   2.396   7.215  0.8444 -0.0416  0.0879
 5872SOL    HW129078   2.839   2.329   7.165  0.5010  1.3500 -1.4425
 5872SOL    HW229079   2.974   2.355   7.221  0.0438 -1.7738 -0.0623
 5873SOL     OW29080   0.649   4.209   7.314 -0.0052  0.6397 -0.7554
 5873SOL    HW129081   0.599   4.290   7.324  0.0503  0.3641  1.9303
 5873SOL    HW229082   0.586   4.157   7.365  1.7423 -0.1493  0.5769
 5874SOL     OW29083   1.520   1.791   5.891 -0.4142  0.0101 -0.0295
 5874SOL    HW129084   1.600   1.759   5.848  0.1629  0.3857  0.7701
 5874SOL    HW229085   1.556   1.864   5.941 -0.3273  2.3769 -3.5603
 5875SOL     OW29086   4.595   4.458   4.274 -0.1732  0.0660  0.2252
 5875SOL    HW129087   4.596   4.532   4.335  2.0010  0.5507 -0.4015
 5875SOL    HW229088   4.682   4.472   4.237  0.1944  0.6530  1.3204
 5876SOL     OW29089   0.205   3.673   1.172 -0.1173 -0.1200 -0.0812
 5876SOL    HW129090   0.159   3.685   1.255 -1.3406 -2.7711 -0.3616
 5876SOL    HW229091   0.132   3.678   1.111 -0.0119 -0.8581 -0.2746
 5877SOL     OW29092   0.639   0.004   6.661  0.4038  0.2707 -0.3236
 5877SOL    HW129093   0.699   4.681   6.605  0.4667 -1.0952  0.8757
 5877SOL    HW229094   0.678   0.090   6.675 -2.7381  1.6455 -0.0414
 5878SOL     OW29095   2.968   0.795  12.942  0.0796 -0.0731  0.0340
 5878SOL    HW129096   3.045   0.739  12.954  0.7200  0.8027  0.0596
 5878SOL    HW229097   3.015   0.878  12.939 -1.0989  0.5925  0.0978
 5879SOL     OW29098   2.047   0.190  13.638 -0.2008  0.9739  0.3409
 5879SOL    HW129099   2.027   0.282  13.619 -1.1633  0.7167  0.1086
 5879SOL    HW229100   2.075   0.154  13.555  1.3213  2.4673  0.2171
 5880SOL     OW29101   1.242   0.794   6.412  0.0913  0.5949  0.2573
 5880SOL    HW129102   1.291   0.775   6.332 -1.1957  0.2490 -0.4475
 5880SOL    HW229103   1.255   0.888   6.423  0.0617  1.0445 -3.6192
 5881SOL     OW29104   4.618   2.608   4.134 -0.0847  0.5436 -0.2352
 5881SOL    HW129105   4.676   2.670   4.089  2.4590 -1.4626  0.2213
 5881SOL    HW229106   4.670   2.527   4.135  0.5502  0.9581  1.2355
 5882SOL     OW29107   4.085   4.709   7.364  0.0333 -0.2504 -0.0926
 5882SOL    HW129108   3.996   0.006   7.337 -0.2271  2.7787  3.1101
 5882SOL    HW229109   4.136   0.056   7.324 -1.0445  0.8419  0.4617
 5883SOL     OW29110   3.530   2.750   1.111 -0.1162 -0.0456 -0.0907
 5883SOL    HW129111   3.443   2.784   1.133  0.1595  0.1645  0.6809
 5883SOL    HW229112   3.510   2.667   1.068  0.9929  0.1572 -0.9788
 5884SOL     OW29113   1.072   3.012   8.579 -0.1918  0.4369  0.0165
 5884SOL    HW129114   1.107   2.924   8.593 -1.7075  0.2137  2.2954
 5884SOL    HW229115   1.037   3.027   8.666 -0.5536 -1.7238  0.2457
 5885SOL     OW29116   2.248   1.103  14.142 -0.1639  0.4011  0.0025
 5885SOL    HW129117   2.251   1.144  14.229 -2.8897  0.4127  0.1041
 5885SOL    HW229118   2.286   1.164  14.079  0.0503 -1.1887 -1.3865
 5886SOL     OW29119   2.502   2.631  13.920 -0.0561 -0.3691  0.1412
 5886SOL    HW129120   2.475   2.694  13.853 -0.1111 -0.0509  0.4635
 5886SOL    HW229121   2.497   2.672  14.006  0.8048 -0.3322  0.1706
 5887SOL     OW29122   3.189   1.234   0.745 -0.1658 -0.7794 -0.7243
 5887SOL    HW129123   3.103   1.239   0.787 -0.3101 -1.6733 -0.9048
 5887SOL    HW229124   3.236   1.271   0.819  0.1606 -0.8533 -0.8970
 5888SOL     OW29125   0.459   0.842   5.779 -0.5617  0.3518  0.4201
 5888SOL    HW129126   0.515   0.807   5.849 -1.9167  2.5688  2.6141
 5888SOL    HW229127   0.402   0.766   5.770 -0.4921  0.6533 -2.3408
 5889SOL     OW29128   1.125   0.416   0.134  0.0784  0.0824 -0.2658
 5889SOL    HW129129   1.111   0.510   0.121 -1.4834  0.0439  1.1451
 5889SOL    HW229130   1.219   0.402   0.118 -0.1421 -0.8466 -0.7890
 5890SOL     OW29131   1.924   2.954   2.012  0.3258  0.0592 -0.3105
 5890SOL    HW129132   1.901   3.037   2.054 -1.0223 -0.1664 -0.6031
 5890SOL    HW229133   2.012   2.972   1.978  0.4756  0.3747  0.2511
 5891SOL     OW29134   3.367   1.124  16.048 -0.0941 -0.1032 -0.0569
 5891SOL    HW129135   3.459   1.103  16.035 -0.1497 -0.0558 -0.5538
 5891SOL    HW229136   3.336   1.033  16.050 -2.2222  0.6136  0.0133
 5892SOL     OW29137   1.545   0.212   7.325  0.0103  0.4342 -0.0719
 5892SOL    HW129138   1.525   0.250   7.240 -0.6079  0.5844  0.1361
 5892SOL    HW229139   1.620   0.159   7.300 -0.6175 -0.9044  0.8399
 5893SOL     OW29140   4.439   3.647   4.927  0.6689 -0.9264  0.5642
 5893SOL    HW129141   4.494   3.591   4.981  1.0467  0.3818  1.5407
 5893SOL    HW229142   4.487   3.654   4.844 -1.0008  0.2849 -0.3139
 5894SOL     OW29143   1.253   0.110   5.489 -0.2595  0.1317 -0.0481
 5894SOL    HW129144   1.233   0.153   5.573 -0.4403  0.1079 -0.0775
 5894SOL    HW229145   1.318   0.169   5.451 -0.4405  0.1943 -0.2616
 5895SOL     OW29146   0.402   0.551  12.023  0.4273 -0.1655  0.7325
 5895SOL    HW129147   0.496   0.557  12.041  0.1797 -2.4796  2.7612
 5895SOL    HW229148   0.391   0.473  12.077  1.0321 -0.5871  0.2430
 5896SOL     OW29149   3.279   2.936   4.177  0.5692  0.1315  0.0239
 5896SOL    HW129150   3.298   2.844   4.191  0.2682  0.0403 -0.1561
 5896SOL    HW229151   3.321   2.953   4.093  1.0025  0.3441  0.2840
 5897SOL     OW29152   4.266   2.271   5.677 -0.1021 -0.0570 -0.6910
 5897SOL    HW129153   4.309   2.355   5.661 -1.2202  0.6330 -0.0907
 5897SOL    HW229154   4.218   2.287   5.759  1.9990 -2.1036  0.9313
 5898SOL     OW29155   4.034   2.587  14.891 -0.0291  0.5844 -0.1064
 5898SOL    HW129156   4.030   2.492  14.881  0.1567  0.4283  1.2062
 5898SOL    HW229157   3.983   2.622  14.818 -2.7036 -1.1226  0.9476
 5899SOL     OW29158   3.213   1.057  10.448 -0.1741 -0.1099 -0.1144
 5899SOL    HW129159   3.191   1.138  10.402 -0.7672 -0.8810 -1.1771
 5899SOL    HW229160   3.139   1.012  10.408  0.1942 -1.6570  0.9092
 5900SOL     OW29161   0.933   4.434   2.473 -0.0068  0.0084 -0.2419
 5900SOL    HW129162   0.874   4.463   2.403  1.0776 -0.8186 -1.4951
 5900SOL    HW229163   0.999   4.386   2.424 -0.6680  1.4211 -2.5207
 5901SOL     OW29164   2.768   2.178   5.458  0.5121  0.1608 -0.4487
 5901SOL    HW129165   2.723   2.119   5.397  0.5190 -1.1850  0.8453
 5901SOL    HW229166   2.725   2.261   5.441 -0.4757 -0.4196 -0.7939
 5902SOL     OW29167   0.055   0.789   6.057  0.0880 -0.0850  0.8385
 5902SOL    HW129168   4.715   0.735   6.010  1.3731  1.3913 -2.6364
 5902SOL    HW229169   4.715   0.805   6.126 -1.3565  0.0003 -0.5314
 5903SOL     OW29170   0.657   2.526  11.829 -0.4153 -0.4409 -0.1403
 5903SOL    HW129171   0.577   2.474  11.837 -1.3178  0.7790 -1.2634
 5903SOL    HW229172   0.620   2.601  11.783  1.5116  0.3542 -0.3892
 5904SOL     OW29173   0.626   3.965   5.005 -0.5886 -0.4375 -0.3530
 5904SOL    HW129174   0.544   3.968   5.054  0.4653 -3.6400  1.5910
 5904SOL    HW229175   0.667   3.890   5.049  1.8313  2.6124  2.6269
 5905SOL     OW29176   0.689   1.153   8.269 -0.1075  0.7258  0.1129
 5905SOL    HW129177   0.679   1.201   8.186  1.9921  0.1032 -0.4999
 5905SOL    HW229178   0.738   1.075   8.243 -1.9193 -0.2786 -0.2953
 5906SOL     OW29179   2.205   0.889   7.593 -0.0991  0.6163 -0.0998
 5906SOL    HW129180   2.270   0.830   7.631  0.0161  1.8091  1.5143
 5906SOL    HW229181   2.204   0.851   7.505 -1.9325 -1.4922  0.8279
 5907SOL     OW29182   2.837   3.695   2.994  0.1536  0.0661 -0.4421
 5907SOL    HW129183   2.834   3.738   2.908 -0.3996  1.1608  0.1254
 5907SOL    HW229184   2.810   3.763   3.055 -0.5121  0.5454 -1.2638
 5908SOL     OW29185   3.799   0.921   2.460 -0.0256 -0.2342 -0.2105
 5908SOL    HW129186   3.739   0.855   2.494 -1.2047  1.0629  0.2321
 5908SOL    HW229187   3.738   0.959   2.397  1.0216 -1.8872 -2.2355
 5909SOL     OW29188   2.926   3.719   1.288 -0.0702 -0.1801 -0.0172
 5909SOL    HW129189   2.979   3.703   1.366  1.8717 -1.1066 -1.5198
 5909SOL    HW229190   2.876   3.800   1.301  1.1365  0.9057 -2.1373
 5910SOL     OW29191   2.555   0.881  13.874  0.3048 -0.5705  0.6195
 5910SOL    HW129192   2.486   0.820  13.848 -1.0846  0.7604  1.1290
 5910SOL    HW229193   2.563   0.943  13.801 -3.9573 -0.0479  0.5949
 5911SOL     OW29194   3.101   4.026   2.179 -0.5509 -0.3368 -0.0189
 5911SOL    HW129195   3.095   3.934   2.153 -0.9346  0.1459 -1.6876
 5911SOL    HW229196   3.127   4.061   2.093 -1.7622 -1.7964 -0.9846
 5912SOL     OW29197   0.439   4.505   7.785 -0.1409  0.8586 -0.1281
 5912SOL    HW129198   0.439   4.598   7.763 -1.4882  0.5155 -1.5149
 5912SOL    HW229199   0.373   4.512   7.854 -0.4968 -0.8485 -0.3042
 5913SOL     OW29200   1.052   2.965  17.542  0.0978  0.9678  0.6168
 5913SOL    HW129201   1.108   2.921  17.605 -2.1812 -2.5928  0.1593
 5913SOL    HW229202   1.090   3.053  17.542  1.5316  0.3453  0.8588
 5914SOL     OW29203   2.299   2.586   1.813 -0.1640  0.2830 -0.0064
 5914SOL    HW129204   2.238   2.618   1.747  1.0423  0.6552 -0.9484
 5914SOL    HW229205   2.381   2.581   1.764 -0.5409  0.7580 -0.6868
 5915SOL     OW29206   1.683   4.125  13.623 -0.4021 -0.5514 -0.6145
 5915SOL    HW129207   1.755   4.164  13.673  1.4212 -1.9569 -2.1334
 5915SOL    HW229208   1.725   4.101  13.541 -0.3846 -0.6570 -0.5762
 5916SOL     OW29209   0.585   1.488   0.004  0.2807  0.0014  0.3442
 5916SOL    HW129210   0.623   1.574  17.683 -3.5596  1.5921 -0.1405
 5916SOL    HW229211   0.662   1.443   0.040 -1.3596 -2.4431  0.7569
 5917SOL     OW29212   1.376   0.029   8.286  0.4921  0.9206  0.0985
 5917SOL    HW129213   1.364   0.114   8.243 -0.1380 -0.2494 -2.0158
 5917SOL    HW229214   1.458   0.047   8.332  1.6230 -0.5047 -1.3970
 5918SOL     OW29215   3.538   4.683   9.223 -0.5829 -0.2782  0.0588
 5918SOL    HW129216   3.608   4.669   9.159  0.9758 -1.0258  1.9530
 5918SOL    HW229217   3.502   0.041   9.189  0.4937  0.9597  1.9024
 5919SOL     OW29218   0.864   4.145  12.119 -0.6541  0.0414 -0.3724
 5919SOL    HW129219   0.885   4.097  12.039 -0.2660 -0.3531 -0.0327
 5919SOL    HW229220   0.813   4.218  12.083 -3.1068 -1.3839  0.1938
 5920SOL     OW29221   4.019   4.363  13.839 -0.1134 -0.4083  0.0478
 5920SOL    HW129222   3.966   4.313  13.901 -1.0530  0.1574 -0.2900
 5920SOL    HW229223   4.071   4.288  13.812 -1.6407 -2.0082  1.5360
 5921SOL     OW29224   2.817   1.239  13.469 -0.7019 -1.2420 -0.3037
 5921SOL    HW129225   2.820   1.143  13.466 -1.8696 -1.2679 -0.8917
 5921SOL    HW229226   2.882   1.264  13.404  1.4890 -2.0655  1.5681
 5922SOL     OW29227   3.476   3.539  12.329  0.1753  0.4528  0.3244
 5922SOL    HW129228   3.483   3.632  12.306 -2.8562  0.7121  0.3314
 5922SOL    HW229229   3.446   3.551  12.419  2.1142  0.0444  1.0093
 5923SOL     OW29230   1.894   4.105   0.691  0.6060  0.0387 -0.3679
 5923SOL    HW129231   1.981   4.065   0.693 -0.2527 -1.8709 -0.6698
 5923SOL    HW229232   1.882   4.129   0.783 -0.4932 -0.3267 -0.4195
 5924SOL     OW29233   2.200   4.112  12.320 -0.1229  0.1034 -0.2203
 5924SOL    HW129234   2.258   4.038  12.339 -0.8782 -0.8316 -1.5714
 5924SOL    HW229235   2.127   4.069  12.277 -0.5070  0.3929  0.1325
 5925SOL     OW29236   2.456   1.019   8.061 -0.8136  0.3029  0.1045
 5925SOL    HW129237   2.410   1.066   8.130 -0.2613  1.8485 -0.5591
 5925SOL    HW229238   2.418   1.062   7.984 -0.8018 -1.6030 -0.9753
 5926SOL     OW29239   1.491   1.389  17.345  0.3963  0.5147  0.4342
 5926SOL    HW129240   1.541   1.350  17.417  0.9449 -0.1793 -0.3221
 5926SOL    HW229241   1.403   1.362  17.370  0.0054  0.6134 -0.8184
 5927SOL     OW29242   2.522   4.236   2.487  0.7689  0.3386 -0.0342
 5927SOL    HW129243   2.450   4.244   2.550  2.0619 -1.6320  1.6972
 5927SOL    HW229244   2.604   4.238   2.536 -1.2111  1.0517  3.2341
 5928SOL     OW29245   3.496   3.911   0.290 -0.1563  0.7530 -0.2970
 5928SOL    HW129246   3.486   3.905   0.195  1.5481  1.5379 -0.5228
 5928SOL    HW229247   3.431   3.978   0.310 -2.5930 -1.6234 -0.2073
 5929SOL     OW29248   4.267   1.763   3.501  0.4475 -0.6160 -0.3666
 5929SOL    HW129249   4.314   1.689   3.538 -0.8145 -1.8538 -1.2503
 5929SOL    HW229250   4.291   1.752   3.409 -2.5047 -2.3696 -0.9194
 5930SOL     OW29251   1.126   0.824   0.454  0.4002 -0.0242  0.0326
 5930SOL    HW129252   1.119   0.918   0.470  0.0168  0.1335 -1.0598
 5930SOL    HW229253   1.120   0.796   0.545 -0.5367  1.9911  0.5839
 5931SOL     OW29254   1.380   2.014  16.103 -0.1403 -0.3639  0.0191
 5931SOL    HW129255   1.361   2.021  16.009 -0.2839 -1.8136 -0.0669
 5931SOL    HW229256   1.313   1.950  16.128 -0.0127 -0.3034  0.5036
 5932SOL     OW29257   3.245   4.559  16.971  0.3425 -0.5147  0.2347
 5932SOL    HW129258   3.280   4.582  17.057  0.0180 -2.3676  0.8642
 5932SOL    HW229259   3.181   4.630  16.960  0.8556 -0.0875  0.0423
 5933SOL     OW29260   0.263   4.647   2.771 -0.3471 -0.0427  0.2065
 5933SOL    HW129261   0.252   4.552   2.768 -0.6311  0.0296 -1.1542
 5933SOL    HW229262   0.179   4.673   2.808 -1.3078 -1.2743 -1.0857
 5934SOL     OW29263   1.033   3.204  15.677  0.1607  0.4185  0.1100
 5934SOL    HW129264   0.976   3.127  15.680 -0.6517  1.0070 -0.0907
 5934SOL    HW229265   1.079   3.182  15.597 -1.1492 -1.8893 -0.0091
 5935SOL     OW29266   2.929   0.801   5.107 -0.3367  0.3333  0.4515
 5935SOL    HW129267   2.924   0.740   5.033  1.4610  0.9239 -0.1539
 5935SOL    HW229268   2.992   0.753   5.161  0.9125  0.3000 -1.0383
 5936SOL     OW29269   0.227   4.338   2.746  0.4746 -0.0166  0.1631
 5936SOL    HW129270   0.319   4.340   2.718  0.2229 -1.5492 -0.7786
 5936SOL    HW229271   0.184   4.313   2.664 -0.8476  1.7403  0.3266
 5937SOL     OW29272   3.694   4.302  15.260 -0.0427 -0.8313  0.2015
 5937SOL    HW129273   3.682   4.245  15.185  0.4998  0.9928 -1.2540
 5937SOL    HW229274   3.675   4.386  15.218 -1.1799 -1.0931  0.2067
 5938SOL     OW29275   0.513   2.531   2.344  0.6192  0.0001 -0.1109
 5938SOL    HW129276   0.588   2.513   2.401 -0.8520 -1.4966  1.4035
 5938SOL    HW229277   0.452   2.563   2.410 -0.6855 -1.6691 -0.5003
 5939SOL     OW29278   3.403   0.864   9.050  0.5521  0.2020  0.1236
 5939SOL    HW129279   3.473   0.875   9.114 -1.7227  0.7233  2.5046
 5939SOL    HW229280   3.389   0.954   9.020 -0.2991 -0.0045 -0.0963
 5940SOL     OW29281   3.260   2.882   1.280  0.0181 -0.0005 -0.4047
 5940SOL    HW129282   3.231   2.923   1.198 -0.1128  0.2324 -0.2409
 5940SOL    HW229283   3.222   2.941   1.345 -0.0698 -1.0624  0.4988
 5941SOL     OW29284   2.410   0.473   5.420  0.4936  0.0284  0.0709
 5941SOL    HW129285   2.497   0.449   5.451  0.4542 -0.7069 -0.3805
 5941SOL    HW229286   2.371   0.529   5.487 -1.4721 -1.4806  0.1902
 5942SOL     OW29287   2.729   0.257  15.865  1.0530  0.2828 -0.1617
 5942SOL    HW129288   2.757   0.166  15.873  2.3455  0.7106  0.2120
 5942SOL    HW229289   2.689   0.273  15.951  3.5040 -0.6447  1.1563
 5943SOL     OW29290   2.798   2.028   4.872  0.2719  0.4270 -0.4072
 5943SOL    HW129291   2.782   1.980   4.792  2.2009  0.9216 -1.0862
 5943SOL    HW229292   2.718   2.007   4.921 -0.5254 -2.7573 -3.1139
 5944SOL     OW29293   1.819   0.456   0.696 -0.6984 -0.2540 -0.2522
 5944SOL    HW129294   1.731   0.492   0.702 -0.0869  1.2187 -0.1653
 5944SOL    HW229295   1.856   0.498   0.774 -1.3852  0.5099 -0.3420
 5945SOL     OW29296   0.026   2.759   6.374  0.0055 -0.1513  0.3442
 5945SOL    HW129297   0.057   2.843   6.409  3.7654 -1.1198 -0.6044
 5945SOL    HW229298   4.655   2.758   6.381  0.0207 -1.4685  0.3362
 5946SOL     OW29299   0.800   4.659  12.091  0.3298  0.1787  0.1117
 5946SOL    HW129300   0.816   4.591  12.026 -1.3720 -0.7014  0.6248
 5946SOL    HW229301   0.709   4.641  12.113  0.1147  1.1418  0.0293
 5947SOL     OW29302   2.487   1.497   2.039 -0.1634 -0.0117 -0.1506
 5947SOL    HW129303   2.551   1.518   1.971 -1.0253 -1.4623 -1.4192
 5947SOL    HW229304   2.503   1.402   2.034  1.2562  0.2448 -0.3403
 5948SOL     OW29305   1.691   3.256   4.818 -0.1800  0.4218 -0.3629
 5948SOL    HW129306   1.668   3.344   4.848  0.6156  0.9624 -1.3184
 5948SOL    HW229307   1.759   3.237   4.882  0.3740  2.6560 -0.2729
 5949SOL     OW29308   2.062   1.028  10.757  0.4733 -0.2858 -1.0143
 5949SOL    HW129309   2.030   0.939  10.749 -2.0419  0.4893  0.3775
 5949SOL    HW229310   2.073   1.041  10.851 -2.0735  1.9708 -1.0282
 5950SOL     OW29311   4.272   2.758   7.226 -0.3201 -0.6071  0.3160
 5950SOL    HW129312   4.203   2.695   7.204 -0.4765 -0.4426  0.3279
 5950SOL    HW229313   4.282   2.731   7.317  2.7190 -0.9635 -0.1352
 5951SOL     OW29314   2.254   0.655  12.283 -0.0716 -0.3947  0.5006
 5951SOL    HW129315   2.311   0.720  12.241 -0.3527  0.8550  2.0430
 5951SOL    HW229316   2.189   0.714  12.321  1.0740  0.6334  0.8619
 5952SOL     OW29317   4.289   1.917   2.113  0.3227  0.1367  0.0256
 5952SOL    HW129318   4.254   1.840   2.069 -3.0110  0.6186  1.8174
 5952SOL    HW229319   4.211   1.972   2.129  1.4014  1.4384  0.8501
 5953SOL     OW29320   1.789   0.252   7.532  0.1456 -0.8988 -0.5293
 5953SOL    HW129321   1.835   0.324   7.491 -2.9366  2.1855  1.4397
 5953SOL    HW229322   1.859   0.192   7.559  0.0412 -1.8765 -2.4504
 5954SOL     OW29323   3.829   1.114   5.484  0.0740  0.0177 -0.3760
 5954SOL    HW129324   3.893   1.128   5.553  1.2958 -1.4089 -1.2003
 5954SOL    HW229325   3.743   1.141   5.515 -0.5313 -3.2337  0.8071
 5955SOL     OW29326   0.310   3.722   2.224  0.1522  0.1753 -0.3594
 5955SOL    HW129327   0.261   3.646   2.193  0.4026  0.1839 -0.7733
 5955SOL    HW229328   0.235   3.778   2.248  1.1739  0.5286  2.0237
 5956SOL     OW29329   2.885   4.009   9.169  0.2334  0.1476  0.0340
 5956SOL    HW129330   2.905   4.065   9.244 -1.7102 -0.7779  1.2323
 5956SOL    HW229331   2.790   4.015   9.177  0.4203  2.6090  0.5693
 5957SOL     OW29332   0.896   3.495   9.145 -0.0842 -0.3822 -0.9260
 5957SOL    HW129333   0.880   3.401   9.151  1.0355 -0.4502  0.9529
 5957SOL    HW229334   0.911   3.502   9.050 -2.1457 -2.5937 -1.4081
 5958SOL     OW29335   3.154   2.002   3.996 -0.1813  0.1329 -0.3982
 5958SOL    HW129336   3.085   1.957   3.948 -0.3164 -1.5020  1.3243
 5958SOL    HW229337   3.220   1.937   4.021 -1.6271 -0.5786  1.6098
 5959SOL     OW29338   2.125   4.632   7.088  0.3797 -0.1901 -0.2461
 5959SOL    HW129339   2.101   4.716   7.126  1.9786 -1.6245  3.9085
 5959SOL    HW229340   2.203   4.670   7.048  2.1111 -0.2980  3.0570
 5960SOL     OW29341   1.651   4.293  15.092  0.6363  0.2593 -0.2634
 5960SOL    HW129342   1.671   4.387  15.096  2.0014 -0.0655  0.4223
 5960SOL    HW229343   1.701   4.254  15.163  0.2042 -0.9463 -0.6277
 5961SOL     OW29344   2.313   3.681  10.848  0.2092  0.2682  0.6169
 5961SOL    HW129345   2.301   3.776  10.856  0.9463  0.6230 -2.6950
 5961SOL    HW229346   2.375   3.679  10.776  0.0050 -0.6685  0.4734
 5962SOL     OW29347   3.153   3.354   2.041  0.0661 -0.8439 -0.5714
 5962SOL    HW129348   3.208   3.430   2.023 -1.0179  0.2781  0.9160
 5962SOL    HW229349   3.077   3.390   2.086  0.8556 -0.8899  0.7744
 5963SOL     OW29350   1.511   2.850   2.560  0.1352 -0.0505  0.1480
 5963SOL    HW129351   1.481   2.850   2.469  1.0641  1.8264 -0.1402
 5963SOL    HW229352   1.581   2.785   2.553 -0.5622 -0.7990  0.1256
 5964SOL     OW29353   0.135   0.382  14.782  0.0352 -0.5267  0.4125
 5964SOL    HW129354   0.096   0.350  14.863 -1.6727  0.1601 -0.1362
 5964SOL    HW229355   0.066   0.361  14.719  0.2602  0.8825 -0.3180
 5965SOL     OW29356   3.214   0.749   3.343 -0.3915  0.3545 -0.1121
 5965SOL    HW129357   3.143   0.809   3.320 -0.1330  0.4359 -0.6952
 5965SOL    HW229358   3.189   0.671   3.293 -0.1278 -0.9078  1.7193
 5966SOL     OW29359   2.670   3.558   1.618 -0.0236 -0.4404  0.1088
 5966SOL    HW129360   2.579   3.576   1.642 -0.0263  1.2522 -1.1910
 5966SOL    HW229361   2.684   3.479   1.670 -0.9878 -0.8943 -0.3159
 5967SOL     OW29362   3.629   1.742   2.531  0.0218 -0.6720  0.0017
 5967SOL    HW129363   3.632   1.669   2.593  1.7812 -0.2454  0.4330
 5967SOL    HW229364   3.700   1.796   2.566 -1.3597 -0.2296  2.0796
 5968SOL     OW29365   4.594   1.247   0.789  0.1610  0.0170  0.0557
 5968SOL    HW129366   4.558   1.294   0.864 -0.8831 -0.1450 -0.3500
 5968SOL    HW229367   4.604   1.322   0.731 -0.3625  0.9819  1.2151
 5969SOL     OW29368   0.294   4.122   3.013  0.3321 -0.2092 -0.4787
 5969SOL    HW129369   0.307   4.027   3.011 -2.6162 -0.5963 -2.4105
 5969SOL    HW229370   0.382   4.155   3.027  1.4407 -2.3500 -2.3663
 5970SOL     OW29371   1.412   0.561   0.375 -0.3632 -0.0010 -0.1993
 5970SOL    HW129372   1.384   0.643   0.336 -1.7007 -0.2186  0.2931
 5970SOL    HW229373   1.505   0.581   0.382 -0.9020  1.3036  3.3591
 5971SOL     OW29374   3.395   2.451   5.759 -0.0183  0.0884  0.6263
 5971SOL    HW129375   3.352   2.428   5.676 -0.2208 -0.1446  0.7961
 5971SOL    HW229376   3.483   2.473   5.729 -0.6523 -0.4722 -1.6527
 5972SOL     OW29377   0.378   0.416   3.889 -0.1536  0.1465  0.0769
 5972SOL    HW129378   0.420   0.491   3.931  0.0494 -0.7387  1.4209
 5972SOL    HW229379   0.427   0.421   3.807 -0.6311  1.6339 -0.1277
 5973SOL     OW29380   2.691   4.478   8.665  0.0088  0.2008 -0.1501
 5973SOL    HW129381   2.775   4.443   8.637 -0.4461  1.8818 -3.6564
 5973SOL    HW229382   2.724   4.513   8.747 -0.9627  1.1240 -0.1440
 5974SOL     OW29383   0.000   2.494   0.067 -0.0776  0.1919 -0.3875
 5974SOL    HW129384   4.643   2.535   0.097  0.8633  3.0592 -1.8009
 5974SOL    HW229385   0.034   2.571   0.022  1.6950  0.6421  1.7111
 5975SOL     OW29386   1.562   4.486   9.465  0.4415 -0.4284  0.2355
 5975SOL    HW129387   1.619   4.445   9.399  1.8972  1.0374  0.5730
 5975SOL    HW229388   1.619   4.484   9.542  2.8698 -0.5436 -1.5530
 5976SOL     OW29389   3.746   1.175  15.846 -0.1677  0.2658  0.1058
 5976SOL    HW129390   3.709   1.175  15.758  0.3985 -5.0175 -0.1153
 5976SOL    HW229391   3.700   1.099  15.881  0.3784 -0.6095 -1.1046
 5977SOL     OW29392   3.801   1.195  15.034 -0.5310  0.1727  0.0499
 5977SOL    HW129393   3.837   1.271  15.081  0.4433  0.8256 -1.7124
 5977SOL    HW229394   3.798   1.227  14.944 -1.9096 -1.9519 -0.6332
 5978SOL     OW29395   3.916   2.455   8.818 -0.1562  0.6752 -0.3614
 5978SOL    HW129396   3.899   2.521   8.884  2.2051 -0.5730  1.4771
 5978SOL    HW229397   3.864   2.487   8.744 -0.6708 -0.3493 -0.4476
 5979SOL     OW29398   4.649   4.188   1.002 -0.2057 -0.4130  0.3851
 5979SOL    HW129399   4.677   4.273   1.036  0.1491 -0.1108 -0.6596
 5979SOL    HW229400   4.562   4.214   0.971  0.0025  0.1457  0.2654
 5980SOL     OW29401   0.233   3.375   5.057  0.3319  0.1086 -0.8148
 5980SOL    HW129402   0.266   3.333   5.136 -1.3090  1.2551  0.4906
 5980SOL    HW229403   0.203   3.295   5.014  2.3760 -0.3595 -1.3328
 5981SOL     OW29404   4.286   4.610   6.455  0.1813 -0.5321 -0.1361
 5981SOL    HW129405   4.217   4.638   6.514  0.0981 -1.8926  0.4139
 5981SOL    HW229406   4.245   4.606   6.369  1.5453 -3.0542 -0.6955
 5982SOL     OW29407   1.304   3.916   7.912 -0.3252  0.3162  0.0724
 5982SOL    HW129408   1.301   4.011   7.909 -1.1281  0.1929 -2.8170
 5982SOL    HW229409   1.302   3.911   8.008  0.6151 -0.9093  0.0267
 5983SOL     OW29410   3.472   0.107  17.118 -0.1112 -0.6488  0.6107
 5983SOL    HW129411   3.481   0.089  17.025  0.5092 -3.1317  1.1354
 5983SOL    HW229412   3.438   0.028  17.160  0.7514 -0.2284  2.1163
 5984SOL     OW29413   1.750   2.693   3.702 -0.3519  0.0665  1.0475
 5984SOL    HW129414   1.746   2.784   3.671 -1.0956  0.8494  3.4656
 5984SOL    HW229415   1.839   2.669   3.675 -2.0195 -2.2979 -2.3619
 5985SOL     OW29416   2.841   2.600   3.171 -0.0200 -0.0736 -0.2373
 5985SOL    HW129417   2.816   2.509   3.152 -0.4044  0.1985 -1.0305
 5985SOL    HW229418   2.906   2.585   3.239 -0.9312 -2.8579  0.0354
 5986SOL     OW29419   1.040   1.305   6.898 -0.5370  0.8584 -0.6072
 5986SOL    HW129420   0.971   1.312   6.832 -1.9187 -1.2503  0.5701
 5986SOL    HW229421   0.980   1.272   6.966  1.6485 -0.2872  0.7756
 5987SOL     OW29422   0.320   0.717   6.127 -0.1457 -0.1088 -0.1862
 5987SOL    HW129423   0.247   0.763   6.086 -0.8030 -0.8079  0.1939
 5987SOL    HW229424   0.386   0.708   6.058 -1.0491 -0.4580 -1.0069
 5988SOL     OW29425   0.845   1.704   9.850 -0.5305  0.1245  0.4035
 5988SOL    HW129426   0.799   1.660   9.921  1.9944 -2.2366  0.5546
 5988SOL    HW229427   0.843   1.792   9.889 -0.3153  0.0098  0.6681
 5989SOL     OW29428   1.943   2.859   0.187 -0.0387  0.5176  0.1452
 5989SOL    HW129429   1.867   2.914   0.207 -1.0037 -0.0924 -1.9148
 5989SOL    HW229430   1.979   2.828   0.270  1.8728 -1.0393 -1.2847
 5990SOL     OW29431   3.517   4.086   5.258  0.3050  0.2943 -0.3040
 5990SOL    HW129432   3.598   4.034   5.259  0.0575 -0.1180 -2.8512
 5990SOL    HW229433   3.559   4.172   5.259  0.6854  0.0972  3.6249
 5991SOL     OW29434   2.803   4.394   4.089  0.2215  0.0274  0.0634
 5991SOL    HW129435   2.799   4.490   4.090 -3.1602 -0.1044 -1.1592
 5991SOL    HW229436   2.886   4.379   4.043  0.5554 -0.0286  0.6859
 5992SOL     OW29437   2.112   1.164   4.929  0.0609 -0.5121  0.6475
 5992SOL    HW129438   2.074   1.171   5.016  0.4161  0.7788  0.6948
 5992SOL    HW229439   2.195   1.125   4.956 -0.0802  0.6624  2.7819
 5993SOL     OW29440   1.191   4.662   2.336 -0.3129 -0.4094  0.3343
 5993SOL    HW129441   1.210   4.674   2.243 -3.2617  0.1035 -0.1974
 5993SOL    HW229442   1.184   4.567   2.331 -0.9250 -0.3710  0.5124
 5994SOL     OW29443   4.395   2.190   7.049  0.4389  0.1063 -0.1209
 5994SOL    HW129444   4.456   2.188   7.122  1.4469 -1.0655 -0.9977
 5994SOL    HW229445   4.410   2.109   7.000 -0.3738 -0.7141  0.9974
 5995SOL     OW29446   2.953   0.029   2.271  0.1164 -0.6771 -0.4853
 5995SOL    HW129447   2.870   0.010   2.227 -1.0052  0.4628  1.1108
 5995SOL    HW229448   2.917   0.035   2.360 -1.5358  0.0075 -1.1881
 5996SOL     OW29449   0.162   4.560   9.050 -0.5554  0.1478 -0.4004
 5996SOL    HW129450   0.226   4.613   9.096 -0.9009  0.9806 -0.8701
 5996SOL    HW229451   0.079   4.602   9.074  0.1122  1.1122  0.1882
 5997SOL     OW29452   1.855   0.282   4.360 -0.3624 -0.1128 -0.5556
 5997SOL    HW129453   1.824   0.368   4.331 -0.0527  0.8582  1.9790
 5997SOL    HW229454   1.903   0.265   4.279  1.3498 -1.0643  0.6523
 5998SOL     OW29455   3.571   1.473   4.323  0.0877 -0.1821 -0.0206
 5998SOL    HW129456   3.554   1.506   4.234  2.3639 -1.7646 -1.0395
 5998SOL    HW229457   3.664   1.496   4.325 -0.0996  0.7373 -1.2275
 5999SOL     OW29458   2.900   0.104   6.519  0.2013 -0.1438 -0.2476
 5999SOL    HW129459   2.822   0.080   6.568 -0.2071  0.2813 -0.6954
 5999SOL    HW229460   2.927   0.189   6.554 -1.4255  0.1200  0.3534
 6000SOL     OW29461   3.510   1.556   4.068 -0.3369  0.2684  0.0392
 6000SOL    HW129462   3.603   1.574   4.051 -0.4645  1.9713  1.1101
 6000SOL    HW229463   3.469   1.639   4.042  0.6488  0.1084 -2.0420
 6001SOL     OW29464   4.307   3.018   7.126  0.5069  0.4175  0.0220
 6001SOL    HW129465   4.304   3.083   7.197 -0.4544 -0.3344  0.6754
 6001SOL    HW229466   4.284   2.936   7.170 -0.2459 -0.0227 -1.1985
 6002SOL     OW29467   1.386   1.115  10.104  0.6854  0.0311  0.0209
 6002SOL    HW129468   1.325   1.157  10.043 -0.3524  0.2396  1.2021
 6002SOL    HW229469   1.465   1.120  10.051  0.5352 -1.4228 -0.3325
 6003SOL     OW29470   0.718   1.713  17.589 -0.0450  0.4302 -0.1052
 6003SOL    HW129471   0.735   1.762  17.509  1.0145 -0.9548 -0.7425
 6003SOL    HW229472   0.768   1.767  17.649  1.0382 -0.0192 -0.6142
 6004SOL     OW29473   4.471   3.925   3.360  0.2982 -0.4761 -0.1351
 6004SOL    HW129474   4.441   3.964   3.278  1.0169 -1.3120 -0.7923
 6004SOL    HW229475   4.538   3.868   3.324  4.1459  2.7721  1.7957
 6005SOL     OW29476   4.556   0.126   8.720  0.1870  0.1547  0.1246
 6005SOL    HW129477   4.590   0.144   8.807 -1.0704  2.8017  0.0548
 6005SOL    HW229478   4.471   0.089   8.745  0.7248 -0.4009  1.1265
 6006SOL     OW29479   0.064   1.664  13.288  0.2930 -0.3370  0.0369
 6006SOL    HW129480   0.030   1.705  13.208  0.8037 -0.7730 -0.4024
 6006SOL    HW229481   0.092   1.579  13.255 -2.2066 -1.3278  0.5045
 6007SOL     OW29482   1.397   4.438  12.932 -0.1195 -0.4876 -0.5212
 6007SOL    HW129483   1.378   4.415  12.841 -2.1891 -0.8977  0.0271
 6007SOL    HW229484   1.487   4.406  12.933  0.0973  0.0901 -1.5350
 6008SOL     OW29485   2.516   0.483   7.948  0.5223 -0.2955  0.2623
 6008SOL    HW129486   2.427   0.480   7.984  0.7054  0.2779  0.7543
 6008SOL    HW229487   2.506   0.416   7.881 -1.8545 -0.1887  0.5083
 6009SOL     OW29488   3.835   0.675   4.738  0.6486 -0.2845  0.0506
 6009SOL    HW129489   3.908   0.630   4.780 -0.7007 -0.4728  2.2230
 6009SOL    HW229490   3.874   0.672   4.651 -1.7227 -2.7181 -0.9391
 6010SOL     OW29491   2.128   0.349  17.403  0.2632  0.3074  0.1443
 6010SOL    HW129492   2.068   0.280  17.376 -0.8001  1.4046 -0.2929
 6010SOL    HW229493   2.206   0.313  17.361 -1.1443 -1.2020 -1.1920
 6011SOL     OW29494   3.780   4.075   1.088  0.3102 -0.9982  0.5469
 6011SOL    HW129495   3.803   4.016   1.160 -0.1709 -2.3781 -0.4326
 6011SOL    HW229496   3.833   4.030   1.022 -1.5181  0.6738 -2.0597
 6012SOL     OW29497   3.094   4.285   6.515 -0.2434 -0.0230  0.2956
 6012SOL    HW129498   3.056   4.363   6.474  0.8889  1.6815  2.4248
 6012SOL    HW229499   3.113   4.321   6.602  0.7491 -1.4939  0.6788
 6013SOL     OW29500   4.531   1.956   2.839 -0.2532  0.6519 -0.2515
 6013SOL    HW129501   4.539   1.959   2.744 -2.4377 -1.2804 -0.4756
 6013SOL    HW229502   4.616   1.921   2.866  0.3844  1.0095 -1.8125
 6014SOL     OW29503   3.997   3.196   2.596  0.2065 -0.6058 -0.2744
 6014SOL    HW129504   3.967   3.270   2.542  2.1252 -0.4589 -1.1328
 6014SOL    HW229505   3.954   3.118   2.562 -2.2951 -0.8518  3.4855
 6015SOL     OW29506   1.490   3.826   3.134  0.6184 -0.3811 -0.1138
 6015SOL    HW129507   1.577   3.802   3.102  0.8422  0.6950 -0.3074
 6015SOL    HW229508   1.490   3.922   3.126  1.0015 -0.3708  0.0460
 6016SOL     OW29509   0.879   2.942  13.369 -0.6277  0.0925  0.7186
 6016SOL    HW129510   0.957   2.983  13.405 -0.8036 -0.6476  1.9232
 6016SOL    HW229511   0.830   2.926  13.449 -1.2547  2.0886  0.7355
 6017SOL     OW29512   3.814   2.657   7.153 -0.2139 -0.1734 -0.6205
 6017SOL    HW129513   3.819   2.671   7.059 -2.4150  0.8486 -0.5876
 6017SOL    HW229514   3.743   2.594   7.143  0.3556 -0.8069 -0.6386
 6018SOL     OW29515   0.706   3.231   0.928 -0.3079  0.7078  0.6091
 6018SOL    HW129516   0.742   3.315   0.899 -0.8975  1.0455  0.8534
 6018SOL    HW229517   0.698   3.177   0.850 -1.4001  0.7613  0.6921
 6019SOL     OW29518   3.569   0.561   4.738  0.0613  0.5804 -0.2156
 6019SOL    HW129519   3.639   0.625   4.746  0.1789  0.6078 -1.6195
 6019SOL    HW229520   3.613   0.493   4.688 -2.2304 -1.5049  0.5795
 6020SOL     OW29521   2.788   2.178  13.632  0.3753  0.2650  0.1788
 6020SOL    HW129522   2.765   2.155  13.722 -1.9718  0.9130 -0.2510
 6020SOL    HW229523   2.756   2.268  13.636  2.1338  0.8155  1.6533
 6021SOL     OW29524   1.938   4.676   7.874  0.5704 -0.5820 -0.4315
 6021SOL    HW129525   1.978   0.023   7.924  2.0090 -0.8181 -1.2432
 6021SOL    HW229526   1.947   4.609   7.942 -0.0959 -0.1780  0.0534
 6022SOL     OW29527   3.133   0.696  16.202 -0.7124 -0.0247 -0.4977
 6022SOL    HW129528   3.117   0.776  16.252  0.9917  1.5749 -2.4959
 6022SOL    HW229529   3.177   0.634  16.260  1.6179  1.3509 -0.8182
 6023SOL     OW29530   3.616   3.113   9.247 -0.4122  0.1538 -0.1314
 6023SOL    HW129531   3.550   3.134   9.313 -0.5366  2.1436 -0.8900
 6023SOL    HW229532   3.677   3.184   9.269  0.0712 -0.4170  0.3978
 6024SOL     OW29533   3.199   1.398   7.958  0.1848 -0.4764  0.3335
 6024SOL    HW129534   3.189   1.395   7.863  0.0014  1.1342  0.3083
 6024SOL    HW229535   3.186   1.306   7.980 -0.2055 -0.4576  0.1913
 6025SOL     OW29536   2.677   2.566  11.733 -1.0854  0.5513 -0.1539
 6025SOL    HW129537   2.732   2.613  11.670 -2.9472  3.1186  0.1353
 6025SOL    HW229538   2.712   2.478  11.718  0.7247  0.9995  1.5081
 6026SOL     OW29539   2.485   2.477  13.677  0.3842 -0.1799 -0.3259
 6026SOL    HW129540   2.478   2.498  13.770  0.7599  1.4445 -0.6532
 6026SOL    HW229541   2.412   2.417  13.661 -1.6847  2.1473  0.4340
 6027SOL     OW29542   1.452   0.121   3.685 -0.0127  0.3870  0.6563
 6027SOL    HW129543   1.465   0.130   3.591 -0.9751 -2.0303  0.3040
 6027SOL    HW229544   1.362   0.146   3.703 -0.2095  0.2084 -0.0796
 6028SOL     OW29545   1.076   3.260   2.418 -0.1179 -0.5207 -0.3233
 6028SOL    HW129546   1.149   3.294   2.470 -1.4302 -0.8638  1.7250
 6028SOL    HW229547   1.050   3.335   2.364 -0.5273  0.4872  1.2498
 6029SOL     OW29548   4.373   2.348   4.587 -0.0770 -0.4990 -0.7356
 6029SOL    HW129549   4.402   2.372   4.499 -2.6933 -0.2037 -1.5285
 6029SOL    HW229550   4.456   2.326   4.628  0.5860  0.6872 -1.4599
 6030SOL     OW29551   3.661   3.236   8.165 -0.2805  0.6615 -0.4096
 6030SOL    HW129552   3.718   3.308   8.139  0.5918 -0.3936 -1.4417
 6030SOL    HW229553   3.581   3.275   8.201 -0.9626  0.7469 -2.0032
 6031SOL     OW29554   4.632   4.620   3.392 -0.2058  0.4356 -0.9009
 6031SOL    HW129555   4.565   4.558   3.418 -2.5764  3.1920 -0.4523
 6031SOL    HW229556   4.602   4.694   3.444  0.9413  0.2079  0.0947
 6032SOL     OW29557   1.939   3.746   8.468 -0.0811  0.0369  0.4919
 6032SOL    HW129558   2.017   3.695   8.446  2.8131  4.1252  1.1139
 6032SOL    HW229559   1.898   3.767   8.384 -2.2124 -2.4948  0.9094
 6033SOL     OW29560   0.576   2.479   6.897 -0.7339 -0.1830 -0.4280
 6033SOL    HW129561   0.509   2.468   6.966 -1.0902  0.3516 -0.6926
 6033SOL    HW229562   0.559   2.392   6.860 -2.5914 -0.7378  1.6706
 6034SOL     OW29563   4.571   4.107   8.080 -0.0056 -0.1630  0.1771
 6034SOL    HW129564   4.665   4.092   8.091  0.1367  1.2951  0.9731
 6034SOL    HW229565   4.546   4.122   8.171 -0.5206  0.0368  0.0018
 6035SOL     OW29566   0.240   0.071   2.047  0.3548 -0.2110 -0.0774
 6035SOL    HW129567   0.163   0.125   2.065 -0.2046 -0.5163 -1.5294
 6035SOL    HW229568   0.299   0.093   2.119  0.8836 -0.8361 -0.3192
 6036SOL     OW29569   1.984   3.301   7.962  0.2157 -0.4542 -0.1945
 6036SOL    HW129570   2.022   3.343   7.884 -1.9247  2.2435  0.2262
 6036SOL    HW229571   2.036   3.347   8.028  2.0260 -0.1400 -1.8404
 6037SOL     OW29572   4.708   4.240   4.397  0.2364  0.5001 -0.8003
 6037SOL    HW129573   4.614   4.237   4.376  0.5978 -0.7906 -2.2370
 6037SOL    HW229574   4.722   4.179   4.469  2.0718  0.1276 -1.4788
 6038SOL     OW29575   0.429   0.036   6.469 -0.3920 -0.3674 -0.0307
 6038SOL    HW129576   0.483   0.019   6.546 -1.3648  0.1367  0.7704
 6038SOL    HW229577   0.384   0.115   6.501 -0.0429 -0.2241  0.1095
 6039SOL     OW29578   2.092   0.979   6.590  0.3672 -0.3126  0.1019
 6039SOL    HW129579   2.075   1.072   6.608  2.7453  0.0862  0.2073
 6039SOL    HW229580   2.185   0.982   6.571  0.6796 -2.3713  1.2513
 6040SOL     OW29581   3.567   3.842   5.783 -0.3981 -0.0794  0.1868
 6040SOL    HW129582   3.548   3.919   5.836  1.3715  0.2826  0.2970
 6040SOL    HW229583   3.486   3.823   5.736 -1.3811 -0.6347  2.0954
 6041SOL     OW29584   0.938   4.230   6.373  0.0168 -0.2266  0.0574
 6041SOL    HW129585   0.864   4.286   6.347  0.5304  0.0545 -0.7842
 6041SOL    HW229586   0.995   4.297   6.410  0.4901 -0.3146 -0.5044
 6042SOL     OW29587   4.032   2.420  10.400  0.3134 -0.7581 -1.0793
 6042SOL    HW129588   4.083   2.442  10.478 -1.7415 -0.7226  0.2530
 6042SOL    HW229589   4.050   2.498  10.348  3.2273 -0.5973  0.1489
 6043SOL     OW29590   0.442   3.464   3.022 -0.0654  0.4470 -0.3593
 6043SOL    HW129591   0.402   3.433   2.941 -2.9705  2.0701  0.4438
 6043SOL    HW229592   0.383   3.529   3.059  1.1398  0.1138  2.1363
 6044SOL     OW29593   1.100   3.701   6.994 -0.8966  0.4065  0.4929
 6044SOL    HW129594   1.059   3.758   6.928 -0.8687 -1.1415 -0.8581
 6044SOL    HW229595   1.130   3.768   7.055 -0.1259  1.2078 -0.7986
 6045SOL     OW29596   0.579   1.936   0.500 -0.2356 -0.4756 -0.1577
 6045SOL    HW129597   0.613   1.938   0.590 -1.0961  0.6086  0.1546
 6045SOL    HW229598   0.556   2.028   0.485 -0.0911 -0.1377  1.6972
 6046SOL     OW29599   0.961   3.897  10.577 -0.2933  0.3515  0.0336
 6046SOL    HW129600   0.983   3.957  10.649  2.8258  0.1932 -0.7742
 6046SOL    HW229601   0.899   3.837  10.617  0.5270 -0.6762 -0.2460
 6047SOL     OW29602   4.542   2.651   1.753  0.1305  0.4950  0.2305
 6047SOL    HW129603   4.580   2.645   1.665  0.9389  1.9018  0.4905
 6047SOL    HW229604   4.608   2.608   1.806  0.0080  1.2124  0.9530
 6048SOL     OW29605   1.300   0.777   4.563 -0.3531  0.2706 -0.6018
 6048SOL    HW129606   1.282   0.858   4.611  0.6451  0.4899 -0.5896
 6048SOL    HW229607   1.286   0.808   4.473 -0.1704  1.1823 -0.3188
 6049SOL     OW29608   2.435   2.357   7.939 -0.4206 -0.3240 -0.4092
 6049SOL    HW129609   2.487   2.353   7.859 -1.0803 -1.7407 -0.7707
 6049SOL    HW229610   2.351   2.379   7.898 -0.2168  0.9607 -0.1405
 6050SOL     OW29611   3.912   2.686  10.462 -0.0993  0.0700 -0.4485
 6050SOL    HW129612   3.963   2.765  10.443 -0.4232  0.4539  0.2731
 6050SOL    HW229613   3.932   2.625  10.391  2.5534 -0.1942  0.5233
 6051SOL     OW29614   1.813   3.744   1.974  0.1525 -0.1303  0.1320
 6051SOL    HW129615   1.818   3.727   1.879  2.3469  1.2198  0.0055
 6051SOL    HW229616   1.722   3.764   1.995 -0.4260 -0.6885 -1.7824
 6052SOL     OW29617   0.920   1.270   8.533 -0.5949  0.3507 -0.0134
 6052SOL    HW129618   1.012   1.248   8.547 -0.5346 -0.0993 -1.1630
 6052SOL    HW229619   0.894   1.197   8.476  0.4392 -0.9780  1.1996
 6053SOL     OW29620   4.340   2.256  11.508 -0.4583 -0.1220  0.5089
 6053SOL    HW129621   4.270   2.191  11.506 -2.2952  1.9165 -1.3591
 6053SOL    HW229622   4.293   2.334  11.476 -0.0177 -0.1386 -0.1630
 6054SOL     OW29623   1.617   0.280   9.041  0.0182  0.4973  0.3904
 6054SOL    HW129624   1.676   0.267   9.116 -0.9525 -1.3050  0.8500
 6054SOL    HW229625   1.537   0.234   9.066 -0.5313  1.4332  0.3506
 6055SOL     OW29626   3.593   2.473   2.960  0.0684 -0.1453  0.0063
 6055SOL    HW129627   3.652   2.545   2.982  1.9628 -1.8711  0.5448
 6055SOL    HW229628   3.524   2.479   3.027  1.3328  0.7058  1.2342
 6056SOL     OW29629   4.536   3.785  12.971  0.3617  0.1785  0.6300
 6056SOL    HW129630   4.544   3.823  12.883 -0.1345 -0.1336  0.4443
 6056SOL    HW229631   4.470   3.721  12.943  0.3670  0.4258  0.0549
 6057SOL     OW29632   0.763   1.305  15.466  0.1263  0.6094 -0.0055
 6057SOL    HW129633   0.686   1.264  15.426  0.2691  1.4685 -1.1559
 6057SOL    HW229634   0.789   1.374  15.406  0.8014 -0.5591 -1.0603
 6058SOL     OW29635   4.075   1.505   6.831  0.0939  0.1320 -0.3932
 6058SOL    HW129636   4.144   1.492   6.895 -0.2036  1.5264  0.2263
 6058SOL    HW229637   4.054   1.413   6.814 -1.0817  0.5250 -1.0925
 6059SOL     OW29638   2.981   4.099   6.008 -0.9154  0.0890  0.2187
 6059SOL    HW129639   3.004   4.009   6.031 -2.8810 -0.9787 -1.9752
 6059SOL    HW229640   3.002   4.089   5.915 -0.6295 -0.4022  0.3422
 6060SOL     OW29641   2.725   3.070  11.661 -0.1303  0.8655  0.3600
 6060SOL    HW129642   2.676   2.989  11.676 -0.2716  0.9880  0.5530
 6060SOL    HW229643   2.720   3.068  11.565  0.7170  1.6440  0.2999
 6061SOL     OW29644   1.952   2.538   4.838 -0.3260  0.3289  0.7871
 6061SOL    HW129645   1.912   2.620   4.812  0.4111  0.1383 -0.9951
 6061SOL    HW229646   2.019   2.566   4.900 -1.1758  0.1318  1.7787
 6062SOL     OW29647   0.721   2.210  15.373  0.2831 -0.5648 -0.2620
 6062SOL    HW129648   0.654   2.267  15.335 -0.7500 -1.2790  0.5361
 6062SOL    HW229649   0.791   2.276  15.374 -1.9711  1.8237  0.2982
 6063SOL     OW29650   3.592   1.375  15.961 -0.2879  0.1647 -0.4189
 6063SOL    HW129651   3.635   1.299  15.920  0.8913  0.2196  0.7174
 6063SOL    HW229652   3.640   1.441  15.911 -1.1166  1.6895  0.8110
 6064SOL     OW29653   2.390   1.805  13.490 -0.0675  0.5079 -0.1665
 6064SOL    HW129654   2.344   1.859  13.425  1.4878  2.2375  0.1764
 6064SOL    HW229655   2.354   1.843  13.571 -1.5397  1.6858 -1.3532
 6065SOL     OW29656   3.061   3.074   5.617  0.1367 -0.5027  0.1398
 6065SOL    HW129657   3.027   3.073   5.527  0.7297 -1.2072 -0.0777
 6065SOL    HW229658   3.116   3.152   5.611 -1.4198  0.6548  1.0988
 6066SOL     OW29659   2.503   3.202   4.685 -0.2705 -0.6778  0.4297
 6066SOL    HW129660   2.453   3.278   4.717 -2.1908 -2.2043  1.0677
 6066SOL    HW229661   2.461   3.133   4.737 -0.2743  1.2260  2.9795
 6067SOL     OW29662   0.278   1.806  12.739 -0.5926  0.3098 -0.4505
 6067SOL    HW129663   0.203   1.817  12.680 -0.0424 -0.2577 -1.2520
 6067SOL    HW229664   0.328   1.738  12.695 -0.1408  2.1469 -2.8007
 6068SOL     OW29665   2.755   2.998   8.091  0.0440  0.3850  0.7776
 6068SOL    HW129666   2.724   3.046   8.168 -0.6296  3.5494 -1.4727
 6068SOL    HW229667   2.849   2.991   8.103  0.2622  0.0480 -1.1365
 6069SOL     OW29668   1.923   4.108   8.471  0.0048 -0.0330  0.2189
 6069SOL    HW129669   1.904   4.092   8.563 -1.5467 -1.0449 -0.2831
 6069SOL    HW229670   1.858   4.052   8.428  0.9248 -1.6575  0.9174
 6070SOL     OW29671   2.256   0.183  17.086  0.4614  0.6162  0.0079
 6070SOL    HW129672   2.244   0.126  17.011  1.1874  0.0934  0.2802
 6070SOL    HW229673   2.184   0.244  17.073 -0.2415 -0.0949  0.5016
 6071SOL     OW29674   1.425   3.058   5.235 -0.1353 -0.1133 -0.0608
 6071SOL    HW129675   1.433   3.111   5.155  0.2354  1.7531  1.1980
 6071SOL    HW229676   1.409   3.119   5.307 -0.8906 -1.7188  1.1281
 6072SOL     OW29677   3.850   3.425   7.513  0.0675  0.2612  0.2789
 6072SOL    HW129678   3.796   3.347   7.500  0.6937 -0.0746 -0.3290
 6072SOL    HW229679   3.866   3.462   7.426 -0.2598  0.2781  0.2259
 6073SOL     OW29680   3.283   0.565   1.642 -0.2524 -0.3210  0.2535
 6073SOL    HW129681   3.258   0.636   1.584 -0.8961 -0.3002  0.5547
 6073SOL    HW229682   3.222   0.583   1.713  0.0354 -0.6282  0.5824
 6074SOL     OW29683   4.431   1.571   1.668  0.1689 -0.1841 -0.1548
 6074SOL    HW129684   4.350   1.547   1.713 -0.4750 -1.7853 -2.1276
 6074SOL    HW229685   4.392   1.613   1.591  0.9401 -1.9764 -1.5369
 6075SOL     OW29686   0.315   1.769   8.251  0.0562 -0.6774  0.5423
 6075SOL    HW129687   0.281   1.778   8.340  3.9252  0.3184  1.8764
 6075SOL    HW229688   0.409   1.765   8.268  0.0012  0.9991  1.2649
 6076SOL     OW29689   4.719   3.374  14.893 -0.1119  0.5842  0.1660
 6076SOL    HW129690   4.696   3.324  14.972 -1.5273  1.0738  0.0657
 6076SOL    HW229691   4.710   3.308  14.824 -0.1108  0.0398  0.6810
 6077SOL     OW29692   0.796   3.938   2.042  0.4820 -0.6335  0.3447
 6077SOL    HW129693   0.715   3.958   2.089 -0.1944 -1.8618 -0.3015
 6077SOL    HW229694   0.859   3.988   2.094  2.7432 -0.7079 -2.2924
 6078SOL     OW29695   3.779   2.663  10.855 -0.3449  0.0382  0.0614
 6078SOL    HW129696   3.729   2.583  10.837  1.7262 -0.6141 -2.8311
 6078SOL    HW229697   3.795   2.658  10.949 -3.0667 -0.0588  0.5072
 6079SOL     OW29698   0.555   0.427  10.077 -0.3312  0.2344  0.1400
 6079SOL    HW129699   0.573   0.512  10.117 -0.7801  0.5842 -0.4213
 6079SOL    HW229700   0.599   0.434   9.993 -0.6381  2.3845  0.1709
 6080SOL     OW29701   1.953   0.262   2.430  0.6729 -0.1203 -0.5282
 6080SOL    HW129702   1.917   0.344   2.465 -2.6503 -1.4174 -0.9798
 6080SOL    HW229703   1.898   0.198   2.475  0.6074  0.5105  0.2802
 6081SOL     OW29704   0.001   3.990   1.271 -0.0219 -0.3811 -0.1920
 6081SOL    HW129705   4.681   4.075   1.277 -0.9042 -0.8104 -0.5979
 6081SOL    HW229706   4.712   3.966   1.179 -0.4996 -0.7616 -0.0232
 6082SOL     OW29707   4.702   0.561   2.849 -1.1834 -0.7658 -0.3075
 6082SOL    HW129708   0.072   0.556   2.831 -1.0575 -0.8701  0.3834
 6082SOL    HW229709   4.660   0.517   2.775 -0.5711  0.2920 -1.2965
 6083SOL     OW29710   0.432   2.393  11.877  0.2415 -0.0076 -0.0639
 6083SOL    HW129711   0.371   2.326  11.847  0.8733 -0.6806  0.1465
 6083SOL    HW229712   0.384   2.438  11.947  0.7602 -0.7627  0.7712
 6084SOL     OW29713   1.085   0.354   8.809 -0.2071 -0.0347  0.7585
 6084SOL    HW129714   1.157   0.354   8.871  0.2076 -0.7079  0.2814
 6084SOL    HW229715   1.020   0.304   8.858 -1.6294  1.4485  0.3968
 6085SOL     OW29716   1.604   3.231   9.646  0.0724 -0.4271 -0.0195
 6085SOL    HW129717   1.697   3.235   9.625 -0.2506  0.8870 -1.1550
 6085SOL    HW229718   1.568   3.305   9.598  1.6237 -0.1426 -0.7539
 6086SOL     OW29719   1.959   0.756   7.172  0.2342 -0.1489 -0.3022
 6086SOL    HW129720   1.992   0.669   7.148  0.4584  0.1117 -0.9138
 6086SOL    HW229721   1.931   0.793   7.088  2.6079 -1.6237 -1.7209
 6087SOL     OW29722   0.160   0.047   5.542 -0.2326  0.5468 -0.5641
 6087SOL    HW129723   0.178   4.683   5.509  0.3707 -0.2155  1.8072
 6087SOL    HW229724   0.156   0.027   5.636  1.8948  0.0895 -0.5649
 6088SOL     OW29725   4.109   3.209   6.201 -0.2261  0.0362 -0.6049
 6088SOL    HW129726   4.048   3.178   6.135  1.4097 -3.7513 -0.3485
 6088SOL    HW229727   4.197   3.197   6.166 -1.0862 -0.1102 -2.6871
 6089SOL     OW29728   1.645   2.436   4.581  0.3821 -0.1403  0.7461
 6089SOL    HW129729   1.642   2.530   4.565  0.2649 -0.2031  0.3734
 6089SOL    HW229730   1.733   2.426   4.618  0.7445 -2.9941 -0.8664
 6090SOL     OW29731   3.051   4.290  11.319  0.6481 -0.1453  0.1354
 6090SOL    HW129732   3.108   4.306  11.244  0.6439 -1.1820 -0.0997
 6090SOL    HW229733   3.092   4.212  11.356 -1.0642 -0.7907  0.7161
 6091SOL     OW29734   3.650   3.774   8.215  0.5123  0.0536  0.1297
 6091SOL    HW129735   3.648   3.680   8.234  1.0993  0.1238  0.5459
 6091SOL    HW229736   3.603   3.812   8.289 -3.3332  0.1163 -2.3296
 6092SOL     OW29737   4.380   1.550   6.145  0.9366 -0.4292 -0.2738
 6092SOL    HW129738   4.467   1.513   6.161 -0.0439 -1.9416  1.5962
 6092SOL    HW229739   4.319   1.475   6.150 -0.8663  0.9918 -0.9450
 6093SOL     OW29740   2.642   1.229  17.292 -0.0751 -0.3016  0.2476
 6093SOL    HW129741   2.579   1.182  17.348 -1.5371 -1.4985 -2.3636
 6093SOL    HW229742   2.599   1.314  17.297  2.3715  1.0864 -2.3410
 6094SOL     OW29743   1.311   0.236   2.741 -0.6681  0.5653 -0.2506
 6094SOL    HW129744   1.257   0.159   2.728  0.6977  0.1841 -3.7200
 6094SOL    HW229745   1.259   0.307   2.702 -1.6637 -0.0626 -0.0616
 6095SOL     OW29746   2.461   1.469   8.382 -0.0597 -0.0077  0.3077
 6095SOL    HW129747   2.397   1.444   8.316  1.3017  0.3620 -1.1386
 6095SOL    HW229748   2.548   1.465   8.343  0.3004 -3.4027  1.4252
 6096SOL     OW29749   0.988   3.711   5.524  0.7820  0.3456  0.0144
 6096SOL    HW129750   0.999   3.799   5.489  1.1083 -0.3702 -1.7209
 6096SOL    HW229751   0.900   3.684   5.497  1.5983  0.3336 -2.6564
 6097SOL     OW29752   1.097   4.587   3.389 -0.4576  0.0797 -0.2774
 6097SOL    HW129753   1.127   4.537   3.313 -0.4443  2.6457 -1.9591
 6097SOL    HW229754   1.164   4.655   3.402  0.6093 -0.8530 -0.8762
 6098SOL     OW29755   4.414   4.031   9.852  0.3054 -0.5108  0.1408
 6098SOL    HW129756   4.462   3.949   9.845  2.0915  0.4989  0.5723
 6098SOL    HW229757   4.367   4.007   9.932 -0.6043  2.3422  0.4862
 6099SOL     OW29758   0.306   4.504   8.255  0.1021  0.3458 -0.1924
 6099SOL    HW129759   0.262   4.436   8.307  1.0486 -0.0029  0.1480
 6099SOL    HW229760   0.297   4.585   8.305  1.1275 -0.7877  1.7999
 6100SOL     OW29761   0.377   3.966   5.128 -0.6345  0.4535 -0.1940
 6100SOL    HW129762   0.377   3.975   5.223 -1.0613 -1.6954  0.0103
 6100SOL    HW229763   0.302   4.017   5.098 -0.7604 -0.3639 -1.2459
 6101SOL     OW29764   3.440   4.589   5.016 -0.5977 -0.2487 -0.1565
 6101SOL    HW129765   3.416   4.504   5.052  1.7765  0.3708  2.8565
 6101SOL    HW229766   3.399   4.640   5.086 -0.1838  0.7454 -0.6446
 6102SOL     OW29767   3.350   3.324   9.030 -0.7808 -0.4832 -0.1222
 6102SOL    HW129768   3.354   3.361   9.118 -0.9083  1.7625 -1.0729
 6102SOL    HW229769   3.275   3.370   8.992 -0.3160  0.5853  0.2622
 6103SOL     OW29770   3.191   3.681   0.827  0.1689  0.7139  0.3524
 6103SOL    HW129771   3.117   3.655   0.882 -0.1149 -1.4360 -1.0697
 6103SOL    HW229772   3.215   3.770   0.853  1.2280  0.2701  0.9035
 6104SOL     OW29773   3.812   2.510   5.294  0.4269  0.2087  0.2390
 6104SOL    HW129774   3.843   2.469   5.213  1.1071 -0.5082  0.8655
 6104SOL    HW229775   3.768   2.431   5.327  1.4266 -0.4597 -0.0377
 6105SOL     OW29776   2.245   1.837  16.924 -0.0121  0.1752  0.5164
 6105SOL    HW129777   2.273   1.754  16.887 -0.9735 -1.1953  2.8337
 6105SOL    HW229778   2.300   1.900  16.878 -0.3137  0.7367  0.9084
 6106SOL     OW29779   1.312   0.903  13.463  0.4676 -0.2304 -0.1714
 6106SOL    HW129780   1.384   0.903  13.526 -0.0595  0.2909  0.4161
 6106SOL    HW229781   1.244   0.950  13.511 -0.9713 -1.3113 -1.1329
 6107SOL     OW29782   3.135   4.432   4.663  0.4307 -0.5619 -0.1653
 6107SOL    HW129783   3.042   4.422   4.643  0.2788  3.2580 -1.4392
 6107SOL    HW229784   3.146   4.343   4.695 -1.1986 -1.4736 -2.1274
 6108SOL     OW29785   0.193   0.105  17.618  0.2742  0.2433 -0.7353
 6108SOL    HW129786   0.163   0.138  17.534 -0.4244  1.2383 -0.0995
 6108SOL    HW229787   0.129   0.151  17.674 -2.2821 -4.3105  0.0804
 6109SOL     OW29788   4.120   1.234   1.728  0.5449  0.0511  0.2658
 6109SOL    HW129789   4.210   1.236   1.696  1.1139  1.0827  1.9171
 6109SOL    HW229790   4.125   1.284   1.810  1.3645  0.3454  0.0383
 6110SOL     OW29791   4.610   1.378   6.202  0.3286 -0.4851  0.3841
 6110SOL    HW129792   4.657   1.322   6.264 -0.7764 -1.2506  0.5359
 6110SOL    HW229793   4.671   1.447   6.177 -0.6474  1.0142  2.1589
 6111SOL     OW29794   3.991   1.200   9.745  0.6428 -0.1145 -1.2072
 6111SOL    HW129795   3.947   1.116   9.759  0.0386  0.6989  1.6854
 6111SOL    HW229796   3.950   1.252   9.813  0.9153  0.7933 -1.7350
 6112SOL     OW29797   1.620   0.800   9.278  0.3877  0.6961 -0.4585
 6112SOL    HW129798   1.530   0.768   9.290  0.4280  0.4422 -0.8427
 6112SOL    HW229799   1.617   0.894   9.294 -2.7573  0.6706 -0.8001
 6113SOL     OW29800   4.396   1.964   1.751  0.0364  0.3801 -0.1110
 6113SOL    HW129801   4.353   1.878   1.755  3.2999 -1.2874 -0.7543
 6113SOL    HW229802   4.456   1.963   1.826 -1.4722 -0.2824  1.1031
 6114SOL     OW29803   4.388   2.034   7.979  0.1933 -0.5409 -0.9567
 6114SOL    HW129804   4.431   1.950   7.967 -1.1074 -1.5265  1.4020
 6114SOL    HW229805   4.451   2.080   8.034 -2.3327  0.7423  0.8676
 6115SOL     OW29806   4.296   3.899   7.732  0.0047 -0.2927  0.2710
 6115SOL    HW129807   4.305   3.865   7.821 -1.4096 -2.7248 -0.5072
 6115SOL    HW229808   4.205   3.881   7.709 -0.2068 -1.5905  2.1130
 6116SOL     OW29809   1.420   3.562   7.990  0.5465  0.1051 -0.5513
 6116SOL    HW129810   1.345   3.573   7.931 -0.6689  1.0545  1.1653
 6116SOL    HW229811   1.472   3.640   7.972 -1.2920  1.4489 -0.1113
 6117SOL     OW29812   4.071   2.146   8.257  0.2717 -0.0837  0.6144
 6117SOL    HW129813   4.144   2.150   8.319  1.0874  0.9322 -0.4100
 6117SOL    HW229814   4.105   2.208   8.192  1.0913 -2.5775 -1.3324
 6118SOL     OW29815   1.969   2.980   8.968 -0.5899 -0.2281 -0.1562
 6118SOL    HW129816   2.008   2.894   8.952  1.7317  0.8178 -0.1341
 6118SOL    HW229817   2.047   3.031   8.989 -1.4270  0.9212  0.1322
 6119SOL     OW29818   3.471   2.157   3.855 -0.3153 -0.5496  0.3942
 6119SOL    HW129819   3.406   2.225   3.870  0.4084  0.4722 -1.1530
 6119SOL    HW229820   3.501   2.161   3.946  0.2936  0.4692  0.1466
 6120SOL     OW29821   0.966   2.739   9.493 -0.1976 -0.0796  0.0952
 6120SOL    HW129822   1.036   2.679   9.466  0.3085  0.7251 -0.3667
 6120SOL    HW229823   0.967   2.716   9.586 -2.9616 -0.0920  0.1075
 6121SOL     OW29824   4.094   0.325  12.007 -0.3198 -0.0281  0.3495
 6121SOL    HW129825   4.086   0.415  12.038 -0.4656  0.4448 -1.0337
 6121SOL    HW229826   4.145   0.337  11.927  1.7864 -0.8135  1.5640
 6122SOL     OW29827   2.210   1.781   1.191  0.3197 -0.0322 -0.0515
 6122SOL    HW129828   2.261   1.854   1.225 -0.8842  1.8498 -2.2491
 6122SOL    HW229829   2.257   1.761   1.110 -1.8533 -0.0791 -1.3258
 6123SOL     OW29830   3.689   0.647   2.160  0.0785 -0.2035 -0.3518
 6123SOL    HW129831   3.704   0.735   2.197 -1.0475  0.0948 -0.6088
 6123SOL    HW229832   3.766   0.597   2.187  0.1501  1.4499  2.5255
 6124SOL     OW29833   4.091   1.286   1.102 -0.0551 -0.1799  0.3477
 6124SOL    HW129834   4.032   1.212   1.093  1.8098 -1.4878 -1.2404
 6124SOL    HW229835   4.034   1.353   1.065 -1.2103 -0.4153  1.7495
 6125SOL     OW29836   3.416   2.295   8.344  0.3455  0.6617 -0.6918
 6125SOL    HW129837   3.391   2.267   8.256 -1.4933 -0.1835  0.1066
 6125SOL    HW229838   3.426   2.390   8.339  0.2813  0.8089  1.7377
 6126SOL     OW29839   2.126   3.886   8.603  0.4557 -0.5666 -0.0053
 6126SOL    HW129840   2.203   3.870   8.547 -0.9184  1.7665 -2.5958
 6126SOL    HW229841   2.058   3.906   8.539  2.1782  0.0487 -1.6552
 6127SOL     OW29842   0.227   3.646   3.092  0.2679 -0.2483 -0.4371
 6127SOL    HW129843   0.177   3.577   3.048  0.3028 -0.6818  0.2004
 6127SOL    HW229844   0.225   3.720   3.031 -1.1250  1.0522  1.2110
 6128SOL     OW29845   0.767   3.927   2.987  0.3216  0.0329  0.2209
 6128SOL    HW129846   0.810   3.843   3.006  0.9642  0.2114 -0.4120
 6128SOL    HW229847   0.791   3.969   3.070  0.0622  0.3825  0.1185
 6129SOL     OW29848   1.526   1.986   6.881  0.6459 -0.5120  0.0789
 6129SOL    HW129849   1.483   2.055   6.831  1.8318  0.0458 -0.1655
 6129SOL    HW229850   1.614   1.981   6.844  0.5463 -0.1764 -0.2068
 6130SOL     OW29851   0.550   0.155   4.159 -0.1057 -0.7193  0.2871
 6130SOL    HW129852   0.509   0.176   4.243 -0.5369 -2.0743  0.4096
 6130SOL    HW229853   0.635   0.198   4.154 -0.7156  0.5864  0.8210
 6131SOL     OW29854   0.407   3.536  16.039 -0.4397 -0.0037 -0.5704
 6131SOL    HW129855   0.354   3.600  16.088 -0.0160  1.7975 -2.4659
 6131SOL    HW229856   0.408   3.464  16.102  0.3613  0.4878 -0.0078
 6132SOL     OW29857   4.690   3.694   7.528  0.5167  0.2459  0.2372
 6132SOL    HW129858   4.652   3.782   7.530 -1.4155 -0.5808  0.1517
 6132SOL    HW229859   0.042   3.715   7.473  3.4023 -2.1175  3.3303
 6133SOL     OW29860   2.448   1.109   5.617  0.1230  0.5346 -0.1317
 6133SOL    HW129861   2.516   1.175   5.606 -0.3153  0.5787 -2.6326
 6133SOL    HW229862   2.388   1.166   5.665 -0.6297 -0.7647  0.5075
 6134SOL     OW29863   3.824   1.941  10.407  0.4684 -0.3979 -0.6055
 6134SOL    HW129864   3.756   1.892  10.360 -1.3230 -0.4766  2.0941
 6134SOL    HW229865   3.883   1.970  10.338 -1.8948  2.6449 -1.3568
 6135SOL     OW29866   3.791   2.133   3.571 -0.0341  0.0003  0.0895
 6135SOL    HW129867   3.846   2.188   3.626  0.8811 -2.1747  1.3794
 6135SOL    HW229868   3.847   2.119   3.494 -1.1906 -1.1461 -0.5437
 6136SOL     OW29869   0.273   2.453   1.909  0.2867  0.4642  0.6480
 6136SOL    HW129870   0.303   2.534   1.951 -1.4296  1.5410 -0.1927
 6136SOL    HW229871   0.232   2.488   1.830  2.3759  3.4489  0.9038
 6137SOL     OW29872   2.198   4.595   7.532  0.3732  0.0892 -0.2210
 6137SOL    HW129873   2.259   4.531   7.568 -0.9469 -0.2054  1.5185
 6137SOL    HW229874   2.261   4.654   7.492  1.1955 -1.2094 -0.8543
 6138SOL     OW29875   1.029   3.404   1.873 -0.0250  0.4032 -0.4901
 6138SOL    HW129876   0.963   3.382   1.938  0.3947  0.6047  0.0078
 6138SOL    HW229877   0.977   3.460   1.815 -0.3583 -0.2063 -0.7736
 6139SOL     OW29878   0.729   0.034   3.586  0.2783 -0.0338  0.2875
 6139SOL    HW129879   0.815   0.040   3.627  0.9541 -2.4779 -0.8108
 6139SOL    HW229880   0.675   4.702   3.643  0.0324 -1.0772 -0.9791
 6140SOL     OW29881   3.110   3.546  15.850  0.1762  0.9436  0.0240
 6140SOL    HW129882   3.156   3.611  15.903  2.7838 -0.1052 -0.9508
 6140SOL    HW229883   3.189   3.505  15.816  0.7482  1.1844  1.0770
 6141SOL     OW29884   2.314   1.013   5.065  0.0612  0.6666  0.1732
 6141SOL    HW129885   2.312   0.935   5.119 -1.5681 -0.1397 -1.0706
 6141SOL    HW229886   2.401   1.002   5.026 -0.6908  0.1950 -1.3457
 6142SOL     OW29887   0.638   2.677   7.591  0.1764  0.4503 -0.1279
 6142SOL    HW129888   0.613   2.762   7.556  2.3398  1.4098  0.6873
 6142SOL    HW229889   0.701   2.642   7.527 -0.3340  3.3148 -2.1943
 6143SOL     OW29890   4.252   3.351   7.012  0.6587  0.0265  0.3148
 6143SOL    HW129891   4.292   3.436   7.027  1.1664  0.0984 -1.4707
 6143SOL    HW229892   4.301   3.295   7.072 -0.4266  1.3867  2.4630
 6144SOL     OW29893   0.480   1.415   5.508 -0.4408  0.2575  0.1534
 6144SOL    HW129894   0.458   1.362   5.585 -1.1977  1.6452  0.8866
 6144SOL    HW229895   0.530   1.489   5.543 -0.4003  0.3534 -0.1091
 6145SOL     OW29896   0.540   3.295   6.909  0.0013  0.6374 -0.2821
 6145SOL    HW129897   0.498   3.312   6.825 -1.0868 -1.1666 -0.1157
 6145SOL    HW229898   0.535   3.199   6.913  0.7832  0.6356  0.4686
 6146SOL     OW29899   1.343   2.193   7.359 -0.1939 -0.2608  0.5265
 6146SOL    HW129900   1.340   2.280   7.399  0.5666 -0.0720  0.1690
 6146SOL    HW229901   1.398   2.148   7.424 -1.1110 -1.9031  0.1525
 6147SOL     OW29902   2.773   0.964  13.414 -0.0114 -0.4454  0.1629
 6147SOL    HW129903   2.853   0.912  13.402 -0.1795 -0.5620 -0.4307
 6147SOL    HW229904   2.727   0.943  13.333 -0.2337  0.5686  0.0263
 6148SOL     OW29905   2.576   2.703   6.834  0.0855  0.0280  0.1220
 6148SOL    HW129906   2.668   2.674   6.828 -0.0869 -0.8460  1.6990
 6148SOL    HW229907   2.579   2.799   6.837  2.5398 -0.0023 -0.5562
 6149SOL     OW29908   2.536   1.955  10.494 -0.0941  0.7350 -0.3094
 6149SOL    HW129909   2.550   2.048  10.510 -0.4903  0.5879  0.8491
 6149SOL    HW229910   2.530   1.916  10.581 -0.5052 -0.7568 -1.0015
 6150SOL     OW29911   4.669   2.174   4.457 -0.3347 -0.3172 -0.7926
 6150SOL    HW129912   4.698   2.096   4.504 -1.5865  0.5308  1.4308
 6150SOL    HW229913   0.028   2.214   4.433 -0.1943  0.4897  1.0060
 6151SOL     OW29914   1.239   3.641   1.685  0.3613  0.2797 -0.4428
 6151SOL    HW129915   1.160   3.610   1.640 -1.4541 -0.1771  3.0612
 6151SOL    HW229916   1.282   3.556   1.686  0.0449  0.1166 -0.5953
 6152SOL     OW29917   2.083   1.556   6.600  0.0314  0.0725  0.3558
 6152SOL    HW129918   2.075   1.490   6.668 -2.0563 -1.0173 -0.9189
 6152SOL    HW229919   2.030   1.628   6.634 -2.4120 -2.1192  1.1725
 6153SOL     OW29920   3.881   0.619   1.911  0.3969  0.2143  0.2516
 6153SOL    HW129921   3.851   0.531   1.890 -2.1351  1.4632 -1.4461
 6153SOL    HW229922   3.845   0.631   1.999  1.5642 -0.5362  0.8234
 6154SOL     OW29923   0.426   0.319  16.363  0.0427  0.4443  0.2171
 6154SOL    HW129924   0.423   0.400  16.312 -0.2007  0.4909  0.3021
 6154SOL    HW229925   0.463   0.347  16.447  1.1829  3.4437 -1.3180
 6155SOL     OW29926   3.554   4.239   6.859 -0.1254 -0.0028 -0.8629
 6155SOL    HW129927   3.634   4.243   6.910  0.2069  0.2004 -1.3929
 6155SOL    HW229928   3.508   4.163   6.895  0.4192  0.1768  0.1976
 6156SOL     OW29929   1.623   2.331   3.551 -0.8231 -0.0154  0.0669
 6156SOL    HW129930   1.616   2.422   3.579  2.0870 -0.0549  0.9554
 6156SOL    HW229931   1.578   2.330   3.466 -0.0587  0.5790 -0.3370
 6157SOL     OW29932   2.856   3.330   1.065 -0.2921 -0.3894  0.1233
 6157SOL    HW129933   2.825   3.242   1.086 -0.6513 -0.0912  0.8717
 6157SOL    HW229934   2.945   3.311   1.036 -1.0917  0.4210 -2.8655
 6158SOL     OW29935   2.851   0.576   3.410  0.0825  0.3447 -0.4528
 6158SOL    HW129936   2.764   0.613   3.396 -0.4595 -0.6824  0.2254
 6158SOL    HW229937   2.836   0.498   3.355 -1.2010  0.2280  0.0656
 6159SOL     OW29938   0.775   3.295  14.422 -0.3026  0.5379  0.0573
 6159SOL    HW129939   0.866   3.307  14.397  0.1923 -0.3400  1.3910
 6159SOL    HW229940   0.724   3.286  14.342 -0.4397  1.4472  0.0396
 6160SOL     OW29941   2.387   1.655   4.143 -0.2766  0.2456 -0.0033
 6160SOL    HW129942   2.450   1.652   4.216  0.6123 -0.8357 -0.8210
 6160SOL    HW229943   2.450   1.661   4.072 -0.0744  1.2787  0.2689
 6161SOL     OW29944   3.331   0.273   0.228 -0.0737 -0.2985 -0.2957
 6161SOL    HW129945   3.377   0.357   0.231 -0.9714  0.2158 -0.6408
 6161SOL    HW229946   3.375   0.233   0.153  0.8419  0.0130  0.0832
 6162SOL     OW29947   4.253   0.062  17.465  0.2820 -0.2274 -0.0464
 6162SOL    HW129948   4.317   0.024  17.404  0.3220  1.5571 -1.1147
 6162SOL    HW229949   4.192   0.102  17.403  1.8568  0.7549 -0.9634
 6163SOL     OW29950   2.620   2.467  10.638  0.7032  1.0675  0.4708
 6163SOL    HW129951   2.612   2.372  10.635 -0.4847  1.1490  0.8580
 6163SOL    HW229952   2.710   2.482  10.609  1.0838 -0.0955  1.0596
 6164SOL     OW29953   1.276   3.704   1.401 -0.8018  0.1077 -0.0726
 6164SOL    HW129954   1.222   3.708   1.480 -0.8520  0.6578 -0.1356
 6164SOL    HW229955   1.260   3.612   1.378 -0.1679  0.0956 -0.4406
 6165SOL     OW29956   2.639   1.697  13.478  0.6698 -0.2270  0.1074
 6165SOL    HW129957   2.547   1.722  13.491  0.1957 -1.6618 -0.5152
 6165SOL    HW229958   2.658   1.711  13.386 -1.9992  0.6324 -0.3285
 6166SOL     OW29959   1.466   3.601   3.868 -0.6557  0.2333  0.4425
 6166SOL    HW129960   1.540   3.591   3.809 -1.2721  1.5366 -0.5372
 6166SOL    HW229961   1.469   3.518   3.915  0.5379 -0.2968 -0.5727
 6167SOL     OW29962   4.034   4.564  14.150 -0.2751 -0.5396  0.1223
 6167SOL    HW129963   4.093   4.638  14.166  0.4312 -0.3411 -3.4344
 6167SOL    HW229964   4.093   4.489  14.161  0.0833 -0.2673  0.0732
 6168SOL     OW29965   1.370   2.392  14.864 -0.2567 -0.8106 -0.3637
 6168SOL    HW129966   1.396   2.398  14.956  2.8014  0.8076 -1.3230
 6168SOL    HW229967   1.452   2.384  14.817  0.4568 -1.6995  1.0580
 6169SOL     OW29968   3.714   0.776   4.071 -0.4299 -0.0558  0.1581
 6169SOL    HW129969   3.717   0.852   4.013 -3.4047 -1.0212 -1.2392
 6169SOL    HW229970   3.751   0.823   4.147 -0.4976 -1.6044  1.1591
 6170SOL     OW29971   2.422   2.579   7.562  0.0324 -0.0622  0.2759
 6170SOL    HW129972   2.416   2.661   7.611 -1.5651 -0.1763  0.2720
 6170SOL    HW229973   2.329   2.557   7.553  0.3624 -0.5483 -1.8949
 6171SOL     OW29974   2.037   0.018   6.000  0.1694 -0.0743  0.2970
 6171SOL    HW129975   1.964   4.685   6.025  0.6177 -0.9633 -0.4347
 6171SOL    HW229976   2.113   4.685   6.010 -1.8345 -2.9657 -0.9747
 6172SOL     OW29977   4.551   2.037   2.079  0.2882 -0.0817 -0.0348
 6172SOL    HW129978   4.605   1.993   2.144  0.9640 -1.6989 -1.7075
 6172SOL    HW229979   4.464   2.001   2.096 -0.0645  1.0360  0.5836
 6173SOL     OW29980   2.874   2.096   3.400 -0.3936  0.2946  0.2682
 6173SOL    HW129981   2.907   2.161   3.461  1.9512  1.3069 -2.1274
 6173SOL    HW229982   2.944   2.113   3.338 -0.7786  0.3526 -0.1489
 6174SOL     OW29983   1.601   4.411  11.911  0.0575  0.3586  0.5432
 6174SOL    HW129984   1.578   4.425  12.002 -0.2685 -2.1036  0.8225
 6174SOL    HW229985   1.526   4.437  11.857 -1.1532 -2.5516  0.8540
 6175SOL     OW29986   4.599   1.869   7.153  0.2285 -0.1173 -0.2123
 6175SOL    HW129987   4.688   1.877   7.187  0.5556 -2.6266 -0.4496
 6175SOL    HW229988   4.546   1.866   7.233  1.3031 -1.2349  0.4578
 6176SOL     OW29989   3.716   2.921   3.321  0.1999  0.2770  0.3582
 6176SOL    HW129990   3.700   2.981   3.248 -0.3246  1.9522  1.8577
 6176SOL    HW229991   3.809   2.934   3.336  0.1075 -0.4895  1.6224
 6177SOL     OW29992   2.692   3.500   0.891  0.2151  0.1639  0.1779
 6177SOL    HW129993   2.675   3.584   0.933  1.6985 -0.2495  1.5845
 6177SOL    HW229994   2.770   3.481   0.943  2.3158  1.0365 -2.6500
 6178SOL     OW29995   0.569   3.455   8.997 -0.0031  0.1700 -0.0830
 6178SOL    HW129996   0.659   3.488   8.992 -0.6498  2.0018  0.1390
 6178SOL    HW229997   0.535   3.486   9.081  0.0181  1.7652 -0.6555
 6179SOL     OW29998   4.444   4.039   5.823 -0.6469 -0.3409  0.0542
 6179SOL    HW129999   4.409   3.986   5.894 -0.0593 -0.7332  0.0536
 6179SOL    HW230000   4.406   4.122   5.852  0.9648 -0.5212  2.6307
 6180SOL     OW30001   1.284   2.497  11.543 -0.2710  0.1473 -0.3268
 6180SOL    HW130002   1.263   2.533  11.629 -1.0038 -0.5588 -0.2115
 6180SOL    HW230003   1.376   2.516  11.526  0.2515 -3.2459 -1.1938
 6181SOL     OW30004   1.352   1.125   7.132 -0.1201 -0.3264  0.3101
 6181SOL    HW130005   1.375   1.174   7.211  1.5855  0.0688 -0.4434
 6181SOL    HW230006   1.281   1.076   7.174 -0.0667 -1.0227 -0.4263
 6182SOL     OW30007   1.333   2.167  15.862 -0.1805 -0.2869 -0.2975
 6182SOL    HW130008   1.425   2.184  15.845 -0.2601  2.4198  1.9847
 6182SOL    HW230009   1.306   2.132  15.777  0.1047 -0.7080 -0.2165
 6183SOL     OW30010   1.798   3.415   5.543  0.6430 -0.1295  0.2283
 6183SOL    HW130011   1.830   3.439   5.630  0.9673  0.7132 -0.1266
 6183SOL    HW230012   1.789   3.320   5.537 -0.3969  0.1196 -2.1080
 6184SOL     OW30013   3.164   0.862   5.842  0.1385 -0.9283  0.2977
 6184SOL    HW130014   3.070   0.848   5.839 -0.0120  0.1861 -0.2285
 6184SOL    HW230015   3.169   0.957   5.851  0.7696 -1.1582  2.4486
 6185SOL     OW30016   1.674   2.453   1.921  0.2598  0.3537  0.3595
 6185SOL    HW130017   1.669   2.438   2.016  2.1810  0.2290  0.4520
 6185SOL    HW230018   1.720   2.536   1.933 -0.1699  0.7762 -0.9397
 6186SOL     OW30019   2.279   3.254  16.587 -0.2667  0.0678  0.8385
 6186SOL    HW130020   2.240   3.167  16.593 -0.6728  0.1114 -1.1195
 6186SOL    HW230021   2.338   3.236  16.513 -0.4799 -2.0900  1.2016
 6187SOL     OW30022   4.280   1.270   8.724 -0.0003  0.5098 -0.4559
 6187SOL    HW130023   4.229   1.235   8.651  0.4593 -3.0485  0.9197
 6187SOL    HW230024   4.286   1.362   8.700 -2.5358  0.0877 -2.6068
 6188SOL     OW30025   0.194   3.716  11.735 -0.1369  0.1202 -0.4298
 6188SOL    HW130026   0.222   3.709  11.827 -1.6265  0.8467  0.0769
 6188SOL    HW230027   0.199   3.624  11.708 -1.5343  0.1517 -0.8237
 6189SOL     OW30028   2.756   3.095   8.374  0.5741 -0.8005  0.1215
 6189SOL    HW130029   2.724   3.176   8.335 -0.5768 -1.1284  0.3804
 6189SOL    HW230030   2.687   3.083   8.439  0.3472  0.1659  0.0626
 6190SOL     OW30031   4.012   2.719  11.666 -0.4021  0.3317 -0.0364
 6190SOL    HW130032   4.081   2.721  11.600 -0.3420  0.6129  0.0375
 6190SOL    HW230033   4.055   2.666  11.733 -3.3067 -2.3642 -0.2732
 6191SOL     OW30034   3.404   0.437  13.502 -0.0827  0.5834  0.5907
 6191SOL    HW130035   3.332   0.431  13.565  3.8799 -4.2823  4.6988
 6191SOL    HW230036   3.414   0.343  13.482  2.2548  0.8943  0.2968
 6192SOL     OW30037   2.456   0.972  14.659 -0.2999 -0.0689  0.0761
 6192SOL    HW130038   2.373   0.974  14.612 -0.2348 -0.9832 -0.0608
 6192SOL    HW230039   2.521   1.004  14.597 -2.0939  1.8345 -0.8130
 6193SOL     OW30040   4.351   4.247  12.829 -0.2883 -0.1773 -0.4499
 6193SOL    HW130041   4.389   4.240  12.742 -0.9692  0.3757 -0.7928
 6193SOL    HW230042   4.400   4.324  12.857  0.7720 -1.2066  0.5041
 6194SOL     OW30043   3.375   3.477   3.002 -0.2752  0.0513 -0.8164
 6194SOL    HW130044   3.389   3.534   3.078 -1.0027 -1.8912  0.7772
 6194SOL    HW230045   3.340   3.394   3.034  1.2498  0.1343  1.0763
 6195SOL     OW30046   3.696   2.896   5.419  0.1515  0.3299 -0.3456
 6195SOL    HW130047   3.643   2.839   5.364  0.2966 -0.5297  0.3994
 6195SOL    HW230048   3.766   2.901   5.354 -0.2425  1.9026 -0.6277
 6196SOL     OW30049   1.222   3.427   4.397  0.6160 -0.2622  0.0186
 6196SOL    HW130050   1.305   3.472   4.380  0.4040  0.7159  1.5395
 6196SOL    HW230051   1.197   3.457   4.485 -0.5388 -2.3092  0.3815
 6197SOL     OW30052   4.234   4.374   3.287 -0.4130  0.0924 -0.1024
 6197SOL    HW130053   4.318   4.359   3.330  0.2374  0.9607 -1.0889
 6197SOL    HW230054   4.244   4.467   3.266 -1.4032  0.5486  1.4820
 6198SOL     OW30055   4.420   4.007  15.217 -0.6464  0.3291 -0.0879
 6198SOL    HW130056   4.454   3.946  15.152  1.4929  1.8734 -0.4401
 6198SOL    HW230057   4.429   3.963  15.302 -1.8045  0.8502  0.3054
 6199SOL     OW30058   0.722   0.536   2.342 -0.3275  0.5366 -0.0988
 6199SOL    HW130059   0.673   0.479   2.401 -1.3420  1.4101 -0.1050
 6199SOL    HW230060   0.653   0.559   2.280 -0.8766 -1.7169 -0.3389
 6200SOL     OW30061   1.048   2.048   8.715  0.1273 -0.5160 -0.7362
 6200SOL    HW130062   1.064   1.975   8.774 -0.4660 -0.6422 -0.7385
 6200SOL    HW230063   0.961   2.074   8.746  0.3443  1.0378 -1.4386
 6201SOL     OW30064   0.763   4.212   5.037  0.3822 -0.1001  0.2119
 6201SOL    HW130065   0.819   4.179   5.108 -2.4486 -1.7222  1.6792
 6201SOL    HW230066   0.714   4.135   5.009 -0.7216  0.8042 -0.3168
 6202SOL     OW30067   2.208   0.375  12.575  0.6291  0.3968 -0.9705
 6202SOL    HW130068   2.141   0.425  12.529 -0.8374 -0.4877  0.2040
 6202SOL    HW230069   2.200   0.417  12.660  2.3252  0.3957 -0.8071
 6203SOL     OW30070   0.524   2.359   8.171 -0.4045  0.2789 -0.3359
 6203SOL    HW130071   0.617   2.349   8.150 -0.8596 -0.3501 -2.0787
 6203SOL    HW230072   0.496   2.268   8.181  0.0722  0.8263  5.9157
 6204SOL     OW30073   2.162   0.591   9.364  0.2050  0.6753 -0.1766
 6204SOL    HW130074   2.230   0.654   9.385  0.1377  0.6379  0.1477
 6204SOL    HW230075   2.097   0.653   9.331 -2.0858 -1.3690  0.4750
 6205SOL     OW30076   3.359   0.288   8.024  0.5337  0.0914 -0.6151
 6205SOL    HW130077   3.363   0.205   7.977  2.8082 -0.5538  0.6814
 6205SOL    HW230078   3.442   0.284   8.072  0.3255  1.6988 -0.1345
 6206SOL     OW30079   2.349   3.972  10.994  0.9200  0.6339  0.2088
 6206SOL    HW130080   2.414   3.963  11.064  1.5001 -0.0507 -0.4307
 6206SOL    HW230081   2.354   4.067  10.983  0.6715  0.4476 -1.4577
 6207SOL     OW30082   3.138   0.509   3.189  0.2652  0.1333 -0.4255
 6207SOL    HW130083   3.060   0.508   3.134 -0.0900  0.8705  0.0682
 6207SOL    HW230084   3.127   0.429   3.241  0.4635  1.6076  1.9183
 6208SOL     OW30085   1.509   4.051  16.015 -0.0689  0.0902 -0.3612
 6208SOL    HW130086   1.589   4.042  15.964 -1.5345 -2.2994 -2.2599
 6208SOL    HW230087   1.542   4.073  16.102  0.0434 -0.6183 -0.2259
 6209SOL     OW30088   0.438   0.445   7.675 -0.1626 -0.3135  0.2848
 6209SOL    HW130089   0.378   0.518   7.694  2.0476  1.7842 -0.7157
 6209SOL    HW230090   0.381   0.369   7.662  0.3970 -0.3366 -2.0876
 6210SOL     OW30091   1.247   2.416   2.061  0.1543  0.1038  0.0244
 6210SOL    HW130092   1.267   2.479   1.992 -1.1196  1.3678  0.8303
 6210SOL    HW230093   1.208   2.470   2.129 -0.5600 -1.3059  0.7417
 6211SOL     OW30094   1.483   0.158  13.805 -0.4848  0.4341  0.2289
 6211SOL    HW130095   1.570   0.119  13.813 -1.1047 -0.9692  0.3076
 6211SOL    HW230096   1.472   0.166  13.710  1.9156  1.6588  0.0613
 6212SOL     OW30097   0.619   2.840   1.173  0.1550  0.3818  0.2482
 6212SOL    HW130098   0.679   2.898   1.127  1.2913 -1.8322 -1.0046
 6212SOL    HW230099   0.618   2.760   1.121 -0.9607  0.2232  0.5148
 6213SOL     OW30100   3.549   1.984  14.897 -0.2656  0.2309 -0.5085
 6213SOL    HW130101   3.472   1.994  14.841  0.1085 -0.4577 -1.1612
 6213SOL    HW230102   3.562   2.073  14.929 -2.4911  0.1632  0.6203
 6214SOL     OW30103   0.789   0.020   2.389  0.4266 -0.2188 -0.4761
 6214SOL    HW130104   0.719   4.706   2.442  0.0706  1.0128 -0.0670
 6214SOL    HW230105   0.816   0.099   2.436  0.4759 -2.2702  2.9877
 6215SOL     OW30106   3.086   2.341   4.619 -0.1499  0.3606  0.5408
 6215SOL    HW130107   3.004   2.309   4.582 -0.2244 -1.2579  2.0905
 6215SOL    HW230108   3.114   2.272   4.679 -3.2264 -0.7167  0.7333
 6216SOL     OW30109   2.619   0.445   4.377  0.7240 -0.1199  0.1096
 6216SOL    HW130110   2.693   0.496   4.409  1.0037  0.1245 -0.9615
 6216SOL    HW230111   2.566   0.517   4.341 -0.9897 -1.7453 -0.6284
 6217SOL     OW30112   4.668   1.685   3.995  0.4418  0.6156 -0.2378
 6217SOL    HW130113   0.032   1.667   3.963  1.3397  1.4404  1.8000
 6217SOL    HW230114   4.646   1.730   3.913  0.9118  1.8827  0.3317
 6218SOL     OW30115   1.925   2.160   8.353  0.1993 -0.1469 -0.3761
 6218SOL    HW130116   1.869   2.216   8.299  0.2230  2.1803  1.9820
 6218SOL    HW230117   1.915   2.073   8.314 -1.9652 -0.5419  1.0742
 6219SOL     OW30118   2.633   4.029   3.364 -0.3562  0.2126 -0.0163
 6219SOL    HW130119   2.557   4.035   3.423 -0.7287 -2.0480 -0.2781
 6219SOL    HW230120   2.600   3.964   3.303 -1.6364  0.9243 -0.0871
 6220SOL     OW30121   4.613   2.612   5.981  0.6735 -0.2811 -0.2061
 6220SOL    HW130122   4.644   2.694   5.943 -2.3456  0.7911 -0.3284
 6220SOL    HW230123   4.538   2.596   5.924 -0.5997 -2.9325  2.1652
 6221SOL     OW30124   0.546   3.547   1.863 -0.5401  0.4245  0.5132
 6221SOL    HW130125   0.521   3.629   1.906 -0.3802  1.0559 -0.6027
 6221SOL    HW230126   0.629   3.528   1.906 -0.4740 -1.8921 -0.6281
 6222SOL     OW30127   0.348   2.283  11.323 -0.4391 -0.0979 -0.1722
 6222SOL    HW130128   0.270   2.249  11.366 -0.0108  0.3507  0.9454
 6222SOL    HW230129   0.319   2.374  11.314  0.4274  0.1066 -0.9849
 6223SOL     OW30130   1.479   2.082   2.352 -0.0449 -0.0977 -0.0081
 6223SOL    HW130131   1.393   2.043   2.366 -0.3612  0.2975 -0.8414
 6223SOL    HW230132   1.476   2.114   2.262 -1.9025 -1.4924 -0.4503
 6224SOL     OW30133   2.537   2.965  16.588 -0.2733  0.0549 -0.2711
 6224SOL    HW130134   2.628   2.981  16.613 -0.0621 -2.1320  0.2952
 6224SOL    HW230135   2.505   2.976  16.678  1.0271  0.4085  0.1432
 6225SOL     OW30136   1.454   4.068  11.796  0.1598 -0.9541 -0.0473
 6225SOL    HW130137   1.527   4.128  11.811 -0.7452  0.1899 -0.3039
 6225SOL    HW230138   1.458   4.042  11.704  2.7876  1.3624 -0.5845
 6226SOL     OW30139   1.944   4.403   3.485 -0.1929  0.1005 -0.3179
 6226SOL    HW130140   1.947   4.308   3.497  2.1965  0.0523 -1.1910
 6226SOL    HW230141   2.013   4.425   3.548 -1.5239 -1.6321  1.7180
 6227SOL     OW30142   2.884   1.079   5.051  0.0382  0.7805 -0.2997
 6227SOL    HW130143   2.970   1.120   5.046  0.6498 -0.3646  1.1121
 6227SOL    HW230144   2.902   0.986   5.061 -0.2829  0.8068  0.5413
 6228SOL     OW30145   0.971   4.153  12.608 -0.1293 -0.0278 -0.7254
 6228SOL    HW130146   0.927   4.175  12.526 -3.4898 -2.2828  0.4611
 6228SOL    HW230147   1.063   4.172  12.589  0.1912 -0.4263  0.3945
 6229SOL     OW30148   0.201   2.355   8.042  0.4804  0.2167 -0.3441
 6229SOL    HW130149   0.190   2.261   8.057 -2.0951  0.6523  0.5574
 6229SOL    HW230150   0.236   2.361   7.953 -1.7311 -1.0135 -1.2979
 6230SOL     OW30151   3.315   1.580   5.395 -0.2294 -0.2504 -0.2133
 6230SOL    HW130152   3.342   1.665   5.429  0.9129 -0.9290  0.6050
 6230SOL    HW230153   3.349   1.588   5.306 -3.4009  1.1203 -1.2903
 6231SOL     OW30154   2.118   0.340   3.743  0.1619  0.1073  0.3472
 6231SOL    HW130155   2.087   0.291   3.666 -0.8242 -0.3814  1.0573
 6231SOL    HW230156   2.211   0.344   3.721 -0.7096  0.9243 -3.1786
 6232SOL     OW30157   1.906   1.105   2.959  0.0508 -0.2667 -0.9223
 6232SOL    HW130158   1.930   1.013   2.975  0.8405  0.0129 -0.5225
 6232SOL    HW230159   1.811   1.103   2.964  0.2280 -1.6845  2.0822
 6233SOL     OW30160   1.686   1.138   5.314  0.0783  0.1885 -0.6273
 6233SOL    HW130161   1.701   1.098   5.228  0.7078  0.1355 -0.4968
 6233SOL    HW230162   1.597   1.106   5.331  0.6732 -1.5751 -0.8358
 6234SOL     OW30163   3.335   4.684   0.477  0.3154 -0.6710 -0.4790
 6234SOL    HW130164   3.381   4.628   0.414  0.5417  0.7515 -1.5606
 6234SOL    HW230165   3.348   4.620   0.547 -0.0448 -0.9604 -0.6750
 6235SOL     OW30166   1.949   1.704   4.719 -0.0014 -0.1042 -0.2177
 6235SOL    HW130167   1.890   1.758   4.666  0.0323  0.1778  0.0336
 6235SOL    HW230168   2.027   1.712   4.665  0.5228 -0.4227  0.5057
 6236SOL     OW30169   0.419   2.218  13.020  0.8573 -0.2100  0.1260
 6236SOL    HW130170   0.415   2.171  12.937  0.9907  2.8092 -1.6017
 6236SOL    HW230171   0.462   2.302  13.000  0.0994 -0.2894 -1.8546
 6237SOL     OW30172   3.150   1.354  14.381  0.1980 -0.1530 -0.4343
 6237SOL    HW130173   3.170   1.273  14.427  0.7951  0.0114 -0.4040
 6237SOL    HW230174   3.060   1.370  14.410  0.6977 -0.5786  1.3874
 6238SOL     OW30175   3.895   1.783   7.869 -0.1492  0.0463 -0.0780
 6238SOL    HW130176   3.891   1.749   7.779 -0.1927 -0.2471  0.0342
 6238SOL    HW230177   3.862   1.710   7.922 -0.6960  0.3632  0.0113
 6239SOL     OW30178   1.117   1.244   7.867  0.1036 -0.0238  0.3234
 6239SOL    HW130179   1.117   1.303   7.792  3.4780  1.2308  1.2958
 6239SOL    HW230180   1.205   1.206   7.864  0.1031  0.0595 -0.6747
 6240SOL     OW30181   3.682   3.482  12.748 -0.0425 -0.2462  0.5389
 6240SOL    HW130182   3.719   3.395  12.735 -1.9713 -0.5691 -2.6948
 6240SOL    HW230183   3.760   3.537  12.756 -0.8231  0.9759 -0.2761
 6241SOL     OW30184   2.751   3.758  15.873  0.2036 -0.3773 -0.1308
 6241SOL    HW130185   2.782   3.729  15.958  0.6729 -1.3939 -0.6575
 6241SOL    HW230186   2.666   3.715  15.885  0.3359 -0.7336 -0.5082
 6242SOL     OW30187   2.022   2.682  13.443 -0.1623  0.3836  0.0756
 6242SOL    HW130188   2.076   2.752  13.480  1.2813 -0.9184  0.4280
 6242SOL    HW230189   2.079   2.605  13.448  1.0043  1.2722  0.6348
 6243SOL     OW30190   0.407   2.011   7.185  0.4851 -0.0647 -0.4020
 6243SOL    HW130191   0.492   1.968   7.182  0.6565  0.1413  1.3045
 6243SOL    HW230192   0.424   2.094   7.230  1.1642  0.5950 -1.8707
 6244SOL     OW30193   4.060   2.349   8.098 -0.3570  0.0383  0.2657
 6244SOL    HW130194   3.981   2.403   8.109 -1.0367 -1.0243  0.6059
 6244SOL    HW230195   4.037   2.327   8.008  1.0067 -2.4333  0.5186
 6245SOL     OW30196   1.111   3.828   1.093  0.2773  0.1196 -0.2474
 6245SOL    HW130197   1.037   3.883   1.066 -1.0400 -0.8772  1.3274
 6245SOL    HW230198   1.180   3.856   1.033  0.7916 -0.5483  0.0340
 6246SOL     OW30199   2.495   1.795   8.474 -0.0498 -0.3077  0.1722
 6246SOL    HW130200   2.514   1.701   8.477  1.0815 -0.1238 -1.6136
 6246SOL    HW230201   2.471   1.805   8.566  1.6892  0.2095  0.5778
 6247SOL     OW30202   4.492   3.276   2.010  0.1819  0.1107  0.4991
 6247SOL    HW130203   4.586   3.282   2.000  0.1775  0.8303  0.9158
 6247SOL    HW230204   4.477   3.186   2.039 -0.9401  0.3706  0.7271
 6248SOL     OW30205   3.700   0.887   5.376 -0.2001  0.0204  0.0219
 6248SOL    HW130206   3.689   0.813   5.435  2.8609 -0.3221  0.1569
 6248SOL    HW230207   3.760   0.945   5.424 -1.4370  0.3660  1.1713
 6249SOL     OW30208   4.398   1.414   9.256 -0.3784  0.4673  0.7098
 6249SOL    HW130209   4.370   1.443   9.343 -0.5247  0.3318  0.7067
 6249SOL    HW230210   4.383   1.320   9.253 -1.0779  0.6060 -0.1122
 6250SOL     OW30211   0.729   4.097   3.512  0.7790 -0.2705  0.0424
 6250SOL    HW130212   0.779   4.102   3.593 -0.5154  0.5286  0.7879
 6250SOL    HW230213   0.717   4.002   3.509 -0.3849 -0.0898 -0.7526
 6251SOL     OW30214   0.379   0.366  14.708  0.1290 -0.8568 -0.0363
 6251SOL    HW130215   0.400   0.331  14.794 -0.6978 -2.2064 -0.3752
 6251SOL    HW230216   0.286   0.385  14.711  0.2935  0.1907 -1.3176
 6252SOL     OW30217   2.949   0.040   6.150 -0.7271  0.6814  0.1295
 6252SOL    HW130218   2.877   0.086   6.107 -1.7280 -1.0536 -0.0556
 6252SOL    HW230219   2.988   0.116   6.194 -0.8464  1.0924 -0.4819
 6253SOL     OW30220   3.961   3.059   7.605 -0.1702 -0.5749 -0.2190
 6253SOL    HW130221   3.875   3.046   7.566 -0.1188 -1.7498  0.0389
 6253SOL    HW230222   4.006   2.988   7.559 -0.8133 -1.1661  0.0522
 6254SOL     OW30223   2.003   0.064   7.568  0.0099 -0.2766 -0.1199
 6254SOL    HW130224   1.946   4.711   7.568 -0.5013  0.1010  1.0808
 6254SOL    HW230225   2.085   0.016   7.574 -1.9299 -3.4446  0.8485
 6255SOL     OW30226   2.071   1.750   1.663 -0.7145 -0.3183 -0.1474
 6255SOL    HW130227   1.988   1.702   1.669 -1.3790  0.5600 -2.2537
 6255SOL    HW230228   2.067   1.767   1.569 -0.1963  0.0438 -0.1024
 6256SOL     OW30229   2.321   4.458   0.081 -0.2728  0.1709 -0.2488
 6256SOL    HW130230   2.280   4.473   0.167 -0.7111 -4.0494  0.2907
 6256SOL    HW230231   2.293   4.370   0.053 -0.9093  0.7797 -1.5286
 6257SOL     OW30232   0.892   3.679   2.115 -0.2323 -0.3236 -0.2642
 6257SOL    HW130233   0.884   3.758   2.060  1.5062  0.3650  0.4887
 6257SOL    HW230234   0.982   3.660   2.089  0.8940  2.8208  1.3456
 6258SOL     OW30235   3.358   1.120   8.959  0.1388  0.7157  0.4375
 6258SOL    HW130236   3.398   1.150   9.040  0.9845 -0.4533  0.4566
 6258SOL    HW230237   3.413   1.166   8.895 -0.0452  1.7006  0.9892
 6259SOL     OW30238   2.228   1.105   2.313 -0.4071  0.6859  0.3343
 6259SOL    HW130239   2.173   1.069   2.382 -1.1628 -1.6506 -1.4576
 6259SOL    HW230240   2.304   1.123   2.368  0.1364 -0.1227 -0.1464
 6260SOL     OW30241   3.727   4.333  16.258  0.7393  0.2631  0.2631
 6260SOL    HW130242   3.808   4.356  16.302  0.4481  0.3266  0.7682
 6260SOL    HW230243   3.664   4.390  16.301  1.2672  1.7120 -0.8578
 6261SOL     OW30244   3.493   3.172   1.196  0.1315 -0.3430 -0.2659
 6261SOL    HW130245   3.413   3.217   1.168  0.8858 -0.0049 -1.8876
 6261SOL    HW230246   3.466   3.142   1.283 -1.8191  0.9039 -0.4437
 6262SOL     OW30247   2.761   2.626   5.991 -0.7750  0.4031 -0.3611
 6262SOL    HW130248   2.780   2.548   5.939  0.0689 -1.1009  2.1913
 6262SOL    HW230249   2.814   2.695   5.952 -2.3128  1.2238 -0.9946
 6263SOL     OW30250   1.528   3.058  12.000  0.4077 -0.2562  0.2103
 6263SOL    HW130251   1.590   3.088  11.933  0.1249 -1.3736 -0.5556
 6263SOL    HW230252   1.446   3.054  11.951  0.9049 -2.3801 -0.4473
 6264SOL     OW30253   2.135   3.545   8.090  0.3097 -0.4150 -0.7407
 6264SOL    HW130254   2.070   3.597   8.041  0.2187 -0.5599 -0.7735
 6264SOL    HW230255   2.196   3.616   8.107  0.2670 -0.7180  0.6155
 6265SOL     OW30256   2.202   0.549   7.166 -0.2525 -0.1546  0.5784
 6265SOL    HW130257   2.137   0.493   7.123  2.3007  0.0834 -3.5946
 6265SOL    HW230258   2.267   0.549   7.095 -0.3276 -0.5681  0.5071
 6266SOL     OW30259   2.417   2.698   6.590 -0.3437 -0.4235 -0.6517
 6266SOL    HW130260   2.445   2.728   6.677  0.1413 -2.3174 -0.1490
 6266SOL    HW230261   2.504   2.700   6.551 -1.5108 -0.4825 -3.2171
 6267SOL     OW30262   3.738   1.044  17.007  0.5268 -0.2226  0.3334
 6267SOL    HW130263   3.819   1.035  16.955  0.2968  0.4233 -0.1324
 6267SOL    HW230264   3.776   1.097  17.076 -0.5749  1.0043 -0.0138
 6268SOL     OW30265   2.180   1.702   4.549  0.2511 -0.0203  0.3808
 6268SOL    HW130266   2.148   1.725   4.461 -0.8320 -1.0065  0.5122
 6268SOL    HW230267   2.222   1.617   4.535  1.6118  0.4745  1.5238
 6269SOL     OW30268   1.411   3.273  15.739 -0.5421  0.5278 -0.3162
 6269SOL    HW130269   1.394   3.182  15.762 -2.2570  1.8282  3.5909
 6269SOL    HW230270   1.500   3.253  15.710 -0.2243  1.1298  0.2424
 6270SOL     OW30271   3.267   2.842   8.088  0.2028  0.1955 -0.0044
 6270SOL    HW130272   3.337   2.908   8.080 -0.3740  0.8856  0.6595
 6270SOL    HW230273   3.288   2.809   8.175 -0.3779 -2.4507 -0.8801
 6271SOL     OW30274   2.348   1.755   8.706  0.0374  0.1109 -0.0209
 6271SOL    HW130275   2.285   1.794   8.767 -0.9675 -2.3066  0.5032
 6271SOL    HW230276   2.286   1.700   8.659  0.6101 -0.1244 -0.5055
 6272SOL     OW30277   4.147   0.171   6.265 -0.1696 -0.4689  0.3673
 6272SOL    HW130278   4.160   0.137   6.353 -0.7371 -0.2354  0.5358
 6272SOL    HW230279   4.053   0.180   6.274 -0.2438 -0.0044 -0.7918
 6273SOL     OW30280   1.974   2.079   2.265  0.0260  0.1000  0.1562
 6273SOL    HW130281   1.903   2.135   2.298 -0.8523 -1.0532  0.2217
 6273SOL    HW230282   2.011   2.052   2.349 -2.5872  1.8442  1.8609
 6274SOL     OW30283   2.383   0.285  17.293 -0.4724 -0.0309  0.4885
 6274SOL    HW130284   2.392   0.373  17.256  0.7468 -0.6074 -0.5406
 6274SOL    HW230285   2.340   0.239  17.221 -0.3377 -1.9280  1.6236
 6275SOL     OW30286   0.059   1.495   3.463  0.2780  0.3042  0.3056
 6275SOL    HW130287   0.102   1.553   3.525  0.7912 -1.1450  1.2935
 6275SOL    HW230288   0.121   1.496   3.390 -1.8305  0.9848 -1.4817
 6276SOL     OW30289   1.858   2.398   0.036 -0.2820 -0.2556 -0.1476
 6276SOL    HW130290   1.951   2.398   0.012 -1.0013  0.2539 -2.9671
 6276SOL    HW230291   1.817   2.436  17.656  3.7928 -0.5818 -2.4361
 6277SOL     OW30292   3.714   2.263   5.365 -0.1564  0.0568  0.0741
 6277SOL    HW130293   3.742   2.180   5.325 -0.1116 -0.6685  1.6390
 6277SOL    HW230294   3.642   2.240   5.422 -1.1102 -0.1488 -1.2235
 6278SOL     OW30295   0.441   1.151   2.718  0.4124 -0.3869 -0.6604
 6278SOL    HW130296   0.438   1.120   2.808  1.1467 -2.1472 -1.2336
 6278SOL    HW230297   0.513   1.214   2.722  0.5289 -0.5432 -0.3047
 6279SOL     OW30298   3.242   3.917   2.431  0.2609 -1.1498 -0.2388
 6279SOL    HW130299   3.327   3.884   2.462  0.6431  0.8678  0.8443
 6279SOL    HW230300   3.189   3.838   2.438 -1.2536 -0.0176  0.8643
 6280SOL     OW30301   3.760   2.453   3.495 -0.4401  0.1482 -0.6666
 6280SOL    HW130302   3.698   2.448   3.567  2.1421 -0.3901  1.5477
 6280SOL    HW230303   3.824   2.514   3.534  0.1201 -0.9093  0.0546
 6281SOL     OW30304   4.494   1.760   9.595 -0.1951  0.2664  0.1625
 6281SOL    HW130305   4.494   1.856   9.590  2.0635  0.3746  2.1339
 6281SOL    HW230306   4.587   1.742   9.611 -0.3933  0.0850  1.1300
 6282SOL     OW30307   4.487   3.874  11.564 -0.2886  0.3388 -0.5303
 6282SOL    HW130308   4.440   3.852  11.483  0.2139  1.6097 -1.1671
 6282SOL    HW230309   4.514   3.962  11.538  3.2767 -0.9525 -1.1307
 6283SOL     OW30310   0.298   4.174  11.547  0.2376 -0.2795  0.0846
 6283SOL    HW130311   0.319   4.081  11.535 -1.8593 -0.7267  0.0176
 6283SOL    HW230312   0.278   4.178  11.640 -1.2616  2.9466 -0.3841
 6284SOL     OW30313   2.778   3.505   5.069  0.1979  0.1011 -0.1692
 6284SOL    HW130314   2.860   3.456   5.055 -0.1311 -0.8958  1.4079
 6284SOL    HW230315   2.715   3.479   5.002 -0.5939  3.5035 -0.7288
 6285SOL     OW30316   2.938   2.876   6.712 -0.9532 -0.1608 -0.4162
 6285SOL    HW130317   2.921   2.787   6.740  0.4550  0.1736  1.5051
 6285SOL    HW230318   2.881   2.885   6.636 -1.3160 -0.2859 -0.1578
 6286SOL     OW30319   3.666   1.975   0.077 -0.6815  0.4998 -0.5281
 6286SOL    HW130320   3.587   1.923   0.084 -0.9133  0.7974 -0.9496
 6286SOL    HW230321   3.628   2.061   0.058 -1.7064 -0.7882 -4.2283
 6287SOL     OW30322   0.179   0.279   6.268 -0.3165 -0.1616  0.3637
 6287SOL    HW130323   0.172   0.245   6.357 -1.1327  0.1141  0.4022
 6287SOL    HW230324   0.206   0.369   6.285 -1.0144  0.5400 -2.2050
 6288SOL     OW30325   0.418   1.906  15.186 -0.0291  0.0022 -0.1647
 6288SOL    HW130326   0.371   1.930  15.106  0.8166  0.3907 -0.5473
 6288SOL    HW230327   0.396   1.813  15.192  0.4225  0.0257  1.6712
 6289SOL     OW30328   0.786   4.361  15.647  0.2369 -0.0773 -0.7823
 6289SOL    HW130329   0.823   4.440  15.686 -0.7268 -0.4304  0.8421
 6289SOL    HW230330   0.736   4.412  15.584 -1.2711 -1.5780 -0.7870
 6290SOL     OW30331   3.053   1.403  13.497 -0.7759  0.3512 -0.0612
 6290SOL    HW130332   3.108   1.333  13.463  0.7685  1.3873  0.2950
 6290SOL    HW230333   2.984   1.363  13.550  0.7641  0.3531  1.9565
 6291SOL     OW30334   3.630   1.190  10.051  0.0745 -0.5382  0.1056
 6291SOL    HW130335   3.554   1.242  10.077  0.6578  0.6721 -0.6368
 6291SOL    HW230336   3.613   1.111  10.104  1.6633 -0.6904  0.3765
 6292SOL     OW30337   1.248   0.589  16.483  0.2208  0.0724 -0.2331
 6292SOL    HW130338   1.211   0.507  16.515 -2.0132 -0.4872 -4.2374
 6292SOL    HW230339   1.314   0.560  16.420  3.3482  0.0487  3.0534
 6293SOL     OW30340   3.763   2.984   1.356  0.0868  0.1017 -0.0951
 6293SOL    HW130341   3.677   2.999   1.396 -0.4050  3.4410 -2.4443
 6293SOL    HW230342   3.806   3.068   1.339  1.9170 -0.6328  1.0182
 6294SOL     OW30343   0.751   0.714  13.706 -0.1852 -0.2043  0.0808
 6294SOL    HW130344   0.660   0.682  13.705 -0.0025 -0.7810  1.1659
 6294SOL    HW230345   0.777   0.703  13.798  0.2177  1.0968  0.1184
 6295SOL     OW30346   2.473   2.508   4.848  0.1864 -0.0270  0.3241
 6295SOL    HW130347   2.419   2.430   4.860 -0.1022 -0.2907 -2.8146
 6295SOL    HW230348   2.564   2.477   4.851  0.0641 -0.3393  0.8004
 6296SOL     OW30349   2.285   2.659  13.154 -0.5239 -0.9217 -0.4390
 6296SOL    HW130350   2.293   2.727  13.222 -0.5720  0.6810 -2.0310
 6296SOL    HW230351   2.363   2.683  13.104  0.9132 -0.4947  2.0105
 6297SOL     OW30352   3.543   2.996  15.719 -0.0171 -0.4448 -0.1315
 6297SOL    HW130353   3.553   2.975  15.812  0.3481  0.2439 -0.0070
 6297SOL    HW230354   3.473   2.938  15.692 -0.4550 -0.1631  0.4050
 6298SOL     OW30355   2.395   3.180   1.879 -0.5071  0.1634  0.6271
 6298SOL    HW130356   2.343   3.211   1.805 -2.7909 -0.0453  2.1384
 6298SOL    HW230357   2.388   3.253   1.941 -1.6368  0.6088 -0.0355
 6299SOL     OW30358   1.503   3.232   5.040 -0.6158  0.7104 -0.6132
 6299SOL    HW130359   1.579   3.201   5.089 -2.2081 -3.8005 -0.9886
 6299SOL    HW230360   1.526   3.288   4.966  1.5272  0.3977 -0.1758
 6300SOL     OW30361   1.232   2.215   3.124  0.2311  0.4693 -0.2262
 6300SOL    HW130362   1.302   2.174   3.175 -0.6643  0.2008  0.8084
 6300SOL    HW230363   1.216   2.148   3.058 -0.6229  0.7302 -0.2836
 6301SOL     OW30364   1.178   1.224   8.597 -0.8295  0.0349  0.3579
 6301SOL    HW130365   1.271   1.246   8.610 -0.4572 -2.1578  1.6128
 6301SOL    HW230366   1.197   1.132   8.578 -0.3931  0.2484 -0.2540
 6302SOL     OW30367   1.614   4.082   6.227 -0.1492 -0.2883  0.1823
 6302SOL    HW130368   1.549   4.087   6.297 -2.0609  3.2931 -1.9013
 6302SOL    HW230369   1.693   4.068   6.280  1.6130 -0.3451 -2.4703
 6303SOL     OW30370   1.816   0.845   9.111 -0.2320 -0.1664  0.4497
 6303SOL    HW130371   1.749   0.814   9.171 -3.2998  4.0850 -0.7761
 6303SOL    HW230372   1.868   0.766   9.098 -0.7567 -0.3112 -0.7497
 6304SOL     OW30373   1.930   0.123  14.580 -0.0269  0.8255 -0.2417
 6304SOL    HW130374   1.974   0.152  14.500  2.0390  1.9917  1.3086
 6304SOL    HW230375   2.010   0.108  14.630 -0.6958 -0.5579  0.4114
 6305SOL     OW30376   4.314   2.263   0.851 -0.5183  0.4477  0.4748
 6305SOL    HW130377   4.397   2.272   0.804 -1.7787  0.1359 -1.7999
 6305SOL    HW230378   4.295   2.172   0.831 -2.4383  1.5696 -2.9380
 6306SOL     OW30379   4.478   4.685   6.780  0.4854  0.3056  0.5988
 6306SOL    HW130380   4.396   4.640   6.801 -0.3599  1.6247  0.1166
 6306SOL    HW230381   4.469   4.676   6.685 -0.5539 -1.5072  0.8740
 6307SOL     OW30382   0.280   1.181   8.829  0.2744  0.2390  0.0535
 6307SOL    HW130383   0.371   1.186   8.799  0.3165 -1.9287 -0.1389
 6307SOL    HW230384   0.271   1.274   8.849 -1.7304  0.5006 -1.9637
 6308SOL     OW30385   2.655   1.403   8.765  0.5242  0.1182  0.0460
 6308SOL    HW130386   2.636   1.496   8.774 -0.9127 -0.4154  2.5632
 6308SOL    HW230387   2.741   1.403   8.808  0.8834  2.4481 -0.6747
 6309SOL     OW30388   1.746   3.589  12.084 -0.4202  0.1894  0.2723
 6309SOL    HW130389   1.802   3.611  12.009  0.8833 -0.1604  1.1444
 6309SOL    HW230390   1.811   3.560  12.148  0.7024 -1.1750 -1.4895
 6310SOL     OW30391   3.780   0.818   8.479  0.6064  0.2579 -0.2795
 6310SOL    HW130392   3.726   0.837   8.403 -0.1491  1.1006  0.4794
 6310SOL    HW230393   3.814   0.905   8.499  0.6101  0.5045 -1.3832
 6311SOL     OW30394   2.572   0.710   4.616  0.0128  0.2100  0.0649
 6311SOL    HW130395   2.630   0.787   4.616  0.1515  0.1097  2.5710
 6311SOL    HW230396   2.637   0.640   4.619 -2.2294 -1.9188 -1.0480
 6312SOL     OW30397   0.956   2.636  13.604  0.5904 -0.1666  1.0606
 6312SOL    HW130398   0.986   2.699  13.670  0.3798 -0.6070  1.5741
 6312SOL    HW230399   0.993   2.658  13.519  0.1247 -0.0197  0.8976
 6313SOL     OW30400   3.660   2.036   7.941 -0.0060 -0.4601 -0.1739
 6313SOL    HW130401   3.652   2.115   7.887  1.1201 -0.6443 -0.6356
 6313SOL    HW230402   3.743   2.002   7.906 -0.1722 -0.4942 -0.5400
 6314SOL     OW30403   1.927   4.031   1.951  0.1368  0.7522 -0.0059
 6314SOL    HW130404   1.972   3.952   1.983 -1.1933 -0.3600 -0.8931
 6314SOL    HW230405   1.834   4.007   1.952  0.0232  1.1751 -0.5146
 6315SOL     OW30406   4.474   0.839   5.674  0.4398  0.2597 -0.2707
 6315SOL    HW130407   4.407   0.844   5.743  1.4585  0.6690  0.6900
 6315SOL    HW230408   4.483   0.933   5.655 -0.1603  0.3812  0.0372
 6316SOL     OW30409   1.966   0.396   9.064 -0.5100 -0.3744  0.0552
 6316SOL    HW130410   2.012   0.313   9.056 -0.9735 -0.4883 -1.5266
 6316SOL    HW230411   1.886   0.367   9.107 -0.9623 -0.8696 -1.1099
 6317SOL     OW30412   4.534   3.238   5.014  0.0699  0.2815  0.1531
 6317SOL    HW130413   4.564   3.329   5.022 -1.3356  0.9809 -2.6905
 6317SOL    HW230414   4.576   3.218   4.930 -0.0807 -0.6847  0.3166
 6318SOL     OW30415   2.483   3.538  16.131 -1.0994  0.4485 -0.0098
 6318SOL    HW130416   2.478   3.575  16.219 -0.7388  1.8060 -0.5639
 6318SOL    HW230417   2.422   3.466  16.147 -0.1924 -0.4674 -0.6470
 6319SOL     OW30418   2.419   0.437   9.517  0.1453 -0.1057 -0.0581
 6319SOL    HW130419   2.483   0.504   9.539  1.0750 -0.4954 -1.5735
 6319SOL    HW230420   2.335   0.464   9.556  0.0397 -3.5274  2.0500
 6320SOL     OW30421   2.490   1.205   2.426  0.0645 -0.4464  0.1864
 6320SOL    HW130422   2.564   1.206   2.365  0.8228  0.8969  1.1270
 6320SOL    HW230423   2.455   1.291   2.406  0.9042 -0.1220  0.1016
 6321SOL     OW30424   1.936   1.902   2.764  0.3326 -0.2356  0.1987
 6321SOL    HW130425   1.867   1.847   2.727 -0.5255  0.5723  0.6172
 6321SOL    HW230426   1.886   1.977   2.796  1.7232  0.3825  0.9129
 6322SOL     OW30427   1.095   0.967   3.612 -0.4872  0.4815  0.6724
 6322SOL    HW130428   1.148   0.959   3.692  1.2922  1.3062 -0.4142
 6322SOL    HW230429   1.119   0.884   3.569  0.0632  1.3270 -0.6371
 6323SOL     OW30430   0.224   2.858   3.453 -0.0753 -0.1667  0.0571
 6323SOL    HW130431   0.230   2.892   3.364 -2.1104  1.5101  0.5544
 6323SOL    HW230432   0.300   2.801   3.465  0.2952  0.0469 -1.2084
 6324SOL     OW30433   3.963   0.772   9.437 -0.0832 -0.2729  0.8350
 6324SOL    HW130434   3.937   0.750   9.348 -0.7697  0.8101  0.7632
 6324SOL    HW230435   4.020   0.843   9.407 -3.0503  1.9272  0.4667
 6325SOL     OW30436   2.036   0.825   8.835 -0.2111 -0.1508 -0.3275
 6325SOL    HW130437   2.076   0.745   8.802 -0.8096 -0.4452 -0.3342
 6325SOL    HW230438   2.095   0.846   8.907 -1.7473 -1.4078  1.3072
 6326SOL     OW30439   2.201   2.502  17.449  0.3711 -0.0516  0.3942
 6326SOL    HW130440   2.134   2.568  17.431  1.7748  1.2937  0.0214
 6326SOL    HW230441   2.273   2.534  17.394  0.0856 -1.3539 -0.7084
 6327SOL     OW30442   2.997   1.236   3.465  0.1006 -0.2880 -0.3010
 6327SOL    HW130443   2.915   1.277   3.437  0.0224 -0.4701 -0.3385
 6327SOL    HW230444   3.075   1.275   3.425  0.8863 -0.2544  1.2242
 6328SOL     OW30445   3.644   2.793   6.282  0.1052 -0.4121  0.0076
 6328SOL    HW130446   3.656   2.831   6.369 -0.1189 -1.5600  0.5385
 6328SOL    HW230447   3.619   2.872   6.235  0.7447 -1.2078 -1.6665
 6329SOL     OW30448   2.011   0.146  12.338 -0.2327  0.0795  0.3762
 6329SOL    HW130449   2.020   0.056  12.306 -0.8840 -0.1516  0.8367
 6329SOL    HW230450   2.103   0.149  12.363  0.6254  0.7467 -2.9186
 6330SOL     OW30451   3.661   0.180   4.030 -0.1843 -0.2491  0.2551
 6330SOL    HW130452   3.595   0.246   4.006  0.4583 -0.0722 -1.0419
 6330SOL    HW230453   3.603   0.107   4.049 -1.8211  0.8862 -0.3247
 6331SOL     OW30454   1.387   3.050  17.558 -0.7414 -0.1829  0.6068
 6331SOL    HW130455   1.401   2.992  17.633 -0.7680 -2.3806 -1.1029
 6331SOL    HW230456   1.460   3.020  17.504  0.8079 -0.7827  3.0313
 6332SOL     OW30457   3.475   3.833  12.723  0.0459 -0.4814  0.6178
 6332SOL    HW130458   3.415   3.907  12.735  0.3992 -0.1475  0.3120
 6332SOL    HW230459   3.552   3.850  12.777 -1.1755  0.9202  1.9635
 6333SOL     OW30460   1.794   3.147  10.208  0.1575 -0.4425 -0.1195
 6333SOL    HW130461   1.801   3.214  10.140  0.1392  0.8633  1.1718
 6333SOL    HW230462   1.861   3.089  10.172 -0.6231 -0.7672 -1.0588
 6334SOL     OW30463   0.350   1.223   4.243 -0.1701  0.1797 -0.0781
 6334SOL    HW130464   0.391   1.205   4.159  0.4837  2.0195 -0.1620
 6334SOL    HW230465   0.425   1.237   4.300  0.3107  0.3660 -0.7581
 6335SOL     OW30466   2.500   2.129   4.199  0.9291 -0.0901  0.5220
 6335SOL    HW130467   2.493   2.083   4.115  0.1279  0.3045  0.3692
 6335SOL    HW230468   2.573   2.082   4.238  1.8760  0.1966 -0.9223
 6336SOL     OW30469   0.982   2.079   6.626 -0.6115 -0.0657  0.3186
 6336SOL    HW130470   0.917   2.116   6.567  0.0645 -0.4123 -0.6599
 6336SOL    HW230471   0.930   2.053   6.702 -0.4328 -0.7667  0.2043
 6337SOL     OW30472   1.789   0.380   2.818 -0.2689 -0.4578  0.0842
 6337SOL    HW130473   1.856   0.386   2.749 -0.7868  1.4740 -0.2770
 6337SOL    HW230474   1.714   0.410   2.765  0.7883 -0.5390 -1.4642
 6338SOL     OW30475   1.662   0.332   4.560 -0.4347  0.5446  0.4506
 6338SOL    HW130476   1.706   0.416   4.572  3.1336 -1.1049 -1.2391
 6338SOL    HW230477   1.699   0.301   4.477 -0.2849  0.6729  0.4694
 6339SOL     OW30478   4.616   0.652  14.804 -0.0688 -0.3594 -0.1972
 6339SOL    HW130479   4.704   0.680  14.829 -0.9142  1.1452  1.0810
 6339SOL    HW230480   4.576   0.730  14.766  1.7131  1.6031  1.9747
 6340SOL     OW30481   3.724   4.107   9.131  0.2805 -0.3159  0.3424
 6340SOL    HW130482   3.782   4.143   9.198  1.3493  1.4078 -1.5194
 6340SOL    HW230483   3.692   4.190   9.095 -0.3098 -1.4084 -1.6263
 6341SOL     OW30484   2.707   0.209   3.520 -0.0417 -0.5542 -0.7071
 6341SOL    HW130485   2.759   0.208   3.599  0.9686  1.5390 -1.3444
 6341SOL    HW230486   2.631   0.256   3.555  1.5017  0.8818  0.6785
 6342SOL     OW30487   1.262   2.290   3.467  0.1829 -0.5165 -0.9639
 6342SOL    HW130488   1.213   2.209   3.453  0.2297 -0.6956 -0.0359
 6342SOL    HW230489   1.245   2.316   3.557 -2.0834 -0.0038 -1.5502
 6343SOL     OW30490   3.067   4.330  16.913  0.1025 -0.0276 -0.3800
 6343SOL    HW130491   3.006   4.384  16.962  1.7741  1.4084  0.1238
 6343SOL    HW230492   3.147   4.383  16.920 -1.4841  1.8344  3.2904
 6344SOL     OW30493   1.930   1.586   2.010 -0.4950 -0.2931 -0.1047
 6344SOL    HW130494   1.908   1.670   2.050  0.3589 -0.2923  0.3634
 6344SOL    HW230495   2.023   1.599   1.994 -1.0631  3.7355  0.0565
 6345SOL     OW30496   2.664   0.023   7.362 -0.2675 -0.7520  0.0895
 6345SOL    HW130497   2.673   4.669   7.308 -0.5571 -0.8748  0.2208
 6345SOL    HW230498   2.745   0.067   7.334 -2.2602  1.2069 -2.6228
 6346SOL     OW30499   2.180   2.534   1.272  0.2480  0.3630  0.9434
 6346SOL    HW130500   2.256   2.585   1.246 -0.4143 -0.5614 -2.7943
 6346SOL    HW230501   2.118   2.601   1.243 -0.3549 -0.0599  1.2267
 6347SOL     OW30502   0.737   0.262   5.409 -0.4073 -0.6225 -0.7638
 6347SOL    HW130503   0.821   0.223   5.382 -0.3470 -1.6944  0.9665
 6347SOL    HW230504   0.772   0.346   5.437  1.2308 -1.4183 -0.3646
 6348SOL     OW30505   2.896   3.746  11.251 -0.1830  0.1595 -0.6162
 6348SOL    HW130506   2.839   3.719  11.179  0.2452 -0.9919 -0.5283
 6348SOL    HW230507   2.885   3.672  11.311 -2.5857  2.3097  1.5689
 6349SOL     OW30508   2.079   0.151   4.815 -0.2513  0.3703  0.4081
 6349SOL    HW130509   2.093   0.221   4.878  1.6586  0.7265 -0.4267
 6349SOL    HW230510   2.077   0.194   4.729 -1.2672 -1.7266 -0.6324
 6350SOL     OW30511   2.438   1.351   8.621  0.2548 -0.4618  0.3137
 6350SOL    HW130512   2.448   1.389   8.534 -0.4786 -0.2462  0.3281
 6350SOL    HW230513   2.517   1.383   8.665 -0.4086  2.4004 -0.5732
 6351SOL     OW30514   4.114   3.818   2.828  0.4737  0.3500 -0.0278
 6351SOL    HW130515   4.024   3.795   2.848 -0.4849  3.1852 -1.0986
 6351SOL    HW230516   4.154   3.732   2.843 -0.1726 -0.1954 -1.4676
 6352SOL     OW30517   4.413   1.340   4.668 -0.3734  0.1494  0.1187
 6352SOL    HW130518   4.493   1.382   4.637  0.6007 -1.3015  0.6633
 6352SOL    HW230519   4.439   1.250   4.690  0.6717  0.1918 -1.0168
 6353SOL     OW30520   0.738   3.621   3.717  0.0335  0.2038 -0.5102
 6353SOL    HW130521   0.796   3.614   3.792 -0.3210  2.2986 -0.0334
 6353SOL    HW230522   0.804   3.627   3.647  0.6533  2.4862  0.2757
 6354SOL     OW30523   1.615   2.120  10.396 -0.3308 -0.1120 -0.4071
 6354SOL    HW130524   1.574   2.167  10.469  1.0190  0.3681  0.0453
 6354SOL    HW230525   1.636   2.044  10.449 -3.4472 -0.5446  0.2110
 6355SOL     OW30526   2.040   2.734  17.678  0.2163  0.3323 -0.0479
 6355SOL    HW130527   2.012   2.775   0.062  1.0099  1.8056 -0.5152
 6355SOL    HW230528   2.025   2.641  17.696 -0.0624  0.7723  1.9432
 6356SOL     OW30529   4.303   0.875  15.731  0.2995 -0.4756 -0.0568
 6356SOL    HW130530   4.387   0.889  15.687  0.0703  0.8651 -0.0699
 6356SOL    HW230531   4.285   0.784  15.708 -0.5833  0.2981 -2.4070
 6357SOL     OW30532   3.329   2.724   3.564  0.5535  0.1802  0.2679
 6357SOL    HW130533   3.389   2.791   3.532  1.0806 -1.5619 -2.3768
 6357SOL    HW230534   3.377   2.695   3.641 -2.0721 -2.6435  0.8264
 6358SOL     OW30535   0.471   0.629  13.737  0.0612  0.1661 -0.0613
 6358SOL    HW130536   0.490   0.537  13.719  0.1599  0.2275 -0.2736
 6358SOL    HW230537   0.379   0.618  13.759  0.2224 -2.6068 -0.7526
 6359SOL     OW30538   2.563   1.111   7.707  0.5868  0.5180 -0.0581
 6359SOL    HW130539   2.543   1.199   7.738 -0.5327  0.0233  0.6276
 6359SOL    HW230540   2.480   1.072   7.734 -0.7912  2.6789 -1.1024
 6360SOL     OW30541   0.972   3.865   4.111 -0.3169 -0.4429  0.4574
 6360SOL    HW130542   1.037   3.803   4.143  0.3727 -0.9862 -2.0294
 6360SOL    HW230543   0.908   3.810   4.065 -1.1164  0.3343  0.6264
 6361SOL     OW30544   1.694   2.863   7.794 -0.3912 -0.7901 -0.1093
 6361SOL    HW130545   1.703   2.856   7.889 -1.3885  2.2944  0.2090
 6361SOL    HW230546   1.643   2.783   7.778 -1.9001  0.2427 -0.3931
 6362SOL     OW30547   1.457   2.936   9.963  0.1485 -0.2113  0.1643
 6362SOL    HW130548   1.516   3.009   9.983 -2.1690  1.5342  0.7215
 6362SOL    HW230549   1.455   2.942   9.868 -1.9738  0.4098  0.2511
 6363SOL     OW30550   4.186   0.029  11.009 -0.2634  0.3008 -0.0413
 6363SOL    HW130551   4.199   0.107  11.063  1.3383  0.1351 -0.1766
 6363SOL    HW230552   4.261   4.700  11.037 -0.2893 -0.7486 -1.9869
 6364SOL     OW30553   3.611   2.925   7.005 -0.7745  0.0618 -0.3545
 6364SOL    HW130554   3.526   2.969   7.006  0.3288  2.1751 -0.3353
 6364SOL    HW230555   3.632   2.903   7.095 -1.1781  1.0790 -0.0110
 6365SOL     OW30556   2.585   2.786   2.662 -0.0630  0.0772 -0.0070
 6365SOL    HW130557   2.613   2.752   2.577  0.9991  3.7465 -1.1322
 6365SOL    HW230558   2.490   2.789   2.654 -0.1271 -0.7368  0.3873
 6366SOL     OW30559   1.549   4.337   4.587 -0.1551  0.1101 -0.1374
 6366SOL    HW130560   1.558   4.307   4.497  0.2530 -1.7831  0.5228
 6366SOL    HW230561   1.582   4.425   4.570  0.7081 -0.0124  0.9327
 6367SOL     OW30562   2.751   4.182   2.039  0.4372  0.4487  0.3411
 6367SOL    HW130563   2.768   4.091   2.065  0.5098 -0.5255 -3.1737
 6367SOL    HW230564   2.700   4.208   2.116  2.0777  0.2803  1.4968
 6368SOL     OW30565   2.381   2.061   2.984 -0.4822 -0.2092 -0.9097
 6368SOL    HW130566   2.328   1.988   3.016  2.3453 -1.6574  0.4579
 6368SOL    HW230567   2.439   2.007   2.931 -0.6245 -0.5042 -0.7687
 6369SOL     OW30568   0.866   2.912   5.492  0.5615  0.0520 -0.5310
 6369SOL    HW130569   0.865   2.887   5.400 -1.5868  0.3999 -0.6038
 6369SOL    HW230570   0.960   2.910   5.509  0.5886  2.1380 -0.3951
 6370SOL     OW30571   4.066   0.141   2.588  0.0356 -0.2248 -0.3825
 6370SOL    HW130572   3.990   0.100   2.628  0.0044  0.0232 -0.1868
 6370SOL    HW230573   4.034   0.230   2.601  1.3414  0.3007 -0.7626
 6371SOL     OW30574   0.913   0.026   6.420  0.0468 -0.6268  0.7529
 6371SOL    HW130575   0.991   0.048   6.471 -0.5912  1.0217  1.0222
 6371SOL    HW230576   0.872   4.678   6.468 -1.5582 -1.7016 -2.2558
 6372SOL     OW30577   1.377   2.255  12.324  0.4915  0.4737  0.3053
 6372SOL    HW130578   1.351   2.333  12.276 -2.6699 -0.4081  0.5566
 6372SOL    HW230579   1.413   2.300  12.401 -1.0110  0.6665  0.8946
 6373SOL     OW30580   3.933   4.559   5.566  0.3215 -0.2163 -0.5762
 6373SOL    HW130581   3.987   4.627   5.526 -0.8052  1.4089  0.6545
 6373SOL    HW230582   3.841   4.579   5.546  0.8698  1.1284 -1.7069
 6374SOL     OW30583   2.166   3.982  14.880  0.0846 -0.2330  0.9669
 6374SOL    HW130584   2.142   3.916  14.946 -0.4576 -1.4753 -0.4646
 6374SOL    HW230585   2.116   4.060  14.907  1.0681  0.8096 -0.2473
 6375SOL     OW30586   2.967   0.732  12.675 -0.0543 -0.4637 -0.1341
 6375SOL    HW130587   2.928   0.739  12.762 -0.1881  0.4860 -0.2792
 6375SOL    HW230588   3.034   0.800  12.679 -1.0813  0.5748 -0.6060
 6376SOL     OW30589   3.368   2.277   8.841 -0.0141 -0.5916 -0.3474
 6376SOL    HW130590   3.426   2.220   8.892  0.2628 -0.5597 -0.6295
 6376SOL    HW230591   3.369   2.240   8.753 -0.2415  0.7529 -0.9123
 6377SOL     OW30592   3.232   2.551  16.902  0.0724  0.0541  0.2396
 6377SOL    HW130593   3.315   2.502  16.907  0.0813 -0.0874 -1.2960
 6377SOL    HW230594   3.209   2.555  16.809  1.7246  1.3235 -0.1157
 6378SOL     OW30595   0.800   1.514   9.054  0.3871  0.6335 -0.4283
 6378SOL    HW130596   0.846   1.430   9.054 -1.1816 -0.2200 -1.1102
 6378SOL    HW230597   0.790   1.529   9.148 -0.2558 -2.2968 -0.0293
 6379SOL     OW30598   1.095   4.191   7.165  0.5590  0.5180  0.4384
 6379SOL    HW130599   1.093   4.181   7.260  1.8878  4.0710  0.8362
 6379SOL    HW230600   1.032   4.262   7.157 -0.1501 -0.0826  0.6026
 6380SOL     OW30601   0.424   4.496   9.973 -0.3727  0.2170 -0.4843
 6380SOL    HW130602   0.389   4.584   9.985  0.1884  0.0952  1.9681
 6380SOL    HW230603   0.366   4.439  10.024  2.9090 -1.6721  1.0778
 6381SOL     OW30604   3.597   3.240   8.746  0.1749 -0.2678 -0.1709
 6381SOL    HW130605   3.625   3.332   8.743  0.2596 -0.3228 -0.9066
 6381SOL    HW230606   3.636   3.202   8.825  1.1926  1.6065  0.2493
 6382SOL     OW30607   3.405   4.376  16.848 -0.3123  0.6372  0.5616
 6382SOL    HW130608   3.465   4.438  16.806  0.1778  0.9266  1.7088
 6382SOL    HW230609   3.352   4.429  16.907 -0.7465  0.4343  0.3509
 6383SOL     OW30610   3.770   1.386   3.577  0.1461  0.8823  0.5337
 6383SOL    HW130611   3.810   1.338   3.505  0.7793  0.3440  1.2468
 6383SOL    HW230612   3.758   1.471   3.534  0.2643 -0.1668 -1.5915
 6384SOL     OW30613   3.305   1.298   3.049  0.5729  0.2648  0.0024
 6384SOL    HW130614   3.264   1.253   2.975  1.7981 -3.1370  1.3876
 6384SOL    HW230615   3.353   1.229   3.095 -0.7330  1.0122  2.4774
 6385SOL     OW30616   2.034   0.669   9.087  0.1327  0.2945  0.1402
 6385SOL    HW130617   2.127   0.664   9.065  0.1263  1.3113 -0.1455
 6385SOL    HW230618   2.015   0.578   9.067 -1.5425  0.5971  0.3384
 6386SOL     OW30619   1.006   4.121   4.004  0.4952 -0.0233  0.8864
 6386SOL    HW130620   0.976   4.036   4.037 -0.4050 -0.2012 -0.3893
 6386SOL    HW230621   1.097   4.093   4.000  0.1086 -1.2642  0.5797
 6387SOL     OW30622   0.377   4.591   5.153 -0.0024  0.2845  0.3384
 6387SOL    HW130623   0.369   4.639   5.070  1.5741 -0.7333 -0.3950
 6387SOL    HW230624   0.343   4.504   5.135  0.4558  0.3972 -1.0788
 6388SOL     OW30625   2.009   1.107   7.548  0.1564 -0.6291  0.0835
 6388SOL    HW130626   2.057   1.027   7.571  1.3931 -0.2710 -1.2774
 6388SOL    HW230627   2.067   1.152   7.487 -1.4879  0.0154 -1.0114
 6389SOL     OW30628   3.046   2.213  13.547  0.6475  0.0032 -0.0831
 6389SOL    HW130629   2.953   2.215  13.572  0.9774  2.1261  0.9083
 6389SOL    HW230630   3.064   2.122  13.571 -1.7875 -0.3807  0.2977
 6390SOL     OW30631   4.281   1.146   2.387  0.6652 -0.2652  0.0330
 6390SOL    HW130632   4.208   1.086   2.374  2.0145 -2.0951  0.9367
 6390SOL    HW230633   4.268   1.160   2.481  3.8275  1.0826  0.2564
 6391SOL     OW30634   4.504   3.013   8.983  0.4750  0.2405 -0.1682
 6391SOL    HW130635   4.594   3.018   8.949  0.1062 -1.4066 -1.3613
 6391SOL    HW230636   4.519   3.051   9.070  0.1754 -0.8868  0.3673
 6392SOL     OW30637   0.375   3.622   0.667  0.3111 -0.5882 -0.3425
 6392SOL    HW130638   0.298   3.665   0.702  1.8028  1.3212  0.5631
 6392SOL    HW230639   0.328   3.565   0.606 -0.4648  2.2685 -2.3821
 6393SOL     OW30640   1.958   0.299  15.725 -0.0737 -0.0289  0.3965
 6393SOL    HW130641   1.956   0.251  15.642  1.7932  1.2103 -0.3680
 6393SOL    HW230642   2.039   0.349  15.711 -0.2814  0.6667  1.7267
 6394SOL     OW30643   1.587   2.712   7.418 -0.0831 -0.7282 -0.5081
 6394SOL    HW130644   1.682   2.720   7.429 -0.1733 -2.3335  1.3546
 6394SOL    HW230645   1.570   2.620   7.396 -0.7802 -0.6251 -0.4004
 6395SOL     OW30646   1.642   2.355   2.962 -0.0702 -0.1344  0.3617
 6395SOL    HW130647   1.627   2.409   2.884 -3.0160 -0.9935  0.3721
 6395SOL    HW230648   1.562   2.376   3.009 -0.3248 -0.2012 -0.0449
 6396SOL     OW30649   3.589   4.228   5.587  0.2917 -0.5106  0.4850
 6396SOL    HW130650   3.671   4.180   5.574  1.5960  2.1742 -1.1891
 6396SOL    HW230651   3.561   4.250   5.498  2.1721  2.8019  0.7127
 6397SOL     OW30652   0.586   0.458   5.658 -0.0568  0.7645  0.4075
 6397SOL    HW130653   0.587   0.472   5.563 -0.1967 -0.4581  0.2215
 6397SOL    HW230654   0.491   0.464   5.666 -0.2190 -1.3259  0.1134
 6398SOL     OW30655   2.063   1.027   8.173  0.3944 -0.3162  0.7177
 6398SOL    HW130656   2.044   0.962   8.106  2.6109 -1.6767  1.4222
 6398SOL    HW230657   2.033   1.112   8.139  0.9839 -1.4643 -2.6016
 6399SOL     OW30658   2.771   0.020  14.693  0.4044 -0.0503  0.0346
 6399SOL    HW130659   2.751   4.700  14.611  0.6806  0.1307 -0.1319
 6399SOL    HW230660   2.825   0.090  14.656  0.6132  0.7152  1.7471
 6400SOL     OW30661   0.507   4.026  11.902  0.2071  0.2971  0.1942
 6400SOL    HW130662   0.437   3.993  11.959 -1.1413 -0.7978 -2.0796
 6400SOL    HW230663   0.565   3.953  11.879 -2.7595 -1.0044 -3.1588
 6401SOL     OW30664   1.054   3.338   1.027  0.6435 -0.2256  0.1525
 6401SOL    HW130665   1.106   3.370   0.953  2.1886  1.4006  1.9389
 6401SOL    HW230666   0.989   3.408   1.019  0.6723 -0.1859  0.2740
 6402SOL     OW30667   2.544   3.891   0.862  0.3032 -0.2281 -0.1642
 6402SOL    HW130668   2.545   3.843   0.779  2.6098  0.6786 -0.6624
 6402SOL    HW230669   2.542   3.985   0.848  3.7842 -0.0954  0.2532
 6403SOL     OW30670   2.411   3.359   0.431  0.3591 -0.1809  0.4746
 6403SOL    HW130671   2.505   3.347   0.417  0.3551  0.7333 -0.3213
 6403SOL    HW230672   2.412   3.396   0.520 -1.4676 -0.0367  0.4358
 6404SOL     OW30673   3.937   3.243   8.041  0.4930  0.2592  0.1427
 6404SOL    HW130674   3.925   3.307   7.971 -1.5907 -1.1430 -0.7506
 6404SOL    HW230675   3.967   3.311   8.101  1.0976  2.6616 -2.8784
 6405SOL     OW30676   2.121   4.690   4.601  0.1229  0.1896 -0.4444
 6405SOL    HW130677   2.191   4.700   4.536 -0.4156 -1.9859 -1.3840
 6405SOL    HW230678   2.104   0.054   4.635  1.3889  0.6957 -1.1151
 6406SOL     OW30679   0.358   1.209   3.717  0.0301 -0.2042 -0.1750
 6406SOL    HW130680   0.289   1.219   3.652 -1.1318 -0.0895  1.0762
 6406SOL    HW230681   0.402   1.133   3.679  0.9619  0.3928 -0.2997
 6407SOL     OW30682   3.181   0.857  12.331  0.0593 -0.1318  0.0144
 6407SOL    HW130683   3.146   0.771  12.311 -0.5673  0.2830 -0.6901
 6407SOL    HW230684   3.226   0.865  12.247 -1.2107  2.1211 -0.4666
 6408SOL     OW30685   1.304   0.998   5.831 -0.2454 -0.4201 -0.1988
 6408SOL    HW130686   1.225   1.025   5.784  0.2246 -1.1020 -1.3756
 6408SOL    HW230687   1.270   0.920   5.875 -0.7178  0.5680  1.1991
 6409SOL     OW30688   1.689   3.397   6.989  0.5508 -0.5563  0.1424
 6409SOL    HW130689   1.623   3.466   6.990  0.3555 -0.7489  0.8495
 6409SOL    HW230690   1.694   3.377   7.083  0.8997 -0.8881  0.0534
 6410SOL     OW30691   3.196   0.357   1.434 -0.3053  0.4826 -0.0366
 6410SOL    HW130692   3.175   0.432   1.379  0.5733  0.2569 -0.6909
 6410SOL    HW230693   3.247   0.310   1.368  1.6237  0.3402  1.5478
 6411SOL     OW30694   3.416   2.200  10.277  0.0558 -0.5198 -0.6331
 6411SOL    HW130695   3.462   2.147  10.342 -0.3540  0.9673  0.8586
 6411SOL    HW230696   3.482   2.268  10.267 -0.7241 -0.0727 -2.7836
 6412SOL     OW30697   3.213   3.755  10.140 -0.4963  0.1255 -0.1557
 6412SOL    HW130698   3.218   3.764  10.235  2.0515  0.6505 -0.3409
 6412SOL    HW230699   3.118   3.753  10.130 -0.2910  0.8559 -2.2880
 6413SOL     OW30700   3.159   1.946  16.487  0.6257  0.3401  0.0877
 6413SOL    HW130701   3.224   1.932  16.419  1.8928  0.5275  1.2677
 6413SOL    HW230702   3.200   2.020  16.530  0.8685  0.7878 -0.9218
 6414SOL     OW30703   1.725   3.133  11.798  0.6590 -1.3244  0.9127
 6414SOL    HW130704   1.815   3.164  11.806  0.4963 -0.7790  0.6275
 6414SOL    HW230705   1.682   3.204  11.752  2.0767 -1.2143 -0.2444
 6415SOL     OW30706   0.986   3.659   4.841 -0.1118  0.2160 -0.4358
 6415SOL    HW130707   1.028   3.709   4.911  1.2057 -0.5318 -0.6959
 6415SOL    HW230708   0.920   3.725   4.823  0.4911  0.6817 -0.8987
 6416SOL     OW30709   1.729   0.975   9.772  0.4866 -0.5536 -0.2908
 6416SOL    HW130710   1.673   1.038   9.728 -0.3342 -1.5348 -0.6586
 6416SOL    HW230711   1.765   0.930   9.696 -1.5289 -3.1772  0.3172
 6417SOL     OW30712   2.651   3.016   4.036 -0.1259 -0.1229  0.3569
 6417SOL    HW130713   2.705   3.055   4.106 -0.0210  0.3959 -0.0126
 6417SOL    HW230714   2.652   2.923   4.057 -0.0222 -0.7027 -2.2661
 6418SOL     OW30715   0.967   0.939   7.062  0.3076  0.1980 -0.6956
 6418SOL    HW130716   1.011   0.956   7.145 -1.1122 -1.6364  0.4393
 6418SOL    HW230717   0.944   0.848   7.078  0.2325  0.1193 -1.2275
 6419SOL     OW30718   0.388   0.332   8.655 -0.1843 -0.4803  0.6465
 6419SOL    HW130719   0.394   0.337   8.750 -0.2567 -0.3506  0.6443
 6419SOL    HW230720   0.295   0.316   8.643 -0.7300  1.9078  1.6042
 6420SOL     OW30721   2.741   2.299   9.849  0.4851  0.7104 -0.0427
 6420SOL    HW130722   2.829   2.270   9.828  0.2861  1.3116 -1.7425
 6420SOL    HW230723   2.751   2.322   9.941  1.2063 -1.4553  0.4225
 6421SOL     OW30724   0.594   4.645   2.575  0.2610  0.0039 -0.4930
 6421SOL    HW130725   0.580   0.007   2.615 -0.0772 -0.7684  1.0287
 6421SOL    HW230726   0.635   4.602   2.650 -2.4468 -1.1562  0.3145
 6422SOL     OW30727   1.887   4.713   1.120  0.6583  0.3885 -0.0843
 6422SOL    HW130728   1.916   4.696   1.210  1.4317 -1.5219 -0.6929
 6422SOL    HW230729   1.794   4.693   1.128  0.5794  1.7122  2.4113
 6423SOL     OW30730   4.113   1.055   5.613  0.1195 -0.1864  0.1193
 6423SOL    HW130731   4.170   1.127   5.586 -1.5658  0.6661 -1.1856
 6423SOL    HW230732   4.156   1.031   5.695 -2.5175  0.2555  1.6342
 6424SOL     OW30733   1.822   2.693  12.099 -0.0948 -0.7163 -0.8091
 6424SOL    HW130734   1.814   2.627  12.167  1.6092 -1.1321 -1.0010
 6424SOL    HW230735   1.904   2.670  12.056 -0.4130  0.9127 -2.2893
 6425SOL     OW30736   1.354   2.987   3.258 -0.2104  0.0683  0.3030
 6425SOL    HW130737   1.377   3.071   3.219 -1.4217 -0.2167 -1.0149
 6425SOL    HW230738   1.319   3.014   3.343  1.4754 -2.3251  1.7850
 6426SOL     OW30739   4.676   0.165   8.417 -0.7022  0.5878 -0.0840
 6426SOL    HW130740   4.681   0.071   8.432  0.1938  0.7305  0.4923
 6426SOL    HW230741   4.597   0.182   8.468 -1.0704 -0.7477 -0.2086
 6427SOL     OW30742   1.801   2.166  16.742 -0.1460 -0.2080 -0.1782
 6427SOL    HW130743   1.868   2.099  16.756  0.0091 -0.0439 -0.1320
 6427SOL    HW230744   1.801   2.168  16.646  1.3932  1.2415 -0.1651
 6428SOL     OW30745   2.197   0.863   8.362  0.4834 -0.1046  0.1023
 6428SOL    HW130746   2.115   0.820   8.338  0.2536  0.0756  0.5912
 6428SOL    HW230747   2.218   0.915   8.284 -1.0225 -0.7044 -0.7021
 6429SOL     OW30748   4.293   0.817   5.868 -0.3424  0.2566  0.2116
 6429SOL    HW130749   4.311   0.881   5.936  0.0551  1.4267 -0.9924
 6429SOL    HW230750   4.289   0.734   5.917 -0.4549 -0.9097 -1.7629
 6430SOL     OW30751   3.434   0.539   5.486 -0.7388 -0.2610 -0.0833
 6430SOL    HW130752   3.382   0.618   5.473 -1.8502 -0.7828  1.1878
 6430SOL    HW230753   3.477   0.558   5.569  2.5932  1.4782 -2.1642
 6431SOL     OW30754   2.782   3.080  16.652  0.4531 -0.2970  0.2402
 6431SOL    HW130755   2.724   3.157  16.649  1.8016  0.7361  0.7741
 6431SOL    HW230756   2.861   3.119  16.689 -1.7783  0.9508  3.7305
 6432SOL     OW30757   3.709   0.501   6.321 -0.3940 -0.3556  0.1551
 6432SOL    HW130758   3.718   0.589   6.283  1.0982 -1.1583 -1.3423
 6432SOL    HW230759   3.642   0.460   6.265 -0.4551 -0.9116  0.6353
 6433SOL     OW30760   4.449   4.238   9.679  0.1706 -0.6283 -0.2397
 6433SOL    HW130761   4.524   4.186   9.650  0.6052 -0.9557  1.4678
 6433SOL    HW230762   4.392   4.178   9.726 -0.5031  0.4131  0.2635
 6434SOL     OW30763   0.705   2.478  13.553  0.2064  0.6803  0.1992
 6434SOL    HW130764   0.769   2.542  13.584 -0.1390  0.2301  1.8484
 6434SOL    HW230765   0.624   2.512  13.594  0.8731  0.6071  1.5859
 6435SOL     OW30766   2.719   2.004   8.147 -0.2282  0.3677  0.3194
 6435SOL    HW130767   2.784   2.008   8.076 -3.6877 -0.0118 -2.8539
 6435SOL    HW230768   2.690   2.093   8.166 -3.7128 -0.6136 -0.4654
 6436SOL     OW30769   2.802   3.903   2.088 -0.0273 -0.4381 -0.7012
 6436SOL    HW130770   2.751   3.855   2.023 -1.0517  0.3558 -0.4794
 6436SOL    HW230771   2.891   3.878   2.062  0.0167 -0.7537 -0.2331
 6437SOL     OW30772   3.316   2.596   3.867 -0.2232  0.2849 -0.0795
 6437SOL    HW130773   3.394   2.616   3.814 -1.2493  1.3508 -1.2001
 6437SOL    HW230774   3.272   2.680   3.854  0.7099  0.7075 -0.5420
 6438SOL     OW30775   4.639   1.690   4.793 -0.2257 -0.0888 -0.3761
 6438SOL    HW130776   0.001   1.659   4.822 -0.5554 -0.7763 -0.1314
 6438SOL    HW230777   4.618   1.746   4.868 -1.6552 -0.4266 -0.5131
 6439SOL     OW30778   4.544   4.138   8.561 -0.2535 -0.2320  0.4682
 6439SOL    HW130779   4.612   4.145   8.628 -1.7316 -0.7363  2.0327
 6439SOL    HW230780   4.470   4.162   8.616  0.5165 -0.5942  1.6816
 6440SOL     OW30781   0.491   1.215   6.943 -0.5771 -0.1344 -0.9492
 6440SOL    HW130782   0.453   1.140   6.989 -1.1013  0.0570 -1.0697
 6440SOL    HW230783   0.466   1.278   7.011  1.4177  0.0596 -0.4093
 6441SOL     OW30784   2.346   2.987   6.398  0.1945  0.2821 -0.1454
 6441SOL    HW130785   2.264   2.939   6.384  0.8282 -1.3478  1.8445
 6441SOL    HW230786   2.330   3.014   6.488  1.9158  1.1052 -0.0899
 6442SOL     OW30787   1.922   4.549   9.382  0.3269  0.0260  0.7624
 6442SOL    HW130788   1.861   4.497   9.330  0.1973  1.7532 -0.8080
 6442SOL    HW230789   1.978   4.589   9.316 -0.6228  1.9402  1.1282
 6443SOL     OW30790   3.759   2.146   7.140  0.0044  0.7685 -0.1411
 6443SOL    HW130791   3.796   2.220   7.188  0.6722  1.0136 -1.0345
 6443SOL    HW230792   3.781   2.068   7.191 -1.3379 -0.1831 -1.0207
 6444SOL     OW30793   4.320   4.559   9.109  0.3354 -0.3411  0.4419
 6444SOL    HW130794   4.400   4.563   9.058 -0.2333  2.1149 -0.2686
 6444SOL    HW230795   4.335   4.617   9.184 -1.0709  1.1828 -0.4713
 6445SOL     OW30796   2.761   4.294   6.954 -0.1538 -0.0441 -0.9169
 6445SOL    HW130797   2.739   4.309   6.862  0.9504  0.5296 -1.0878
 6445SOL    HW230798   2.680   4.247   6.974 -0.5275  0.6960 -0.7041
 6446SOL     OW30799   2.844   1.924   2.202  0.2937  0.6703  0.4835
 6446SOL    HW130800   2.868   1.876   2.122 -0.9821  0.7226  0.0660
 6446SOL    HW230801   2.760   1.887   2.230  0.0863  1.4344  0.8753
 6447SOL     OW30802   3.643   0.932   5.754 -0.0968 -0.8153 -0.1764
 6447SOL    HW130803   3.725   0.900   5.716 -0.0527 -1.1273  0.1821
 6447SOL    HW230804   3.678   1.008   5.801  2.6545 -3.1700  1.6167
 6448SOL     OW30805   3.535   3.302   3.821  0.4381 -0.3217 -0.0449
 6448SOL    HW130806   3.580   3.230   3.866 -1.0851  0.9628  3.4802
 6448SOL    HW230807   3.455   3.300   3.873 -0.2567  0.0940 -1.0895
 6449SOL     OW30808   2.174   2.367   1.055  0.2595  0.0549 -0.0548
 6449SOL    HW130809   2.188   2.400   0.966  1.6988  0.3990  0.3109
 6449SOL    HW230810   2.211   2.441   1.102  0.1275 -0.2450  0.5242
 6450SOL     OW30811   3.253   0.018   6.528  0.2820  0.1750  0.1657
 6450SOL    HW130812   3.329   4.696   6.492  0.4512 -0.4044  1.2648
 6450SOL    HW230813   3.201   4.668   6.558 -0.9836  0.5265 -1.2258
 6451SOL     OW30814   0.814   3.421   0.703  0.2939 -0.0279  0.1899
 6451SOL    HW130815   0.870   3.496   0.721 -1.6790  1.0043  2.0073
 6451SOL    HW230816   0.829   3.407   0.609  0.4485  2.0564 -0.0894
 6452SOL     OW30817   3.451   0.464  17.395 -0.1875  0.3654  0.5226
 6452SOL    HW130818   3.398   0.539  17.422 -1.8771 -0.0794 -1.5391
 6452SOL    HW230819   3.528   0.478  17.450  0.3744 -2.1177  0.3618
 6453SOL     OW30820   1.556   3.401   7.790  0.6516  0.2518  0.3588
 6453SOL    HW130821   1.535   3.467   7.725  0.2255  1.7292  1.9955
 6453SOL    HW230822   1.495   3.432   7.857  0.6358 -2.2771  1.5145
 6454SOL     OW30823   2.253   3.347   0.831 -0.3309  0.6240 -0.7273
 6454SOL    HW130824   2.341   3.378   0.809 -0.2211 -0.2207 -1.4616
 6454SOL    HW230825   2.234   3.283   0.763  1.2459 -1.4269  0.7675
 6455SOL     OW30826   2.392   0.364   8.997  0.1080 -0.5108  0.1678
 6455SOL    HW130827   2.478   0.340   9.033 -0.7888 -0.7546  2.1351
 6455SOL    HW230828   2.373   0.278   8.958  0.6835 -1.4489  1.9441
 6456SOL     OW30829   0.067   0.997   8.739  0.0831 -0.1561 -0.1741
 6456SOL    HW130830   0.012   1.075   8.740 -0.2500 -0.3949  0.3361
 6456SOL    HW230831   0.153   1.037   8.747 -0.4182  1.0146 -0.8086
 6457SOL     OW30832   4.096   2.443   0.912 -0.7275  0.1235  0.0483
 6457SOL    HW130833   4.145   2.369   0.875  1.1623 -0.2288  3.2638
 6457SOL    HW230834   4.096   2.432   1.007  4.1145 -0.7643 -0.0483
 6458SOL     OW30835   4.028   2.162   5.355 -0.3939  0.0026  0.0620
 6458SOL    HW130836   3.990   2.243   5.320 -1.0562 -0.0384  0.6823
 6458SOL    HW230837   4.120   2.186   5.344 -0.1814 -0.2433  1.3679
 6459SOL     OW30838   1.301   3.659  14.184  1.1152 -0.3382 -0.2406
 6459SOL    HW130839   1.368   3.703  14.235 -0.4223 -0.8282  2.1959
 6459SOL    HW230840   1.300   3.585  14.244 -1.9686  0.1547  0.3194
 6460SOL     OW30841   3.716   0.567  17.039  0.0879 -0.1826 -0.0852
 6460SOL    HW130842   3.666   0.502  17.089 -1.9785  0.1073 -1.7340
 6460SOL    HW230843   3.739   0.522  16.957 -0.2473 -0.9772  0.2579
 6461SOL     OW30844   2.265   2.642   5.409 -0.1122  1.3071  0.4265
 6461SOL    HW130845   2.218   2.681   5.335 -1.4072 -2.3362 -0.7009
 6461SOL    HW230846   2.342   2.624   5.355 -0.5401 -0.8399  0.5499
 6462SOL     OW30847   1.421   0.786   1.944 -0.5676 -0.1853 -0.4598
 6462SOL    HW130848   1.423   0.693   1.924 -0.7284 -0.4060  0.5553
 6462SOL    HW230849   1.337   0.810   1.905 -0.3822  0.9106 -0.1970
 6463SOL     OW30850   0.468   1.723  12.357 -0.3489  0.0066  0.0384
 6463SOL    HW130851   0.542   1.767  12.399 -1.2450  0.9194  0.6958
 6463SOL    HW230852   0.450   1.785  12.286  3.3474  0.0177 -0.8564
 6464SOL     OW30853   3.303   4.392   0.336 -0.2336  0.0105 -0.2127
 6464SOL    HW130854   3.348   4.410   0.419 -1.5826  1.6742  0.1754
 6464SOL    HW230855   3.215   4.407   0.371 -0.5110 -1.5766 -0.2449
 6465SOL     OW30856   2.833   0.663   4.334  0.5986 -0.1192  0.5723
 6465SOL    HW130857   2.802   0.723   4.266  0.0741  1.1120  1.9149
 6465SOL    HW230858   2.892   0.709   4.392  0.3787  0.0593  0.6542
 6466SOL     OW30859   4.202   1.200   8.182 -0.4189  0.3470 -0.2147
 6466SOL    HW130860   4.263   1.126   8.182  0.4791  1.0988 -2.0960
 6466SOL    HW230861   4.247   1.271   8.228 -0.3101  0.2592 -0.1843
 6467SOL     OW30862   0.921   1.843  13.416 -0.0335  0.6857 -0.5612
 6467SOL    HW130863   0.973   1.835  13.496 -0.0234  0.6795 -0.5685
 6467SOL    HW230864   0.976   1.904  13.365 -0.9855  0.5876 -1.7059
 6468SOL     OW30865   2.717   2.275   9.120  0.3980 -0.0046  0.5986
 6468SOL    HW130866   2.765   2.197   9.092  0.9835  0.3270  0.6756
 6468SOL    HW230867   2.707   2.323   9.038  1.2797 -1.8253 -0.5705
 6469SOL     OW30868   3.445   0.944   7.298 -0.0486  0.2772  0.0703
 6469SOL    HW130869   3.386   1.019   7.312 -0.9061 -1.0665  3.7675
 6469SOL    HW230870   3.413   0.919   7.212 -0.5223 -0.8628  0.5747
 6470SOL     OW30871   0.132   0.101   6.995 -0.4439  0.1908  0.1254
 6470SOL    HW130872   0.077   0.032   7.033 -0.0630 -0.1826 -0.0071
 6470SOL    HW230873   0.069   0.139   6.933 -0.5943 -1.6175 -0.8140
 6471SOL     OW30874   0.912   4.567   6.838 -0.1923 -0.4229  0.1640
 6471SOL    HW130875   0.875   4.529   6.917 -0.4742 -0.9615 -0.2253
 6471SOL    HW230876   0.951   4.487   6.802 -0.7369 -0.4627 -0.3453
 6472SOL     OW30877   1.701   2.954   4.250  0.1099 -0.3602 -0.0172
 6472SOL    HW130878   1.615   2.920   4.225  0.2516  0.9959 -2.3504
 6472SOL    HW230879   1.670   2.999   4.329  0.0929 -2.6752  1.2945
 6473SOL     OW30880   2.689   3.156   7.870 -0.2151  0.3061 -0.0701
 6473SOL    HW130881   2.745   3.224   7.906 -1.1576  1.4070 -0.7018
 6473SOL    HW230882   2.713   3.084   7.930 -2.6113 -0.3256  0.1354
 6474SOL     OW30883   4.524   1.083   4.615 -0.2599  0.1034 -0.3046
 6474SOL    HW130884   4.568   1.010   4.658  0.7957  0.3681 -0.9293
 6474SOL    HW230885   4.463   1.032   4.561 -0.1198 -0.0325 -0.3344
 6475SOL     OW30886   1.790   3.492  11.532 -0.4968 -0.4098  0.4776
 6475SOL    HW130887   1.880   3.465  11.511 -1.1506 -0.2204 -2.5749
 6475SOL    HW230888   1.808   3.548  11.608  0.2248  1.5941 -1.1765
 6476SOL     OW30889   1.519   4.150   7.635 -0.6369 -0.1253  0.0864
 6476SOL    HW130890   1.440   4.202   7.653 -0.3300  0.6117 -0.6830
 6476SOL    HW230891   1.550   4.183   7.551 -2.0784  0.8310 -0.0801
 6477SOL     OW30892   3.222   3.935   2.745 -0.1121 -0.5719 -0.3064
 6477SOL    HW130893   3.221   4.014   2.798  2.8608 -1.2213  0.7318
 6477SOL    HW230894   3.316   3.921   2.732 -0.0645  0.4919 -1.0569
 6478SOL     OW30895   0.015   2.188   6.039  0.7832  0.5556 -0.1012
 6478SOL    HW130896   4.645   2.190   6.020  1.0517  1.7553 -1.2247
 6478SOL    HW230897   0.029   2.263   6.097  0.6705 -0.7344  1.5995
 6479SOL     OW30898   2.421   3.973   7.220  0.5358  1.4157 -0.1990
 6479SOL    HW130899   2.434   3.982   7.314 -0.2320 -0.1233  0.0663
 6479SOL    HW230900   2.325   3.973   7.217  0.5271 -1.4613 -0.6655
 6480SOL     OW30901   1.004   3.467   3.811  0.6298  0.0793  0.2756
 6480SOL    HW130902   1.010   3.508   3.897 -0.2641 -0.5188  0.6205
 6480SOL    HW230903   0.911   3.446   3.803  0.5894  0.0100  0.9500
 6481SOL     OW30904   1.620   3.512   4.909 -0.7467 -0.3393 -0.0771
 6481SOL    HW130905   1.669   3.557   4.840  0.0343 -0.5913  0.3139
 6481SOL    HW230906   1.612   3.581   4.975 -1.8194 -0.9168  0.3972
 6482SOL     OW30907   2.989   1.451   2.701 -0.2402 -0.6451  0.0728
 6482SOL    HW130908   3.002   1.418   2.612  2.0710  1.0193 -0.2055
 6482SOL    HW230909   2.965   1.373   2.751 -1.4650  0.3274  0.9879
 6483SOL     OW30910   4.316   3.879   4.039 -0.5822  0.1458  0.0195
 6483SOL    HW130911   4.331   3.935   3.963 -0.3593  1.3803  0.9707
 6483SOL    HW230912   4.326   3.797   3.990 -1.0677 -0.0851  0.3069
 6484SOL     OW30913   1.884   0.158   6.957  0.0839 -0.6209  0.4857
 6484SOL    HW130914   1.935   0.092   6.910 -0.5019 -0.5635 -0.2262
 6484SOL    HW230915   1.844   0.201   6.881  1.6875  1.6614  0.9372
 6485SOL     OW30916   3.515   2.078   4.842  0.1904 -0.1588  0.6057
 6485SOL    HW130917   3.561   1.994   4.848 -0.2287 -0.3304  1.3657
 6485SOL    HW230918   3.581   2.132   4.885  2.1992 -0.3012 -2.3075
 6486SOL     OW30919   2.385   2.588   7.032 -0.2341  0.1337  0.0916
 6486SOL    HW130920   2.442   2.642   6.976  0.3145 -0.3058  0.2285
 6486SOL    HW230921   2.420   2.594   7.121 -1.3880 -1.5920  0.6430
 6487SOL     OW30922   3.434   3.294   4.225  0.4301 -0.1107  0.1392
 6487SOL    HW130923   3.445   3.387   4.203  1.1156  0.1042  1.3538
 6487SOL    HW230924   3.511   3.262   4.178  1.2587  1.0568  0.6778
 6488SOL     OW30925   4.529   2.467   8.942  0.3410 -0.1610  0.4127
 6488SOL    HW130926   4.501   2.550   8.903  1.7119  0.2482  0.2938
 6488SOL    HW230927   4.512   2.478   9.036  0.6576 -0.9562  0.5652
 6489SOL     OW30928   3.639   2.342   7.878  0.1053  0.1364 -0.1188
 6489SOL    HW130929   3.664   2.340   7.970 -0.9996  2.2690  0.2264
 6489SOL    HW230930   3.547   2.368   7.881  0.0272 -0.3935  1.7507
 6490SOL     OW30931   2.620   4.506   9.528  0.2300  0.5893 -0.5561
 6490SOL    HW130932   2.635   4.473   9.439 -0.7426  1.2844 -0.9756
 6490SOL    HW230933   2.627   4.600   9.516  0.1907  0.6471 -0.1419
 6491SOL     OW30934   2.734   2.575   7.428 -0.7880  0.3446  0.4460
 6491SOL    HW130935   2.769   2.533   7.349  0.6539 -0.5397  1.5529
 6491SOL    HW230936   2.643   2.544   7.435 -0.8144  0.6451  1.3662
 6492SOL     OW30937   0.370   2.368   7.044 -0.4526 -0.1002 -0.2765
 6492SOL    HW130938   0.308   2.341   6.976 -0.6938 -0.4330  0.0773
 6492SOL    HW230939   0.357   2.311   7.119  0.7660 -0.1953 -0.1420
 6493SOL     OW30940   2.185   4.214   0.548  0.1733  0.6431  0.3614
 6493SOL    HW130941   2.137   4.214   0.465  1.0959 -1.3442 -0.1900
 6493SOL    HW230942   2.126   4.256   0.610  0.4205  0.1520  0.9243
 6494SOL     OW30943   1.809   4.581   6.131  0.7159 -0.0532  0.1633
 6494SOL    HW130944   1.800   4.505   6.188  2.2770 -1.5217 -1.5153
 6494SOL    HW230945   1.786   4.657   6.183 -1.0574  0.8529 -1.9516
 6495SOL     OW30946   4.191   3.280  17.215 -0.2051 -0.0403 -0.3703
 6495SOL    HW130947   4.190   3.356  17.158 -0.9120  1.0482  1.1137
 6495SOL    HW230948   4.236   3.208  17.169  2.6009  2.0602 -0.8958
 6496SOL     OW30949   4.350   3.208   8.844 -0.8135  0.2123 -0.2623
 6496SOL    HW130950   4.354   3.161   8.761 -0.2079  0.5395 -0.4202
 6496SOL    HW230951   4.394   3.147   8.903 -1.7458 -0.2295 -0.0282
 6497SOL     OW30952   3.786   2.342  13.121  0.6091 -0.6459  0.7517
 6497SOL    HW130953   3.817   2.411  13.180 -2.5839  1.3491  0.1172
 6497SOL    HW230954   3.826   2.264  13.159  1.7296  0.8297  2.6156
 6498SOL     OW30955   3.697   3.187   9.749  0.5598 -0.3620 -0.4009
 6498SOL    HW130956   3.709   3.243   9.826 -0.4974  1.9375 -1.8997
 6498SOL    HW230957   3.614   3.216   9.711  1.5969 -0.2749 -2.5701
 6499SOL     OW30958   0.192   4.422   1.348 -0.1916 -0.2793 -0.2643
 6499SOL    HW130959   0.190   4.333   1.382  0.9116  0.0838  0.7441
 6499SOL    HW230960   0.229   4.464   1.425 -0.4832  0.7652 -0.6809
 6500SOL     OW30961   2.869   1.763   3.394 -0.2602 -0.2526  0.2151
 6500SOL    HW130962   2.927   1.789   3.322 -3.1919  0.5246 -1.8981
 6500SOL    HW230963   2.928   1.729   3.461  1.1383 -0.3402 -1.0586
 6501SOL     OW30964   2.386   2.020  16.802 -0.4737  0.3720 -0.5813
 6501SOL    HW130965   2.367   2.107  16.837  0.6102  0.1853  0.4974
 6501SOL    HW230966   2.455   2.043  16.740 -1.1694  1.0155 -1.1054
 6502SOL     OW30967   4.045   1.764   6.908 -0.2273 -0.3839  0.2667
 6502SOL    HW130968   3.965   1.740   6.955  2.5009 -3.1854  3.5014
 6502SOL    HW230969   4.062   1.682   6.863 -1.5772 -0.2406 -0.5045
 6503SOL     OW30970   1.161   1.200   4.565  0.6170  0.1293 -0.1906
 6503SOL    HW130971   1.191   1.132   4.625  0.9530  0.1401 -0.3439
 6503SOL    HW230972   1.178   1.162   4.479 -0.3893 -2.2029  0.6281
 6504SOL     OW30973   3.234   0.499  12.660 -0.6264  0.2979  0.6376
 6504SOL    HW130974   3.271   0.573  12.709  0.2647  0.3993 -0.1762
 6504SOL    HW230975   3.311   0.459  12.619  0.4381 -0.7589  3.6652
 6505SOL     OW30976   2.528   3.410   8.464  0.1757 -0.1506 -0.3834
 6505SOL    HW130977   2.454   3.367   8.506 -0.4200  1.6927  0.4680
 6505SOL    HW230978   2.539   3.352   8.388 -0.4078 -1.4833  0.5509
 6506SOL     OW30979   1.995   1.398   3.992  0.5138 -0.8156  0.1503
 6506SOL    HW130980   2.070   1.373   3.938  0.1169 -1.7704  0.0321
 6506SOL    HW230981   1.948   1.471   3.951 -0.3740 -2.4790 -1.7895
 6507SOL     OW30982   1.227   2.786   6.170 -0.0099  0.2188 -0.3805
 6507SOL    HW130983   1.240   2.830   6.254  0.6755 -2.4356  0.9027
 6507SOL    HW230984   1.321   2.776   6.151  0.3170  0.8911  0.8282
 6508SOL     OW30985   2.745   1.513   2.192  0.5619  0.5708  0.4782
 6508SOL    HW130986   2.746   1.424   2.226 -1.3580  0.8816  1.3571
 6508SOL    HW230987   2.655   1.524   2.161  1.7587 -0.0475 -3.2379
 6509SOL     OW30988   1.622   2.834   8.616  0.3166  0.3331  0.1324
 6509SOL    HW130989   1.597   2.757   8.667  1.5838 -0.9330 -1.1652
 6509SOL    HW230990   1.717   2.828   8.612  0.2081 -1.1998 -0.2276
 6510SOL     OW30991   3.642   0.850   9.196 -0.1618  0.3976 -0.1234
 6510SOL    HW130992   3.674   0.910   9.264 -0.5191 -0.8773  1.1790
 6510SOL    HW230993   3.665   0.768   9.239  0.0008 -0.4633 -1.8637
 6511SOL     OW30994   0.537   2.309  12.713  0.5890 -0.4006 -0.3560
 6511SOL    HW130995   0.553   2.279  12.802  0.9099  0.8874  0.0120
 6511SOL    HW230996   0.571   2.398  12.711 -0.9558  0.1986  0.4587
 6512SOL     OW30997   2.699   0.555   8.157  0.6202 -0.3440  0.6366
 6512SOL    HW130998   2.638   0.523   8.091  1.6310 -1.4981  0.2577
 6512SOL    HW230999   2.657   0.633   8.194  1.6199 -0.2950  1.6771
 6513SOL     OW31000   2.334   0.524   3.600 -0.2329  0.0325 -0.1502
 6513SOL    HW131001   2.395   0.598   3.593  0.0200 -0.2373 -0.7267
 6513SOL    HW231002   2.258   0.581   3.586 -0.5881 -0.9889 -2.2381
 6514SOL     OW31003   3.907   0.096   7.137 -0.3139 -0.0811  0.0232
 6514SOL    HW131004   3.824   0.056   7.160 -0.9842  0.2708 -1.7504
 6514SOL    HW231005   3.879   0.181   7.103  0.3542  0.1992  0.1712
 6515SOL     OW31006   1.939   3.419  16.822 -0.1008 -0.3701 -0.3025
 6515SOL    HW131007   1.959   3.406  16.729 -0.2260  0.6301 -0.4671
 6515SOL    HW231008   1.905   3.332  16.842 -0.2094 -1.0638 -3.3986
 6516SOL     OW31009   0.661   3.143   6.486 -0.1015  0.0747 -0.3252
 6516SOL    HW131010   0.657   3.144   6.390  2.6799 -1.9387 -0.4616
 6516SOL    HW231011   0.745   3.099   6.500  0.1977  0.3884 -1.1097
 6517SOL     OW31012   1.380   0.489  14.573  0.1174  0.1554  0.1142
 6517SOL    HW131013   1.392   0.584  14.571  4.0393 -0.3300 -0.2158
 6517SOL    HW231014   1.386   0.462  14.481  0.5159 -2.4469  0.8898
 6518SOL     OW31015   2.432   2.901  11.401 -0.3287  0.4388  0.3796
 6518SOL    HW131016   2.500   2.835  11.417  1.1572  1.8291 -0.2449
 6518SOL    HW231017   2.412   2.882  11.309 -0.0747  1.1810  0.1700
 6519SOL     OW31018   3.285   1.599  13.235 -0.2443  0.1076 -0.7567
 6519SOL    HW131019   3.268   1.686  13.199  0.2914  0.8532  0.8263
 6519SOL    HW231020   3.375   1.601  13.202 -0.1197 -1.4750 -0.5339
 6520SOL     OW31021   4.326   0.939   6.119 -0.0839  0.1245 -0.0893
 6520SOL    HW131022   4.388   0.991   6.170  1.0887 -1.7487  0.4148
 6520SOL    HW231023   4.352   0.853   6.152 -2.2845 -0.7006 -0.4932
 6521SOL     OW31024   4.164   4.161   3.086  0.0603 -0.1903  0.1212
 6521SOL    HW131025   4.124   4.247   3.102  0.6477  0.2948 -1.0586
 6521SOL    HW231026   4.182   4.155   2.992 -0.0529  0.0135  0.0863
 6522SOL     OW31027   1.949   2.929  17.361 -0.1381  0.2769  0.0288
 6522SOL    HW131028   1.919   2.962  17.446 -0.9021  0.4416 -0.3162
 6522SOL    HW231029   2.042   2.934  17.387 -0.1599  2.3304 -0.2870
 6523SOL     OW31030   2.577   1.373  16.365  0.0551  0.0455 -0.0482
 6523SOL    HW131031   2.621   1.370  16.450  1.9168  0.5132 -0.9952
 6523SOL    HW231032   2.523   1.294  16.358  1.2822 -0.5096 -2.9589
 6524SOL     OW31033   1.782   3.665  11.733  0.4184  0.3286 -0.3492
 6524SOL    HW131034   1.735   3.743  11.764  0.8089  0.9198 -1.2514
 6524SOL    HW231035   1.863   3.682  11.782 -0.0395 -2.1140  1.2838
 6525SOL     OW31036   0.442   2.053   2.773  0.8509  0.4766 -0.1489
 6525SOL    HW131037   0.365   2.064   2.828  0.9280 -1.1123  0.2633
 6525SOL    HW231038   0.488   2.137   2.777  1.4124  0.0942  1.4869
 6526SOL     OW31039   1.068   3.996   6.119  0.4341 -0.5458 -0.1640
 6526SOL    HW131040   1.116   4.066   6.075 -2.3428  0.2734 -1.8453
 6526SOL    HW231041   1.065   4.022   6.212  1.6622  0.6605 -0.4618
 6527SOL     OW31042   0.695   0.454   3.350 -0.8980  0.4082  1.0804
 6527SOL    HW131043   0.672   0.363   3.331 -2.8825  1.3898 -1.2325
 6527SOL    HW231044   0.781   0.445   3.390  0.0102  0.9752 -0.7236
 6528SOL     OW31045   4.651   3.689   3.640  0.7629  0.2816 -0.4724
 6528SOL    HW131046   4.672   3.660   3.551  0.9796 -0.3879 -0.2027
 6528SOL    HW231047   4.700   3.632   3.699 -0.9972 -1.8341 -1.0452
 6529SOL     OW31048   2.771   1.322  12.135 -0.6057  0.0964  0.1280
 6529SOL    HW131049   2.785   1.317  12.040 -0.5654 -0.4678  0.1644
 6529SOL    HW231050   2.751   1.414  12.153  1.0760  0.7552 -1.3219
 6530SOL     OW31051   0.333   2.953   9.102 -0.3765 -0.4295  0.0864
 6530SOL    HW131052   0.377   3.037   9.093  1.0407 -0.9745  1.7668
 6530SOL    HW231053   0.396   2.884   9.122 -0.2904 -1.0867 -2.4689
 6531SOL     OW31054   0.235   3.526   8.186  0.3295 -0.5570  0.3287
 6531SOL    HW131055   0.323   3.493   8.206  1.6551  1.7210 -1.6846
 6531SOL    HW231056   0.198   3.459   8.129 -1.0370 -1.0808  1.8524
 6532SOL     OW31057   0.894   0.585   5.211  0.7834 -0.0096  0.1657
 6532SOL    HW131058   0.857   0.500   5.232  0.6577  0.0178  0.0506
 6532SOL    HW231059   0.936   0.560   5.129 -0.0099  0.7489 -0.4691
 6533SOL     OW31060   2.371   2.153   1.003 -0.1572 -0.1381 -0.7441
 6533SOL    HW131061   2.409   2.132   1.088  1.1751  3.0286 -0.5401
 6533SOL    HW231062   2.324   2.234   1.021  0.3765 -0.3654  1.6331
 6534SOL     OW31063   4.370   1.599   7.010  0.1927  0.2247  0.1423
 6534SOL    HW131064   4.431   1.670   6.988 -1.5335  2.2090  1.8747
 6534SOL    HW231065   4.373   1.538   6.936 -0.0536 -1.4280  1.5084
 6535SOL     OW31066   0.868   2.047   5.678 -0.3177  0.1710 -0.0875
 6535SOL    HW131067   0.923   2.043   5.757 -0.3288  2.1475  0.0017
 6535SOL    HW231068   0.776   2.043   5.706 -0.1335 -0.5338  0.4373
 6536SOL     OW31069   1.776   3.043  12.321  0.1766  0.1628 -0.0803
 6536SOL    HW131070   1.746   2.955  12.344 -0.1800 -0.3755 -2.5551
 6536SOL    HW231071   1.722   3.059  12.243  2.8552  0.0186 -1.9473
 6537SOL     OW31072   2.504   3.572  15.868  0.0551  0.5238 -0.4707
 6537SOL    HW131073   2.410   3.579  15.853  0.1289  2.4909 -0.0187
 6537SOL    HW231074   2.506   3.569  15.964 -1.2912  1.1538 -0.4158
 6538SOL     OW31075   1.602   4.506   3.796  0.1776  0.0680  0.1538
 6538SOL    HW131076   1.524   4.517   3.742 -1.6100  0.7054  2.8711
 6538SOL    HW231077   1.618   4.594   3.830  1.0306 -0.2245  0.5264
 6539SOL     OW31078   3.383   1.204   6.575 -0.3060 -0.3301 -0.1164
 6539SOL    HW131079   3.408   1.131   6.632 -1.8297 -0.1735  0.7797
 6539SOL    HW231080   3.464   1.227   6.531  0.5402  0.1581  1.6730
 6540SOL     OW31081   3.470   3.261  12.811 -0.5351  0.4495 -0.3437
 6540SOL    HW131082   3.382   3.297  12.821 -1.4344 -1.3801 -1.8144
 6540SOL    HW231083   3.509   3.308  12.885 -1.6500 -0.0514  0.5505
 6541SOL     OW31084   4.085   2.328  14.775  0.7304  0.2830 -0.1086
 6541SOL    HW131085   4.136   2.263  14.728  0.0583 -0.1192 -0.2735
 6541SOL    HW231086   4.078   2.394  14.706 -1.9261 -1.3088 -1.3374
 6542SOL     OW31087   3.674   4.716   8.417  0.3825 -0.0028 -0.3735
 6542SOL    HW131088   3.625   4.644   8.457  0.3166 -0.7380 -1.7645
 6542SOL    HW231089   3.607   0.042   8.370 -1.1122 -0.8876  0.8226
 6543SOL     OW31090   4.663   4.328   2.727  0.4204 -0.1577 -0.1232
 6543SOL    HW131091   4.666   4.412   2.681  0.0722 -0.2595 -0.3321
 6543SOL    HW231092   4.717   4.277   2.667 -0.5385 -2.1290  0.6824
 6544SOL     OW31093   4.053   4.708   7.634 -0.4440  0.1186  0.6934
 6544SOL    HW131094   4.140   0.007   7.666 -0.4921  0.9910  0.1782
 6544SOL    HW231095   4.063   4.721   7.540 -1.0393 -0.9718  0.4771
 6545SOL     OW31096   2.136   0.818  12.466  0.1577 -0.3293 -0.0673
 6545SOL    HW131097   2.048   0.845  12.492  0.6962  3.4118 -2.0300
 6545SOL    HW231098   2.179   0.820  12.551  1.7456 -0.8142 -0.8577
 6546SOL     OW31099   4.515   1.755   7.484 -0.6401  0.6375 -0.2914
 6546SOL    HW131100   4.565   1.794   7.556 -0.3250 -1.6846  0.7540
 6546SOL    HW231101   4.582   1.694   7.454 -1.2865  0.2250 -0.8901
 6547SOL     OW31102   2.959   1.611   7.941  0.1075  0.1068 -0.3445
 6547SOL    HW131103   2.924   1.656   7.864 -1.7698 -0.6898  0.0352
 6547SOL    HW231104   3.033   1.562   7.906 -0.3978 -0.3648 -0.7467
 6548SOL     OW31105   1.858   0.323   4.976  0.1676 -0.6012  0.1495
 6548SOL    HW131106   1.907   0.270   5.039 -1.3556 -0.2704  1.5923
 6548SOL    HW231107   1.929   0.382   4.951  0.7079 -1.2618  0.1237
 6549SOL     OW31108   1.332   2.491  15.702 -0.1346  0.1662 -0.0276
 6549SOL    HW131109   1.366   2.443  15.627 -1.6650 -0.5802 -0.2423
 6549SOL    HW231110   1.403   2.477  15.765  0.7175  1.2063 -0.7551
 6550SOL     OW31111   2.429   4.238  10.933  0.1330 -0.3828  0.5862
 6550SOL    HW131112   2.495   4.294  10.972  0.3191 -1.6133  2.0034
 6550SOL    HW231113   2.458   4.241  10.841 -0.6444 -1.7026  0.2967
 6551SOL     OW31114   0.124   2.393   2.826 -0.0819 -0.5384 -0.4554
 6551SOL    HW131115   0.134   2.301   2.848 -3.1269 -0.5109  1.1303
 6551SOL    HW231116   0.150   2.388   2.734  0.4583 -0.3764 -0.3084
 6552SOL     OW31117   3.739   4.565   9.024  0.1619 -0.4122  0.1360
 6552SOL    HW131118   3.739   4.598   8.934  1.1025 -0.2796  0.1889
 6552SOL    HW231119   3.825   4.594   9.054  0.1629  0.3326 -0.5761
 6553SOL     OW31120   1.089   2.152   9.639 -0.0400  0.7785 -0.0501
 6553SOL    HW131121   1.119   2.198   9.560 -0.7624  1.3204 -0.0035
 6553SOL    HW231122   1.110   2.215   9.709  0.1972  0.0024  0.5827
 6554SOL     OW31123   1.322   3.793   5.304 -0.0617  0.5041 -0.6895
 6554SOL    HW131124   1.392   3.841   5.349 -2.2762  3.7343 -0.6282
 6554SOL    HW231125   1.349   3.702   5.314 -0.2491  0.5304  0.0592
 6555SOL     OW31126   2.672   1.708   4.105 -0.0129  0.4449 -0.1983
 6555SOL    HW131127   2.738   1.764   4.146  0.2552  0.6665 -0.9323
 6555SOL    HW231128   2.735   1.640   4.081 -0.4969 -0.2733  0.5736
 6556SOL     OW31129   3.631   1.387   2.131  0.1704 -0.0388 -0.1217
 6556SOL    HW131130   3.584   1.347   2.204  0.4021 -1.4314 -0.7203
 6556SOL    HW231131   3.715   1.404   2.173 -0.1574  2.3264 -0.4401
 6557SOL     OW31132   0.778   2.453   8.745  0.6093 -0.7422  0.3392
 6557SOL    HW131133   0.828   2.458   8.827  0.0919 -1.0782  0.6739
 6557SOL    HW231134   0.702   2.397   8.761 -0.3429  0.6581  0.6895
 6558SOL     OW31135   2.800   2.299   4.117  0.5404 -0.3142 -0.0932
 6558SOL    HW131136   2.722   2.325   4.068  0.9769  0.5039 -0.3708
 6558SOL    HW231137   2.867   2.292   4.049  1.1587  2.4384  0.2094
 6559SOL     OW31138   1.870   2.289  17.387  0.1776  0.3907 -0.5101
 6559SOL    HW131139   1.931   2.217  17.402  0.3354  0.6392  0.0519
 6559SOL    HW231140   1.873   2.319  17.296  1.9821  2.2863  0.1590
 6560SOL     OW31141   3.907   1.130   1.321  0.0954 -0.8986 -0.7846
 6560SOL    HW131142   3.833   1.096   1.371  0.7049 -1.4787 -0.2719
 6560SOL    HW231143   3.979   1.139   1.383  0.2675 -1.0119 -0.9700
 6561SOL     OW31144   3.425   4.551   7.804  0.5290 -0.5051  0.4514
 6561SOL    HW131145   3.354   4.529   7.743  0.6175 -0.2626  0.2614
 6561SOL    HW231146   3.493   4.489   7.775  1.0719  0.3808 -0.1692
 6562SOL     OW31147   3.888   0.239   6.219 -0.4438 -0.0332  0.1966
 6562SOL    HW131148   3.848   0.196   6.143 -0.0277 -1.6512  0.9034
 6562SOL    HW231149   3.824   0.220   6.287  0.2776 -2.4725  0.1904
 6563SOL     OW31150   3.001   1.476   3.134  0.1199 -0.1191  0.4084
 6563SOL    HW131151   2.994   1.542   3.065  1.6692 -1.8405 -1.4237
 6563SOL    HW231152   2.979   1.408   3.071 -0.4364 -1.6667  2.2958
 6564SOL     OW31153   1.759   4.265   3.914 -0.0579 -0.1590  0.5256
 6564SOL    HW131154   1.788   4.302   3.998 -2.3410  0.6618  0.9705
 6564SOL    HW231155   1.714   4.340   3.876 -1.5572  0.5476  3.6563
 6565SOL     OW31156   3.917   3.589  12.814  0.0257 -0.1807 -0.2406
 6565SOL    HW131157   4.006   3.556  12.825  0.0531  0.9163  2.6612
 6565SOL    HW231158   3.927   3.681  12.837  0.1112 -0.6237  1.4266
 6566SOL     OW31159   3.181   1.936   9.089  0.1913 -0.3742  0.3055
 6566SOL    HW131160   3.207   1.998   9.158  1.0495  1.5518 -1.7332
 6566SOL    HW231161   3.254   1.941   9.027  0.4156 -0.8168  0.5398
 6567SOL     OW31162   4.191   1.762   0.500 -0.1296 -0.2350 -0.1677
 6567SOL    HW131163   4.261   1.699   0.482  1.3427  0.8904  1.6576
 6567SOL    HW231164   4.223   1.802   0.580  0.1316 -1.7438  0.4972
 6568SOL     OW31165   3.368   2.463  13.375 -0.5016  0.7650  0.2614
 6568SOL    HW131166   3.396   2.510  13.297 -0.6484 -0.5988 -0.6018
 6568SOL    HW231167   3.295   2.404  13.355  1.7516 -2.1765  0.6700
 6569SOL     OW31168   2.282   2.054   3.275  0.1241 -0.0746  0.4506
 6569SOL    HW131169   2.202   2.107   3.270 -0.5297 -0.8551  2.6353
 6569SOL    HW231170   2.349   2.123   3.273 -0.5811  0.5894 -0.2323
 6570SOL     OW31171   2.278   2.502   0.847  0.1190 -0.1746 -0.1180
 6570SOL    HW131172   2.360   2.457   0.868  0.9498  1.0427 -0.7534
 6570SOL    HW231173   2.306   2.586   0.810 -0.4991  0.1937  0.2453
 6571SOL     OW31174   1.291   1.670   6.220  0.7151 -0.0351 -0.5272
 6571SOL    HW131175   1.243   1.634   6.145  0.2858  0.7285 -0.6313
 6571SOL    HW231176   1.376   1.687   6.179  0.9153  1.0504  0.3341
 6572SOL     OW31177   1.699   0.514  12.732 -0.2085  0.0250 -0.4063
 6572SOL    HW131178   1.615   0.469  12.740 -1.7126  2.7818 -0.6245
 6572SOL    HW231179   1.759   0.461  12.784 -2.3092 -0.7588  1.2352
 6573SOL     OW31180   0.298   0.069  11.894 -0.1505 -0.6547  0.0809
 6573SOL    HW131181   0.246   0.065  11.814 -1.4562 -0.7266  0.9355
 6573SOL    HW231182   0.320   0.162  11.889  2.4200 -1.2067  0.9360
 6574SOL     OW31183   1.728   3.516   3.184  0.4353  0.4147  0.2057
 6574SOL    HW131184   1.712   3.551   3.096  1.4363  1.0984  0.2918
 6574SOL    HW231185   1.656   3.454   3.191  0.2063  0.9790  2.7992
 6575SOL     OW31186   2.712   3.694   4.676 -0.2064  0.2635 -0.2330
 6575SOL    HW131187   2.649   3.753   4.634  0.9459  0.5133 -1.5997
 6575SOL    HW231188   2.685   3.614   4.632 -0.1304  0.4862 -0.6933
 6576SOL     OW31189   2.051   1.809   7.435  0.7599  0.2282  0.1707
 6576SOL    HW131190   2.037   1.724   7.477  0.1632 -0.5937 -1.7130
 6576SOL    HW231191   2.047   1.791   7.341 -2.6888  1.0262  0.1680
 6577SOL     OW31192   1.977   0.316   8.037 -0.2547  0.8464  0.7162
 6577SOL    HW131193   2.020   0.302   7.952 -1.2570 -0.2375  0.3990
 6577SOL    HW231194   2.053   0.298   8.093 -0.2807 -0.9584  0.1654
 6578SOL     OW31195   1.652   2.186   2.564  0.1723 -0.5111  0.1801
 6578SOL    HW131196   1.601   2.156   2.488 -0.7896  1.5475 -0.0041
 6578SOL    HW231197   1.637   2.115   2.625  3.4543 -3.0805 -2.0095
 6579SOL     OW31198   2.707   4.084   6.013  0.6625 -0.0493  0.2961
 6579SOL    HW131199   2.709   4.148   5.941  3.8894  0.6128  0.9957
 6579SOL    HW231200   2.798   4.097   6.040  0.4034  0.1402  1.0654
 6580SOL     OW31201   4.033   3.599   8.291 -0.1370  0.3211  0.2055
 6580SOL    HW131202   4.063   3.545   8.218  0.7531  0.5622  0.3869
 6580SOL    HW231203   4.068   3.549   8.365  1.5602 -1.2947 -1.6862
 6581SOL     OW31204   0.478   1.025   3.016  0.1083 -0.1011 -0.0330
 6581SOL    HW131205   0.508   1.001   3.104 -2.2205 -0.6033  0.6443
 6581SOL    HW231206   0.560   1.060   2.982 -1.0502  1.1751 -1.4904
 6582SOL     OW31207   0.245   3.894   3.426  0.4204  0.2640  0.0007
 6582SOL    HW131208   0.259   3.873   3.519 -1.7092  1.0157  0.5051
 6582SOL    HW231209   0.295   3.826   3.382  0.2694 -0.1728  0.5059
 6583SOL     OW31210   4.556   0.189   9.000  0.0365  0.2361  0.2165
 6583SOL    HW131211   4.466   0.172   9.027 -0.2056 -1.3936 -1.5475
 6583SOL    HW231212   4.558   0.282   9.019  0.5043  0.0635  0.9789
 6584SOL     OW31213   1.032   4.569  15.338 -0.3501  0.6077  0.1819
 6584SOL    HW131214   0.964   4.591  15.275  1.0570  2.3844 -0.6921
 6584SOL    HW231215   1.063   4.650  15.378 -1.1180  0.7028  0.6022
 6585SOL     OW31216   3.580   2.748   4.016  0.1439 -0.5748  0.1193
 6585SOL    HW131217   3.627   2.813   4.069 -0.3743 -0.2766  0.2187
 6585SOL    HW231218   3.511   2.723   4.078  0.6333 -0.1857  0.8227
 6586SOL     OW31219   1.162   2.296   8.786 -0.3409 -0.2985 -0.6512
 6586SOL    HW131220   1.253   2.282   8.759  0.2237 -1.7623  1.9572
 6586SOL    HW231221   1.126   2.214   8.752 -1.4232  0.2785 -0.8870
 6587SOL     OW31222   4.146   1.513   5.829  0.3042  0.2738 -0.4444
 6587SOL    HW131223   4.126   1.569   5.754  0.3495 -0.0467 -0.6958
 6587SOL    HW231224   4.167   1.587   5.885 -4.0932  0.7573  0.5719
 6588SOL     OW31225   1.991   1.152   5.162  0.1152 -0.1895  0.1024
 6588SOL    HW131226   1.940   1.216   5.211 -1.1971 -2.2732  1.4865
 6588SOL    HW231227   2.073   1.140   5.211  1.2164  0.1649 -1.6611
 6589SOL     OW31228   4.581   0.930   9.329  0.1202 -0.5917  0.0429
 6589SOL    HW131229   4.542   0.954   9.413 -1.8159  0.7008 -1.2231
 6589SOL    HW231230   4.555   0.838   9.329 -2.5793  0.1499  0.8525
 6590SOL     OW31231   3.375   1.348   3.947  0.3105  0.1158 -0.6893
 6590SOL    HW131232   3.302   1.362   4.007  0.8480 -0.2132  0.0359
 6590SOL    HW231233   3.438   1.413   3.979  1.7496 -0.8249 -1.5905
 6591SOL     OW31234   1.478   3.470   8.952  0.0518  0.6301 -0.1281
 6591SOL    HW131235   1.505   3.379   8.965  1.5136  0.9716 -0.7425
 6591SOL    HW231236   1.451   3.465   8.860  0.1435  0.5401 -0.1510
 6592SOL     OW31237   1.745   2.772  12.528  0.0957  0.0071  0.1202
 6592SOL    HW131238   1.762   2.703  12.593 -2.0559  0.0611  0.7254
 6592SOL    HW231239   1.791   2.848  12.564  3.5206 -2.3492  0.7747
 6593SOL     OW31240   2.597   0.653   3.387  0.2662  0.0929  0.4889
 6593SOL    HW131241   2.548   0.690   3.460  1.5013  0.9323  0.8982
 6593SOL    HW231242   2.598   0.724   3.322 -1.9514 -0.4999 -0.1845
 6594SOL     OW31243   1.244   1.071   8.240  0.4110  0.1488  0.0361
 6594SOL    HW131244   1.185   1.007   8.279  0.5930  0.4277  0.7687
 6594SOL    HW231245   1.325   1.022   8.226 -0.9677 -1.8358 -0.9722
 6595SOL     OW31246   2.442   1.579   3.696  0.2907 -0.0239 -0.4634
 6595SOL    HW131247   2.373   1.582   3.629 -0.6384 -0.9128  0.4641
 6595SOL    HW231248   2.508   1.534   3.643  0.2516 -1.9936  1.1843
 6596SOL     OW31249   4.130   3.385   3.019 -0.2523  0.0421 -0.3252
 6596SOL    HW131250   4.153   3.476   3.000  2.1035  0.1131  2.8001
 6596SOL    HW231251   4.215   3.357   3.053  0.0176  0.0741 -0.9634
 6597SOL     OW31252   4.713   1.939   5.174  0.2411 -0.3686  0.4195
 6597SOL    HW131253   0.085   1.933   5.178  0.1876 -2.6310 -2.3726
 6597SOL    HW231254   4.683   1.970   5.260 -1.9627  1.7530 -1.1276
 6598SOL     OW31255   4.070   3.793  16.585  0.0883  0.1472  0.1629
 6598SOL    HW131256   4.142   3.853  16.566  0.3197 -0.3633 -0.5561
 6598SOL    HW231257   4.045   3.774  16.494  0.1561 -0.7493  0.3282
 6599SOL     OW31258   0.284   2.712   1.999 -0.2352  0.1311 -0.7033
 6599SOL    HW131259   0.199   2.741   2.032 -0.0612 -1.9555  1.6581
 6599SOL    HW231260   0.309   2.778   1.935  0.4113  2.9067  2.3592
 6600SOL     OW31261   4.249   1.850   2.562  0.2472  0.2713 -0.2445
 6600SOL    HW131262   4.243   1.871   2.655  0.6716 -3.5154  0.6643
 6600SOL    HW231263   4.237   1.755   2.566 -0.8306  0.4527  0.9770
 6601SOL     OW31264   4.088   0.515   4.169  0.1245  0.2688 -0.1214
 6601SOL    HW131265   4.105   0.512   4.263 -1.9607 -0.4681  0.2246
 6601SOL    HW231266   4.032   0.437   4.172  0.2197  0.1479 -1.2930
 6602SOL     OW31267   2.460   0.038   8.721  0.1782  0.1824 -0.0437
 6602SOL    HW131268   2.542   0.086   8.721 -0.0089  0.4983 -0.0808
 6602SOL    HW231269   2.427   0.067   8.806 -2.3699 -1.7946 -0.3543
 6603SOL     OW31270   0.468   3.429  14.368 -0.1749  0.4176 -0.0326
 6603SOL    HW131271   0.549   3.383  14.347  0.8422  2.1389  0.0793
 6603SOL    HW231272   0.406   3.368  14.329  0.0330 -0.1951  0.6127
 6604SOL     OW31273   1.333   3.159   8.492 -0.0753  0.4366 -0.3342
 6604SOL    HW131274   1.370   3.130   8.576 -0.7415 -0.7937 -0.4656
 6604SOL    HW231275   1.264   3.094   8.482  1.5492 -1.5111  0.8954
 6605SOL     OW31276   3.808   1.209   7.929  0.6004 -0.4589 -0.1265
 6605SOL    HW131277   3.877   1.265   7.965 -0.2538  0.6912 -0.2851
 6605SOL    HW231278   3.837   1.130   7.976  0.9296 -0.9105 -1.0913
 6606SOL     OW31279   1.065   1.611   4.454  0.6200  0.2283 -0.3839
 6606SOL    HW131280   1.039   1.520   4.466 -0.6573  0.4555 -1.3678
 6606SOL    HW231281   1.158   1.604   4.478  0.5168 -0.2728 -0.1478
 6607SOL     OW31282   2.693   1.900   7.554  0.1347  0.0438 -0.1499
 6607SOL    HW131283   2.768   1.940   7.509 -0.5280  0.9767 -0.4369
 6607SOL    HW231284   2.627   1.880   7.487 -0.8300  0.6612  0.6153
 6608SOL     OW31285   3.057   3.685  11.855  0.2183  0.8458 -0.0323
 6608SOL    HW131286   3.046   3.780  11.861  0.1952  0.6554  3.0291
 6608SOL    HW231287   3.050   3.667  11.761 -2.4590  1.7558 -0.0049
 6609SOL     OW31288   1.350   0.335   6.863 -0.5816 -0.2533  0.1179
 6609SOL    HW131289   1.380   0.275   6.931 -1.1507  1.4137  1.8586
 6609SOL    HW231290   1.255   0.322   6.858 -0.7960  1.5303 -0.4939
 6610SOL     OW31291   0.431   3.427   6.688  0.3647  0.4878  0.0003
 6610SOL    HW131292   0.491   3.457   6.620  1.9390  0.2106  1.2798
 6610SOL    HW231293   0.378   3.365   6.637 -0.1028 -0.2548  1.3835
 6611SOL     OW31294   0.923   0.863   6.300 -0.4480  0.3273  0.2972
 6611SOL    HW131295   0.966   0.784   6.267  1.7357  1.3991  0.5705
 6611SOL    HW231296   0.837   0.825   6.318  0.5239 -1.4696  1.0042
 6612SOL     OW31297   4.652   4.680   6.260  0.2672  0.1487  0.1029
 6612SOL    HW131298   4.584   4.643   6.316 -1.2647 -1.1673 -2.6347
 6612SOL    HW231299   4.615   0.044   6.249  1.5134  0.5964 -0.5105
 6613SOL     OW31300   2.608   1.252   7.010  0.0613  0.0169 -0.0343
 6613SOL    HW131301   2.587   1.182   6.949 -0.4042  1.4427 -1.5300
 6613SOL    HW231302   2.697   1.225   7.032 -0.0502 -2.7762 -3.1017
 6614SOL     OW31303   4.606   0.221   3.886  0.0193 -0.2059  0.3033
 6614SOL    HW131304   4.665   0.161   3.932  0.9446  0.6970  0.2948
 6614SOL    HW231305   4.587   0.285   3.954 -1.8149  0.7288 -1.0813
 6615SOL     OW31306   1.689   1.925  13.729  0.5887  0.4006 -0.6227
 6615SOL    HW131307   1.615   1.949  13.673  0.3229  2.5367  0.6307
 6615SOL    HW231308   1.645   1.866  13.791  1.5552  0.2494 -0.0736
 6616SOL     OW31309   4.609   1.977   0.580  0.0796 -0.8418 -0.3144
 6616SOL    HW131310   4.539   1.986   0.514  0.2768  1.1770 -0.2491
 6616SOL    HW231311   4.665   1.909   0.543 -2.1367 -2.4365 -0.7728
 6617SOL     OW31312   2.048   2.979   4.882  0.0482 -0.1179 -0.3740
 6617SOL    HW131313   2.128   2.983   4.934 -0.2668 -0.4845  0.1387
 6617SOL    HW231314   2.075   3.019   4.799  1.1685 -0.2138 -0.0562
 6618SOL     OW31315   0.315   4.708   8.819 -0.2437  0.3483 -0.1673
 6618SOL    HW131316   0.319   4.721   8.913  0.5400  0.3719 -0.2038
 6618SOL    HW231317   0.224   4.699   8.792 -0.7009 -0.8316  1.8224
 6619SOL     OW31318   4.084   0.452   0.901  0.1283  0.0168  0.1092
 6619SOL    HW131319   4.048   0.534   0.934  1.2643  0.1867  0.9294
 6619SOL    HW231320   4.043   0.396   0.966  2.2032  1.1897  2.4330
 6620SOL     OW31321   3.320   1.159   1.586 -0.5944 -0.5241 -0.0140
 6620SOL    HW131322   3.232   1.121   1.576 -0.3391 -0.9579 -0.6417
 6620SOL    HW231323   3.307   1.252   1.601  0.6207 -0.6243  1.6827
 6621SOL     OW31324   0.437   0.605  16.918 -0.0541  0.0861 -0.0474
 6621SOL    HW131325   0.448   0.665  16.845 -0.4553  1.9881  1.4388
 6621SOL    HW231326   0.529   0.582  16.930 -0.2546  0.1735  1.7365
 6622SOL     OW31327   0.164   0.549   6.300 -0.2740  0.7094  0.0882
 6622SOL    HW131328   0.199   0.603   6.230  1.2817  0.7773  0.9228
 6622SOL    HW231329   0.219   0.575   6.374  1.2099 -1.1247 -0.3865
 6623SOL     OW31330   1.353   2.766  17.444 -0.2451  0.1353 -0.1587
 6623SOL    HW131331   1.421   2.779  17.377  0.7479 -0.1598  0.7868
 6623SOL    HW231332   1.412   2.743  17.516 -0.5509 -0.4016 -0.0884
 6624SOL     OW31333   4.205   0.847  10.078  0.3898 -0.4452  0.1704
 6624SOL    HW131334   4.195   0.837   9.983  2.0183 -0.6612  0.0165
 6624SOL    HW231335   4.141   0.785  10.112 -1.6842  1.0612 -1.0210
 6625SOL     OW31336   0.180   4.536  14.190 -0.3122 -0.4807 -0.7487
 6625SOL    HW131337   0.233   4.466  14.152 -0.3306 -0.0737 -1.5146
 6625SOL    HW231338   0.240   4.610  14.181  0.4721 -1.1558 -1.0844
 6626SOL     OW31339   0.166   0.559  16.477  0.2194  1.2236  0.2798
 6626SOL    HW131340   0.245   0.574  16.529  1.5934 -0.7578 -1.2580
 6626SOL    HW231341   0.096   0.584  16.538 -2.6471 -1.3535 -2.0317
 6627SOL     OW31342   4.609   0.277   8.165  0.5099  0.0348 -0.3107
 6627SOL    HW131343   4.629   0.245   8.253 -1.2629 -0.2850 -0.0378
 6627SOL    HW231344   4.696   0.266   8.126  0.0123  0.4389 -1.5452
 6628SOL     OW31345   0.622   1.233   4.658 -0.1700  0.1258  0.1395
 6628SOL    HW131346   0.698   1.187   4.695 -0.3119 -0.1027  0.1460
 6628SOL    HW231347   0.563   1.250   4.731  0.4230  0.0636  0.6372
 6629SOL     OW31348   1.023   4.316   8.730 -0.0818  0.3259 -0.2913
 6629SOL    HW131349   1.049   4.402   8.698 -0.0605 -0.2719 -1.8755
 6629SOL    HW231350   0.932   4.340   8.751 -1.7481 -2.6239 -4.1875
 6630SOL     OW31351   1.579   1.732   6.168 -0.6213  0.0230  0.4076
 6630SOL    HW131352   1.581   1.761   6.259 -1.8334 -0.9682  0.7476
 6630SOL    HW231353   1.574   1.811   6.113 -1.9882  0.8706  1.7571
 6631SOL     OW31354   3.640   2.305   4.623  0.0236  0.0817 -0.9080
 6631SOL    HW131355   3.633   2.349   4.708  2.9614 -1.2297  0.0020
 6631SOL    HW231356   3.734   2.306   4.606 -0.0258  1.8796 -1.1167
 6632SOL     OW31357   4.004   3.116   0.525 -0.0477  0.2362  0.4711
 6632SOL    HW131358   4.023   3.192   0.470 -0.1123  0.0767  0.2272
 6632SOL    HW231359   3.932   3.148   0.579  0.8245  1.5036  0.9005
 6633SOL     OW31360   2.771   0.530   4.625 -0.1133 -0.1985  0.2669
 6633SOL    HW131361   2.842   0.471   4.599 -0.5579 -1.0564  1.0040
 6633SOL    HW231362   2.790   0.528   4.719  1.1477  1.9384  0.0533
 6634SOL     OW31363   2.915   0.800   0.055  0.4545  0.1560  0.0322
 6634SOL    HW131364   2.879   0.866  17.693 -0.9168 -0.3919  0.2524
 6634SOL    HW231365   2.841   0.742   0.071 -0.5146  0.7032 -2.4240
 6635SOL     OW31366   3.521   0.194   2.105 -0.2985 -0.0675  0.0416
 6635SOL    HW131367   3.544   0.197   2.012  0.8806  0.2118  0.3390
 6635SOL    HW231368   3.519   0.287   2.129  1.9702 -0.3906  1.4717
 6636SOL     OW31369   0.255   1.116   4.637  0.0813  0.0242  0.3107
 6636SOL    HW131370   0.232   1.168   4.560  0.0354 -1.0962 -0.4366
 6636SOL    HW231371   0.334   1.067   4.615 -0.1631 -0.4271  0.4372
 6637SOL     OW31372   1.635   1.303  17.568  0.4718 -0.1427 -0.5413
 6637SOL    HW131373   1.678   1.228  17.527 -1.6472 -1.7184  0.1047
 6637SOL    HW231374   1.678   1.316  17.653 -1.2674 -1.2299  0.5126
 6638SOL     OW31375   3.439   4.476  10.075 -0.2876 -0.5511 -0.4252
 6638SOL    HW131376   3.415   4.562  10.041  1.8529  0.6066  0.9445
 6638SOL    HW231377   3.358   4.448  10.118  1.8347 -4.1565  1.2332
 6639SOL     OW31378   3.840   2.211   0.792 -0.1706 -0.4600  0.0317
 6639SOL    HW131379   3.897   2.141   0.761  1.5310  0.6625  0.6464
 6639SOL    HW231380   3.856   2.283   0.731 -0.0063 -0.2995  0.2641
 6640SOL     OW31381   2.307   1.058   4.331 -0.1454  0.4922  0.4618
 6640SOL    HW131382   2.300   1.048   4.236 -0.2714  0.3846  0.4818
 6640SOL    HW231383   2.222   1.079   4.370  0.0729 -0.7193  1.5879
 6641SOL     OW31384   3.172   4.397  12.836  0.0088 -0.2757 -0.7689
 6641SOL    HW131385   3.251   4.429  12.880 -0.1568 -0.8620 -0.0409
 6641SOL    HW231386   3.216   4.345  12.769 -0.3556  0.6615 -1.7321
 6642SOL     OW31387   1.930   0.958  16.181  0.1769  0.3968  0.2201
 6642SOL    HW131388   1.935   0.863  16.176  0.9762  0.4572 -0.1158
 6642SOL    HW231389   1.873   0.986  16.109 -1.2505 -0.7626  0.8990
 6643SOL     OW31390   3.943   4.416   7.098 -0.4910 -0.3654 -0.3698
 6643SOL    HW131391   4.035   4.445   7.097  0.7637 -4.3497 -1.0270
 6643SOL    HW231392   3.944   4.360   7.176  0.5533  0.5723  0.2971
 6644SOL     OW31393   2.303   2.875   7.351 -0.0791  0.0436 -0.4295
 6644SOL    HW131394   2.240   2.865   7.422 -0.2636  0.4585 -0.5381
 6644SOL    HW231395   2.328   2.967   7.351  1.3399 -0.3312  0.6950
 6645SOL     OW31396   1.474   1.368   6.080 -0.0199 -0.4888 -0.3559
 6645SOL    HW131397   1.412   1.423   6.032  2.0431  1.5401 -0.6709
 6645SOL    HW231398   1.412   1.312   6.127  0.5887 -0.6852  0.2114
 6646SOL     OW31399   2.598   2.471   4.488 -0.1020  0.2315 -0.3070
 6646SOL    HW131400   2.610   2.384   4.528  0.0980 -0.1716 -1.2438
 6646SOL    HW231401   2.558   2.529   4.553 -2.2369 -1.3156 -0.2121
 6647SOL     OW31402   4.460   3.006  11.505  1.0765  0.0801  0.1844
 6647SOL    HW131403   4.421   2.920  11.519 -0.2926  1.1269  2.7694
 6647SOL    HW231404   4.551   2.978  11.508  1.3384  1.1078  1.5921
 6648SOL     OW31405   2.471   1.935  15.123  0.0911 -0.0522 -0.5491
 6648SOL    HW131406   2.555   1.928  15.078  0.3235  0.3639 -0.1859
 6648SOL    HW231407   2.465   1.851  15.169  3.0930 -0.5518 -1.0864
 6649SOL     OW31408   0.489   4.592   1.219  0.5469  0.1611 -0.1857
 6649SOL    HW131409   0.496   4.565   1.310 -0.3849  0.7820  0.0658
 6649SOL    HW231410   0.435   4.670   1.231  0.7892  0.7081 -2.6141
 6650SOL     OW31411   0.706   2.207   2.367 -0.4647 -0.0720 -0.1053
 6650SOL    HW131412   0.667   2.175   2.285  1.0461  1.0654 -1.2721
 6650SOL    HW231413   0.746   2.131   2.409  0.7949  0.2482 -0.7372
 6651SOL     OW31414   3.536   3.922   3.733  0.3046 -0.7932  0.6568
 6651SOL    HW131415   3.537   3.856   3.664  0.4179  0.4712 -0.5513
 6651SOL    HW231416   3.561   3.866   3.807  0.6019 -0.4406  0.8224
 6652SOL     OW31417   1.659   3.260   2.496 -0.2081 -0.3196  0.4549
 6652SOL    HW131418   1.570   3.249   2.529 -0.6915  1.2645 -0.2995
 6652SOL    HW231419   1.654   3.203   2.420  2.6594 -0.1488  0.1559
 6653SOL     OW31420   3.157   0.410   7.865  0.4694  0.2607 -0.0322
 6653SOL    HW131421   3.192   0.364   7.789 -0.5173 -1.1648  0.3710
 6653SOL    HW231422   3.196   0.367   7.942  0.5785  0.3517 -0.0366
 6654SOL     OW31423   4.148   3.427   6.379 -0.7978  0.1441  0.2743
 6654SOL    HW131424   4.124   3.355   6.321  1.9534 -0.0691 -0.5761
 6654SOL    HW231425   4.231   3.452   6.339 -0.3923  1.4468  1.9195
 6655SOL     OW31426   2.409   0.664   8.461  0.6854 -0.1406 -0.0437
 6655SOL    HW131427   2.329   0.611   8.455 -0.1879  0.8375  2.9606
 6655SOL    HW231428   2.369   0.749   8.478  2.8283  0.8218  0.0877
 6656SOL     OW31429   3.691   3.891   5.177  0.2018 -0.2830 -0.1739
 6656SOL    HW131430   3.766   3.881   5.235  0.0048  0.0045  0.1240
 6656SOL    HW231431   3.692   3.803   5.140 -2.0038 -0.8290  1.0727
 6657SOL     OW31432   3.139   1.959  11.120  0.0998 -0.2441  0.4216
 6657SOL    HW131433   3.232   1.967  11.097 -0.5827  0.1987 -2.0870
 6657SOL    HW231434   3.107   1.891  11.060  0.7754  0.7478 -1.0573
 6658SOL     OW31435   1.882   3.378  15.895 -0.0567 -0.8780  0.2515
 6658SOL    HW131436   1.870   3.443  15.825  0.4508 -0.6448  0.3803
 6658SOL    HW231437   1.960   3.336  15.858  0.3063 -1.1206  1.2846
 6659SOL     OW31438   1.852   0.084   3.343  0.0171 -0.0373  0.1091
 6659SOL    HW131439   1.867   0.040   3.259  2.5677 -0.6817  0.8948
 6659SOL    HW231440   1.796   0.155   3.311 -0.5224 -1.4738 -2.0993
 6660SOL     OW31441   1.421   4.670   4.852 -0.0034  0.3251  0.1855
 6660SOL    HW131442   1.493   0.002   4.820 -0.5679  1.1538  0.3739
 6660SOL    HW231443   1.478   4.600   4.884  1.1531  1.1275 -0.0810
 6661SOL     OW31444   2.986   1.205  14.772  0.2610 -0.4487 -0.0917
 6661SOL    HW131445   2.959   1.283  14.724 -0.4936 -1.6037 -1.5571
 6661SOL    HW231446   3.040   1.247  14.839 -1.4444 -0.7263  1.4550
 6662SOL     OW31447   3.032   2.502   5.832 -0.5292  0.2640  0.0054
 6662SOL    HW131448   2.962   2.505   5.766 -1.3829 -1.2073  0.8396
 6662SOL    HW231449   3.021   2.410   5.854  0.9983  0.1625  0.2929
 6663SOL     OW31450   0.891   1.920   5.028  0.8237  0.1193  0.0060
 6663SOL    HW131451   0.927   1.920   4.940 -0.0184  1.0052 -0.3346
 6663SOL    HW231452   0.918   1.833   5.055  1.0207 -0.0504 -0.7486
 6664SOL     OW31453   2.748   3.425   3.029  0.0518  0.1625 -0.0176
 6664SOL    HW131454   2.796   3.502   2.999 -0.4842  0.7340  0.5868
 6664SOL    HW231455   2.675   3.456   3.083  0.5989 -1.1416  1.4639
 6665SOL     OW31456   1.208   2.251   4.078  0.6783  0.4086 -0.0049
 6665SOL    HW131457   1.165   2.330   4.045  1.2025  0.0858 -1.4363
 6665SOL    HW231458   1.209   2.275   4.171 -0.1109 -0.4321  0.2281
 6666SOL     OW31459   3.756   3.816   9.111  0.5230  0.2735  0.1150
 6666SOL    HW131460   3.673   3.769   9.108  1.1427 -0.8324  0.3315
 6666SOL    HW231461   3.734   3.909   9.108  0.0218  0.2272  2.0203
 6667SOL     OW31462   1.920   0.580  12.600  0.1329 -0.6578 -0.1035
 6667SOL    HW131463   1.840   0.572  12.652 -1.1497 -1.0582 -2.1637
 6667SOL    HW231464   1.915   0.499  12.550 -0.1576  0.5067 -1.9638
 6668SOL     OW31465   1.882   1.704  11.698 -0.2702  0.9535 -0.7653
 6668SOL    HW131466   1.959   1.687  11.752 -0.6716  0.6094 -0.3022
 6668SOL    HW231467   1.867   1.613  11.672  1.8343 -0.1557  1.8981
 6669SOL     OW31468   2.142   1.725   8.260  0.0041 -0.2539  0.6006
 6669SOL    HW131469   2.138   1.696   8.351  2.2225 -2.6880 -0.0678
 6669SOL    HW231470   2.233   1.758   8.258  0.7139 -2.4429 -2.8619
 6670SOL     OW31471   2.752   2.462   6.738 -0.8560  0.1649  0.3277
 6670SOL    HW131472   2.802   2.457   6.657 -1.5396  3.4260 -0.3113
 6670SOL    HW231473   2.816   2.502   6.798  0.0854 -0.0686 -0.5351
 6671SOL     OW31474   0.767   3.334   7.048 -0.3153  0.1921 -0.6751
 6671SOL    HW131475   0.771   3.411   6.992  1.8350  0.6722  0.1538
 6671SOL    HW231476   0.692   3.301   6.997 -0.3883 -0.5749 -0.0809
 6672SOL     OW31477   2.689   1.686   5.462 -0.2695  0.5233  0.1430
 6672SOL    HW131478   2.741   1.607   5.449 -0.9668  0.1125 -0.1694
 6672SOL    HW231479   2.700   1.728   5.376  1.9767 -1.1569 -0.3898
 6673SOL     OW31480   0.344   2.306  10.060  0.1268  0.1005 -0.0390
 6673SOL    HW131481   0.395   2.374  10.105 -0.2222 -2.0551  3.5587
 6673SOL    HW231482   0.296   2.262  10.130 -2.2951 -2.8626 -3.5563
 6674SOL     OW31483   0.889   4.180   3.154 -0.5202  0.2883 -0.0215
 6674SOL    HW131484   0.863   4.271   3.166  0.4756  0.4862  0.6278
 6674SOL    HW231485   0.847   4.130   3.224 -3.4573  3.0613  0.1835
 6675SOL     OW31486   3.713   3.146  15.000 -0.2321 -0.6670  0.3536
 6675SOL    HW131487   3.802   3.123  14.971 -0.1362  2.2008 -1.5478
 6675SOL    HW231488   3.736   3.188  15.083 -1.7039 -0.8069  0.8360
 6676SOL     OW31489   4.172   3.763  10.767  0.3199  0.1393  0.2332
 6676SOL    HW131490   4.101   3.809  10.811  0.3953  0.4669  0.0163
 6676SOL    HW231491   4.126   3.720  10.695  1.5672 -0.9903  0.0960
 6677SOL     OW31492   1.409   1.394   1.467  0.2422  0.0194 -0.6482
 6677SOL    HW131493   1.339   1.451   1.436 -1.6457 -0.9961  1.7244
 6677SOL    HW231494   1.386   1.395   1.560 -2.1472  2.2481 -1.2705
 6678SOL     OW31495   2.464   1.267   5.341 -0.2799  0.1577 -0.4309
 6678SOL    HW131496   2.501   1.315   5.267 -1.9563  1.3719 -0.5026
 6678SOL    HW231497   2.464   1.341   5.403  2.1067  0.1383 -0.4103
 6679SOL     OW31498   0.428   2.346   6.642 -0.3394 -0.5298  0.1263
 6679SOL    HW131499   0.519   2.333   6.669 -0.7373 -2.9288  0.2951
 6679SOL    HW231500   0.431   2.385   6.554  1.1177 -0.7655  0.0721
 6680SOL     OW31501   1.199   3.793   9.875 -0.1620 -0.3701 -0.0734
 6680SOL    HW131502   1.115   3.750   9.892 -0.9823  1.4899  0.5276
 6680SOL    HW231503   1.196   3.857   9.946  0.0357 -2.3673  1.7550
 6681SOL     OW31504   3.502   2.740   5.717  0.4382  0.3224  0.8161
 6681SOL    HW131505   3.414   2.702   5.725  0.4716 -0.1734 -1.0057
 6681SOL    HW231506   3.482   2.832   5.730 -1.7070  0.5291 -3.8995
 6682SOL     OW31507   2.638   3.835   7.910 -0.7128  0.5904  0.1719
 6682SOL    HW131508   2.549   3.803   7.895 -0.2727  0.0760 -1.2612
 6682SOL    HW231509   2.673   3.748   7.932 -1.0412  0.3589 -0.2326
 6683SOL     OW31510   3.904   4.154  13.974 -0.0898  0.0241  0.0880
 6683SOL    HW131511   3.818   4.188  14.000 -1.1570 -1.1219 -1.9555
 6683SOL    HW231512   3.898   4.061  13.993  0.4470  0.1502  0.8718
 6684SOL     OW31513   3.719   0.058  10.205  0.2402 -0.1330  0.0201
 6684SOL    HW131514   3.747   0.108  10.281 -0.7983 -1.5319  1.3203
 6684SOL    HW231515   3.674   4.711  10.250 -0.5794  0.1716 -0.3069
 6685SOL     OW31516   4.414   4.489  10.763  0.1607  0.4686  0.3011
 6685SOL    HW131517   4.467   4.480  10.684 -0.2813  0.1901  0.0338
 6685SOL    HW231518   4.407   4.396  10.785 -0.1498 -0.3974 -3.3618
 6686SOL     OW31519   1.254   4.653   0.328 -0.1460  0.0557 -0.2365
 6686SOL    HW131520   1.304   4.593   0.383 -0.5768 -0.9266 -0.9197
 6686SOL    HW231521   1.186   4.684   0.388  1.6391  3.5174 -0.0261
 6687SOL     OW31522   2.867   0.133  12.438  0.3062 -0.2416 -0.6429
 6687SOL    HW131523   2.895   0.204  12.497 -0.6633 -0.2406 -0.1809
 6687SOL    HW231524   2.805   0.090  12.497 -0.9345  3.2365  0.6202
 6688SOL     OW31525   0.549   4.315  10.522 -0.3078  0.1956  0.0557
 6688SOL    HW131526   0.486   4.318  10.450  1.4259 -1.1118 -1.5186
 6688SOL    HW231527   0.616   4.262  10.479 -0.7280 -0.5096  0.2680
 6689SOL     OW31528   4.614   1.519  11.767  0.0763  0.0422  0.2384
 6689SOL    HW131529   4.690   1.573  11.742  2.2413 -3.2546 -0.3021
 6689SOL    HW231530   4.560   1.596  11.749  0.1221 -0.0816 -0.4035
 6690SOL     OW31531   0.250   4.603   1.843 -0.1515  0.1412 -0.1112
 6690SOL    HW131532   0.206   4.550   1.909  0.5708  0.0507  0.3043
 6690SOL    HW231533   0.252   4.682   1.897  0.5768  0.6085 -0.8037
 6691SOL     OW31534   3.103   2.157  11.647  0.0893  0.1885 -0.4690
 6691SOL    HW131535   3.105   2.107  11.728  1.6957  2.1875  0.7093
 6691SOL    HW231536   3.190   2.195  11.640 -0.7197  2.2373  0.3426
 6692SOL     OW31537   1.297   4.481  15.784  0.3589 -0.1815  0.2922
 6692SOL    HW131538   1.350   4.542  15.734 -1.0911 -1.0913 -2.3355
 6692SOL    HW231539   1.354   4.409  15.808 -0.3294 -1.3331 -1.5908
 6693SOL     OW31540   1.532   3.911   9.071  0.1174 -0.7126 -0.2809
 6693SOL    HW131541   1.534   3.936   8.979  1.5149 -0.5976 -0.2218
 6693SOL    HW231542   1.616   3.865   9.075 -0.9826 -2.8803 -1.6272
 6694SOL     OW31543   0.688   3.581  15.246  0.1672  0.2958 -0.8099
 6694SOL    HW131544   0.726   3.506  15.200 -1.4215 -0.0931 -1.4846
 6694SOL    HW231545   0.682   3.644  15.174 -3.3381 -1.9014 -2.4774
 6695SOL     OW31546   2.964   2.813  12.505  0.0194 -0.1989 -0.3496
 6695SOL    HW131547   2.975   2.875  12.433  2.6554  1.3737  1.4223
 6695SOL    HW231548   2.988   2.872  12.577 -0.8641 -1.3702  0.9052
 6696SOL     OW31549   2.282   2.486  14.661 -0.1397 -0.5444 -0.0437
 6696SOL    HW131550   2.336   2.552  14.619  0.2550 -0.8629 -0.0418
 6696SOL    HW231551   2.345   2.415  14.676 -1.2259 -1.5817 -0.3679
 6697SOL     OW31552   0.043   3.858   8.492  0.1184  0.4209  0.1723
 6697SOL    HW131553   0.058   3.845   8.586 -1.0663  0.0921  0.3203
 6697SOL    HW231554   0.133   3.858   8.458 -0.0466 -0.0983 -0.2571
 6698SOL     OW31555   1.101   2.196   9.248 -0.0038 -0.4700 -0.1836
 6698SOL    HW131556   1.135   2.266   9.303  1.3411  0.0357 -1.6727
 6698SOL    HW231557   1.112   2.240   9.163  0.0067 -0.1857 -0.0368
 6699SOL     OW31558   0.470   3.580   3.816 -0.3755 -0.5342 -0.0133
 6699SOL    HW131559   0.539   3.617   3.761  0.0432 -1.6982 -0.2547
 6699SOL    HW231560   0.480   3.630   3.897 -5.5175  2.4770 -1.2078
 6700SOL     OW31561   4.062   1.378   4.378  0.5129  0.5642  0.0413
 6700SOL    HW131562   4.031   1.297   4.419 -1.7730  1.1535 -0.5202
 6700SOL    HW231563   4.012   1.446   4.422 -0.3814  0.0710 -0.2128
 6701SOL     OW31564   3.479   2.403  16.967 -0.3406 -0.1125 -0.2026
 6701SOL    HW131565   3.504   2.382  17.057 -0.1028  1.1750  0.0334
 6701SOL    HW231566   3.423   2.327  16.951 -1.0737  0.2907  0.4642
 6702SOL     OW31567   1.807   3.499   9.033  0.1695 -0.5736 -0.2612
 6702SOL    HW131568   1.751   3.544   9.097  0.5742  0.3129 -0.5358
 6702SOL    HW231569   1.860   3.567   8.992  1.5656 -1.5597 -0.0947
 6703SOL     OW31570   3.636   0.680   7.701  0.1994  0.0978 -0.4694
 6703SOL    HW131571   3.571   0.609   7.699  0.0306  0.2816 -1.5710
 6703SOL    HW231572   3.659   0.666   7.792  0.2713 -1.1130 -0.6639
 6704SOL     OW31573   0.508   1.478   8.537 -0.3746 -0.4415  0.1538
 6704SOL    HW131574   0.495   1.513   8.625 -1.1915  1.9783 -0.9311
 6704SOL    HW231575   0.577   1.536   8.505 -1.3572  0.8672  0.4297
 6705SOL     OW31576   3.602   2.168   5.907 -0.1615 -0.0851  0.0181
 6705SOL    HW131577   3.674   2.231   5.896  0.1876 -0.1001  2.2534
 6705SOL    HW231578   3.629   2.127   5.989 -0.2600  0.9615  0.5688
 6706SOL     OW31579   0.523   0.691   4.520  0.3459  0.5258  0.0619
 6706SOL    HW131580   0.499   0.676   4.612 -0.2448 -1.6628 -0.4552
 6706SOL    HW231581   0.526   0.600   4.492  0.7587 -0.1722  2.3963
 6707SOL     OW31582   0.767   3.676  13.103  0.3004 -0.3640 -0.6255
 6707SOL    HW131583   0.696   3.707  13.046  0.1708 -0.4976 -0.5383
 6707SOL    HW231584   0.791   3.762  13.136  1.5187 -0.4732 -1.2286
 6708SOL     OW31585   3.486   2.894   2.730 -0.4221  0.2838  0.1086
 6708SOL    HW131586   3.549   2.876   2.661  3.9812  0.1855  4.1246
 6708SOL    HW231587   3.414   2.835   2.709  1.4407 -1.0780 -2.4290
 6709SOL     OW31588   3.588   4.191  11.082 -0.0081 -0.4850  0.2933
 6709SOL    HW131589   3.511   4.152  11.042  1.2018 -1.9922 -0.5766
 6709SOL    HW231590   3.610   4.256  11.014  0.2685  0.7297  1.5367
 6710SOL     OW31591   4.719   2.502   9.669 -0.2192  0.1233  0.0449
 6710SOL    HW131592   4.697   2.588   9.635 -1.7280 -1.0813 -2.0400
 6710SOL    HW231593   4.640   2.474   9.716 -1.2198 -0.5052 -2.0116
 6711SOL     OW31594   3.893   3.408   2.434  0.1508 -0.8802 -0.8224
 6711SOL    HW131595   3.803   3.411   2.401  0.4540  1.0994 -1.4447
 6711SOL    HW231596   3.905   3.503   2.436 -0.3880 -0.8265 -0.1865
 6712SOL     OW31597   0.213   0.195   4.678  0.5748 -0.2037  0.2312
 6712SOL    HW131598   0.245   0.153   4.598  0.6037  1.8588 -0.8467
 6712SOL    HW231599   0.154   0.260   4.640 -1.0237  0.0547  3.1778
 6713SOL     OW31600   4.371   3.087  17.127  0.1604 -0.1668  0.7213
 6713SOL    HW131601   4.449   3.031  17.129  1.3505  1.4532 -1.2519
 6713SOL    HW231602   4.336   3.056  17.043 -2.5318 -0.1427  1.8011
 6714SOL     OW31603   2.777   1.181   8.566  0.3505 -0.2953 -0.1702
 6714SOL    HW131604   2.723   1.189   8.487 -1.0102 -2.0034  0.5895
 6714SOL    HW231605   2.836   1.256   8.572  0.2245 -0.0258 -2.1539
 6715SOL     OW31606   2.853   3.582   6.610  0.0174 -0.2543 -0.5203
 6715SOL    HW131607   2.932   3.528   6.605  1.1314  0.9583  3.8479
 6715SOL    HW231608   2.785   3.517   6.629 -0.4992  0.6433  0.7459
 6716SOL     OW31609   1.093   1.115   1.522  0.8264 -0.0587  0.3016
 6716SOL    HW131610   1.181   1.095   1.553  0.9354 -1.1580 -0.7328
 6716SOL    HW231611   1.042   1.034   1.530  3.1718 -1.3382  2.3859
 6717SOL     OW31612   1.935   1.536   5.217  1.1122 -0.2953 -0.4848
 6717SOL    HW131613   1.929   1.468   5.285 -0.4374  0.5469  0.2188
 6717SOL    HW231614   1.923   1.467   5.151  0.3297 -0.5101 -0.1226
 6718SOL     OW31615   1.604   4.197   5.239  0.1490 -0.6473 -0.1692
 6718SOL    HW131616   1.688   4.159   5.214 -0.1905  0.1977 -2.5654
 6718SOL    HW231617   1.550   4.144   5.180  0.8749 -0.4158 -1.0338
 6719SOL     OW31618   3.738   1.006   2.196 -0.2980 -0.1153  0.0284
 6719SOL    HW131619   3.702   0.997   2.108  0.2932 -1.2587 -0.1068
 6719SOL    HW231620   3.817   1.054   2.172  0.3286 -1.4036 -0.4796
 6720SOL     OW31621   2.684   2.528   4.231  0.1230 -0.3329  0.4897
 6720SOL    HW131622   2.709   2.443   4.196  0.6398 -0.2536  0.6652
 6720SOL    HW231623   2.663   2.511   4.323  0.8139  0.2377  0.7546
 6721SOL     OW31624   0.919   1.542   8.533 -0.2593  0.5166 -0.0302
 6721SOL    HW131625   0.935   1.557   8.626 -0.6595  1.6893 -0.1525
 6721SOL    HW231626   0.900   1.448   8.528  1.4821  0.2511 -1.8106
 6722SOL     OW31627   1.668   0.141  14.333 -0.1329  0.5056 -0.0656
 6722SOL    HW131628   1.628   0.099  14.409  0.7257 -0.4520 -0.1404
 6722SOL    HW231629   1.597   0.194  14.297  0.6172  1.1060 -0.6679
 6723SOL     OW31630   3.947   2.855   6.890 -0.0220  0.0769  0.4021
 6723SOL    HW131631   4.035   2.832   6.860 -0.4011  0.5291 -1.0605
 6723SOL    HW231632   3.895   2.777   6.871 -0.3430  0.3040  0.3615
 6724SOL     OW31633   4.477   4.447   9.465 -0.1306  0.1177  0.4906
 6724SOL    HW131634   4.550   4.490   9.509 -0.3218 -0.9149  1.8262
 6724SOL    HW231635   4.462   4.384   9.536 -0.3205  0.4606  0.7593
 6725SOL     OW31636   0.820   2.038   7.640  0.0273 -0.1319  0.1024
 6725SOL    HW131637   0.909   2.067   7.621  0.3136  0.1608  1.8304
 6725SOL    HW231638   0.773   2.041   7.557  0.8124  0.6550 -0.3236
 6726SOL     OW31639   2.953   3.128  12.638 -0.1060  0.5833  0.2287
 6726SOL    HW131640   2.977   3.213  12.676 -1.4752  1.4606 -0.8498
 6726SOL    HW231641   3.032   3.106  12.589 -1.5628 -0.7381 -1.5120
 6727SOL     OW31642   2.622   1.310  12.609 -0.1537 -0.2965  0.0472
 6727SOL    HW131643   2.560   1.251  12.652 -0.2742 -0.0723  0.1854
 6727SOL    HW231644   2.559   1.357  12.554 -2.5634 -1.5189  1.7364
 6728SOL     OW31645   3.052   0.472  11.686 -0.0617 -0.3154 -0.3638
 6728SOL    HW131646   3.044   0.378  11.702  0.2495  0.0068  1.7612
 6728SOL    HW231647   2.994   0.494  11.759  0.1172 -1.0888  0.0144
 6729SOL     OW31648   0.628   1.451  13.712  0.7239  0.3229  0.6154
 6729SOL    HW131649   0.671   1.437  13.796  0.3533 -1.9466  0.4350
 6729SOL    HW231650   0.643   1.368  13.666 -0.3202  0.3706  0.1884
 6730SOL     OW31651   0.958   2.569   3.593 -0.1735 -0.3502 -0.0278
 6730SOL    HW131652   0.954   2.500   3.526 -1.1753 -0.6001  0.2830
 6730SOL    HW231653   0.920   2.518   3.665  0.7214  1.5382  1.7711
 6731SOL     OW31654   0.889   3.045  15.170 -0.4845  0.3532 -0.6539
 6731SOL    HW131655   0.945   2.969  15.155  1.2755  0.8292  3.4081
 6731SOL    HW231656   0.833   3.001  15.234 -0.1863  2.3635  1.0094
 6732SOL     OW31657   2.976   3.390  11.985 -0.7720  0.4005  0.4206
 6732SOL    HW131658   2.949   3.474  11.949 -1.8649 -0.1609 -0.0653
 6732SOL    HW231659   2.889   3.352  11.995 -0.5020 -0.2660  0.2904
 6733SOL     OW31660   0.464   3.478   7.179  0.2033 -0.1582  0.0026
 6733SOL    HW131661   0.457   3.456   7.272  0.5281 -0.1710  0.0251
 6733SOL    HW231662   0.532   3.417   7.150 -0.1962 -0.1044 -1.0601
 6734SOL     OW31663   4.606   2.800   0.818 -0.0588 -0.4370 -0.3587
 6734SOL    HW131664   4.531   2.805   0.759 -0.5304 -1.1349  0.1826
 6734SOL    HW231665   4.611   2.883   0.865 -1.0922 -0.0027 -1.0213
 6735SOL     OW31666   1.063   1.819   5.455  0.3205 -0.0480 -0.6607
 6735SOL    HW131667   1.101   1.733   5.475 -2.6261 -0.2077  4.2125
 6735SOL    HW231668   0.991   1.811   5.517  1.5368 -0.5260  0.7103
 6736SOL     OW31669   4.049   4.523   6.294  0.0995 -0.1366 -0.0609
 6736SOL    HW131670   4.036   4.554   6.205  2.4548 -0.8520 -0.6514
 6736SOL    HW231671   4.113   4.454   6.276 -0.0342 -0.2101 -0.2515
 6737SOL     OW31672   0.387   1.730   2.497 -0.1406 -0.3742  0.0610
 6737SOL    HW131673   0.332   1.798   2.535  0.0781 -0.7607  1.0598
 6737SOL    HW231674   0.327   1.655   2.495 -0.6863  0.0580  0.7990
 6738SOL     OW31675   3.755   0.102   1.046  0.0051  0.4134  0.0148
 6738SOL    HW131676   3.693   0.140   0.984 -0.2085 -1.9266 -1.2005
 6738SOL    HW231677   3.797   0.046   0.981  1.4580  1.9254 -0.3614
 6739SOL     OW31678   1.368   1.285   8.140  0.4372  0.1508 -0.2520
 6739SOL    HW131679   1.318   1.214   8.181  1.9565  0.0740  1.4558
 6739SOL    HW231680   1.346   1.361   8.194 -0.7653  0.2068 -0.8067
 6740SOL     OW31681   2.375   1.895   7.552  0.2297 -0.0736  0.8965
 6740SOL    HW131682   2.354   1.802   7.567  2.0758 -0.4259  1.2283
 6740SOL    HW231683   2.343   1.933   7.634 -3.0249  0.4106 -0.5888
 6741SOL     OW31684   4.569   2.054   6.825  0.2431  0.0171  0.4753
 6741SOL    HW131685   4.589   1.965   6.852  1.1706  0.2735  0.6187
 6741SOL    HW231686   4.576   2.055   6.729 -0.6315 -3.1085  0.3860
 6742SOL     OW31687   1.903   0.833   2.186 -0.1745 -0.0985  0.2371
 6742SOL    HW131688   1.924   0.847   2.094 -1.5585 -0.1796 -0.0959
 6742SOL    HW231689   1.903   0.737   2.189 -1.0740 -0.1725 -2.2806
 6743SOL     OW31690   2.494   4.055   8.879  0.0934  0.0303  0.1295
 6743SOL    HW131691   2.442   4.118   8.828 -1.0965 -0.1309  1.1501
 6743SOL    HW231692   2.575   4.100   8.904  0.2906  1.2630 -2.7103
 6744SOL     OW31693   1.743   1.424   0.099  0.3632 -0.1173 -0.1265
 6744SOL    HW131694   1.836   1.433   0.120  0.2537 -0.2903  0.4346
 6744SOL    HW231695   1.703   1.446   0.184  1.7701  2.2493 -0.0661
 6745SOL     OW31696   1.111   3.912   5.180  0.1225 -0.2286 -0.1226
 6745SOL    HW131697   1.174   3.869   5.237 -2.1235 -2.4697  0.6536
 6745SOL    HW231698   1.143   3.874   5.098 -1.1595 -0.2617 -0.6070
 6746SOL     OW31699   0.335   3.401   3.654  0.3813  0.0795 -0.0236
 6746SOL    HW131700   0.418   3.358   3.631  1.6243  2.1118  0.6334
 6746SOL    HW231701   0.367   3.479   3.700  0.1713  0.9882 -1.4196
 6747SOL     OW31702   1.893   2.541   6.757  0.8578  0.1922 -0.2887
 6747SOL    HW131703   1.881   2.448   6.737  0.0604  0.4340 -0.9607
 6747SOL    HW231704   1.969   2.545   6.814 -1.6843  1.9042  2.9886
 6748SOL     OW31705   3.298   2.181   8.134  0.3681  0.2906  0.3564
 6748SOL    HW131706   3.246   2.210   8.059 -0.9749  0.8426  1.5011
 6748SOL    HW231707   3.353   2.116   8.090 -0.8003 -0.9350  0.7069
 6749SOL     OW31708   2.611   1.044  14.294 -0.2344  0.2932 -0.2034
 6749SOL    HW131709   2.521   1.012  14.301  0.0002 -0.8278 -2.2177
 6749SOL    HW231710   2.659   1.027  14.375 -1.2876  0.0852  0.3761
 6750SOL     OW31711   3.168   3.933   8.145  0.7639  0.2723  0.1468
 6750SOL    HW131712   3.231   3.992   8.104 -0.9173  2.6664  0.9813
 6750SOL    HW231713   3.147   3.987   8.221 -0.8465  0.2918 -0.3027
 6751SOL     OW31714   0.569   3.410   7.879  0.2465  0.0730  0.4391
 6751SOL    HW131715   0.638   3.410   7.813 -0.6954  0.8491 -0.5477
 6751SOL    HW231716   0.622   3.371   7.948  1.1276 -0.8773 -0.7744
 6752SOL     OW31717   0.034   3.080   1.694  0.0098 -0.5303  0.3728
 6752SOL    HW131718   0.001   3.051   1.778 -0.8630  0.4175  0.3508
 6752SOL    HW231719   0.009   3.001   1.645 -0.5777 -2.1310  3.2816
 6753SOL     OW31720   0.128   1.961   7.501 -0.1606 -0.4237  0.6895
 6753SOL    HW131721   0.072   1.921   7.568 -0.0651 -1.3554  0.2136
 6753SOL    HW231722   0.072   2.034   7.474 -1.0203 -0.9465  1.0704
 6754SOL     OW31723   1.193   0.915  10.759 -0.5069 -0.4096 -0.2390
 6754SOL    HW131724   1.206   0.985  10.695 -1.1755 -1.3614 -1.4101
 6754SOL    HW231725   1.227   0.965  10.834 -1.6128  0.7918 -0.5269
 6755SOL     OW31726   3.417   2.579   5.196  0.1054 -0.7198 -0.1135
 6755SOL    HW131727   3.469   2.499   5.205 -0.9881 -1.4893 -0.6614
 6755SOL    HW231728   3.378   2.569   5.109  0.1295  0.1192 -0.2265
 6756SOL     OW31729   1.216   3.950  10.094  0.0720  0.2128 -0.2214
 6756SOL    HW131730   1.208   4.045  10.106 -3.8501 -0.3186  1.4277
 6756SOL    HW231731   1.183   3.919  10.178 -0.3207 -2.5252 -1.4086
 6757SOL     OW31732   0.859   3.126   2.617  0.2587 -0.2510 -0.0604
 6757SOL    HW131733   0.920   3.077   2.674  1.1042  2.8458  1.6895
 6757SOL    HW231734   0.918   3.166   2.554 -0.0425  0.2198 -0.0428
 6758SOL     OW31735   2.510   3.523   2.413 -0.2296  1.0560  0.0886
 6758SOL    HW131736   2.442   3.582   2.380  1.6077  3.1522  0.0207
 6758SOL    HW231737   2.568   3.501   2.340 -0.0081  0.7526  0.3564
 6759SOL     OW31738   0.740   0.814   4.976  0.2018 -0.1899  0.7225
 6759SOL    HW131739   0.773   0.809   4.886 -3.1991 -1.0146 -0.4721
 6759SOL    HW231740   0.706   0.726   4.989 -1.1063  0.8698  4.5526
 6760SOL     OW31741   0.455   0.477   7.364 -0.6298 -0.0850 -0.0913
 6760SOL    HW131742   0.414   0.453   7.447 -0.6756 -0.2893 -0.1731
 6760SOL    HW231743   0.408   0.558   7.344 -3.0877 -1.3686  0.5611
 6761SOL     OW31744   4.215   1.642   1.454 -0.4566 -0.4752 -0.8593
 6761SOL    HW131745   4.196   1.556   1.417 -0.4183  0.6450 -3.4412
 6761SOL    HW231746   4.186   1.700   1.384  0.7666  3.2176  1.7031
 6762SOL     OW31747   2.534   2.064   1.840 -0.1593  0.3600  0.6887
 6762SOL    HW131748   2.582   1.982   1.832 -0.7703 -0.1978  2.6894
 6762SOL    HW231749   2.460   2.066   1.779  0.8776 -0.6393 -0.5817
 6763SOL     OW31750   0.572   3.811   9.652 -0.0915  0.1674  0.0642
 6763SOL    HW131751   0.537   3.724   9.668  0.1637  0.1045  0.2718
 6763SOL    HW231752   0.590   3.812   9.558  0.7239  0.9065  0.2239
 6764SOL     OW31753   3.735   3.017   6.784 -0.2194  0.4770 -0.2009
 6764SOL    HW131754   3.686   2.974   6.854  0.4213 -2.5824 -1.5877
 6764SOL    HW231755   3.820   2.986   6.816  0.3291  1.5669 -0.6205
 6765SOL     OW31756   4.334   3.791   9.370 -0.1675 -0.1462  0.4710
 6765SOL    HW131757   4.370   3.712   9.412 -2.7439 -2.1488 -1.0578
 6765SOL    HW231758   4.254   3.811   9.417 -0.7458 -1.5698  0.0965
 6766SOL     OW31759   1.467   3.901   7.000 -0.0276 -0.3158 -0.1984
 6766SOL    HW131760   1.526   3.969   7.034 -0.8249  0.9276 -1.2660
 6766SOL    HW231761   1.449   3.844   7.074 -0.6125 -0.3052 -0.3375
 6767SOL     OW31762   4.017   4.689   5.806 -0.1545  0.0359 -0.1598
 6767SOL    HW131763   3.991   4.638   5.730 -1.3096  0.8451 -0.3061
 6767SOL    HW231764   4.111   4.694   5.789  0.1901  1.1633  2.0692
 6768SOL     OW31765   3.448   2.757   1.537  0.6760  0.0775 -0.0146
 6768SOL    HW131766   3.443   2.711   1.453 -2.6461 -2.4513  1.5612
 6768SOL    HW231767   3.435   2.681   1.593 -1.4306  2.3482  2.5478
 6769SOL     OW31768   1.980   0.278   5.877  0.7625 -0.0728 -0.0782
 6769SOL    HW131769   1.940   0.254   5.793  0.9013 -3.0675  0.7056
 6769SOL    HW231770   2.015   0.197   5.914 -0.0240  0.1704  1.1964
 6770SOL     OW31771   3.211   3.519   2.625 -0.4924 -0.3668  0.1316
 6770SOL    HW131772   3.133   3.508   2.679 -0.3072  0.2748  0.5354
 6770SOL    HW231773   3.284   3.479   2.671  0.0618  0.1466 -0.2979
 6771SOL     OW31774   1.934   1.084   5.531 -0.0894 -0.0742 -0.0644
 6771SOL    HW131775   1.903   1.021   5.465  0.8056  1.3190 -1.8110
 6771SOL    HW231776   1.873   1.070   5.604  1.0648  0.7045  1.0357
 6772SOL     OW31777   0.620   0.996  11.316  0.0145 -0.4743  0.2996
 6772SOL    HW131778   0.713   0.984  11.334  0.0731 -1.1957 -0.4557
 6772SOL    HW231779   0.604   0.988  11.222 -1.8503 -2.6032  0.8017
 6773SOL     OW31780   2.433   3.310  11.679 -0.1592  0.0845  0.1549
 6773SOL    HW131781   2.434   3.218  11.702 -0.4412  0.7018  2.6387
 6773SOL    HW231782   2.359   3.311  11.618 -0.5632  1.7805  0.6603
 6774SOL     OW31783   4.034   1.684   5.633  0.0253  0.0019 -0.4590
 6774SOL    HW131784   4.082   1.754   5.588  0.5922  1.6695  2.7825
 6774SOL    HW231785   3.945   1.715   5.621  0.5995  0.4096 -3.5926
 6775SOL     OW31786   4.158   4.175  12.557 -0.3687  0.1101 -0.4299
 6775SOL    HW131787   4.127   4.257  12.596  2.6272  1.0381 -0.0357
 6775SOL    HW231788   4.203   4.212  12.481  0.6614 -1.9539 -0.8114
 6776SOL     OW31789   3.331   0.238  17.454 -0.2395  0.4022 -0.2404
 6776SOL    HW131790   3.370   0.180  17.519  1.5892 -0.8033 -2.4187
 6776SOL    HW231791   3.397   0.305  17.434  0.0416  0.0564 -0.4708
 6777SOL     OW31792   3.337   0.186   5.585  0.0599  0.3757 -0.0035
 6777SOL    HW131793   3.343   0.143   5.671 -1.7589 -1.5167 -0.8344
 6777SOL    HW231794   3.311   0.105   5.542  0.9955  0.2291 -0.3108
 6778SOL     OW31795   3.509   0.882  17.412 -0.5044  0.4084 -0.2272
 6778SOL    HW131796   3.530   0.968  17.376  0.8474  0.1811  0.0187
 6778SOL    HW231797   3.545   0.827  17.342  2.1456  0.0362  1.4085
 6779SOL     OW31798   1.817   0.747   1.750  0.4913  0.5823  0.0250
 6779SOL    HW131799   1.878   0.802   1.797  1.5695  2.7416 -3.8883
 6779SOL    HW231800   1.760   0.725   1.823  2.2080  1.3682  1.5882
 6780SOL     OW31801   2.391   2.619   0.220  0.0549  0.1242  0.3891
 6780SOL    HW131802   2.417   2.550   0.159  1.6400  1.4776 -0.4710
 6780SOL    HW231803   2.330   2.564   0.269  0.9836 -0.2484  1.1093
 6781SOL     OW31804   4.701   0.433   3.640  0.0278  0.6682 -0.1080
 6781SOL    HW131805   4.606   0.422   3.636  0.2631 -2.6360  2.7258
 6781SOL    HW231806   4.697   0.528   3.632  1.1303  0.7655  0.5900
 6782SOL     OW31807   3.060   4.380   3.116 -0.2797 -0.2438 -0.1571
 6782SOL    HW131808   3.060   4.339   3.202  1.3232 -0.1366 -0.1120
 6782SOL    HW231809   3.146   4.359   3.080 -0.6816  0.7154 -1.6921
 6783SOL     OW31810   2.560   4.588   6.280 -0.4370 -0.4514  0.4034
 6783SOL    HW131811   2.522   4.520   6.225 -2.6922 -0.4218  1.9333
 6783SOL    HW231812   2.479   4.635   6.300 -0.4400 -0.3844  0.2310
 6784SOL     OW31813   4.485   2.655   1.087 -0.8569  0.5347  0.7409
 6784SOL    HW131814   4.394   2.642   1.061  0.0248  0.8676 -2.5176
 6784SOL    HW231815   4.517   2.717   1.021 -1.6509 -0.1852 -0.3269
 6785SOL     OW31816   0.062   0.081   4.027  0.4963  0.8701 -0.2662
 6785SOL    HW131817   0.084   0.006   4.082 -0.3368 -0.2337 -1.4423
 6785SOL    HW231818   0.150   0.118   4.026  0.6867  0.4783  1.4418
 6786SOL     OW31819   2.465   4.602   1.394 -0.4469 -0.2361 -0.2601
 6786SOL    HW131820   2.428   4.690   1.390 -0.4540 -0.1059  3.0112
 6786SOL    HW231821   2.388   4.546   1.381 -0.4414  0.1468 -1.9214
 6787SOL     OW31822   1.216   3.378   2.619  0.5858 -0.2439 -0.2949
 6787SOL    HW131823   1.129   3.408   2.644  0.5054 -1.7953  1.3102
 6787SOL    HW231824   1.221   3.310   2.687  0.0832 -0.6274 -0.6420
 6788SOL     OW31825   0.663   2.661   8.624  0.0564 -0.9006 -0.1743
 6788SOL    HW131826   0.712   2.588   8.663  0.3233 -0.2870  0.6503
 6788SOL    HW231827   0.637   2.613   8.545  1.6569 -1.1802 -0.5267
 6789SOL     OW31828   3.782   3.333  13.025 -0.0907  0.2168  0.1871
 6789SOL    HW131829   3.784   3.403  12.960  0.3172 -0.5070 -0.5779
 6789SOL    HW231830   3.700   3.350  13.070 -0.7520  0.4915 -1.1310
 6790SOL     OW31831   1.222   4.061   3.652  0.4165 -0.5239  0.2783
 6790SOL    HW131832   1.183   4.142   3.685  1.2189  0.4036 -1.0599
 6790SOL    HW231833   1.278   4.094   3.581 -0.5582 -0.1512 -0.3258
 6791SOL     OW31834   4.715   2.756   0.464 -0.5278  0.1393  0.2084
 6791SOL    HW131835   0.065   2.814   0.445 -0.5604  0.2485  0.4101
 6791SOL    HW231836   4.669   2.761   0.380  2.5240 -1.3364 -1.5608
 6792SOL     OW31837   4.611   2.338   4.713 -0.3142  0.1238 -0.3761
 6792SOL    HW131838   4.623   2.244   4.702 -2.2339 -0.4741  2.5510
 6792SOL    HW231839   4.658   2.351   4.795 -0.2803  2.5032 -0.7503
 6793SOL     OW31840   3.604   1.923   3.711  0.0045  0.3046  0.4750
 6793SOL    HW131841   3.623   1.955   3.623  2.2396  1.1182  1.2398
 6793SOL    HW231842   3.598   2.007   3.758 -1.2398  1.6655 -2.1156
 6794SOL     OW31843   2.902   1.221   6.488 -0.2347 -0.3003 -0.1744
 6794SOL    HW131844   2.983   1.244   6.533 -0.6127  1.7440 -0.5168
 6794SOL    HW231845   2.935   1.240   6.400  1.1199 -0.0584  0.3845
 6795SOL     OW31846   1.886   1.877   6.147  0.4542  0.2172  0.1559
 6795SOL    HW131847   1.927   1.853   6.064 -0.4478 -1.5320  0.2264
 6795SOL    HW231848   1.794   1.876   6.120  0.0416  0.9229  1.5017
 6796SOL     OW31849   3.232   2.259  17.464 -0.3404 -0.2228 -0.1914
 6796SOL    HW131850   3.238   2.333  17.525  1.9912 -0.6079  0.0544
 6796SOL    HW231851   3.324   2.234  17.461 -0.3224 -0.3048  1.1273
 6797SOL     OW31852   0.498   0.657   4.015  0.6034 -0.0901 -0.1992
 6797SOL    HW131853   0.433   0.701   4.070  0.0301  0.5133 -1.3489
 6797SOL    HW231854   0.563   0.627   4.078 -0.5227 -1.2034  0.4188
 6798SOL     OW31855   0.776   2.452   1.690  0.1775 -0.1239  0.0565
 6798SOL    HW131856   0.760   2.511   1.764 -0.9796 -0.7234  0.2762
 6798SOL    HW231857   0.726   2.480   1.614 -2.2173  0.0300  1.6996
 6799SOL     OW31858   4.165   4.064  12.799  0.0711 -0.3155 -0.3516
 6799SOL    HW131859   4.148   4.076  12.706 -0.4875 -1.8359 -0.4328
 6799SOL    HW231860   4.219   4.138  12.828  0.8926 -0.1102 -2.4683
 6800SOL     OW31861   4.032   1.287  10.644  0.2629 -0.0399 -0.0618
 6800SOL    HW131862   4.091   1.231  10.695 -0.8723 -0.8105  0.4223
 6800SOL    HW231863   4.026   1.363  10.702 -2.1387 -0.7253  0.5959
 6801SOL     OW31864   3.701   1.417   5.080  0.3519 -0.0883 -0.0400
 6801SOL    HW131865   3.624   1.400   5.025  1.1714  0.0974 -1.2430
 6801SOL    HW231866   3.709   1.333   5.126 -2.7361  1.3765  3.1914
 6802SOL     OW31867   3.815   1.581   3.084 -0.1059  0.1797 -0.8309
 6802SOL    HW131868   3.849   1.495   3.061  1.6958  0.4513  0.7303
 6802SOL    HW231869   3.724   1.556   3.099 -0.5318  1.3996 -1.3679
 6803SOL     OW31870   2.998   0.574   4.902 -0.3387  0.1485  0.0182
 6803SOL    HW131871   2.914   0.527   4.904 -0.5909  0.6343  0.9127
 6803SOL    HW231872   3.062   0.516   4.943  0.4379  1.0652  0.0959
 6804SOL     OW31873   2.494   4.015  14.880  0.3241 -0.0192 -0.5062
 6804SOL    HW131874   2.433   4.048  14.814 -0.1946  0.2998  0.1334
 6804SOL    HW231875   2.437   4.009  14.957  1.8464 -3.4086  0.3837
 6805SOL     OW31876   4.669   4.555   5.071 -0.2551  0.1782 -0.2389
 6805SOL    HW131877   4.703   4.545   4.982  1.6797 -1.3714  0.6716
 6805SOL    HW231878   4.715   4.633   5.103 -3.3414  1.8015  0.2529
 6806SOL     OW31879   3.029   0.674   4.627  0.4889  0.2736 -0.2518
 6806SOL    HW131880   2.942   0.643   4.601  0.7201 -1.1704  0.7126
 6806SOL    HW231881   3.050   0.607   4.692  0.2244 -1.1181 -1.5752
 6807SOL     OW31882   1.894   4.224   7.023  0.8213 -0.0835 -0.2348
 6807SOL    HW131883   1.896   4.251   7.115 -2.0746  1.1366 -0.5065
 6807SOL    HW231884   1.902   4.305   6.973 -0.7536 -1.0228 -2.0358
 6808SOL     OW31885   1.307   4.575   4.566  0.0284 -0.1708  0.8676
 6808SOL    HW131886   1.392   4.617   4.549 -1.5384  1.8299 -2.0988
 6808SOL    HW231887   1.296   4.584   4.661 -0.1561  0.6740  0.7716
 6809SOL     OW31888   1.391   3.715   0.755 -0.3504 -0.5351 -0.0501
 6809SOL    HW131889   1.332   3.655   0.709 -0.9547  0.3842 -0.4650
 6809SOL    HW231890   1.460   3.722   0.690 -1.4729 -0.8386 -1.2960
 6810SOL     OW31891   1.016   3.960  15.952  0.1928 -0.2330  0.6168
 6810SOL    HW131892   1.096   3.947  16.004  0.7263 -0.2270 -0.2072
 6810SOL    HW231893   0.963   3.881  15.961  1.2473 -1.1975 -1.6483
 6811SOL     OW31894   4.693   1.388   4.679 -0.5863 -0.1559  0.1527
 6811SOL    HW131895   0.011   1.308   4.648  1.3693  0.2957  1.6314
 6811SOL    HW231896   0.041   1.451   4.687 -0.8189 -0.1320  1.9760
 6812SOL     OW31897   2.017   3.677  11.883 -0.1966 -0.6249 -0.8735
 6812SOL    HW131898   2.060   3.646  11.963 -2.3810  0.1529  0.5864
 6812SOL    HW231899   2.047   3.768  11.888  1.7833 -1.3511  0.2398
 6813SOL     OW31900   2.450   3.333   6.542  0.6705  0.0101  0.1190
 6813SOL    HW131901   2.445   3.401   6.474 -1.0382  0.1996  0.4474
 6813SOL    HW231902   2.368   3.350   6.587  0.4769  0.0555 -0.2534
 6814SOL     OW31903   2.460   4.105   6.121  0.3854 -0.3249  0.0149
 6814SOL    HW131904   2.550   4.086   6.093  0.4874  3.0914 -1.9398
 6814SOL    HW231905   2.410   4.041   6.071 -0.8018  0.5877  0.0399
 6815SOL     OW31906   1.291   2.792  11.846  0.1462  0.0748 -0.1304
 6815SOL    HW131907   1.297   2.767  11.939 -1.7363  0.2934  0.0566
 6815SOL    HW231908   1.246   2.714  11.815  0.2268 -0.4839  1.1446
 6816SOL     OW31909   0.116   1.909   4.557  0.8927  0.0026  0.0964
 6816SOL    HW131910   0.074   1.852   4.493 -1.3910  1.4653  0.3086
 6816SOL    HW231911   0.208   1.889   4.539  0.1358 -3.8463  0.4209
 6817SOL     OW31912   1.335   1.635   2.400 -0.6807  0.3876  0.9776
 6817SOL    HW131913   1.282   1.639   2.321  0.1751 -1.5183  0.3068
 6817SOL    HW231914   1.268   1.656   2.465 -1.0710  1.5265  0.2034
 6818SOL     OW31915   0.639   4.709  11.239  0.0516 -0.9314 -0.3470
 6818SOL    HW131916   0.694   4.675  11.309 -1.7894 -0.9355  1.1051
 6818SOL    HW231917   0.602   4.628  11.204 -0.6134 -0.6186 -0.3761
 6819SOL     OW31918   0.975   3.932   2.733 -1.0998  0.0064  0.5679
 6819SOL    HW131919   1.029   3.979   2.669 -0.8944 -1.6299 -0.4690
 6819SOL    HW231920   1.017   3.985   2.801 -0.7065 -0.3982  0.6398
 6820SOL     OW31921   2.941   0.788  16.505 -0.3410  0.7717  0.0098
 6820SOL    HW131922   2.848   0.808  16.512 -0.6304 -0.9018  0.8331
 6820SOL    HW231923   2.951   0.816  16.414  0.3501  0.1658 -0.0998
 6821SOL     OW31924   0.250   3.470  16.930  0.0577 -0.1245 -0.4411
 6821SOL    HW131925   0.261   3.487  16.837  0.5750 -2.7261 -0.8481
 6821SOL    HW231926   0.306   3.536  16.971 -2.1246  1.0501  0.6162
 6822SOL     OW31927   1.216   1.535   3.140  0.5168  0.3958 -0.4034
 6822SOL    HW131928   1.286   1.585   3.098 -1.2929 -0.6101 -4.5939
 6822SOL    HW231929   1.210   1.452   3.093 -0.0693  0.0006  0.3678
 6823SOL     OW31930   2.579   4.385   9.261  0.0590  0.4132 -0.2758
 6823SOL    HW131931   2.495   4.347   9.234 -1.4590  2.2968  1.7781
 6823SOL    HW231932   2.599   4.436   9.183 -2.1241 -0.0060 -1.1113
 6824SOL     OW31933   3.358   1.411   4.460 -0.3592  0.3599  0.2794
 6824SOL    HW131934   3.430   1.442   4.405  0.0707 -0.7358  0.2216
 6824SOL    HW231935   3.335   1.334   4.408 -0.3210 -0.0931  0.9373
 6825SOL     OW31936   2.626   1.093  14.032 -0.4426 -0.2112 -0.3677
 6825SOL    HW131937   2.629   1.060  14.122  0.7915 -2.3421 -1.1939
 6825SOL    HW231938   2.611   1.013  13.981 -0.9116 -0.1162 -0.3832
 6826SOL     OW31939   3.132   0.663  15.908  0.1786  0.1308  0.2673
 6826SOL    HW131940   3.123   0.641  16.001 -2.8560 -0.5704 -0.1855
 6826SOL    HW231941   3.099   0.584  15.866 -1.9064  0.4805  1.2411
 6827SOL     OW31942   3.121   4.050   7.684 -0.7084 -0.3371  0.1047
 6827SOL    HW131943   3.122   4.001   7.767 -0.4318  2.8045  1.9514
 6827SOL    HW231944   3.026   4.066   7.679 -0.8279 -0.6551  1.1749
 6828SOL     OW31945   2.804   4.714   3.019 -0.5770  0.1031 -0.3430
 6828SOL    HW131946   2.891   0.027   3.007 -0.1169 -1.2986 -1.3771
 6828SOL    HW231947   2.738   0.060   3.020 -1.4290 -0.6885 -0.3135
 6829SOL     OW31948   3.892   0.067   8.061  0.0015  0.4824 -0.0083
 6829SOL    HW131949   3.898   4.712   8.008  0.0679  0.4026  0.1188
 6829SOL    HW231950   3.915   0.033   8.147 -2.0170 -0.9510 -0.0299
 6830SOL     OW31951   3.629   2.380   8.636  0.5949  0.0638 -0.0872
 6830SOL    HW131952   3.657   2.349   8.722 -1.1106  0.8780  0.7595
 6830SOL    HW231953   3.576   2.304   8.614  1.2720  0.0002 -1.4953
 6831SOL     OW31954   0.691   4.448   7.067  0.1959 -0.3646  0.1165
 6831SOL    HW131955   0.616   4.401   7.031  0.5775 -1.9595  1.3936
 6831SOL    HW231956   0.658   4.533   7.037 -1.0188 -0.1583  2.0268
 6832SOL     OW31957   2.583   0.252   4.875  0.2023  0.4013  0.3641
 6832SOL    HW131958   2.504   0.213   4.911  1.0948  0.1209  2.0332
 6832SOL    HW231959   2.550   0.316   4.813 -1.8955 -1.2115 -0.1771
 6833SOL     OW31960   1.618   4.587   6.483  0.0251 -0.0296 -0.3133
 6833SOL    HW131961   1.629   4.664   6.428 -2.1376  1.0472  0.7433
 6833SOL    HW231962   1.684   4.599   6.551 -0.5657 -3.0753  0.8430
 6834SOL     OW31963   3.122   3.657  12.768  0.2468  0.2854  0.8393
 6834SOL    HW131964   3.161   3.738  12.801  0.9098 -0.7232  2.5526
 6834SOL    HW231965   3.050   3.654  12.830 -2.9114  0.8202 -2.7761
 6835SOL     OW31966   4.127   1.206   5.038 -0.0321  0.7157 -0.1300
 6835SOL    HW131967   4.214   1.241   5.022  0.4193 -0.4250 -0.1992
 6835SOL    HW231968   4.079   1.285   5.064 -0.8752 -0.5456  2.0987
 6836SOL     OW31969   0.089   4.226   6.050  0.5230 -0.2287 -0.3077
 6836SOL    HW131970   0.027   4.295   6.072 -0.5530 -1.2564 -0.0818
 6836SOL    HW231971   0.164   4.273   6.013  0.9981 -0.2695  0.5954
 6837SOL     OW31972   3.766   2.525   6.186 -0.2041 -0.7680 -0.1420
 6837SOL    HW131973   3.695   2.587   6.198  2.2908  1.8245  1.2378
 6837SOL    HW231974   3.816   2.548   6.264  0.5110 -0.5294 -0.6700
 6838SOL     OW31975   3.746   3.591  15.664 -0.2401 -0.3641  0.7047
 6838SOL    HW131976   3.796   3.630  15.735 -0.0116  0.4177  0.1142
 6838SOL    HW231977   3.676   3.654  15.648 -0.5882 -0.1644  3.0118
 6839SOL     OW31978   0.178   1.299   4.938 -0.1100 -0.2991  0.2333
 6839SOL    HW131979   0.127   1.219   4.935  1.1145 -1.1221  1.2597
 6839SOL    HW231980   0.266   1.272   4.912  0.8710  0.9512  2.2147
 6840SOL     OW31981   1.033   0.692   2.745  0.4107  0.0542  0.2951
 6840SOL    HW131982   0.942   0.721   2.740 -0.0770 -1.4256  0.6151
 6840SOL    HW231983   1.057   0.713   2.655  2.1200 -0.1734  0.7075
 6841SOL     OW31984   0.959   1.533   2.309  0.0707  0.2949 -0.6606
 6841SOL    HW131985   0.921   1.587   2.239  0.1931 -0.8521 -1.6016
 6841SOL    HW231986   0.932   1.445   2.283 -0.4334  0.6147 -1.2325
 6842SOL     OW31987   0.544   1.480   4.126  1.0495 -0.0185 -0.4145
 6842SOL    HW131988   0.533   1.424   4.049 -1.9093 -1.7332  1.2620
 6842SOL    HW231989   0.637   1.464   4.142  1.0882 -1.2235 -1.8915
 6843SOL     OW31990   3.274   3.026   3.668  0.1904 -0.3139  0.8244
 6843SOL    HW131991   3.225   3.058   3.593  0.4374 -3.3483 -0.6467
 6843SOL    HW231992   3.356   3.007   3.622 -1.2816  0.3443 -2.0793
 6844SOL     OW31993   0.613   1.205   5.400 -0.1357 -0.1928 -0.3644
 6844SOL    HW131994   0.557   1.170   5.331 -1.7618  0.8657  0.4144
 6844SOL    HW231995   0.568   1.277   5.445  1.7681  1.2559 -0.7849
 6845SOL     OW31996   2.123   0.523   7.525 -0.1619 -0.5329  0.4767
 6845SOL    HW131997   2.212   0.488   7.519 -0.6122 -1.6828  0.4531
 6845SOL    HW231998   2.133   0.608   7.482 -0.7479 -0.1066  1.1607
 6846SOL     OW31999   1.831   4.645  14.428 -0.0070  0.1828 -0.3319
 6846SOL    HW132000   1.821   0.012  14.454  0.0065 -0.3409  1.4549
 6846SOL    HW232001   1.870   4.600  14.502 -0.6848  1.2640  0.6847
 6847SOL     OW32002   2.557   0.213   4.521  0.2253  0.0407  0.4639
 6847SOL    HW132003   2.571   0.289   4.464 -0.1177 -0.1869  0.0795
 6847SOL    HW232004   2.480   0.243   4.570  1.3157  0.7820  1.7492
 6848SOL     OW32005   2.652   2.404  14.101  0.4726 -0.4370  0.1128
 6848SOL    HW132006   2.654   2.452  14.018  1.5753 -0.8339 -0.0838
 6848SOL    HW232007   2.633   2.478  14.158 -0.8002 -2.4566  2.3258
 6849SOL     OW32008   3.172   1.162   2.844  1.2227 -0.7645  0.0026
 6849SOL    HW132009   3.141   1.183   2.756  1.1984 -0.4846  0.0786
 6849SOL    HW232010   3.195   1.070   2.828  2.8070  0.0304 -2.1892
 6850SOL     OW32011   2.872   2.426  13.344  0.2234  0.7971  0.0994
 6850SOL    HW132012   2.823   2.433  13.426 -2.3675  0.8647 -1.4592
 6850SOL    HW232013   2.960   2.405  13.375 -0.6416 -1.1256  1.2579
 6851SOL     OW32014   4.459   4.644  16.867  0.1430 -0.3392  0.0957
 6851SOL    HW132015   4.520   4.680  16.802  2.2819 -2.6884  0.7618
 6851SOL    HW232016   4.381   4.649  16.812  0.6032  0.4891 -0.4909
 6852SOL     OW32017   2.240   1.748   9.446 -0.1311 -0.0313  0.2913
 6852SOL    HW132018   2.145   1.749   9.445 -0.0841  2.7135 -0.6228
 6852SOL    HW232019   2.250   1.653   9.456  0.2975 -0.2762 -2.4932
 6853SOL     OW32020   0.854   0.869   7.536 -0.1778 -0.0227 -0.7069
 6853SOL    HW132021   0.770   0.898   7.572 -0.7157 -0.3187 -1.7099
 6853SOL    HW232022   0.877   0.796   7.594 -0.1702 -0.6696 -1.5228
 6854SOL     OW32023   1.351   2.039  10.625 -0.0103 -0.0906  0.0042
 6854SOL    HW132024   1.434   2.073  10.659  0.3699 -0.6052 -0.3945
 6854SOL    HW232025   1.295   2.101  10.671 -0.1917 -0.0546 -0.2726
 6855SOL     OW32026   1.275   2.051  13.410 -0.0784 -0.7240  0.1928
 6855SOL    HW132027   1.332   1.992  13.361 -2.1145 -3.5921  1.3161
 6855SOL    HW232028   1.193   2.029  13.365 -0.4430  2.6785 -0.7921
 6856SOL     OW32029   0.967   3.640   3.528 -0.0629 -0.3135  0.3625
 6856SOL    HW132030   1.040   3.640   3.590  0.0603  0.1385  0.2180
 6856SOL    HW232031   0.984   3.724   3.484 -1.0000 -0.9778 -1.2526
 6857SOL     OW32032   2.539   3.005   6.802  0.6997  0.0269 -0.2263
 6857SOL    HW132033   2.633   3.024   6.802  0.6909  0.0846 -0.6004
 6857SOL    HW232034   2.517   3.059   6.725 -0.8344  0.2334  0.3577
 6858SOL     OW32035   0.427   2.729   6.012 -0.4654  0.1812  0.0774
 6858SOL    HW132036   0.369   2.675   6.065 -0.0296  1.0600  1.4426
 6858SOL    HW232037   0.424   2.812   6.059  0.0290 -0.2142  0.8038
 6859SOL     OW32038   1.102   0.089  15.445  0.1742 -0.5190 -0.0622
 6859SOL    HW132039   1.046   0.129  15.378  0.0479 -0.8144 -0.1328
 6859SOL    HW232040   1.046   0.114  15.518  0.5845  0.8689 -0.2282
 6860SOL     OW32041   1.891   4.470   1.362 -0.3527  0.0508  0.0035
 6860SOL    HW132042   1.806   4.436   1.336  0.6206 -1.9489 -0.5925
 6860SOL    HW232043   1.868   4.550   1.408  1.8625  0.8597 -0.3013
 6861SOL     OW32044   2.856   2.638  11.545 -0.2642  0.1619  0.5404
 6861SOL    HW132045   2.912   2.590  11.606  1.0053  0.0178 -0.7522
 6861SOL    HW232046   2.830   2.572  11.482 -0.8243 -0.3169  1.2689
 6862SOL     OW32047   2.159   4.155   1.849  0.5423  0.1274 -0.2868
 6862SOL    HW132048   2.071   4.123   1.870  1.0191 -2.2418 -1.8064
 6862SOL    HW232049   2.197   4.131   1.933  2.4656  2.4049 -0.5016
 6863SOL     OW32050   2.388   1.951  12.003  0.1910 -0.9586 -0.6127
 6863SOL    HW132051   2.443   1.939  11.925  4.3052  2.6722  1.7658
 6863SOL    HW232052   2.453   1.948  12.072 -1.1318  1.2939  0.7170
 6864SOL     OW32053   2.640   3.518  11.102  0.1566  0.3694 -0.0680
 6864SOL    HW132054   2.690   3.511  11.183  0.3808 -2.5717 -0.4874
 6864SOL    HW232055   2.549   3.507  11.132  0.6999 -0.8501  1.1012
 6865SOL     OW32056   3.459   3.110   8.424 -0.4262  0.1439 -0.1569
 6865SOL    HW132057   3.474   3.194   8.468  0.5382 -1.0931  1.8628
 6865SOL    HW232058   3.552   3.088   8.427 -0.0519  1.6667 -0.9393
 6866SOL     OW32059   2.706   3.870  14.809  0.2295  0.9036 -0.0012
 6866SOL    HW132060   2.767   3.918  14.865  0.1008  2.0194 -0.8164
 6866SOL    HW232061   2.631   3.920  14.841  0.9539  0.9925  1.5406
 6867SOL     OW32062   0.751   4.126   7.072  0.1091 -0.4202  0.4797
 6867SOL    HW132063   0.707   4.162   7.149 -1.3860  0.0663 -0.6009
 6867SOL    HW232064   0.838   4.135   7.111 -0.1032  0.6469  0.7089
 6868SOL     OW32065   3.907   4.023   9.585 -0.1671 -0.4098  0.0987
 6868SOL    HW132066   3.825   4.024   9.634  0.7022  2.4828  1.5044
 6868SOL    HW232067   3.968   4.023   9.659 -1.5880  1.4896  1.2902
 6869SOL     OW32068   0.340   1.010   7.413  0.5582  0.1128 -0.1545
 6869SOL    HW132069   0.399   1.030   7.487  1.1133  0.9908 -0.8284
 6869SOL    HW232070   0.267   1.070   7.431 -0.7908 -1.3016 -0.9915
 6870SOL     OW32071   0.417   0.120   4.381  0.1040 -0.4757  0.2377
 6870SOL    HW132072   0.422   0.056   4.309 -1.8932 -0.5009  0.1180
 6870SOL    HW232073   0.422   0.059   4.454 -2.3708  0.1392  0.9284
 6871SOL     OW32074   4.206   2.594  17.124 -0.3269 -0.0995 -0.1723
 6871SOL    HW132075   4.201   2.677  17.171 -2.1708  1.9138 -3.9871
 6871SOL    HW232076   4.160   2.618  17.044  1.5378  0.2280 -1.1594
 6872SOL     OW32077   2.673   2.734   4.046  0.6215 -0.1172  0.0295
 6872SOL    HW132078   2.582   2.758   4.066  0.2238 -1.5972  0.0412
 6872SOL    HW232079   2.687   2.656   4.100  0.9621  1.2818  1.9842
 6873SOL     OW32080   3.171   1.958   5.504  0.3306 -0.5123  0.5555
 6873SOL    HW132081   3.249   1.903   5.496  1.5069  1.3320 -0.7110
 6873SOL    HW232082   3.101   1.907   5.462  1.6433 -1.3013 -0.6517
 6874SOL     OW32083   1.016   0.418   5.044  0.0397 -0.5105 -0.1527
 6874SOL    HW132084   0.988   0.391   4.956 -2.3535 -0.7750  0.6754
 6874SOL    HW232085   1.050   0.333   5.073  1.8885 -0.1126 -1.1582
 6875SOL     OW32086   3.988   1.058  13.813 -0.0686 -0.2519 -0.1213
 6875SOL    HW132087   3.957   1.020  13.731 -0.3402 -3.4585  1.4601
 6875SOL    HW232088   3.929   1.016  13.877  0.4372  0.8523  1.0771
 6876SOL     OW32089   2.489   3.881   3.162  0.4928 -0.2227  0.6428
 6876SOL    HW132090   2.466   3.854   3.074  4.3643 -0.0642 -0.4309
 6876SOL    HW232091   2.408   3.880   3.213  0.8622 -1.1495  1.2114
 6877SOL     OW32092   1.213   3.622   3.744  0.3653 -0.1706  0.3321
 6877SOL    HW132093   1.156   3.554   3.780 -0.2558  0.4665  0.5561
 6877SOL    HW232094   1.294   3.592   3.786  1.0840 -1.1381 -1.7747
 6878SOL     OW32095   2.579   0.802   3.158  0.0615  0.0909 -0.6096
 6878SOL    HW132096   2.606   0.752   3.081 -1.1087  0.6079 -1.3494
 6878SOL    HW232097   2.648   0.868   3.154  0.5275 -0.2100  2.6674
 6879SOL     OW32098   0.694   1.578   7.797 -0.8852 -0.6233  0.1142
 6879SOL    HW132099   0.650   1.657   7.766 -1.5327 -1.1562 -0.3313
 6879SOL    HW232100   0.784   1.602   7.819 -0.5820 -1.1668 -0.5196
 6880SOL     OW32101   3.599   1.384   5.821 -0.4918  0.5507  0.0060
 6880SOL    HW132102   3.632   1.472   5.805  0.4186  0.0426 -0.9185
 6880SOL    HW232103   3.570   1.401   5.910  2.5793  3.1812  0.4566
 6881SOL     OW32104   2.235   2.868  14.686 -0.0434 -0.0226  0.7085
 6881SOL    HW132105   2.272   2.802  14.628 -2.3567 -0.6247 -0.0561
 6881SOL    HW232106   2.305   2.874  14.751  0.2014 -1.5576  0.5855
 6882SOL     OW32107   0.318   4.350   7.607  1.0961 -0.7719 -0.3106
 6882SOL    HW132108   0.371   4.417   7.650 -0.1318 -0.4977  0.7736
 6882SOL    HW232109   0.361   4.341   7.522  2.4978 -0.1136  0.3280
 6883SOL     OW32110   4.079   0.010   8.270 -0.2522  0.0477  0.3292
 6883SOL    HW132111   4.165   0.048   8.252 -0.0882  0.2211  1.4719
 6883SOL    HW232112   4.109   4.654   8.313  0.1678 -1.1034 -2.0870
 6884SOL     OW32113   0.827   2.673   3.193 -0.2225 -0.2430  0.0955
 6884SOL    HW132114   0.791   2.751   3.150  1.1968 -1.0267 -2.4510
 6884SOL    HW232115   0.745   2.625   3.196 -0.9364  0.8904 -1.6257
 6885SOL     OW32116   3.817   2.573  10.208 -0.0860  0.4593 -0.2775
 6885SOL    HW132117   3.781   2.661  10.220 -0.9498 -0.2863  2.7392
 6885SOL    HW232118   3.911   2.587  10.205 -0.3562  2.3789 -0.0331
 6886SOL     OW32119   3.303   3.287   3.959 -0.3159  0.4828  0.2936
 6886SOL    HW132120   3.243   3.223   3.919  0.0983 -1.6955  3.1489
 6886SOL    HW232121   3.323   3.251   4.046  1.8226 -0.5775 -0.6260
 6887SOL     OW32122   4.650   0.060  16.705  0.4954  0.3094 -0.3106
 6887SOL    HW132123   4.710   4.722  16.664  5.4225  4.0181  1.3291
 6887SOL    HW232124   4.666   0.139  16.654  0.1205  0.7267  0.2138
 6888SOL     OW32125   3.059   2.892  12.754  0.0361 -0.3614  0.1825
 6888SOL    HW132126   3.018   2.978  12.762  1.4986  0.3291  0.3697
 6888SOL    HW232127   3.147   2.894  12.791  0.4012  4.1638 -0.9316
 6889SOL     OW32128   4.637   0.788   8.853 -0.3117  0.6335  0.1717
 6889SOL    HW132129   4.645   0.801   8.947  0.9544  2.7320 -0.2101
 6889SOL    HW232130   4.705   0.852   8.830 -0.3443  0.5015 -0.3015
 6890SOL     OW32131   2.460   0.787   3.562  0.0466  0.2790 -0.2358
 6890SOL    HW132132   2.480   0.865   3.510  1.3866  0.2179  0.1839
 6890SOL    HW232133   2.437   0.816   3.650 -1.2454 -0.9844 -0.1446
 6891SOL     OW32134   4.080   4.568   4.450  0.1852  0.5585 -0.4110
 6891SOL    HW132135   4.024   4.644   4.470  0.7741  0.7242  0.5778
 6891SOL    HW232136   4.125   4.543   4.530  0.8521 -0.4780 -1.1179
 6892SOL     OW32137   4.160   2.451   6.601 -0.2956 -0.0026 -0.6676
 6892SOL    HW132138   4.164   2.394   6.524 -0.3576 -0.2755 -0.4699
 6892SOL    HW232139   4.193   2.536   6.572 -0.7046 -0.2502 -1.8573
 6893SOL     OW32140   4.298   3.451   5.179  0.1138  0.3422 -0.0741
 6893SOL    HW132141   4.212   3.492   5.179 -0.8269 -1.6541  0.0833
 6893SOL    HW232142   4.345   3.492   5.106 -1.4182  3.4938  0.6898
 6894SOL     OW32143   3.378   3.971   7.352 -0.1087  0.0018  0.3411
 6894SOL    HW132144   3.453   3.987   7.295 -1.6340 -3.5307 -2.6746
 6894SOL    HW232145   3.325   3.919   7.291  0.3548 -0.3744  0.2572
 6895SOL     OW32146   3.047   4.039   3.566  0.0774 -0.3999 -0.1004
 6895SOL    HW132147   3.056   3.944   3.559 -2.0122 -0.5687 -0.6179
 6895SOL    HW232148   3.073   4.055   3.656  0.4420  0.0174 -0.2800
 6896SOL     OW32149   3.996   3.426   4.554 -0.1903 -0.0828 -0.0539
 6896SOL    HW132150   4.004   3.441   4.648 -1.7596  0.5788 -0.0415
 6896SOL    HW232151   3.985   3.517   4.525 -0.4258 -0.9250 -2.6040
 6897SOL     OW32152   1.060   3.975   6.986  0.3254 -0.3012 -0.5074
 6897SOL    HW132153   1.064   4.071   6.994 -2.2860 -0.1541 -0.9581
 6897SOL    HW232154   1.029   3.959   7.075 -0.0218  2.3085 -0.1660
 6898SOL     OW32155   4.128   1.084  16.014  0.0104  0.6773  0.6395
 6898SOL    HW132156   4.081   1.010  16.052  1.0702 -0.0243  0.5851
 6898SOL    HW232157   4.099   1.159  16.067 -0.5066  1.1602 -0.3359
 6899SOL     OW32158   4.285   0.121   9.038  0.4602 -0.0564 -1.2464
 6899SOL    HW132159   4.333   0.061   9.095 -2.4716  0.6325  1.9574
 6899SOL    HW232160   4.247   0.069   8.968 -2.2848 -1.4494  1.2753
 6900SOL     OW32161   0.540   1.474   8.820  0.5803  0.1733  0.2888
 6900SOL    HW132162   0.636   1.472   8.821  0.5392 -0.3949  3.7416
 6900SOL    HW232163   0.523   1.380   8.809  0.1168  0.2598  0.2903
 6901SOL     OW32164   4.465   1.004  10.817  0.6668  0.1161 -0.2603
 6901SOL    HW132165   4.558   1.018  10.802  1.0415 -2.3208 -0.2033
 6901SOL    HW232166   4.473   0.989  10.911 -0.6656  0.5879 -0.0636
 6902SOL     OW32167   1.314   4.135   6.126  0.1329 -0.2121 -0.2223
 6902SOL    HW132168   1.295   4.055   6.076 -0.4351  0.5747 -1.2859
 6902SOL    HW232169   1.356   4.094   6.201  0.1081  1.4497  0.6972
 6903SOL     OW32170   2.228   3.373   6.723 -0.0791 -0.7754 -0.3790
 6903SOL    HW132171   2.182   3.456   6.729  1.1284 -0.0893 -0.5647
 6903SOL    HW232172   2.233   3.336   6.811 -1.8779  0.4499  0.2315
 6904SOL     OW32173   0.622   1.907   0.195  0.1509 -0.1568  0.4028
 6904SOL    HW132174   0.592   1.896   0.285 -0.4302 -1.3962  0.0515
 6904SOL    HW232175   0.550   1.878   0.138 -0.1156  1.8623 -0.2986
 6905SOL     OW32176   0.823   0.833   2.196  0.2966 -0.1943  0.4398
 6905SOL    HW132177   0.858   0.767   2.256  1.7190 -0.4020 -0.6089
 6905SOL    HW232178   0.834   0.787   2.112 -1.1321  0.3701 -0.0561
 6906SOL     OW32179   1.329   0.967  12.062 -0.3663  0.2832 -0.7856
 6906SOL    HW132180   1.422   0.956  12.081 -0.2605 -0.5748 -1.7860
 6906SOL    HW232181   1.341   1.056  12.029 -0.9716  1.1776  1.4497
 6907SOL     OW32182   3.241   3.588   3.238 -0.8124 -0.9689  0.7074
 6907SOL    HW132183   3.279   3.521   3.295  2.8697 -0.9217 -1.7082
 6907SOL    HW232184   3.166   3.540   3.202 -0.5580 -1.2207  0.5191
 6908SOL     OW32185   1.889   3.177  11.473  0.8227 -0.0882 -0.2217
 6908SOL    HW132186   1.928   3.098  11.510  1.1438  0.5293  0.7644
 6908SOL    HW232187   1.869   3.224  11.553 -0.0923  3.8557 -2.7734
 6909SOL     OW32188   2.858   3.847   6.720 -0.0109 -0.2799  0.2313
 6909SOL    HW132189   2.800   3.914   6.684  0.8467  0.3753  0.0636
 6909SOL    HW232190   2.864   3.777   6.655 -0.9907  0.3909 -0.5796
 6910SOL     OW32191   1.813   2.000   9.332 -0.2017  0.0588  0.4466
 6910SOL    HW132192   1.821   1.951   9.250 -3.8893 -0.7383  0.5521
 6910SOL    HW232193   1.747   2.066   9.311 -0.2508 -0.8666 -2.2955
 6911SOL     OW32194   4.482   2.982   2.951  0.7213  0.0411 -0.1590
 6911SOL    HW132195   4.452   2.964   3.040 -1.5636  1.4887 -0.6129
 6911SOL    HW232196   4.494   2.893   2.920 -1.0741 -0.1976 -0.1659
 6912SOL     OW32197   1.379   4.299  12.702  0.0860 -0.1668 -0.2013
 6912SOL    HW132198   1.443   4.227  12.698 -0.4089 -0.5064 -1.9822
 6912SOL    HW232199   1.334   4.283  12.619 -0.1936 -0.1090 -0.0589
 6913SOL     OW32200   4.520   3.985  10.893 -0.2144  0.2006 -0.0619
 6913SOL    HW132201   4.506   3.910  10.834  2.2990 -1.7403  1.8117
 6913SOL    HW232202   4.604   3.957  10.928 -0.5163  1.1691  1.3975
 6914SOL     OW32203   2.965   0.809   0.327  0.3488 -0.1598 -0.2157
 6914SOL    HW132204   2.959   0.827   0.234 -1.7995 -0.4648 -0.1237
 6914SOL    HW232205   2.942   0.716   0.324  0.1317 -0.1570  1.2004
 6915SOL     OW32206   1.906   3.047  15.008 -0.0650  0.4903 -0.0441
 6915SOL    HW132207   1.823   3.054  14.960  0.8419 -2.4147 -2.0752
 6915SOL    HW232208   1.959   3.014  14.936 -2.1068 -0.6049 -1.0471
 6916SOL     OW32209   0.233   2.126  12.381 -0.0082  0.3535 -0.8576
 6916SOL    HW132210   0.142   2.152  12.397  0.3374  0.3057  1.1909
 6916SOL    HW232211   0.226   2.033  12.404  0.6359  0.5055 -0.0504
 6917SOL     OW32212   1.108   1.651   8.357  0.0167  0.1808 -0.1934
 6917SOL    HW132213   1.083   1.654   8.450  1.0859 -1.2926  0.1456
 6917SOL    HW232214   1.119   1.556   8.352  2.0837  0.4892 -1.6681
 6918SOL     OW32215   3.990   3.660   2.396  0.3849  0.8396  0.3074
 6918SOL    HW132216   4.014   3.718   2.324  0.5319 -1.6971 -1.7118
 6918SOL    HW232217   4.071   3.663   2.447  0.6136  0.1709 -0.0095
 6919SOL     OW32218   3.841   3.302  11.252 -0.9858  0.3416  0.3241
 6919SOL    HW132219   3.824   3.395  11.268 -0.4738  0.6972 -1.2155
 6919SOL    HW232220   3.776   3.281  11.185  2.2145 -0.7302 -2.3997
 6920SOL     OW32221   4.653   4.552   5.356 -0.1008  0.4493  0.0578
 6920SOL    HW132222   0.023   4.568   5.354 -0.1972  1.3943  2.7401
 6920SOL    HW232223   4.631   4.551   5.263 -0.6919  1.7158  0.1753
 6921SOL     OW32224   0.477   3.026   4.501  0.1968 -0.4594  0.1925
 6921SOL    HW132225   0.553   2.980   4.537 -0.6192 -3.4775 -1.9843
 6921SOL    HW232226   0.515   3.099   4.452  1.7699 -0.8128  0.8715
 6922SOL     OW32227   0.743   0.468   2.718  0.4854  0.0596 -0.0511
 6922SOL    HW132228   0.785   0.481   2.633 -0.4269 -1.5396 -0.7621
 6922SOL    HW232229   0.824   0.464   2.768 -1.0178  0.2331  2.4101
 6923SOL     OW32230   4.370   1.406   6.822  0.1814  0.3077  0.1540
 6923SOL    HW132231   4.455   1.431   6.786  0.0716  0.6471  0.1235
 6923SOL    HW232232   4.322   1.387   6.741 -2.5734  3.7901  0.9355
 6924SOL     OW32233   2.513   3.047   3.030 -0.3319  0.5101  0.3996
 6924SOL    HW132234   2.422   3.065   3.053 -0.3051  1.0214  0.1170
 6924SOL    HW232235   2.534   2.964   3.071 -0.4869  0.7067  0.8800
 6925SOL     OW32236   1.244   1.452   4.587 -0.0140 -0.2974 -0.2923
 6925SOL    HW132237   1.221   1.363   4.559 -0.7941 -0.2181  0.0967
 6925SOL    HW232238   1.339   1.448   4.573  0.0122 -1.7298  0.3063
 6926SOL     OW32239   0.810   4.424  11.883 -0.3927 -0.0774  0.2696
 6926SOL    HW132240   0.726   4.380  11.871  0.2085 -1.1862  0.1511
 6926SOL    HW232241   0.871   4.350  11.873  0.5733  0.7940 -0.3952
 6927SOL     OW32242   0.506   4.077   5.990 -0.0103 -0.3156  0.5405
 6927SOL    HW132243   0.427   4.096   6.040 -1.5005  1.0934 -2.3998
 6927SOL    HW232244   0.522   4.157   5.940 -1.6860 -0.3780 -0.0802
 6928SOL     OW32245   1.170   0.259   7.466 -0.4342  0.2600 -0.5396
 6928SOL    HW132246   1.196   0.249   7.375  1.8922 -1.6016  0.3136
 6928SOL    HW232247   1.165   0.354   7.458  2.4767  0.6215  1.7088
 6929SOL     OW32248   3.339   1.227   1.055 -0.6395 -0.1741  0.5227
 6929SOL    HW132249   3.320   1.194   1.143 -3.2469  0.3896  0.1847
 6929SOL    HW232250   3.430   1.254   1.065 -0.6100 -0.3286  0.6601
 6930SOL     OW32251   2.664   3.114   7.583  0.2040 -0.2652 -0.5064
 6930SOL    HW132252   2.712   3.188   7.546  1.1157 -0.5639  0.0720
 6930SOL    HW232253   2.658   3.130   7.678  1.0806  0.1683 -0.5214
 6931SOL     OW32254   0.073   1.423   3.004  0.2181 -0.1933  0.1833
 6931SOL    HW132255   0.069   1.356   3.073 -0.1169 -0.3235  0.0374
 6931SOL    HW232256   0.071   1.506   3.051 -1.8168 -0.1913  0.1176
 6932SOL     OW32257   0.254   2.426   9.485  0.1455  0.1339  0.6570
 6932SOL    HW132258   0.264   2.511   9.443  0.8612  0.2368  1.0328
 6932SOL    HW232259   0.215   2.378   9.412 -0.1841 -0.0845  0.9773
 6933SOL     OW32260   1.068   2.023  13.228  0.4516 -0.6055 -0.2524
 6933SOL    HW132261   1.128   2.074  13.173 -0.3941  0.0833 -0.5488
 6933SOL    HW232262   1.010   1.985  13.163  0.8193 -0.9085 -0.4010
 6934SOL     OW32263   0.703   1.734   5.862 -0.1025  0.2671  0.6472
 6934SOL    HW132264   0.694   1.810   5.918  2.8679  0.0778  1.3481
 6934SOL    HW232265   0.786   1.698   5.892 -0.7952 -1.9792 -0.0777
 6935SOL     OW32266   4.018   0.045  16.596  0.1132 -0.0836 -0.2601
 6935SOL    HW132267   4.032   0.040  16.501 -0.1357 -0.0291 -0.3014
 6935SOL    HW232268   4.001   0.139  16.606 -1.0865 -0.2877 -0.3387
 6936SOL     OW32269   4.722   2.934   1.084  0.0073  0.6781  0.4485
 6936SOL    HW132270   0.036   2.850   1.106 -0.5583  0.3175  0.0489
 6936SOL    HW232271   0.080   2.979   1.065  0.5025 -0.7151 -0.7056
 6937SOL     OW32272   3.516   1.017  14.132 -0.3147  0.4410  0.2616
 6937SOL    HW132273   3.578   1.089  14.134  0.4939 -0.1916 -1.5792
 6937SOL    HW232274   3.435   1.067  14.125 -0.2444  0.5923  0.5269
 6938SOL     OW32275   2.054   2.329   6.390  0.4225  0.1047 -0.2040
 6938SOL    HW132276   1.991   2.268   6.353  2.1080 -0.5072 -2.0755
 6938SOL    HW232277   2.031   2.324   6.483  0.7526 -2.0667 -0.2514
 6939SOL     OW32278   4.014   0.015  10.790  0.0277  0.1973 -0.3349
 6939SOL    HW132279   4.040   0.010  10.882  1.3208 -0.7134 -0.7485
 6939SOL    HW232280   4.102   0.008  10.755 -0.6193 -0.9387 -1.7127
 6940SOL     OW32281   3.686   3.400  12.011 -0.1532  0.9041 -0.3778
 6940SOL    HW132282   3.676   3.326  11.951 -0.1511  0.2561  0.4284
 6940SOL    HW232283   3.760   3.375  12.067 -1.1545  0.1734  0.6257
 6941SOL     OW32284   1.633   2.954  17.679 -0.3688 -0.2719  0.3804
 6941SOL    HW132285   1.606   2.865  17.656  1.4949 -0.4675 -1.0620
 6941SOL    HW232286   1.721   2.970  17.644 -0.1038 -0.0092  1.1705
 6942SOL     OW32287   2.982   2.433   8.084  0.4278 -0.0376  0.1212
 6942SOL    HW132288   2.998   2.414   7.992  0.6954  1.9439 -0.2327
 6942SOL    HW232289   2.924   2.508   8.070  0.6426  0.3557  1.3034
 6943SOL     OW32290   0.155   1.928   7.228 -0.5124 -0.3802 -0.5626
 6943SOL    HW132291   0.237   1.975   7.212 -0.2115 -0.7958 -0.2530
 6943SOL    HW232292   0.164   1.926   7.324 -1.3581  0.0401 -0.4764
 6944SOL     OW32293   0.385   4.389   3.354 -0.8558 -0.0248  0.1772
 6944SOL    HW132294   0.328   4.434   3.418 -2.9242 -2.2628 -0.1190
 6944SOL    HW232295   0.370   4.296   3.370 -2.1271  0.4253  1.6188
 6945SOL     OW32296   1.976   2.603   3.015 -0.8499  0.5791  0.2167
 6945SOL    HW132297   1.956   2.531   2.954 -0.5072  1.9825 -1.5392
 6945SOL    HW232298   2.036   2.653   2.960 -0.4242  0.8077  0.8991
 6946SOL     OW32299   4.618   3.483   5.046 -0.0671 -0.2087 -0.0541
 6946SOL    HW132300   4.706   3.473   5.009 -0.4369 -0.7443 -0.7754
 6946SOL    HW232301   4.649   3.538   5.119 -1.3394 -0.7507  0.9032
 6947SOL     OW32302   0.167   3.470  11.599  0.0783  0.0791  0.0886
 6947SOL    HW132303   0.232   3.413  11.640  0.7517 -0.8393 -2.2305
 6947SOL    HW232304   0.195   3.468  11.507 -0.3961 -1.9846  0.0073
 6948SOL     OW32305   3.887   1.418   4.614 -0.4033  0.2260  0.9997
 6948SOL    HW132306   3.872   1.513   4.609  2.8208  0.4683 -3.7373
 6948SOL    HW232307   3.814   1.382   4.564 -0.6717  0.7725  0.9885
 6949SOL     OW32308   4.042   2.510   3.918 -0.6238 -0.0278  0.3787
 6949SOL    HW132309   4.062   2.419   3.940 -0.2522 -0.0432 -0.0369
 6949SOL    HW232310   4.121   2.554   3.948 -0.5712 -0.5138  0.9523
 6950SOL     OW32311   0.002   1.530   8.665  0.1919 -0.1884 -0.4506
 6950SOL    HW132312   4.673   1.514   8.743  3.5055 -1.9559  1.4672
 6950SOL    HW232313   0.083   1.494   8.701 -0.9066 -2.3805 -0.1530
 6951SOL     OW32314   2.432   1.639  11.078 -0.4078 -0.3663 -0.6146
 6951SOL    HW132315   2.392   1.702  11.137  1.2839  1.2982 -1.2367
 6951SOL    HW232316   2.388   1.654  10.995  0.6252 -0.6939 -1.2290
 6952SOL     OW32317   1.807   0.068  13.732  0.1764 -0.0032 -0.2086
 6952SOL    HW132318   1.792   0.070  13.827  2.4003 -0.1972  0.1343
 6952SOL    HW232319   1.884   0.120  13.710 -0.9549  1.7123 -0.1064
 6953SOL     OW32320   2.045   2.147   9.330 -0.0052 -0.1574  0.1632
 6953SOL    HW132321   1.964   2.098   9.342 -0.3474  0.8211  1.8911
 6953SOL    HW232322   2.108   2.075   9.337  0.0915 -0.1055 -0.1926
 6954SOL     OW32323   1.961   3.997   7.858 -0.1895  0.3806 -0.4686
 6954SOL    HW132324   1.867   3.980   7.850  0.0877 -0.7305 -1.4108
 6954SOL    HW232325   1.956   4.041   7.943  0.3301 -2.3970  0.9923
 6955SOL     OW32326   2.808   0.475   9.552 -0.2614  0.4980  0.1837
 6955SOL    HW132327   2.751   0.547   9.577 -0.2463  1.4963 -2.6041
 6955SOL    HW232328   2.864   0.476   9.629  0.5389  0.3615 -0.3926
 6956SOL     OW32329   4.028   0.552   9.781 -0.2480  0.2291  0.2902
 6956SOL    HW132330   4.105   0.522   9.732 -0.3992 -4.0417  2.6006
 6956SOL    HW232331   3.971   0.477   9.763 -0.0457  0.7537 -2.5382
 6957SOL     OW32332   2.102   2.296   4.922  0.2255  0.2617  0.0969
 6957SOL    HW132333   2.065   2.210   4.904  0.6080 -0.2679  1.7891
 6957SOL    HW232334   2.040   2.359   4.887 -2.2359 -1.8092  0.7211
 6958SOL     OW32335   4.084   1.069  15.729 -0.2104 -0.3786  0.0364
 6958SOL    HW132336   4.110   1.090  15.819 -0.2926  0.3277 -0.1098
 6958SOL    HW232337   4.167   1.032  15.698  0.9929  3.0374 -0.8237
 6959SOL     OW32338   3.442   0.459   6.757 -0.1128  0.1286 -0.1808
 6959SOL    HW132339   3.497   0.485   6.831  0.4029 -0.6764 -0.2811
 6959SOL    HW232340   3.356   0.452   6.799  0.2223 -0.6972  0.3702
 6960SOL     OW32341   2.633   1.718  12.646  0.2525 -0.2664 -0.2781
 6960SOL    HW132342   2.693   1.735  12.719 -1.8552 -0.5760  1.5358
 6960SOL    HW232343   2.695   1.663  12.599  0.0381  1.4919 -2.6482
 6961SOL     OW32344   1.934   0.653   2.970  0.1015 -0.0191  0.3965
 6961SOL    HW132345   1.915   0.565   2.937  0.4349 -0.1861  0.6401
 6961SOL    HW232346   1.978   0.684   2.890 -1.0784  0.3968 -0.0973
 6962SOL     OW32347   0.318   3.462   1.020  0.1420 -0.1394  0.1141
 6962SOL    HW132348   0.247   3.523   1.042 -1.7397 -1.2830 -2.8097
 6962SOL    HW232349   0.368   3.456   1.101 -0.1544 -0.8753  0.2441
 6963SOL     OW32350   0.581   4.038   2.232  0.6294  0.0022 -0.3095
 6963SOL    HW132351   0.527   3.971   2.273  1.1575 -0.6903 -0.7491
 6963SOL    HW232352   0.521   4.112   2.224  1.1085  0.1041 -2.7835
 6964SOL     OW32353   0.744   1.573   9.335 -0.5430  0.1437 -0.1465
 6964SOL    HW132354   0.688   1.603   9.407 -1.2457 -2.3633  0.3405
 6964SOL    HW232355   0.720   1.480   9.339 -0.4820  0.1820  1.3326
 6965SOL     OW32356   2.516   4.157   6.980 -0.1037 -0.3400  0.4005
 6965SOL    HW132357   2.484   4.225   7.040 -0.9284  1.9257 -2.6381
 6965SOL    HW232358   2.437   4.163   6.926 -0.9347  1.6303  1.7910
 6966SOL     OW32359   0.884   3.305   5.589 -0.0890 -0.3863  0.0074
 6966SOL    HW132360   0.968   3.274   5.554  0.5229  0.0860  1.0307
 6966SOL    HW232361   0.843   3.320   5.505  0.7827 -0.2640 -0.3988
 6967SOL     OW32362   1.298   0.996  13.207  0.6448 -0.3288 -0.0645
 6967SOL    HW132363   1.311   0.935  13.280 -0.4990 -1.5186 -0.8590
 6967SOL    HW232364   1.217   0.966  13.166  0.7448 -2.4094  1.2243
 6968SOL     OW32365   3.803   4.497   6.399 -0.0898  0.0617  0.0298
 6968SOL    HW132366   3.887   4.511   6.355  0.0703 -0.8679  0.0286
 6968SOL    HW232367   3.809   4.403   6.417 -0.6858 -0.0815 -0.5353
 6969SOL     OW32368   2.631   4.054   9.218 -0.1027 -0.6030 -0.3130
 6969SOL    HW132369   2.605   4.133   9.170 -0.1201  0.0811  0.8344
 6969SOL    HW232370   2.621   4.081   9.309  1.0205  0.3924 -0.4961
 6970SOL     OW32371   3.801   2.649  13.085  0.6917  0.3578 -0.0350
 6970SOL    HW132372   3.864   2.684  13.022 -1.0019  0.4857 -1.6668
 6970SOL    HW232373   3.789   2.561  13.050 -1.2830  0.6367 -0.0573
 6971SOL     OW32374   1.176   3.512   4.035  0.0113  0.4163 -0.7535
 6971SOL    HW132375   1.259   3.476   4.067 -0.7214 -0.4667  0.1431
 6971SOL    HW232376   1.166   3.577   4.104 -2.2368 -0.6263 -0.0985
 6972SOL     OW32377   4.288   2.412  16.199  0.0153  0.1752 -0.3587
 6972SOL    HW132378   4.230   2.489  16.198  1.3239  1.1636  1.5383
 6972SOL    HW232379   4.361   2.447  16.149  0.0669  1.1569  0.4189
 6973SOL     OW32380   2.774   2.344   3.150 -0.0709  0.3397  0.0259
 6973SOL    HW132381   2.696   2.300   3.117 -1.4725  1.0333  2.3581
 6973SOL    HW232382   2.848   2.299   3.110  0.5031  1.6452 -0.3923
 6974SOL     OW32383   4.010   2.773  12.914  0.0498 -0.2461 -0.6017
 6974SOL    HW132384   3.950   2.805  12.847 -0.2203  0.4330 -0.0395
 6974SOL    HW232385   4.091   2.792  12.866  1.2102  1.8100  2.1642
 6975SOL     OW32386   1.253   3.254   4.186  0.1077 -0.8028  0.0194
 6975SOL    HW132387   1.326   3.206   4.222 -0.1097 -0.1685  1.2966
 6975SOL    HW232388   1.238   3.321   4.253  0.9853 -2.0613  1.4435
 6976SOL     OW32389   4.185   4.513   4.783 -0.3532  0.8042 -0.3930
 6976SOL    HW132390   4.144   4.429   4.802  3.6583 -1.2941 -0.9236
 6976SOL    HW232391   4.248   4.487   4.716  0.5050  0.5048  0.5151
 6977SOL     OW32392   2.966   4.411   7.089  0.2793  1.2774  0.3319
 6977SOL    HW132393   2.910   4.362   7.028  1.5712  2.0545 -1.4702
 6977SOL    HW232394   3.017   4.338   7.124 -0.6334 -0.2239 -1.4289
 6978SOL     OW32395   0.039   0.709   3.668 -0.2787 -0.3848 -0.1549
 6978SOL    HW132396   0.101   0.741   3.734 -0.4296  0.0819 -0.2382
 6978SOL    HW232397   4.702   0.783   3.661 -0.3925 -0.5551 -0.9346
 6979SOL     OW32398   1.289   3.709   1.959 -0.4645  0.0055  0.1854
 6979SOL    HW132399   1.257   3.650   2.028  1.1460 -2.2011 -0.9664
 6979SOL    HW232400   1.249   3.669   1.882 -1.4518  0.9259  0.2105
 6980SOL     OW32401   1.756   3.017   1.768 -0.1471 -0.2499 -0.2724
 6980SOL    HW132402   1.709   2.951   1.718 -0.8871 -1.0828  1.5379
 6980SOL    HW232403   1.795   2.975   1.845  0.0887  2.5410  1.1314
 6981SOL     OW32404   0.062   1.926   1.858 -0.5258 -0.5614 -0.1797
 6981SOL    HW132405   0.014   1.907   1.939 -1.1333  0.1164 -0.3727
 6981SOL    HW232406   0.091   2.016   1.873 -0.2291 -1.0043  1.9651
 6982SOL     OW32407   4.274   1.268   2.641 -0.3081  0.7154 -0.7259
 6982SOL    HW132408   4.231   1.212   2.705  0.0688  2.4420  1.0085
 6982SOL    HW232409   4.364   1.243   2.663 -1.3251 -0.7364  1.7480
 6983SOL     OW32410   2.288   0.193  12.382 -0.5917  0.9726  0.1901
 6983SOL    HW132411   2.301   0.109  12.426 -0.6891  0.7496 -0.2095
 6983SOL    HW232412   2.258   0.251  12.452 -0.2710  0.8261  0.4520
 6984SOL     OW32413   3.840   2.851  11.156  0.2857 -0.5086 -0.4412
 6984SOL    HW132414   3.767   2.894  11.201  1.4336  1.0603 -0.0937
 6984SOL    HW232415   3.869   2.789  11.223  0.4545 -0.0986 -0.1380
 6985SOL     OW32416   4.500   0.052   5.898  0.1724  0.4325  0.0599
 6985SOL    HW132417   4.585   0.092   5.881  0.7169 -1.1558 -0.9771
 6985SOL    HW232418   4.469   0.083   5.983 -1.5415 -1.5421  0.1448
 6986SOL     OW32419   4.314   2.920   5.567  0.2635 -0.3212  0.0729
 6986SOL    HW132420   4.302   2.899   5.474 -3.3778  1.0080  0.2699
 6986SOL    HW232421   4.395   2.972   5.570  0.5048 -0.7876  1.5802
 6987SOL     OW32422   0.881   4.007  17.238  0.3931  0.3948 -0.1495
 6987SOL    HW132423   0.812   4.068  17.214 -0.3534  0.2656  1.7563
 6987SOL    HW232424   0.894   3.953  17.160  0.6311  0.3453 -0.0777
 6988SOL     OW32425   1.221   2.931   8.274  0.2141 -0.0501  0.2220
 6988SOL    HW132426   1.281   3.004   8.256  2.1336 -1.3814  1.2202
 6988SOL    HW232427   1.134   2.971   8.276  0.0836 -0.3320  0.0499
 6989SOL     OW32428   3.901   0.872   5.666 -0.1448 -0.7933  0.1957
 6989SOL    HW132429   3.979   0.927   5.668 -0.4750 -0.3136 -0.2868
 6989SOL    HW232430   3.936   0.783   5.671  0.5915 -0.5055  0.1776
 6990SOL     OW32431   3.742   2.667   7.932  0.1558  0.3494 -0.2202
 6990SOL    HW132432   3.823   2.706   7.899 -0.2161  3.0482  2.0069
 6990SOL    HW232433   3.685   2.650   7.857  1.0052 -0.8948 -0.5816
 6991SOL     OW32434   3.570   0.682  11.026  0.5583  0.1414  0.2146
 6991SOL    HW132435   3.573   0.775  11.003  1.1245  0.1796  0.4294
 6991SOL    HW232436   3.541   0.646  10.943  0.0249 -0.7977  0.8146
 6992SOL     OW32437   2.114   1.496  11.217 -0.5389 -0.0466  0.2792
 6992SOL    HW132438   2.099   1.548  11.296  1.6672  0.7334  0.1843
 6992SOL    HW232439   2.210   1.496  11.212 -0.5990  0.8329 -1.0383
 6993SOL     OW32440   0.319   0.169   3.998 -0.8807 -0.4129  0.3314
 6993SOL    HW132441   0.391   0.166   4.060 -0.5406 -2.2440 -0.1675
 6993SOL    HW232442   0.326   0.262   3.973  1.9235 -0.4950  0.8915
 6994SOL     OW32443   0.857   1.309  16.577 -0.2274 -0.0294 -0.6925
 6994SOL    HW132444   0.776   1.361  16.568 -1.6411 -1.9850  0.8318
 6994SOL    HW232445   0.869   1.284  16.485 -1.1148  0.0884 -0.8473
 6995SOL     OW32446   2.522   3.842   1.485  0.2354 -0.2197 -0.3712
 6995SOL    HW132447   2.478   3.895   1.552 -0.7588 -0.0146 -1.1798
 6995SOL    HW232448   2.447   3.793   1.451 -0.4723 -0.0708  0.9921
 6996SOL     OW32449   0.140   2.970  16.939 -0.1047  0.3974  0.2068
 6996SOL    HW132450   0.087   3.050  16.943 -1.5206 -0.5059 -0.4866
 6996SOL    HW232451   0.164   2.965  17.031 -1.0170 -1.5601  0.3353
 6997SOL     OW32452   3.855   0.426   0.021  0.4406  0.7589 -0.9973
 6997SOL    HW132453   3.947   0.400   0.032  0.3841  1.2482  0.5452
 6997SOL    HW232454   3.839   0.457   0.110 -2.8145 -1.2178 -0.8949
 6998SOL     OW32455   1.048   2.515   7.208 -0.0719 -0.2085 -0.3408
 6998SOL    HW132456   0.979   2.534   7.145  1.0534  1.2274 -1.1411
 6998SOL    HW232457   1.003   2.437   7.241 -0.5009  0.4879  0.7253
 6999SOL     OW32458   1.559   4.707   4.227 -0.6141  0.4968 -0.3122
 6999SOL    HW132459   1.619   4.653   4.175  2.1726  0.0345  3.3860
 6999SOL    HW232460   1.487   4.717   4.165 -1.9310 -0.6214  1.0361
 7000SOL     OW32461   3.803   2.242   8.268 -0.3125 -0.1737  0.2499
 7000SOL    HW132462   3.822   2.328   8.230  0.5176  0.1776  1.4679
 7000SOL    HW232463   3.893   2.211   8.272 -0.0104  0.5347 -0.8834
 7001SOL     OW32464   2.289   0.233   6.256 -0.3131 -0.4216  0.3058
 7001SOL    HW132465   2.366   0.217   6.201  0.0001  0.1209  0.5934
 7001SOL    HW232466   2.293   0.328   6.252 -0.3906 -0.4504 -0.6098
 7002SOL     OW32467   3.700   2.640   8.683  0.2414  0.4412 -0.8527
 7002SOL    HW132468   3.670   2.549   8.677  0.5073  0.3417 -0.6819
 7002SOL    HW232469   3.634   2.687   8.632  0.8862  0.4170 -1.7267
 7003SOL     OW32470   4.226   4.160   5.356 -0.3737 -0.0905 -0.1710
 7003SOL    HW132471   4.151   4.219   5.361  0.7906  1.5164 -1.6776
 7003SOL    HW232472   4.234   4.137   5.449  0.3798 -1.4881 -0.5770
 7004SOL     OW32473   1.662   3.420  11.131  0.2449 -0.3482  0.1012
 7004SOL    HW132474   1.743   3.372  11.150  0.4000 -1.1158 -2.4755
 7004SOL    HW232475   1.595   3.369  11.177  0.1049  0.1553  0.4444
 7005SOL     OW32476   0.895   0.186  12.621  0.1450  0.6407 -0.0011
 7005SOL    HW132477   0.938   0.120  12.567  0.3900  1.0693 -0.3315
 7005SOL    HW232478   0.909   0.145  12.707  1.5210  2.2835  0.5492
 7006SOL     OW32479   2.271   0.272   5.346 -0.2295  0.3384  0.4132
 7006SOL    HW132480   2.327   0.343   5.377  0.6945  0.1297 -0.8158
 7006SOL    HW232481   2.343   0.213   5.329 -0.2033 -0.5100  3.3819
 7007SOL     OW32482   1.318   0.861  12.435  0.2993 -0.0888  0.2365
 7007SOL    HW132483   1.339   0.768  12.442 -0.2884 -0.2509 -0.1634
 7007SOL    HW232484   1.249   0.852  12.369  1.3802  0.0548 -0.9094
 7008SOL     OW32485   1.784   0.639  11.040  0.1383 -0.1752 -0.4155
 7008SOL    HW132486   1.725   0.565  11.025  1.8548 -1.4680 -0.8855
 7008SOL    HW232487   1.820   0.608  11.123  0.6710  1.2702 -0.1146
 7009SOL     OW32488   2.121   1.644  11.465  0.1235  0.0665 -0.3861
 7009SOL    HW132489   2.080   1.654  11.551 -0.6936  1.5786 -0.9523
 7009SOL    HW232490   2.189   1.711  11.472 -0.8101  0.7645  1.9741
 7010SOL     OW32491   3.776   4.492   2.560 -0.0004  0.4684  0.5458
 7010SOL    HW132492   3.688   4.464   2.537  0.2243 -1.2489  1.8611
 7010SOL    HW232493   3.787   4.449   2.644  0.4080 -0.4966  0.0051
 7011SOL     OW32494   3.155   1.605   3.653 -0.6441 -0.3366 -0.0603
 7011SOL    HW132495   3.199   1.652   3.582  0.4539 -1.8903 -0.4140
 7011SOL    HW232496   3.200   1.647   3.726 -0.6843 -0.0850 -0.1794
 7012SOL     OW32497   2.894   0.940   2.002 -0.1479 -0.1537  0.3151
 7012SOL    HW132498   2.885   0.889   1.922  0.1246  0.6501 -0.2263
 7012SOL    HW232499   2.960   0.998   1.964  0.5434 -1.5974 -0.7019
 7013SOL     OW32500   0.364   4.293   2.002  0.1420 -0.2296 -0.0802
 7013SOL    HW132501   0.275   4.260   1.992  0.0846 -0.5070  1.4443
 7013SOL    HW232502   0.378   4.293   2.096  1.0559 -2.1107 -0.2314
 7014SOL     OW32503   2.489   0.243  11.858 -0.7147  0.1405  0.1236
 7014SOL    HW132504   2.508   0.288  11.941 -0.0207 -1.7287  0.9756
 7014SOL    HW232505   2.577   0.237  11.822 -0.7819  0.8044 -0.1438
 7015SOL     OW32506   3.483   3.023   5.837  0.4935  0.1851  0.4964
 7015SOL    HW132507   3.577   3.036   5.824  0.5490 -0.5298  0.2249
 7015SOL    HW232508   3.446   3.100   5.794  0.1062 -0.1453  0.2362
 7016SOL     OW32509   4.398   1.448   5.212  0.2315  0.0888  0.2744
 7016SOL    HW132510   4.402   1.507   5.287  1.2864 -0.0696  0.3481
 7016SOL    HW232511   4.315   1.470   5.169  0.9211  0.4374 -0.8878
 7017SOL     OW32512   0.890   3.429  11.677  0.9280 -0.1981  0.1449
 7017SOL    HW132513   0.968   3.422  11.622  0.3232 -0.1244 -0.7213
 7017SOL    HW232514   0.895   3.514  11.720  0.3959  0.7279 -1.6497
 7018SOL     OW32515   3.488   2.978   4.941 -0.3847 -0.3188  0.3208
 7018SOL    HW132516   3.583   2.970   4.952  0.0907  0.4353 -3.2350
 7018SOL    HW232517   3.467   2.978   4.848  0.3466 -0.4033  0.1573
 7019SOL     OW32518   1.824   2.496   6.256  0.0590 -0.1397  0.2086
 7019SOL    HW132519   1.785   2.487   6.342  0.1243 -1.0865  0.1410
 7019SOL    HW232520   1.798   2.586   6.239  0.8667 -0.1338 -1.0025
 7020SOL     OW32521   3.882   2.896  12.692 -0.1043  0.2324  0.4353
 7020SOL    HW132522   3.914   2.921  12.605 -0.5403 -1.1898 -0.1268
 7020SOL    HW232523   3.924   2.959  12.750 -0.2892 -0.2835  1.1256
 7021SOL     OW32524   0.598   3.214   4.362 -0.1175  0.2779  0.4455
 7021SOL    HW132525   0.673   3.247   4.411  1.6437 -0.6724 -1.6207
 7021SOL    HW232526   0.625   3.187   4.275  2.9663  2.9313  0.6010
 7022SOL     OW32527   2.794   2.810   3.803 -0.2135 -0.0038 -0.3847
 7022SOL    HW132528   2.741   2.786   3.879 -0.5841 -3.4209 -1.7262
 7022SOL    HW232529   2.825   2.892   3.842 -0.5140 -0.8367  1.6211
 7023SOL     OW32530   3.539   0.722   9.800 -0.2722  0.4075  0.6882
 7023SOL    HW132531   3.549   0.627   9.811 -0.8443  0.4842  1.8586
 7023SOL    HW232532   3.469   0.726   9.865 -0.7476 -2.4649  0.3440
 7024SOL     OW32533   2.268   0.367   8.152  0.2727  0.2347 -0.2734
 7024SOL    HW132534   2.260   0.272   8.166  2.3422 -0.0470 -0.9380
 7024SOL    HW232535   2.338   0.388   8.214 -0.7527  1.7595  0.3486
 7025SOL     OW32536   0.436   2.545  14.395  0.3790 -0.0630 -0.0029
 7025SOL    HW132537   0.394   2.594  14.324  0.0196  1.0270  0.9712
 7025SOL    HW232538   0.500   2.604  14.433  3.0412 -2.1555 -1.2163
 7026SOL     OW32539   3.298   2.163  16.599  0.4312  0.2596  0.0866
 7026SOL    HW132540   3.292   2.174  16.694 -0.2173  1.0704 -0.0529
 7026SOL    HW232541   3.339   2.247  16.578 -0.7902  0.5840 -1.0486
 7027SOL     OW32542   2.033   1.901   7.048 -0.4837 -0.5112 -0.7829
 7027SOL    HW132543   1.988   1.906   6.963 -0.9437  2.0767 -0.3899
 7027SOL    HW232544   2.015   1.992   7.074  0.0118 -0.3412 -1.0467
 7028SOL     OW32545   0.488   1.087  16.893  0.5593  0.3021 -0.4441
 7028SOL    HW132546   0.488   1.029  16.970 -0.4694 -1.1545 -1.5391
 7028SOL    HW232547   0.408   1.136  16.911  0.2739  0.5248 -2.4028
 7029SOL     OW32548   1.342   0.656   7.552  0.3858 -0.1108  0.3102
 7029SOL    HW132549   1.438   0.658   7.557  0.2117  3.0931  2.6134
 7029SOL    HW232550   1.315   0.629   7.640 -1.3603  0.0740 -0.1688
 7030SOL     OW32551   0.064   3.907   5.927  0.1033  0.2606 -0.0373
 7030SOL    HW132552   0.013   3.963   5.869 -1.5181 -2.0326 -0.7820
 7030SOL    HW232553   0.130   3.875   5.865  1.6672  0.5061  1.4748
 7031SOL     OW32554   0.425   1.471   7.882 -0.5958  0.4988 -0.5429
 7031SOL    HW132555   0.383   1.489   7.798  0.2958 -1.3290 -1.3753
 7031SOL    HW232556   0.508   1.513   7.858  0.0898 -1.2161 -1.1651
 7032SOL     OW32557   0.576   0.147  13.074  0.2343 -0.2320 -0.4627
 7032SOL    HW132558   0.665   0.146  13.110  0.3841  0.5055 -0.8282
 7032SOL    HW232559   0.579   0.080  13.005  4.8300 -3.0235  2.4162
 7033SOL     OW32560   4.375   0.249   2.400  0.2817  0.2830 -0.3146
 7033SOL    HW132561   4.420   0.303   2.335 -0.2618  1.7552  0.5403
 7033SOL    HW232562   4.285   0.270   2.375 -0.5415 -4.0688 -1.0509
 7034SOL     OW32563   0.066   1.704  16.958  0.2208  0.2067 -0.0781
 7034SOL    HW132564   0.016   1.749  17.026  0.1987  0.3924 -0.2172
 7034SOL    HW232565   4.721   1.648  16.922  2.9712 -2.1906 -1.6401
 7035SOL     OW32566   0.207   2.342   1.200  0.2394 -0.4504  0.0551
 7035SOL    HW132567   0.157   2.375   1.275 -2.1076 -0.0836 -1.6795
 7035SOL    HW232568   0.142   2.286   1.158  0.2958 -0.0498 -0.5661
 7036SOL     OW32569   0.445   1.483   2.839 -0.2118  0.1956  0.1130
 7036SOL    HW132570   0.423   1.521   2.754  1.0882  1.3790  0.2988
 7036SOL    HW232571   0.530   1.445   2.819  0.5842  3.6369 -3.1666
 7037SOL     OW32572   1.827   1.988  17.362 -0.5047 -0.5330  0.4281
 7037SOL    HW132573   1.789   2.075  17.347 -2.5085 -1.5364 -0.1604
 7037SOL    HW232574   1.800   1.942  17.283  0.7061  0.6324 -0.6694
 7038SOL     OW32575   2.719   0.001  15.972 -0.0818  0.1664  0.1192
 7038SOL    HW132576   2.626   4.716  15.950 -0.6602  1.1214  2.1039
 7038SOL    HW232577   2.738   4.632  15.967 -1.3569 -0.0553 -0.6691
 7039SOL     OW32578   0.517   1.268  11.306 -0.2984 -0.4155  0.1564
 7039SOL    HW132579   0.467   1.311  11.376 -0.1009 -1.9934  1.2783
 7039SOL    HW232580   0.523   1.178  11.339 -1.4294 -0.8290 -0.7329
 7040SOL     OW32581   1.781   1.376   2.106  0.3541  0.1272 -0.1785
 7040SOL    HW132582   1.853   1.439   2.103  0.2555  0.0332 -3.9395
 7040SOL    HW232583   1.828   1.301   2.071 -3.1600 -2.4321  0.6592
 7041SOL     OW32584   3.508   4.376  13.250 -1.0130 -0.0581  0.3032
 7041SOL    HW132585   3.444   4.437  13.287 -0.5156  0.7495 -0.1780
 7041SOL    HW232586   3.576   4.381  13.317  0.0220 -2.5758 -0.5805
 7042SOL     OW32587   1.182   2.366   7.510  0.0321 -0.0991 -0.4829
 7042SOL    HW132588   1.133   2.425   7.452 -1.7433  0.9475  2.0821
 7042SOL    HW232589   1.182   2.419   7.590  0.4232 -1.3450  0.3321
 7043SOL     OW32590   3.313   0.535   0.798 -0.5074  0.0004  0.2005
 7043SOL    HW132591   3.235   0.561   0.749  1.5878  1.0274 -2.5960
 7043SOL    HW232592   3.371   0.493   0.734 -1.3854 -0.6354 -0.1662
 7044SOL     OW32593   2.452   0.649   9.232  0.2062 -0.1811 -0.0981
 7044SOL    HW132594   2.395   0.653   9.156  0.0718 -0.5524 -0.0166
 7044SOL    HW232595   2.409   0.698   9.302 -0.1917  2.2565 -2.0914
 7045SOL     OW32596   1.619   1.437   9.303 -0.2101  0.2944  0.5961
 7045SOL    HW132597   1.525   1.431   9.286 -0.3052 -0.1629  1.3014
 7045SOL    HW232598   1.653   1.404   9.220 -2.0788  1.1576 -0.5032
 7046SOL     OW32599   1.086   3.345   7.675 -0.1103  0.4329 -0.0581
 7046SOL    HW132600   1.116   3.414   7.734  1.6207 -1.2256  1.0070
 7046SOL    HW232601   1.091   3.401   7.597  2.7643 -2.2820 -1.8214
 7047SOL     OW32602   4.245   2.575   3.175 -0.0126 -0.1980  0.9111
 7047SOL    HW132603   4.159   2.536   3.188 -0.6637  1.1203  0.6451
 7047SOL    HW232604   4.215   2.652   3.126  0.8770 -0.8228 -0.6404
 7048SOL     OW32605   1.353   3.865   5.935 -0.0488  0.3665  0.5179
 7048SOL    HW132606   1.292   3.796   5.908  1.4189 -0.8776  0.3503
 7048SOL    HW232607   1.331   3.923   5.863 -1.7239 -0.2975  0.4985
 7049SOL     OW32608   0.458   4.675   6.172 -0.0705 -0.3965 -0.4933
 7049SOL    HW132609   0.452   4.650   6.264  0.2374 -1.7359 -0.8327
 7049SOL    HW232610   0.367   4.696   6.153  0.8514  1.4184 -2.8201
 7050SOL     OW32611   2.575   3.456  15.627 -0.3929 -0.2355  0.0424
 7050SOL    HW132612   2.510   3.386  15.624  0.8255 -1.4894  2.7558
 7050SOL    HW232613   2.548   3.511  15.700  0.5169  0.6150 -0.2536
 7051SOL     OW32614   1.639   3.920  13.800 -0.4257 -0.4993 -0.4791
 7051SOL    HW132615   1.661   3.965  13.718 -2.2872 -0.9068 -1.2074
 7051SOL    HW232616   1.651   3.995  13.858 -1.9155 -0.9218  0.3807
 7052SOL     OW32617   1.185   1.524  13.491 -0.8366  0.6746  0.1193
 7052SOL    HW132618   1.218   1.573  13.566  1.3948 -0.9159  0.1697
 7052SOL    HW232619   1.224   1.438  13.506  2.5954  1.8080 -2.3428
 7053SOL     OW32620   3.484   0.142   8.297  0.4912 -0.1733 -0.7376
 7053SOL    HW132621   3.457   0.208   8.362  0.8350  0.4154 -1.1940
 7053SOL    HW232622   3.404   0.092   8.281  1.5486 -2.1992  0.3076
 7054SOL     OW32623   1.208   4.232  13.152  0.5671  0.0897 -0.0216
 7054SOL    HW132624   1.145   4.304  13.139  0.1073  0.3014  3.3339
 7054SOL    HW232625   1.252   4.261  13.232  1.2219  0.7949 -0.6381
 7055SOL     OW32626   0.954   0.041   0.224  0.8291 -0.0640  0.0391
 7055SOL    HW132627   0.941   0.109   0.158 -0.2333 -1.1955 -0.9262
 7055SOL    HW232628   1.049   0.039   0.217  0.7872  0.9113 -0.7067
 7056SOL     OW32629   1.502   4.480   4.069 -0.1333  0.0937  0.3685
 7056SOL    HW132630   1.413   4.455   4.043  0.3488  0.3139 -1.5061
 7056SOL    HW232631   1.539   4.466   3.982 -2.1830  1.7362 -0.7730
 7057SOL     OW32632   2.067   4.165  13.625 -0.0785  0.2530 -0.0207
 7057SOL    HW132633   2.022   4.243  13.657 -0.2104  0.6595 -1.2196
 7057SOL    HW232634   2.069   4.102  13.697 -2.2310 -1.2358 -1.2613
 7058SOL     OW32635   1.226   0.878   2.914  0.4136  0.1570  0.0328
 7058SOL    HW132636   1.242   0.872   3.008  0.6649  0.3370  0.0039
 7058SOL    HW232637   1.254   0.968   2.898 -0.2629  0.3334 -0.1654
 7059SOL     OW32638   0.451   4.519  11.141  0.1545 -0.1079  0.0116
 7059SOL    HW132639   0.379   4.456  11.137  1.6382 -1.6346 -2.1033
 7059SOL    HW232640   0.440   4.571  11.062  0.2883  1.1625  0.8387
 7060SOL     OW32641   0.276   1.688   5.883 -0.4974 -0.4371 -0.1782
 7060SOL    HW132642   0.336   1.640   5.940 -0.7622  0.7547  1.1104
 7060SOL    HW232643   0.274   1.620   5.816 -0.8879 -1.2302  0.6466
 7061SOL     OW32644   1.672   2.758   0.200  0.3448  0.0044 -0.0502
 7061SOL    HW132645   1.691   2.785   0.291  1.3063  1.1864 -0.5953
 7061SOL    HW232646   1.636   2.838   0.161  0.2161 -0.2845 -0.5078
 7062SOL     OW32647   3.098   2.989   9.086 -0.5336  0.1305  0.2944
 7062SOL    HW132648   3.187   2.953   9.083 -0.6381 -0.1668  0.7476
 7062SOL    HW232649   3.117   3.061   9.147  1.7608 -1.6303  1.6392
 7063SOL     OW32650   1.155   4.543  13.458  0.5801  0.1107  0.2361
 7063SOL    HW132651   1.091   4.536  13.529  0.0730  2.8194  0.0558
 7063SOL    HW232652   1.171   4.637  13.467  1.3160 -0.0501  0.5912
 7064SOL     OW32653   2.035   2.166   5.853 -0.3209  0.6009 -0.3564
 7064SOL    HW132654   1.987   2.241   5.816  0.2265  0.6827 -0.9058
 7064SOL    HW232655   2.111   2.167   5.794 -1.5703  0.4149 -1.9819
 7065SOL     OW32656   1.133   4.354  15.606  0.1627 -0.1991 -0.4212
 7065SOL    HW132657   1.161   4.383  15.693  1.1417  1.3330 -1.2476
 7065SOL    HW232658   1.148   4.431  15.551 -0.5528  0.2290 -0.0098
 7066SOL     OW32659   1.346   3.342  12.195 -0.1292 -0.0570 -0.0576
 7066SOL    HW132660   1.270   3.356  12.138 -0.0689 -0.1224 -0.1530
 7066SOL    HW232661   1.423   3.353  12.139  0.0105 -1.8961 -0.2327
 7067SOL     OW32662   0.223   3.475   0.508  0.6229 -0.3091  0.2605
 7067SOL    HW132663   0.271   3.496   0.428  0.2224 -0.2025  0.0499
 7067SOL    HW232664   0.150   3.536   0.516  0.4895 -0.3881 -0.3927
 7068SOL     OW32665   2.092   1.648   3.246  0.1852  0.0946 -0.3210
 7068SOL    HW132666   2.076   1.706   3.320  0.6919  0.5137 -0.5385
 7068SOL    HW232667   2.183   1.675   3.232  0.3026  0.3467  0.9498
 7069SOL     OW32668   0.340   3.049   9.444  0.6064  0.1406  0.4425
 7069SOL    HW132669   0.312   3.065   9.534 -1.2169  2.9564 -0.6183
 7069SOL    HW232670   0.355   2.955   9.438  0.2588  0.0861  0.4915
 7070SOL     OW32671   1.358   1.055  15.018 -0.6816  0.1712 -0.3514
 7070SOL    HW132672   1.281   1.010  15.054 -0.6221  1.1261  0.9620
 7070SOL    HW232673   1.384   1.129  15.072  1.0147  0.3357 -1.4085
 7071SOL     OW32674   0.154   2.961   6.482 -0.1979 -0.1454 -0.0892
 7071SOL    HW132675   0.156   3.018   6.559  2.5612 -0.6274  0.2012
 7071SOL    HW232676   0.245   2.934   6.470 -0.1549 -1.1236  2.5084
 7072SOL     OW32677   4.719   4.080   5.748  0.0455  0.0925  0.5842
 7072SOL    HW132678   4.655   4.150   5.758 -0.9619 -0.7240 -0.2962
 7072SOL    HW232679   4.679   4.017   5.688 -0.8794  0.7890  0.4721
 7073SOL     OW32680   2.660   3.356   7.418 -0.8551  0.5038  0.0398
 7073SOL    HW132681   2.702   3.383   7.336 -1.1951 -0.1401 -0.3437
 7073SOL    HW232682   2.573   3.393   7.404  0.2617  2.3274 -2.1824
 7074SOL     OW32683   0.425   2.342   5.535  0.1905  0.2251  0.2377
 7074SOL    HW132684   0.421   2.247   5.518 -0.4717  0.2206  0.4503
 7074SOL    HW232685   0.376   2.381   5.463 -2.5246 -0.0027  1.9682
 7075SOL     OW32686   3.601   4.308   3.949  0.0598  0.7632  0.4253
 7075SOL    HW132687   3.647   4.359   4.016  1.1278 -0.7487  0.8358
 7075SOL    HW232688   3.613   4.215   3.968  0.4934  0.8389  0.5237
 7076SOL     OW32689   3.007   4.213   1.784  0.3697  0.3628 -0.3227
 7076SOL    HW132690   3.039   4.250   1.702  3.4176 -0.2983  0.5877
 7076SOL    HW232691   3.087   4.205   1.835  0.5837 -0.6330 -0.8304
 7077SOL     OW32692   0.030   2.811  12.226 -0.2436 -0.1702  0.1757
 7077SOL    HW132693   4.705   2.802  12.307  0.9237  1.4046  1.0514
 7077SOL    HW232694   0.017   2.728  12.180 -1.4859  0.1204  0.0144
 7078SOL     OW32695   3.300   1.278  12.207  0.7162 -0.2047  0.7412
 7078SOL    HW132696   3.291   1.366  12.171  1.4540 -0.5543 -0.3048
 7078SOL    HW232697   3.211   1.260  12.237 -0.1190 -0.3886 -1.8804
 7079SOL     OW32698   1.786   0.851   0.874  0.5616  0.1895 -0.0017
 7079SOL    HW132699   1.691   0.860   0.866  0.2219 -0.4672  3.1867
 7079SOL    HW232700   1.807   0.836   0.782 -0.5652  1.8959 -0.5473
 7080SOL     OW32701   4.310   0.973   6.884  0.6582 -0.9589 -1.1292
 7080SOL    HW132702   4.264   1.057   6.886  1.1844 -0.6614 -1.4038
 7080SOL    HW232703   4.246   0.907   6.909 -0.0449 -0.4148 -1.5017
 7081SOL     OW32704   2.709   2.804  11.397  0.4727  0.0461  0.5596
 7081SOL    HW132705   2.761   2.756  11.461 -0.3340  1.0543  1.9787
 7081SOL    HW232706   2.771   2.812  11.325  0.5409  1.6829  0.8049
 7082SOL     OW32707   0.883   0.826  16.970 -0.6252  0.0490  0.1884
 7082SOL    HW132708   0.949   0.812  17.039 -0.5167  1.5253  0.3886
 7082SOL    HW232709   0.847   0.738  16.958  2.3674 -1.2911  0.8062
 7083SOL     OW32710   3.495   2.974   4.666  0.0943 -0.6403 -0.4644
 7083SOL    HW132711   3.562   2.914   4.634 -0.6375 -2.3340  1.2229
 7083SOL    HW232712   3.542   3.058   4.660  2.9566 -2.0891  1.5583
 7084SOL     OW32713   3.207   3.361   4.744 -0.6254 -0.0233 -0.2459
 7084SOL    HW132714   3.214   3.273   4.705  1.5801 -0.4450  1.0755
 7084SOL    HW232715   3.284   3.402   4.703 -0.0969  0.4397  1.2183
 7085SOL     OW32716   0.411   2.935   4.196  0.2772 -0.3665  0.5721
 7085SOL    HW132717   0.463   2.992   4.253 -0.6907  1.3936 -0.2975
 7085SOL    HW232718   0.340   2.998   4.184 -0.8195 -1.7259 -0.1107
 7086SOL     OW32719   2.854   3.775   7.633  0.3359 -0.4130  0.9585
 7086SOL    HW132720   2.912   3.721   7.579 -0.6148 -0.4984  0.0203
 7086SOL    HW232721   2.781   3.714   7.636 -0.9391  1.0902  0.6494
 7087SOL     OW32722   1.285   0.091   4.148 -0.3180  0.1269 -0.1373
 7087SOL    HW132723   1.248   0.003   4.157  1.4619 -0.4447  1.4681
 7087SOL    HW232724   1.213   0.140   4.107 -1.5469 -0.1627  1.6446
 7088SOL     OW32725   0.056   2.726   3.144  0.1922  0.5907 -0.2488
 7088SOL    HW132726   4.687   2.704   3.136 -0.1328  2.9512 -3.2889
 7088SOL    HW232727   0.053   2.822   3.151 -1.3326  0.5113  0.0441
 7089SOL     OW32728   3.422   0.752  14.147 -0.0496  0.0814 -0.4109
 7089SOL    HW132729   3.507   0.721  14.180 -0.2801 -0.5943 -0.4357
 7089SOL    HW232730   3.453   0.841  14.135 -2.0041  0.8619  0.3714
 7090SOL     OW32731   4.581   1.000  11.095  0.0539  0.1040  0.1927
 7090SOL    HW132732   4.631   0.924  11.064 -1.0822 -1.7604  2.9156
 7090SOL    HW232733   4.649   1.054  11.136  0.3830  1.9132 -2.7745
 7091SOL     OW32734   1.182   1.096  11.678  0.0502  0.0452  0.4512
 7091SOL    HW132735   1.164   1.094  11.584 -1.1564 -0.9745  0.6977
 7091SOL    HW232736   1.277   1.085  11.680  0.4164  2.3955 -3.2620
 7092SOL     OW32737   0.020   1.179   6.318  0.0772 -0.1203 -0.0848
 7092SOL    HW132738   0.030   1.164   6.412 -0.3880 -1.0175 -0.1758
 7092SOL    HW232739   0.084   1.250   6.319  0.6507 -0.6234 -0.9125
 7093SOL     OW32740   0.913   1.681   6.251 -0.4361 -0.0899 -0.2111
 7093SOL    HW132741   0.937   1.756   6.196  1.0537  0.0283  0.5989
 7093SOL    HW232742   0.985   1.673   6.313 -0.3508 -2.7041 -0.6258
 7094SOL     OW32743   4.400   2.520   0.635 -0.3703  0.2666  0.0650
 7094SOL    HW132744   4.468   2.455   0.650  0.6080  1.1081 -0.7067
 7094SOL    HW232745   4.325   2.461   0.633  1.8311 -2.4868 -1.3993
 7095SOL     OW32746   0.780   0.607  14.789 -0.6927 -0.1937 -0.1272
 7095SOL    HW132747   0.822   0.654  14.861  2.7505 -1.7005 -1.1458
 7095SOL    HW232748   0.846   0.613  14.720  0.0716 -0.2300  0.5985
 7096SOL     OW32749   4.213   0.291   5.311  0.0050 -0.8585 -0.8643
 7096SOL    HW132750   4.152   0.238   5.260 -2.2191 -0.4332  1.3376
 7096SOL    HW232751   4.159   0.368   5.330  0.3647 -1.4744  2.5596
 7097SOL     OW32752   1.920   2.314   4.273 -0.4030  0.0090  0.3198
 7097SOL    HW132753   1.828   2.325   4.251 -0.9383  0.0128  2.6072
 7097SOL    HW232754   1.909   2.317   4.368 -1.9232 -0.6282  0.1565
 7098SOL     OW32755   2.674   1.323   4.483  0.0414  0.0345 -0.3537
 7098SOL    HW132756   2.634   1.401   4.521  2.8436  1.3358 -0.0634
 7098SOL    HW232757   2.765   1.347   4.501  0.5027  0.5116 -3.2290
 7099SOL     OW32758   1.322   2.555   4.103 -0.0791  0.0842 -0.0902
 7099SOL    HW132759   1.228   2.548   4.121  0.2142  0.4592  1.5579
 7099SOL    HW232760   1.330   2.547   4.008 -0.8445 -0.8510 -0.0758
 7100SOL     OW32761   3.449   3.127  14.998  0.6312 -0.0941  0.3151
 7100SOL    HW132762   3.533   3.173  14.992  0.2733  0.9817  3.6620
 7100SOL    HW232763   3.475   3.035  15.010  1.1643  0.3368  2.3595
 7101SOL     OW32764   3.940   1.069  10.360  0.4877  0.0445  0.3091
 7101SOL    HW132765   3.888   1.047  10.437 -0.9042 -1.3306 -1.0180
 7101SOL    HW232766   3.910   1.158  10.341 -1.6125 -1.2423 -2.4076
 7102SOL     OW32767   3.475   0.938   3.033  0.8553  0.0378 -0.0443
 7102SOL    HW132768   3.401   0.929   2.972 -0.7133 -0.2963  1.8996
 7102SOL    HW232769   3.442   0.992   3.105 -0.0505  0.7129 -0.9760
 7103SOL     OW32770   1.825   1.377   5.042  0.2690 -0.1601 -0.0859
 7103SOL    HW132771   1.874   1.297   5.026  0.1362 -0.6237  1.8652
 7103SOL    HW232772   1.807   1.407   4.953  0.5977 -1.1213 -0.4688
 7104SOL     OW32773   0.591   0.743   7.638  0.1397 -0.4324 -0.2209
 7104SOL    HW132774   0.512   0.723   7.688 -0.3346  1.5674 -0.1700
 7104SOL    HW232775   0.639   0.660   7.637  0.4748 -0.2494  1.1918
 7105SOL     OW32776   0.623   1.556   6.144 -0.2869 -0.1748 -0.0558
 7105SOL    HW132777   0.644   1.513   6.061 -0.5394 -0.1714 -0.1225
 7105SOL    HW232778   0.705   1.582   6.185 -1.1744  1.6241  0.5836
 7106SOL     OW32779   1.455   0.880   9.899 -0.4562 -0.0189  0.1085
 7106SOL    HW132780   1.537   0.903   9.854 -0.2785 -0.0091  0.4407
 7106SOL    HW232781   1.488   0.846   9.982  0.0383  0.6663  0.1882
 7107SOL     OW32782   3.856   1.133   2.668 -0.2791  1.0028  0.0591
 7107SOL    HW132783   3.900   1.099   2.746 -0.7905  0.6115  0.1796
 7107SOL    HW232784   3.835   1.052   2.621 -0.3486  1.4646 -0.7011
 7108SOL     OW32785   3.306   0.250   6.412 -0.6357  0.2104  0.4617
 7108SOL    HW132786   3.394   0.262   6.449 -0.6895  1.2718  0.2480
 7108SOL    HW232787   3.295   0.159   6.440 -1.2736 -0.2810 -1.4199
 7109SOL     OW32788   0.523   2.577   4.754 -0.4125  0.3226 -0.1599
 7109SOL    HW132789   0.567   2.613   4.677 -1.5908  2.8312  0.3430
 7109SOL    HW232790   0.593   2.574   4.819  0.4196  1.0378 -1.0204
 7110SOL     OW32791   3.596   0.392   7.027  0.1865 -0.0553  0.2012
 7110SOL    HW132792   3.552   0.455   7.084  0.1396  0.1819 -0.0941
 7110SOL    HW232793   3.600   0.312   7.078  1.1291  0.3139  0.7122
 7111SOL     OW32794   0.620   4.411   6.673  0.0740  0.2225 -0.5143
 7111SOL    HW132795   0.665   4.333   6.706  0.0166 -0.8165 -2.9152
 7111SOL    HW232796   0.553   4.429   6.739 -1.5550 -1.4375 -1.7190
 7112SOL     OW32797   0.425   2.955  11.479 -0.6041 -0.2557  0.1140
 7112SOL    HW132798   0.370   2.888  11.518  0.1045 -1.1402 -0.4141
 7112SOL    HW232799   0.490   2.913  11.423 -1.1014 -1.0830  0.1473
 7113SOL     OW32800   3.648   1.391  16.213  0.0140 -0.0221  0.4410
 7113SOL    HW132801   3.708   1.464  16.194 -0.7910  0.6838  0.6143
 7113SOL    HW232802   3.631   1.363  16.123  0.7910 -2.0544  0.9211
 7114SOL     OW32803   0.284   0.811   4.198  0.2909 -0.0193  0.0765
 7114SOL    HW132804   0.203   0.815   4.249 -0.0959  1.3443 -0.6400
 7114SOL    HW232805   0.265   0.887   4.143  0.2584  1.8026  2.6728
 7115SOL     OW32806   1.265   4.701   2.052 -0.3810 -0.0709  0.1008
 7115SOL    HW132807   1.281   4.719   1.960 -0.3848  5.1861  1.1553
 7115SOL    HW232808   1.357   4.688   2.075 -0.1552  0.7849 -0.3461
 7116SOL     OW32809   0.084   0.110   6.469 -0.5578 -0.3293  0.3378
 7116SOL    HW132810   0.033   0.034   6.442  0.5277 -0.9478  0.0142
 7116SOL    HW232811   0.121   0.074   6.550 -2.2537 -1.7097  0.4924
 7117SOL     OW32812   3.356   3.270   7.965 -0.7646 -0.0316  0.1018
 7117SOL    HW132813   3.339   3.337   8.032 -0.4325  0.2836 -0.1300
 7117SOL    HW232814   3.393   3.196   8.013  1.1816  2.4912  2.4926
 7118SOL     OW32815   3.262   1.826   4.793 -0.6020  0.0478  0.0978
 7118SOL    HW132816   3.241   1.786   4.708 -0.4560 -0.6864  0.4097
 7118SOL    HW232817   3.179   1.866   4.819 -0.4477 -0.7164  1.7696
 7119SOL     OW32818   0.793   0.982   9.623 -0.2223  0.6143  0.5224
 7119SOL    HW132819   0.785   0.904   9.568 -4.6221  2.9825 -2.1882
 7119SOL    HW232820   0.728   1.043   9.589 -0.1044 -1.3720 -3.2750
 7120SOL     OW32821   3.630   3.503   4.413 -0.3004  0.3367  0.2493
 7120SOL    HW132822   3.636   3.535   4.323 -1.4457 -0.4071 -0.0924
 7120SOL    HW232823   3.688   3.560   4.463 -0.0339 -0.8534  1.2990
 7121SOL     OW32824   2.923   1.492  13.924 -0.3750  0.0040 -0.1168
 7121SOL    HW132825   2.893   1.411  13.966 -0.2387 -0.7195 -1.4194
 7121SOL    HW232826   2.852   1.554  13.943  1.4106  1.7093  0.9470
 7122SOL     OW32827   1.578   3.188   9.908 -0.4268  0.3024  0.1039
 7122SOL    HW132828   1.649   3.239   9.946  0.1788  0.7332 -1.5753
 7122SOL    HW232829   1.567   3.213   9.816  1.2746  1.2261  0.1519
 7123SOL     OW32830   0.375   2.392   4.287 -0.5143  0.1869 -0.1313
 7123SOL    HW132831   0.364   2.317   4.229 -2.1507 -0.6947  1.3132
 7123SOL    HW232832   0.457   2.364   4.328 -1.1740 -0.2700  0.8806
 7124SOL     OW32833   0.753   0.882   6.813  0.0823  0.0721 -0.3309
 7124SOL    HW132834   0.763   0.890   6.908 -1.6290 -1.1542 -0.0502
 7124SOL    HW232835   0.659   0.864   6.811  0.0813  0.1016 -0.5500
 7125SOL     OW32836   1.724   2.393   8.606 -0.6149  0.3695  0.1842
 7125SOL    HW132837   1.813   2.399   8.572 -0.0329 -0.3728  1.5945
 7125SOL    HW232838   1.741   2.326   8.672 -2.0706  2.1734  2.4049
 7126SOL     OW32839   3.697   0.536   7.347  0.6618  0.1581  0.3562
 7126SOL    HW132840   3.675   0.460   7.401 -0.2810 -0.0917 -0.3755
 7126SOL    HW232841   3.717   0.609   7.405 -1.6660  1.8996 -1.0284
 7127SOL     OW32842   2.287   2.610   8.723 -0.0060 -0.2481 -0.3787
 7127SOL    HW132843   2.362   2.626   8.666  0.4994  2.0301  0.8840
 7127SOL    HW232844   2.253   2.532   8.680 -0.0758 -0.3543 -0.1317
 7128SOL     OW32845   1.596   0.383   3.804  0.1269  0.2616  0.1269
 7128SOL    HW132846   1.634   0.341   3.726 -1.7022  0.1860 -0.7047
 7128SOL    HW232847   1.552   0.308   3.844  0.6312 -0.5338 -0.8191
 7129SOL     OW32848   0.712   0.178   3.351 -0.2434 -0.4568  0.0526
 7129SOL    HW132849   0.804   0.160   3.333 -0.3122 -1.2292  0.4727
 7129SOL    HW232850   0.714   0.134   3.436 -2.7628 -0.2961  0.2042
 7130SOL     OW32851   2.680   4.487   1.272 -0.4117  0.0478  0.1692
 7130SOL    HW132852   2.617   4.543   1.316  1.4219 -0.3811  3.3055
 7130SOL    HW232853   2.645   4.399   1.285 -2.9062  0.9908 -0.1944
 7131SOL     OW32854   3.594   3.967   7.903  0.2273  0.5051  0.0144
 7131SOL    HW132855   3.581   3.872   7.913 -0.0902  0.8096  2.5183
 7131SOL    HW232856   3.538   3.992   7.830  1.3282  0.1816 -0.9403
 7132SOL     OW32857   4.608   1.206   8.723 -0.7602  0.0500 -0.3634
 7132SOL    HW132858   4.585   1.191   8.632 -0.6741  0.4179 -0.4478
 7132SOL    HW232859   4.567   1.287   8.751 -1.5569 -0.3992 -0.2460
 7133SOL     OW32860   0.095   0.473   6.704  0.2631 -0.1090 -0.0313
 7133SOL    HW132861   0.149   0.546   6.674  0.0564 -0.1260 -0.4430
 7133SOL    HW232862   0.149   0.434   6.773  0.1344  0.0192  0.1393
 7134SOL     OW32863   2.883   0.281   7.928 -0.3636  0.1284 -0.0912
 7134SOL    HW132864   2.947   0.350   7.909 -0.7620  0.8048  1.0361
 7134SOL    HW232865   2.945   0.208   7.931 -0.4297 -0.1014 -3.9028
 7135SOL     OW32866   2.181   1.370   8.545  0.1794 -0.7382 -0.3972
 7135SOL    HW132867   2.269   1.369   8.584 -0.0376  2.2571  0.2175
 7135SOL    HW232868   2.136   1.297   8.587  1.9163 -1.1735  0.7133
 7136SOL     OW32869   1.680   4.014   4.026  0.3882 -0.0338  0.3574
 7136SOL    HW132870   1.719   4.101   4.012 -0.5656  0.6699  2.0758
 7136SOL    HW232871   1.655   3.981   3.940 -0.6254  0.5647  0.4169
 7137SOL     OW32872   2.951   1.836   4.497 -0.3374 -0.4115  0.3862
 7137SOL    HW132873   2.884   1.883   4.545 -0.0026  0.5092 -0.0381
 7137SOL    HW232874   2.911   1.756   4.464  1.6536 -0.3197 -2.2713
 7138SOL     OW32875   2.815   1.698   6.678 -0.3554 -0.2166  0.2888
 7138SOL    HW132876   2.891   1.694   6.736 -0.7707  1.8577  0.9594
 7138SOL    HW232877   2.827   1.779   6.628 -1.7675  0.3865  0.9410
 7139SOL     OW32878   1.879   0.137   5.166  0.1330  0.8144  0.0463
 7139SOL    HW132879   1.846   0.049   5.147  0.0826  1.0935 -1.1568
 7139SOL    HW232880   1.961   0.113   5.208  0.3330 -0.5593 -1.1163
 7140SOL     OW32881   3.850   0.711   3.633  0.1769 -0.1228  0.0881
 7140SOL    HW132882   3.906   0.779   3.596  0.0024  0.0796  0.1924
 7140SOL    HW232883   3.908   0.675   3.701  0.8752 -0.6509 -0.7895
 7141SOL     OW32884   4.369   0.170   3.055 -0.6306  0.0518  0.2449
 7141SOL    HW132885   4.323   0.254   3.055 -0.9882 -0.1431 -1.2821
 7141SOL    HW232886   4.453   0.203   3.024 -1.0080  2.5963  1.8945
 7142SOL     OW32887   2.898   3.049   2.192 -0.1902 -0.0116  0.0980
 7142SOL    HW132888   2.952   3.081   2.264 -1.1495  1.5505  0.1398
 7142SOL    HW232889   2.901   2.954   2.203  2.3955 -0.3754 -3.7655
 7143SOL     OW32890   1.858   3.138   7.521 -0.0197 -0.4555  0.1038
 7143SOL    HW132891   1.797   3.111   7.590  0.1703  3.2153  1.6918
 7143SOL    HW232892   1.907   3.056   7.512  0.5958 -0.1708  0.8239
 7144SOL     OW32893   1.773   3.667  16.889 -0.4348 -0.7112 -0.2312
 7144SOL    HW132894   1.800   3.578  16.913  0.8882 -0.2611 -0.0789
 7144SOL    HW232895   1.685   3.666  16.926  0.3056  1.3013  1.5316
 7145SOL     OW32896   3.889   3.114  15.654 -0.1974 -0.1236 -0.4783
 7145SOL    HW132897   3.922   3.155  15.574 -1.0281 -1.7710 -1.6714
 7145SOL    HW232898   3.908   3.178  15.722  0.6024  1.0689 -1.8197
 7146SOL     OW32899   0.276   2.411  14.642  0.0762 -0.6249 -0.1540
 7146SOL    HW132900   0.192   2.418  14.599  0.6586  0.3070 -1.1229
 7146SOL    HW232901   0.337   2.469  14.596 -0.7331 -0.6938 -1.2864
 7147SOL     OW32902   3.865   1.302   9.954 -0.3437 -0.5273 -0.3861
 7147SOL    HW132903   3.781   1.270   9.988  1.3354 -0.9977  3.2499
 7147SOL    HW232904   3.925   1.242   9.998 -0.2657 -1.3741 -1.6358
 7148SOL     OW32905   3.122   2.163   8.866 -1.0439 -0.2190 -0.2165
 7148SOL    HW132906   3.171   2.083   8.843  0.2946 -0.0226  2.0351
 7148SOL    HW232907   3.193   2.227   8.874 -0.9130 -0.6429  1.8970
 7149SOL     OW32908   2.667   2.094  16.881  0.1011 -0.1789  0.2492
 7149SOL    HW132909   2.703   2.109  16.794  0.3546 -2.0797  0.0212
 7149SOL    HW232910   2.751   2.088  16.926  1.6524  1.0811 -2.4968
 7150SOL     OW32911   3.072   0.596   2.113  0.0421 -0.3510 -0.0201
 7150SOL    HW132912   3.161   0.581   2.144  0.3095  0.3646 -0.4414
 7150SOL    HW232913   3.037   0.509   2.130  1.7187 -0.6948  1.6062
 7151SOL     OW32914   2.877   1.959   6.538  0.0679 -0.3364 -0.6178
 7151SOL    HW132915   2.917   2.046   6.532  0.2365 -0.2731  1.3507
 7151SOL    HW232916   2.835   1.963   6.452  0.2390  0.6403 -0.6540
 7152SOL     OW32917   3.049   0.674  17.536 -0.5558  0.6712 -0.2813
 7152SOL    HW132918   3.010   0.735  17.600  1.8954  2.2807 -0.3188
 7152SOL    HW232919   3.044   0.734  17.462  0.0222 -1.6585 -2.1931
 7153SOL     OW32920   1.036   2.816  15.141  0.2641 -0.0703  0.1336
 7153SOL    HW132921   1.069   2.748  15.083  2.8443  3.2187 -2.2906
 7153SOL    HW232922   1.064   2.792  15.229  2.1747  0.8010 -0.2390
 7154SOL     OW32923   3.155   2.303   7.506 -0.1871 -0.5743 -0.4131
 7154SOL    HW132924   3.064   2.331   7.507 -0.6352 -2.0499  0.1463
 7154SOL    HW232925   3.191   2.345   7.584 -0.4625 -2.4734  0.7565
 7155SOL     OW32926   0.566   4.515  14.475  0.0455 -0.0140 -0.5080
 7155SOL    HW132927   0.580   4.556  14.389  1.7830 -0.4621 -0.4406
 7155SOL    HW232928   0.495   4.456  14.452 -1.5203  2.1050 -1.1310
 7156SOL     OW32929   4.676   3.280  11.756  0.1627 -0.1447  0.4165
 7156SOL    HW132930   4.587   3.269  11.791  0.5214 -0.1833  1.3116
 7156SOL    HW232931   4.670   3.357  11.699  0.1245 -2.2567 -2.4409
 7157SOL     OW32932   3.147   3.116   3.350  0.6220  0.1520 -0.2906
 7157SOL    HW132933   3.168   3.043   3.291 -1.6560 -0.0650 -0.8426
 7157SOL    HW232934   3.052   3.108   3.351  0.5433  0.9783 -1.8027
 7158SOL     OW32935   1.802   4.608   7.619  0.5738 -0.3856  0.4147
 7158SOL    HW132936   1.846   4.639   7.699  0.5483  0.2227  0.1887
 7158SOL    HW232937   1.710   4.616   7.645  1.7752  0.5440  4.4962
 7159SOL     OW32938   3.562   0.066   3.562 -0.7371 -0.3750 -0.3493
 7159SOL    HW132939   3.607   0.025   3.636  0.2988 -0.3656 -0.9693
 7159SOL    HW232940   3.600   0.026   3.484  0.8886  2.9544 -1.2646
 7160SOL     OW32941   4.455   4.357   5.304 -0.7119 -0.5004  0.4424
 7160SOL    HW132942   4.508   4.436   5.318  0.5762 -1.4541  0.8763
 7160SOL    HW232943   4.527   4.295   5.312  0.5340  0.9794  0.5962
 7161SOL     OW32944   3.183   3.721   6.808 -0.2246 -0.4518 -0.5792
 7161SOL    HW132945   3.147   3.673   6.883 -1.6340  0.4002 -0.7031
 7161SOL    HW232946   3.143   3.685   6.729  0.3318 -0.1325 -1.0055
 7162SOL     OW32947   3.199   3.358   8.195 -0.2131  0.1691  0.3594
 7162SOL    HW132948   3.208   3.268   8.226 -0.5320  0.2456  0.6675
 7162SOL    HW232949   3.225   3.402   8.276 -2.3570  0.2915  0.9727
 7163SOL     OW32950   4.035   3.662   3.441 -0.7417  0.3040 -0.5817
 7163SOL    HW132951   4.056   3.670   3.348  2.9229  1.3631  0.3385
 7163SOL    HW232952   4.031   3.568   3.459 -0.3009  0.2510 -0.7433
 7164SOL     OW32953   3.585   3.930   0.027 -0.6587 -0.5184 -0.2534
 7164SOL    HW132954   3.557   3.867  17.659 -0.1044 -1.4430  0.4021
 7164SOL    HW232955   3.669   3.902   0.064  0.6497  3.0861 -0.4787
 7165SOL     OW32956   0.036   0.284   5.519  0.0515 -0.3113  0.1659
 7165SOL    HW132957   4.698   0.270   5.447 -1.1354 -1.5337  1.4383
 7165SOL    HW232958   0.078   0.199   5.530 -0.0345 -0.7428 -2.6758
 7166SOL     OW32959   3.156   0.145  13.897  0.4782  0.1199 -0.1636
 7166SOL    HW132960   3.248   0.136  13.921  0.7210 -1.9171 -1.8827
 7166SOL    HW232961   3.144   0.220  13.956 -0.6110 -0.0680 -0.1543
 7167SOL     OW32962   0.190   2.805   2.670  0.0352  0.0040 -0.1483
 7167SOL    HW132963   0.211   2.880   2.726 -0.5179 -1.0295  1.4543
 7167SOL    HW232964   0.140   2.760   2.738  2.0833 -3.0578 -0.6994
 7168SOL     OW32965   2.592   0.051   9.454 -0.4237 -0.2183 -1.5302
 7168SOL    HW132966   2.516   0.047   9.396 -0.8551  0.5291 -1.0092
 7168SOL    HW232967   2.624   0.140   9.437 -2.7719  0.8476 -0.3657
 7169SOL     OW32968   3.319   1.626   0.998 -0.2604  0.5229 -0.7944
 7169SOL    HW132969   3.363   1.640   0.914 -0.3490  0.6080 -0.8264
 7169SOL    HW232970   3.389   1.652   1.059 -0.7321  0.1508 -0.1010
 7170SOL     OW32971   2.940   0.081   7.260 -0.0066  0.0598 -0.7088
 7170SOL    HW132972   3.025   0.084   7.303  0.7362 -1.1227 -2.0911
 7170SOL    HW232973   2.955   4.720   7.219 -0.3956 -0.6274  0.5618
 7171SOL     OW32974   2.610   4.171   7.716 -0.0112 -0.1694  0.1994
 7171SOL    HW132975   2.693   4.140   7.753  0.9041  1.4809 -0.4229
 7171SOL    HW232976   2.587   4.233   7.785 -1.2996  1.0172 -1.3110
 7172SOL     OW32977   2.964   2.425  12.062  0.5286  0.4726 -0.1501
 7172SOL    HW132978   3.034   2.470  12.014 -1.3089  1.4026 -1.9340
 7172SOL    HW232979   2.879   2.464  12.042  0.3122  1.2656  2.2532
 7173SOL     OW32980   0.114   3.508   4.853 -0.0056 -0.0404  0.5807
 7173SOL    HW132981   0.175   3.452   4.901  1.0706  0.6395  0.0134
 7173SOL    HW232982   0.112   3.583   4.913 -0.8418  1.6883 -1.6124
 7174SOL     OW32983   2.663   3.650   2.746 -1.2922  0.1290 -0.4581
 7174SOL    HW132984   2.667   3.564   2.704  2.6373  0.0653 -0.0263
 7174SOL    HW232985   2.635   3.710   2.676 -1.6840 -0.3327 -0.6945
 7175SOL     OW32986   2.913   2.814  16.726  0.0599 -0.0976  0.7215
 7175SOL    HW132987   2.998   2.844  16.759 -0.3232 -0.3564  1.9377
 7175SOL    HW232988   2.877   2.895  16.688 -0.1594 -0.7523 -0.4741
 7176SOL     OW32989   3.047   3.508  16.990  0.0465 -0.4694 -0.0716
 7176SOL    HW132990   3.066   3.501  16.897 -0.2336  0.3513 -0.1892
 7176SOL    HW232991   2.972   3.567  16.995  0.3473 -0.1259  0.3774
 7177SOL     OW32992   2.185   2.707   8.262  0.5155 -0.0644 -0.2700
 7177SOL    HW132993   2.278   2.723   8.282  0.2824 -0.2316  0.9418
 7177SOL    HW232994   2.152   2.796   8.273  2.0671  0.5347 -0.4704
 7178SOL     OW32995   1.727   3.168  13.617 -0.1183 -0.4358  0.4986
 7178SOL    HW132996   1.657   3.230  13.637  1.0100  1.1041 -0.3955
 7178SOL    HW232997   1.788   3.192  13.687  0.1444  1.4288 -0.3553
 7179SOL     OW32998   2.155   0.493  15.636  0.2872 -0.7132 -0.5565
 7179SOL    HW132999   2.208   0.564  15.671  1.1667 -1.1359 -1.0484
 7179SOL    HW233000   2.218   0.426  15.611 -0.6294 -1.1945 -1.5924
 7180SOL     OW33001   1.018   0.251   7.136 -0.4587 -0.4530  0.3020
 7180SOL    HW133002   1.014   0.336   7.091 -0.5509 -1.3653 -1.3815
 7180SOL    HW233003   0.937   0.210   7.107 -1.7987  1.7508  0.8917
 7181SOL     OW33004   1.521   0.869   2.696 -0.8896 -0.4565  0.0598
 7181SOL    HW133005   1.602   0.843   2.653 -1.7260 -0.3022 -1.5972
 7181SOL    HW233006   1.483   0.783   2.715 -2.8058  0.4188  0.2258
 7182SOL     OW33007   2.267   4.445  10.130 -0.5810  0.0784  0.1960
 7182SOL    HW133008   2.233   4.499  10.202 -0.1235  1.0036 -0.2783
 7182SOL    HW233009   2.325   4.398  10.190  0.3652  1.6809  0.5528
 7183SOL     OW33010   2.256   4.318   8.042  0.3261 -0.3542 -0.0947
 7183SOL    HW133011   2.346   4.320   8.010  0.5341 -0.2585  0.4969
 7183SOL    HW233012   2.250   4.223   8.044 -0.7938 -0.2876 -0.3097
 7184SOL     OW33013   2.224   3.393   7.172  0.1257 -0.1534  0.0644
 7184SOL    HW133014   2.155   3.438   7.221 -0.8616  0.9940 -2.3795
 7184SOL    HW233015   2.213   3.305   7.208  1.7126 -0.6568 -0.6745
 7185SOL     OW33016   4.253   2.455   9.582 -0.3622  0.1540  0.2109
 7185SOL    HW133017   4.281   2.464   9.491  2.9602 -3.0616  0.9062
 7185SOL    HW233018   4.159   2.439   9.574 -0.0842 -1.0158 -0.6654
 7186SOL     OW33019   3.110   2.163   9.503 -0.8691 -0.1327  0.3178
 7186SOL    HW133020   3.106   2.140   9.596 -1.9619 -0.1172  0.2675
 7186SOL    HW233021   3.059   2.244   9.505  1.8496  1.6440 -1.5417
 7187SOL     OW33022   3.485   0.513   9.454 -0.3981 -0.1520  0.8589
 7187SOL    HW133023   3.530   0.431   9.474 -0.7732 -0.7218 -0.5629
 7187SOL    HW233024   3.549   0.553   9.395 -1.8719 -0.6810 -1.1264
 7188SOL     OW33025   3.254   2.848   6.664 -0.1798  0.4354  0.0356
 7188SOL    HW133026   3.174   2.843   6.716 -0.3359 -0.0699 -0.2597
 7188SOL    HW233027   3.317   2.809   6.725  1.6139  0.4782 -1.7779
 7189SOL     OW33028   2.462   3.790   0.188  0.1418 -0.6717  0.5104
 7189SOL    HW133029   2.501   3.773   0.102  0.6698  0.3995  0.5354
 7189SOL    HW233030   2.438   3.699   0.202  1.0721 -0.6452  2.2466
 7190SOL     OW33031   2.622   4.567   7.584 -0.5971 -0.0501 -0.0787
 7190SOL    HW133032   2.532   4.578   7.614 -1.2377  0.6208 -2.3060
 7190SOL    HW233033   2.637   4.636   7.520 -0.1153  0.8135  0.9595
 7191SOL     OW33034   3.754   3.746   6.015  0.6683 -0.3325  0.6795
 7191SOL    HW133035   3.714   3.789   6.091 -1.6730  1.2616 -1.4641
 7191SOL    HW233036   3.729   3.654   6.027 -0.0454 -0.3986 -1.3439
 7192SOL     OW33037   4.293   3.332  17.665 -0.6562 -0.0161 -0.0520
 7192SOL    HW133038   4.237   3.298  17.595  0.3538  0.1063 -0.9035
 7192SOL    HW233039   4.291   3.427  17.650 -3.8442  0.0471  0.5939
 7193SOL     OW33040   3.913   0.155   3.924 -0.4692 -0.2970  0.3116
 7193SOL    HW133041   3.818   0.165   3.918 -0.4225  0.6304  1.0941
 7193SOL    HW233042   3.928   0.080   3.866 -0.1986  0.1676 -0.2234
 7194SOL     OW33043   3.152   0.285   3.341  0.0638 -0.3653  0.1239
 7194SOL    HW133044   3.134   0.336   3.420 -0.8307  1.2160 -1.1070
 7194SOL    HW233045   3.081   0.222   3.353 -0.0260  0.1079  2.1611
 7195SOL     OW33046   1.167   3.991  15.190  0.6025  0.0218  0.7547
 7195SOL    HW133047   1.098   3.981  15.256  0.5443  2.9401  1.1299
 7195SOL    HW233048   1.232   3.941  15.240  1.7070 -0.5151 -1.2268
 7196SOL     OW33049   3.255   4.303   8.978  0.1162  0.1271 -0.2130
 7196SOL    HW133050   3.205   4.227   9.009  1.5916  0.6471  3.4930
 7196SOL    HW233051   3.199   4.380   8.982  0.8388  0.5801  1.0800
 7197SOL     OW33052   0.842   0.741   4.707  0.1186  0.0351 -0.0039
 7197SOL    HW133053   0.929   0.715   4.738 -0.9646 -3.7984 -0.1644
 7197SOL    HW233054   0.840   0.681   4.631  0.8019  3.2573 -2.5751
 7198SOL     OW33055   0.512   0.279   7.927 -0.3675 -0.2622 -0.3559
 7198SOL    HW133056   0.434   0.294   7.873 -0.1799 -1.3999 -0.9648
 7198SOL    HW233057   0.483   0.214   7.992 -1.7811  0.5612 -0.1734
 7199SOL     OW33058   4.564   3.190   4.749  0.0731  0.5690 -0.1977
 7199SOL    HW133059   4.495   3.129   4.774 -0.1213 -0.1485 -2.4157
 7199SOL    HW233060   4.613   3.135   4.687 -1.5254 -1.4653  0.3698
 7200SOL     OW33061   2.853   4.073   6.442  0.1057 -0.3175  0.3663
 7200SOL    HW133062   2.773   4.120   6.421  2.1321  2.0295 -2.1332
 7200SOL    HW233063   2.920   4.138   6.421 -1.7710  1.2453 -0.7997
 7201SOL     OW33064   3.700   4.048   4.948 -0.2244 -0.0845  0.0285
 7201SOL    HW133065   3.786   4.006   4.949  0.2819  0.9711  0.7517
 7201SOL    HW233066   3.655   4.005   5.022 -0.5756 -0.6503 -0.5171
 7202SOL     OW33067   3.873   3.430   9.625 -0.5620 -0.2121  0.5242
 7202SOL    HW133068   3.784   3.453   9.650 -0.8331 -2.4345  1.5992
 7202SOL    HW233069   3.912   3.512   9.593 -2.5728  1.0183  1.2171
 7203SOL     OW33070   0.129   3.620  16.162 -0.1348 -0.0394 -0.3591
 7203SOL    HW133071   0.079   3.696  16.192 -2.8104 -1.8861 -0.1166
 7203SOL    HW233072   0.193   3.617  16.232  1.4303  0.5273 -1.7736
 7204SOL     OW33073   4.681   2.820  10.849  0.6861  0.2275  0.6178
 7204SOL    HW133074   4.714   2.880  10.783 -0.6521  0.9171  0.5762
 7204SOL    HW233075   4.608   2.871  10.883 -1.5052 -1.6881 -1.1838
 7205SOL     OW33076   4.017   0.658  13.050 -0.0603 -0.3621  0.0466
 7205SOL    HW133077   3.975   0.604  13.116  0.5180  0.3895  1.0220
 7205SOL    HW233078   3.963   0.630  12.976 -0.5344 -0.0055  0.2635
 7206SOL     OW33079   4.338   3.355  11.481  0.9947 -0.0406 -0.3013
 7206SOL    HW133080   4.273   3.414  11.442  1.6751  1.1194  0.2962
 7206SOL    HW233081   4.349   3.287  11.415 -0.3801  0.8256 -1.4091
 7207SOL     OW33082   4.593   1.457   5.846 -0.1030 -0.1597  0.8382
 7207SOL    HW133083   4.502   1.426   5.852  0.7932 -2.8521  0.4370
 7207SOL    HW233084   4.643   1.376   5.843  0.0641 -0.0060 -0.3291
 7208SOL     OW33085   1.049   3.773   6.519  0.1938  0.6302 -0.6404
 7208SOL    HW133086   1.039   3.741   6.609 -0.2578  1.5446 -0.3720
 7208SOL    HW233087   1.033   3.695   6.466 -1.4962 -0.9655  2.1568
 7209SOL     OW33088   4.219   4.618   9.615  0.1958 -0.0103  0.1688
 7209SOL    HW133089   4.228   4.663   9.532  0.0366 -0.3732 -0.0473
 7209SOL    HW233090   4.305   4.636   9.654  0.5297 -0.6487 -0.2600
 7210SOL     OW33091   1.144   1.233  14.723 -0.4612 -0.0182 -0.4763
 7210SOL    HW133092   1.200   1.164  14.688  1.4748  1.7799 -0.8504
 7210SOL    HW233093   1.192   1.313  14.703 -0.2982 -0.2409 -0.9679
 7211SOL     OW33094   2.244   1.856  11.785 -0.1860 -0.0557 -0.1670
 7211SOL    HW133095   2.260   1.925  11.850 -0.4650 -0.3337  0.1922
 7211SOL    HW233096   2.176   1.800  11.822  1.2486 -0.8193  1.3016
 7212SOL     OW33097   4.563   1.042   6.960 -0.2239 -0.1130  0.3417
 7212SOL    HW133098   4.582   0.990   7.038 -0.2704 -0.5435  0.0656
 7212SOL    HW233099   4.470   1.024   6.950 -0.7462  2.4322  0.6157
 7213SOL     OW33100   3.226   3.238   3.078 -0.3398 -0.6832 -0.0716
 7213SOL    HW133101   3.269   3.160   3.113 -0.7275 -0.3864  1.0334
 7213SOL    HW233102   3.188   3.192   3.003  0.2454 -1.9566  0.4120
 7214SOL     OW33103   1.954   3.699   8.879  0.3331  0.3788 -0.0827
 7214SOL    HW133104   2.025   3.638   8.857  1.8370  1.6836  1.1069
 7214SOL    HW233105   1.967   3.762   8.807  0.3353  1.6031  0.9974
 7215SOL     OW33106   4.321   2.820   2.468 -0.1350  0.0183 -0.5748
 7215SOL    HW133107   4.407   2.785   2.489 -0.9021 -2.2908 -1.2870
 7215SOL    HW233108   4.343   2.884   2.400 -0.9900  1.0487  0.1202
 7216SOL     OW33109   1.177   3.234  17.442 -0.7671  0.6513 -0.5643
 7216SOL    HW133110   1.171   3.307  17.503  0.3891  1.3800 -1.3200
 7216SOL    HW233111   1.243   3.179  17.486 -1.9974  0.2339  0.7682
 7217SOL     OW33112   1.343   1.354   2.454 -0.6258  0.6498  0.0183
 7217SOL    HW133113   1.339   1.449   2.444 -0.5065  0.7827  1.3002
 7217SOL    HW233114   1.271   1.323   2.399 -1.5458 -0.6239  1.9319
 7218SOL     OW33115   4.508   2.941   6.147 -0.1423  0.4492  0.1914
 7218SOL    HW133116   4.586   2.914   6.099  0.6337  2.1236  0.5330
 7218SOL    HW233117   4.516   2.898   6.232  1.0485  0.0394 -0.1320
 7219SOL     OW33118   1.735   2.763   9.001  0.0322 -0.2152 -0.1630
 7219SOL    HW133119   1.695   2.849   8.994 -0.0399 -0.3184 -0.9359
 7219SOL    HW233120   1.726   2.737   8.910  3.2662 -1.1301 -0.2533
 7220SOL     OW33121   4.099   2.981   5.712  0.8609  0.6676  0.3558
 7220SOL    HW133122   4.148   2.911   5.667  1.3596  0.5743  1.0419
 7220SOL    HW233123   4.179   3.034   5.713  0.5847  1.0615  2.1760
 7221SOL     OW33124   3.408   2.925   5.317  0.2871 -0.2699  0.1418
 7221SOL    HW133125   3.419   2.832   5.337 -1.2170 -0.0941  1.7556
 7221SOL    HW233126   3.323   2.933   5.273 -0.0108 -0.0330  0.7610
 7222SOL     OW33127   2.005   1.048   4.700 -0.2504 -0.0054  0.2272
 7222SOL    HW133128   2.021   1.098   4.620  0.1487  0.9760  0.9244
 7222SOL    HW233129   2.051   1.109   4.757  0.5889 -1.3100  0.9592
 7223SOL     OW33130   4.091   2.334  11.690  0.2125  1.2266  0.5175
 7223SOL    HW133131   4.043   2.347  11.608  0.4554  0.2690  0.2228
 7223SOL    HW233132   4.063   2.243  11.707  1.3839  0.2218 -3.0317
 7224SOL     OW33133   2.007   1.095   2.557 -0.0967 -0.5046 -0.0628
 7224SOL    HW133134   1.912   1.084   2.548 -0.1266 -1.5179  1.5962
 7224SOL    HW233135   2.023   1.186   2.582 -0.9822  0.2697 -2.2485
 7225SOL     OW33136   0.155   0.566   7.169 -0.5724 -0.6403 -0.7654
 7225SOL    HW133137   0.210   0.620   7.226 -1.7120 -1.6915  1.3410
 7225SOL    HW233138   0.136   0.497   7.233 -0.3299 -0.6579 -0.7116
 7226SOL     OW33139   3.355   0.538  12.328 -0.0760  0.4822  0.1997
 7226SOL    HW133140   3.425   0.479  12.302 -0.6063  0.3494 -0.9320
 7226SOL    HW233141   3.362   0.533  12.423 -0.8049  0.5926  0.2647
 7227SOL     OW33142   1.534   4.590   7.761  0.0009  0.4821  0.0572
 7227SOL    HW133143   1.527   4.663   7.700  1.6054  0.5395 -0.0559
 7227SOL    HW233144   1.546   4.643   7.839 -1.9428  0.3728  0.4239
 7228SOL     OW33145   0.664   3.026   3.726  0.1666  0.4526  0.5060
 7228SOL    HW133146   0.716   3.105   3.744  2.1065 -0.5807 -0.5586
 7228SOL    HW233147   0.578   3.064   3.744 -0.2464  0.7343 -2.0062
 7229SOL     OW33148   4.052   2.047   6.014 -0.0635  0.8475 -0.0620
 7229SOL    HW133149   4.056   2.137   5.984  1.7680  1.2681  1.5304
 7229SOL    HW233150   4.131   2.054   6.066  0.5744  1.7785 -1.1704
 7230SOL     OW33151   3.323   1.751   3.486 -0.2223  0.6705 -0.0187
 7230SOL    HW133152   3.369   1.831   3.462 -0.6957  0.9082 -0.1277
 7230SOL    HW233153   3.365   1.731   3.570 -0.8913  2.1919  0.6899
 7231SOL     OW33154   3.186   3.056   6.051  0.3370 -0.2445 -0.3149
 7231SOL    HW133155   3.195   3.011   5.967 -1.1276  1.3287 -1.3247
 7231SOL    HW233156   3.091   3.062   6.049  0.3809  0.9010  0.4140
 7232SOL     OW33157   0.170   3.336   3.241 -0.3926 -0.2766  0.6379
 7232SOL    HW133158   0.156   3.292   3.325 -1.4605 -0.1797  0.5048
 7232SOL    HW233159   0.259   3.369   3.256 -1.2271  1.8854  0.8778
 7233SOL     OW33160   3.990   3.577   6.135  0.1577  0.1169 -0.1665
 7233SOL    HW133161   3.901   3.542   6.125  0.4457  0.2538 -3.2188
 7233SOL    HW233162   3.983   3.586   6.230 -0.6663  0.4720 -0.2576
 7234SOL     OW33163   1.720   0.527  16.405 -0.1014  0.0476  0.5618
 7234SOL    HW133164   1.734   0.504  16.313 -4.2442  0.9352 -0.2979
 7234SOL    HW233165   1.718   0.623  16.398 -0.2849  0.0756  1.0055
 7235SOL     OW33166   4.322   0.460   3.096 -0.2739 -0.3445  0.1069
 7235SOL    HW133167   4.292   0.493   3.180 -1.0207 -0.5203 -0.0839
 7235SOL    HW233168   4.412   0.492   3.093 -0.8157  1.1153 -0.9242
 7236SOL     OW33169   3.952   2.016   7.959 -0.6520  0.1534 -0.0835
 7236SOL    HW133170   4.025   2.038   7.901 -0.4374  1.7795  0.8141
 7236SOL    HW233171   3.949   1.922   7.945 -0.0762 -0.0745  1.3042
 7237SOL     OW33172   0.561   2.558   1.234  0.2301  0.5365  0.6229
 7237SOL    HW133173   0.649   2.551   1.197  0.3229  1.7047  0.6076
 7237SOL    HW233174   0.501   2.528   1.166  2.8414 -1.5317 -0.7445
 7238SOL     OW33175   1.241   4.374   4.397 -0.5890 -0.4194 -0.3597
 7238SOL    HW133176   1.328   4.358   4.360 -0.0818  3.0617 -0.7228
 7238SOL    HW233177   1.257   4.439   4.467 -0.5662  0.1461 -0.8862
 7239SOL     OW33178   2.451   2.779  12.006  0.1951 -0.0472 -0.1834
 7239SOL    HW133179   2.440   2.788  12.100  2.3272  1.7049 -0.0880
 7239SOL    HW233180   2.399   2.701  11.988 -0.0858 -0.0820  0.8117
 7240SOL     OW33181   3.317   2.073   7.473  0.3526 -0.3437 -0.0666
 7240SOL    HW133182   3.360   2.095   7.390 -0.3553 -2.6302 -1.0582
 7240SOL    HW233183   3.274   2.155   7.496 -2.3585 -1.6398 -0.4860
 7241SOL     OW33184   0.911   2.424   4.570  0.1568 -0.3153  0.4660
 7241SOL    HW133185   0.840   2.383   4.620  0.8812 -0.6452  1.2288
 7241SOL    HW233186   0.985   2.408   4.629 -0.1760  0.0612  0.9835
 7242SOL     OW33187   1.621   3.082   7.624  0.1387  0.1613 -0.4745
 7242SOL    HW133188   1.644   3.015   7.688 -0.3181  1.3990  0.9962
 7242SOL    HW233189   1.541   3.043   7.588 -0.0038 -0.2473  0.2823
 7243SOL     OW33190   0.639   2.989   4.871  0.0027  0.1716 -0.6518
 7243SOL    HW133191   0.553   2.953   4.892  0.8513 -1.7688 -0.5646
 7243SOL    HW233192   0.640   2.964   4.779 -1.4067  1.2195 -0.9523
 7244SOL     OW33193   2.108   4.376   7.163 -0.1171  0.2916 -0.5036
 7244SOL    HW133194   2.204   4.379   7.168 -0.0982 -0.1898 -0.5570
 7244SOL    HW233195   2.091   4.470   7.156 -3.3031 -0.2918 -0.5179
 7245SOL     OW33196   1.394   2.326   8.455 -0.2563  0.8016  0.4395
 7245SOL    HW133197   1.404   2.383   8.379 -0.4528  0.7143  0.3492
 7245SOL    HW233198   1.373   2.385   8.528 -0.9783  2.0195 -0.7568
 7246SOL     OW33199   3.828   0.323  10.910 -0.1624  0.2772  0.5840
 7246SOL    HW133200   3.898   0.383  10.885 -0.2743 -0.2949 -1.0890
 7246SOL    HW233201   3.843   0.262  10.838  1.0083  0.4330  0.6938
 7247SOL     OW33202   2.642   2.320   1.836  0.2207  0.3788  0.2109
 7247SOL    HW133203   2.578   2.253   1.813  1.5407 -0.5263 -0.8239
 7247SOL    HW233204   2.669   2.331   1.745 -1.4760  2.1383 -0.0704
 7248SOL     OW33205   4.623   2.484   5.479 -0.1935 -0.0307 -0.4523
 7248SOL    HW133206   4.708   2.521   5.455 -0.2913 -0.5284 -1.5457
 7248SOL    HW233207   4.605   2.438   5.397  0.0582 -2.6647  0.9598
 7249SOL     OW33208   4.394   3.213   6.738  0.3161 -0.5177 -0.3559
 7249SOL    HW133209   4.444   3.294   6.731 -0.1121 -0.0941  1.4703
 7249SOL    HW233210   4.306   3.250   6.749  0.4247 -0.2635 -0.3512
 7250SOL     OW33211   3.140   3.531   6.994 -0.1378 -0.0156  0.3349
 7250SOL    HW133212   3.115   3.441   7.017 -3.0384  1.4609  3.0106
 7250SOL    HW233213   3.233   3.520   7.014  0.1434 -2.9973 -2.6877
 7251SOL     OW33214   0.276   3.975  14.494 -0.4613  0.1526  0.6933
 7251SOL    HW133215   0.245   3.941  14.577  0.4075  1.0040  1.3698
 7251SOL    HW233216   0.343   4.038  14.524  1.1037 -0.9676 -0.4109
 7252SOL     OW33217   0.632   3.355   3.655 -0.0147  0.6170  0.1784
 7252SOL    HW133218   0.715   3.310   3.638 -0.7982  0.3613 -2.8097
 7252SOL    HW233219   0.663   3.446   3.660 -1.4601  1.1905 -1.4360
 7253SOL     OW33220   1.297   4.017   8.446 -0.0050  0.1893  0.1763
 7253SOL    HW133221   1.218   4.029   8.499  0.5328 -2.0728  1.4764
 7253SOL    HW233222   1.349   3.956   8.498 -0.1295 -0.1273 -0.0723
 7254SOL     OW33223   3.977   0.228   2.902 -0.3308  0.3750  0.4170
 7254SOL    HW133224   3.945   0.138   2.898  1.5874 -0.3239  0.6638
 7254SOL    HW233225   3.996   0.229   2.996 -0.1152 -2.9723  0.4221
 7255SOL     OW33226   0.315   2.408   1.448  0.1383  0.0819 -0.0126
 7255SOL    HW133227   0.309   2.379   1.357 -0.3951 -0.8079  0.3070
 7255SOL    HW233228   0.232   2.455   1.458 -0.7696 -1.7294  0.8834
 7256SOL     OW33229   0.285   4.596   3.187  0.4321 -0.1611 -0.0048
 7256SOL    HW133230   0.324   4.516   3.222 -0.4512 -0.4627  0.2956
 7256SOL    HW233231   0.333   4.662   3.238 -1.3733 -0.1960  1.7604
 7257SOL     OW33232   3.927   3.915   5.335  0.2690  0.0780  0.1677
 7257SOL    HW133233   4.013   3.930   5.297  0.6073 -1.4015  0.3686
 7257SOL    HW233234   3.943   3.889   5.426 -2.5956  2.3506  1.3269
 7258SOL     OW33235   1.408   4.475  11.700 -0.3301  0.0529  0.3591
 7258SOL    HW133236   1.432   4.552  11.649  0.4919 -1.2048 -1.1712
 7258SOL    HW233237   1.458   4.407  11.654 -0.8305 -0.2832  0.3204
 7259SOL     OW33238   2.912   2.642   9.693  0.0225 -0.3874  0.2992
 7259SOL    HW133239   2.906   2.723   9.641 -3.9291 -0.0830  1.2137
 7259SOL    HW233240   3.005   2.624   9.681  0.2972  1.8407 -0.9822
 7260SOL     OW33241   4.266   1.268   9.684 -0.0060  0.3325 -0.0147
 7260SOL    HW133242   4.274   1.340   9.747  0.4831 -3.2839  4.0588
 7260SOL    HW233243   4.181   1.236   9.713 -0.5069  0.2989 -1.5142
 7261SOL     OW33244   0.386   4.186  17.426 -0.6851  0.3810  0.4051
 7261SOL    HW133245   0.396   4.265  17.374 -0.2791 -0.6664 -1.1274
 7261SOL    HW233246   0.412   4.108  17.376  0.1038  1.7041 -1.2402
 7262SOL     OW33247   1.699   1.211  11.571  0.5654  0.4584 -0.2350
 7262SOL    HW133248   1.751   1.247  11.643 -1.2489 -1.7512  2.1989
 7262SOL    HW233249   1.713   1.288  11.516 -1.3670  2.4543  2.0496
 7263SOL     OW33250   3.499   0.073  11.553 -0.0102 -0.0693 -0.7254
 7263SOL    HW133251   3.541   4.721  11.594  0.5382  0.7405  0.2208
 7263SOL    HW233252   3.539   0.069  11.467 -1.2003 -1.4209 -1.2243
 7264SOL     OW33253   1.709   4.396  13.370 -0.3610  0.0377 -0.5839
 7264SOL    HW133254   1.740   4.309  13.393  0.1908 -0.9535 -5.0798
 7264SOL    HW233255   1.641   4.360  13.314  1.6460 -0.4469 -2.7234
 7265SOL     OW33256   2.519   4.404   3.237 -0.2643 -0.2464 -0.6173
 7265SOL    HW133257   2.492   4.321   3.197  1.9467 -1.0837 -0.3491
 7265SOL    HW233258   2.436   4.413   3.285  0.8653  1.2823  1.0341
 7266SOL     OW33259   1.105   3.692   0.515  0.2987 -0.1065 -0.1467
 7266SOL    HW133260   1.175   3.756   0.507  0.8055 -0.3246  2.3755
 7266SOL    HW233261   1.160   3.617   0.538  0.8680  0.0367 -1.0884
 7267SOL     OW33262   3.958   4.708   1.755  0.2715 -0.1351  0.4312
 7267SOL    HW133263   3.908   4.699   1.674 -0.2680  0.7607  0.6627
 7267SOL    HW233264   4.029   0.042   1.727  1.5167 -1.8465  0.0658
 7268SOL     OW33265   3.833   2.542   0.144  0.0122  0.1172  0.0232
 7268SOL    HW133266   3.890   2.612   0.113  0.6541 -1.5466 -2.5687
 7268SOL    HW233267   3.891   2.470   0.170  3.2758  2.4122 -0.8495
 7269SOL     OW33268   3.669   4.268   8.776  0.2210 -0.0486  0.2166
 7269SOL    HW133269   3.704   4.182   8.799 -0.5111 -0.4850 -0.2851
 7269SOL    HW233270   3.735   4.289   8.710 -0.5825 -0.4641 -0.7245
 7270SOL     OW33271   2.118   1.860  17.357 -0.5054  0.8030 -0.5402
 7270SOL    HW133272   2.090   1.776  17.320  1.1364 -0.2961  0.7149
 7270SOL    HW233273   2.161   1.901  17.282  0.5884 -2.2253 -1.5768
 7271SOL     OW33274   1.117   3.557   7.489  0.5844  0.3318  0.2285
 7271SOL    HW133275   1.122   3.651   7.473 -0.9125  0.9954  3.6925
 7271SOL    HW233276   1.123   3.518   7.402 -0.4717  1.1929 -0.2249
 7272SOL     OW33277   0.754   0.636  12.015  0.4270 -0.2135  0.0707
 7272SOL    HW133278   0.803   0.557  11.992  0.7336 -0.3000  1.0474
 7272SOL    HW233279   0.829   0.688  12.042 -1.1253  2.0479  0.0097
 7273SOL     OW33280   3.436   2.442   7.494  0.2674 -0.4061  0.6415
 7273SOL    HW133281   3.414   2.421   7.404  0.4997  1.2599  0.2032
 7273SOL    HW233282   3.354   2.454   7.542  0.1487 -0.9518  0.5815
 7274SOL     OW33283   3.685   4.479   4.180 -0.3451 -0.0421  0.4435
 7274SOL    HW133284   3.598   4.440   4.193 -0.9667  1.5436  1.0914
 7274SOL    HW233285   3.659   4.563   4.141  0.4806  1.5976  3.5028
 7275SOL     OW33286   2.815   4.464   3.172 -0.6049  0.0732  0.3323
 7275SOL    HW133287   2.898   4.425   3.145 -1.0813 -0.7784  0.0853
 7275SOL    HW233288   2.821   4.546   3.124 -1.5873 -0.1493 -0.1797
 7276SOL     OW33289   3.310   0.148   5.903 -0.1290 -0.0137 -0.3634
 7276SOL    HW133290   3.300   0.062   5.862 -2.1242 -0.2402  0.5546
 7276SOL    HW233291   3.363   0.133   5.982 -0.0542  0.0701 -0.3977
 7277SOL     OW33292   0.000   2.596  11.454 -0.0395 -0.2113  0.3084
 7277SOL    HW133293   4.691   2.604  11.365  1.9813  1.2703 -0.3066
 7277SOL    HW233294   4.685   2.670  11.500  0.5558 -1.3377  2.6272
 7278SOL     OW33295   2.293   1.244   5.779  0.3515 -0.5503  0.1742
 7278SOL    HW133296   2.225   1.290   5.828  1.1170 -0.8538  1.5144
 7278SOL    HW233297   2.365   1.305   5.794 -1.1213  1.0812  0.5339
 7279SOL     OW33298   2.612   1.605   6.890  0.1767 -0.1846  0.1552
 7279SOL    HW133299   2.671   1.658   6.836  0.0723 -2.8672 -2.6171
 7279SOL    HW233300   2.585   1.546   6.819  0.5909  4.0904 -3.6038
 7280SOL     OW33301   4.542   2.029   5.840  0.9756  0.4452 -0.0139
 7280SOL    HW133302   4.522   2.048   5.749  0.7166 -0.2608 -0.1081
 7280SOL    HW233303   4.528   2.114   5.882  1.9404 -0.0428  1.3187
 7281SOL     OW33304   3.647   2.929   7.281  0.5965  0.0310 -0.0082
 7281SOL    HW133305   3.661   3.022   7.294  0.5811  0.2728 -1.7320
 7281SOL    HW233306   3.731   2.886   7.298 -0.0034 -1.3703 -0.5391
 7282SOL     OW33307   2.061   3.119   4.009 -0.5911 -0.0597  0.0627
 7282SOL    HW133308   2.044   3.092   4.100 -1.1301  1.6862  0.4908
 7282SOL    HW233309   2.021   3.042   3.968 -2.7805  0.3376  1.4299
 7283SOL     OW33310   2.399   2.986   0.351 -0.0268 -0.3188  0.0233
 7283SOL    HW133311   2.318   2.968   0.398  0.6249 -0.8606  0.9442
 7283SOL    HW233312   2.467   2.929   0.388 -0.6708  1.7801  4.4886
 7284SOL     OW33313   0.671   0.894   8.781 -0.2666  0.1946 -0.3560
 7284SOL    HW133314   0.649   0.947   8.704 -1.6918  2.6436  1.7109
 7284SOL    HW233315   0.756   0.864   8.750  0.0581  1.5291 -0.7778
 7285SOL     OW33316   2.970   2.203   3.031  0.5775  0.1127 -0.3528
 7285SOL    HW133317   3.020   2.147   2.972  0.9350  0.0538  0.0044
 7285SOL    HW233318   3.032   2.277   3.035  0.4502  0.0741  2.3634
 7286SOL     OW33319   0.638   0.998   0.465  0.4719 -0.1127  0.3642
 7286SOL    HW133320   0.698   1.054   0.416 -0.7284  1.0287  0.2221
 7286SOL    HW233321   0.694   0.925   0.492  1.4754  1.1133  1.6031
 7287SOL     OW33322   1.034   4.033  10.798 -0.0227  0.4678  0.1073
 7287SOL    HW133323   1.110   4.090  10.803 -0.4499  1.1068 -0.7064
 7287SOL    HW233324   1.018   4.009  10.889  3.5703  3.0679  1.4131
 7288SOL     OW33325   3.122   2.082   2.814 -0.1467 -0.0014  1.0764
 7288SOL    HW133326   3.198   2.139   2.807 -0.0184 -0.0220  2.3930
 7288SOL    HW233327   3.096   2.074   2.722  0.2482  2.3020  0.7651
 7289SOL     OW33328   1.735   1.761   2.683 -0.0350  0.1096  0.4328
 7289SOL    HW133329   1.718   1.670   2.706  0.6754 -0.2419 -0.4074
 7289SOL    HW233330   1.685   1.771   2.602  0.8878 -1.3083 -0.3129
 7290SOL     OW33331   2.802   3.407  11.315  0.6438 -0.6675  0.9253
 7290SOL    HW133332   2.775   3.371  11.399  3.5602  1.5842  2.8307
 7290SOL    HW233333   2.840   3.328  11.276 -1.3303 -0.3865 -1.5999
 7291SOL     OW33334   0.302   4.598  10.264  0.0979 -0.3319  1.1136
 7291SOL    HW133335   0.377   4.657  10.272 -0.4227  0.7974 -2.3074
 7291SOL    HW233336   0.348   4.516  10.244 -0.6263 -0.7045  0.9991
 7292SOL     OW33337   3.781   2.617   6.880  0.1621 -0.3427 -0.0813
 7292SOL    HW133338   3.799   2.530   6.846  1.0992  0.1445 -0.8369
 7292SOL    HW233339   3.731   2.645   6.803 -0.8249  2.8046  1.6868
 7293SOL     OW33340   2.350   2.635  13.463  0.4031 -0.3243 -0.0148
 7293SOL    HW133341   2.280   2.579  13.429 -0.1584  1.1829 -1.3387
 7293SOL    HW233342   2.379   2.586  13.540 -0.8213  0.3028  0.8453
 7294SOL     OW33343   0.709   0.430  10.313  0.1169 -0.1311  0.5265
 7294SOL    HW133344   0.673   0.505  10.362 -0.6627  1.3199 -2.2534
 7294SOL    HW233345   0.650   0.408  10.241  1.0538  0.7573 -0.4977
 7295SOL     OW33346   3.680   3.970  17.003 -0.2542  0.4301 -0.3297
 7295SOL    HW133347   3.695   3.974  16.909 -3.2271 -1.7137 -0.9001
 7295SOL    HW233348   3.620   4.045  17.006 -0.3987  0.2464  1.4545
 7296SOL     OW33349   3.096   1.944  14.273  0.0607 -0.3621  0.2642
 7296SOL    HW133350   3.116   2.024  14.224  1.6014  0.0782  1.5968
 7296SOL    HW233351   3.032   1.973  14.337  0.7583  3.7409 -0.9250
 7297SOL     OW33352   1.002   0.871   4.241 -0.1838 -0.2395  0.3342
 7297SOL    HW133353   0.933   0.936   4.253 -0.8847 -0.9248  0.0098
 7297SOL    HW233354   0.990   0.858   4.147  1.9020  0.2926 -0.0026
 7298SOL     OW33355   1.746   4.357   7.391 -0.1740  0.1539 -0.6400
 7298SOL    HW133356   1.822   4.358   7.450 -1.0201 -2.3217  0.4641
 7298SOL    HW233357   1.764   4.274   7.347  1.8227 -0.2469  0.8933
 7299SOL     OW33358   2.623   1.994   7.244 -0.0739 -0.2157 -0.2028
 7299SOL    HW133359   2.643   2.064   7.182 -1.4233  0.4713  0.1497
 7299SOL    HW233360   2.694   1.929   7.238  0.2799  0.1842 -0.3561
 7300SOL     OW33361   4.646   4.210   3.053  0.5438 -0.4002 -0.2052
 7300SOL    HW133362   4.606   4.155   3.121 -1.7493  2.7772  1.0365
 7300SOL    HW233363   4.661   4.292   3.100  0.1994 -1.3556  1.5949
 7301SOL     OW33364   3.848   3.655   4.983 -0.2053 -0.0648 -0.2542
 7301SOL    HW133365   3.844   3.578   4.926  0.0932 -1.8922  2.1853
 7301SOL    HW233366   3.845   3.610   5.067  1.4991 -0.3976 -0.3660
 7302SOL     OW33367   4.008   4.283   2.772 -0.4178  0.2907  0.3835
 7302SOL    HW133368   4.091   4.248   2.742 -0.8361 -2.6178  2.5983
 7302SOL    HW233369   4.034   4.336   2.848 -2.7096  0.9696  0.7240
 7303SOL     OW33370   4.443   4.380  15.124 -0.2482  0.0085 -0.5591
 7303SOL    HW133371   4.407   4.422  15.046 -1.4644  0.5581  0.3152
 7303SOL    HW233372   4.535   4.381  15.098  0.0209  0.2886  0.4067
 7304SOL     OW33373   4.267   3.817  14.951  0.1259  0.2275  0.4519
 7304SOL    HW133374   4.357   3.846  14.940 -0.9356  2.1788 -3.1130
 7304SOL    HW233375   4.249   3.788  14.861 -0.1899 -0.6910  0.8065
 7305SOL     OW33376   2.027   1.156   3.466  0.7060 -0.6621 -0.3389
 7305SOL    HW133377   1.973   1.182   3.392 -0.4869 -2.1990 -0.0104
 7305SOL    HW233378   1.971   1.156   3.544  1.7893 -1.2290  0.4353
 7306SOL     OW33379   4.091   1.301   5.378 -0.3313 -0.4755  0.4315
 7306SOL    HW133380   4.086   1.208   5.355  0.0480  0.1191 -2.0050
 7306SOL    HW233381   4.169   1.292   5.432  1.1090  2.9994 -1.1139
 7307SOL     OW33382   3.391   1.073  13.242 -0.2119  0.1433  0.2630
 7307SOL    HW133383   3.341   1.147  13.278 -0.1517  0.3066  0.0102
 7307SOL    HW233384   3.337   1.001  13.275 -4.4983  1.9087 -2.9118
 7308SOL     OW33385   1.903   2.475   0.295  0.1448 -0.4222  0.5251
 7308SOL    HW133386   1.815   2.509   0.314  0.0528 -1.5697  2.2176
 7308SOL    HW233387   1.886   2.417   0.221  0.4480 -2.8534  2.3424
 7309SOL     OW33388   4.085   1.081   6.107 -0.3086  0.1632 -0.7108
 7309SOL    HW133389   4.086   1.107   6.015 -2.9263  0.3229 -0.6926
 7309SOL    HW233390   4.158   1.020   6.106 -1.7700 -1.6240  0.4167
 7310SOL     OW33391   4.404   2.338  16.982 -0.3933  0.0353 -0.4170
 7310SOL    HW133392   4.337   2.399  16.950  0.3405  0.9517 -0.1801
 7310SOL    HW233393   4.456   2.393  17.040  1.5627 -0.2627 -1.8915
 7311SOL     OW33394   0.393   1.667  13.213 -0.4046 -0.0463  0.7996
 7311SOL    HW133395   0.379   1.741  13.153 -2.8911 -0.6632  0.6310
 7311SOL    HW233396   0.337   1.605  13.166  1.5919 -0.1634 -1.4170
 7312SOL     OW33397   1.853   3.635   1.735  0.2233  0.0666 -0.6017
 7312SOL    HW133398   1.841   3.540   1.733 -0.8390  0.1594  1.7085
 7312SOL    HW233399   1.947   3.634   1.752  0.2087 -0.3606 -0.5583
 7313SOL     OW33400   1.450   2.798   5.325  0.2020 -0.1779  0.0831
 7313SOL    HW133401   1.453   2.892   5.307 -0.7876 -0.7341 -3.0228
 7313SOL    HW233402   1.501   2.786   5.405 -0.7326 -0.7490  0.5926
 7314SOL     OW33403   0.879   3.598   8.901 -0.1039 -0.2793  0.0450
 7314SOL    HW133404   0.833   3.613   8.819  2.3398 -0.2230 -1.3047
 7314SOL    HW233405   0.928   3.681   8.907 -0.3799 -0.1373  0.3516
 7315SOL     OW33406   2.746   2.306   1.322  0.6417 -0.4026 -0.8115
 7315SOL    HW133407   2.827   2.311   1.372  0.0487 -1.0277  0.2238
 7315SOL    HW233408   2.712   2.216   1.322 -0.0631 -0.1270 -2.1889
 7316SOL     OW33409   4.401   3.583   7.322 -0.1436 -0.0262 -0.0848
 7316SOL    HW133410   4.446   3.576   7.238  1.8588 -0.8944  1.0457
 7316SOL    HW233411   4.341   3.656   7.309 -0.7725 -0.8736 -2.0221
 7317SOL     OW33412   0.436   2.705  12.933  0.2513 -0.2560  0.2579
 7317SOL    HW133413   0.512   2.759  12.909 -0.6126  2.0954  2.8140
 7317SOL    HW233414   0.401   2.736  13.016 -0.5332  1.0099 -0.5373
 7318SOL     OW33415   0.973   2.985   9.323 -0.0002 -0.0343 -0.8521
 7318SOL    HW133416   0.891   2.995   9.372 -0.3699 -1.4456 -1.1682
 7318SOL    HW233417   1.012   2.923   9.384 -1.6342 -0.4095 -0.1954
 7319SOL     OW33418   3.511   4.666   4.078  0.2663 -0.0133 -0.4431
 7319SOL    HW133419   3.480   4.633   3.994  0.6700 -1.0004 -0.2013
 7319SOL    HW233420   3.429   4.679   4.125  0.6346 -2.0209  0.7399
 7320SOL     OW33421   2.249   3.762   6.219 -0.0123  0.5666 -0.0307
 7320SOL    HW133422   2.266   3.817   6.142  2.2368 -0.5950 -0.3873
 7320SOL    HW233423   2.229   3.678   6.178 -2.0101  0.5057  1.0811
 7321SOL     OW33424   1.231   4.516   5.234  0.2339 -0.1748 -0.1058
 7321SOL    HW133425   1.156   4.572   5.213  0.4990  0.7861  1.4932
 7321SOL    HW233426   1.269   4.562   5.309  0.1169  1.4456 -1.0289
 7322SOL     OW33427   4.309   1.532   8.807  0.4138 -0.0665 -0.4358
 7322SOL    HW133428   4.271   1.557   8.891  0.1857  1.0853 -0.8928
 7322SOL    HW233429   4.265   1.586   8.742  0.4145 -0.2144 -0.5584
 7323SOL     OW33430   1.570   4.193  12.397  0.0182  0.4329  0.8797
 7323SOL    HW133431   1.563   4.127  12.467 -2.7466 -1.1474 -0.8984
 7323SOL    HW233432   1.575   4.274  12.447 -1.1012  2.0734 -1.7195
 7324SOL     OW33433   1.243   3.538   8.615 -0.6012  0.1884 -0.0152
 7324SOL    HW133434   1.237   3.624   8.656  1.8331  0.3879 -0.0824
 7324SOL    HW233435   1.188   3.496   8.682  1.1413 -1.1335  0.6041
 7325SOL     OW33436   0.777   2.302   3.880  0.1952  0.3882 -0.0529
 7325SOL    HW133437   0.844   2.287   3.813 -1.2225  0.3423 -1.4741
 7325SOL    HW233438   0.775   2.224   3.935  2.6726  0.7868  0.6168
 7326SOL     OW33439   3.981   0.671   7.633  0.3479 -0.3481 -0.5305
 7326SOL    HW133440   3.941   0.596   7.676 -1.2863  0.5643 -0.4621
 7326SOL    HW233441   4.035   0.623   7.571 -0.1237 -1.1935 -0.2867
 7327SOL     OW33442   3.114   2.734   7.891 -0.0077 -0.2650 -0.7110
 7327SOL    HW133443   3.171   2.766   7.961  1.1498 -0.5738 -1.5138
 7327SOL    HW233444   3.044   2.700   7.946 -0.5337  1.6868 -0.1600
 7328SOL     OW33445   1.156   1.538   6.911 -0.2144 -0.1059  0.3797
 7328SOL    HW133446   1.112   1.458   6.885  0.8962  0.0375 -1.9455
 7328SOL    HW233447   1.192   1.514   6.997 -0.8103 -0.1955  0.5999
 7329SOL     OW33448   0.918   2.297   7.320  0.2775  0.2110 -0.0543
 7329SOL    HW133449   0.945   2.226   7.378 -1.2161 -0.7002 -0.4718
 7329SOL    HW233450   0.861   2.259   7.254  0.9505 -1.0754  0.1002
 7330SOL     OW33451   4.264   4.691  16.679 -0.0159 -0.3977  0.0725
 7330SOL    HW133452   4.224   0.014  16.607  1.4833  1.2845  0.3478
 7330SOL    HW233453   4.210   4.718  16.754 -1.7601  1.0101 -1.7113
 7331SOL     OW33454   2.590   0.194   6.513 -0.1506  0.4433 -0.1228
 7331SOL    HW133455   2.588   0.100   6.532  0.6659  0.5051  0.2896
 7331SOL    HW233456   2.608   0.228   6.600  2.0524 -0.1428 -0.3221
 7332SOL     OW33457   2.278   4.095   6.344 -0.6869  0.3619 -0.1781
 7332SOL    HW133458   2.343   4.078   6.276 -0.4465 -0.7386  0.3248
 7332SOL    HW233459   2.281   4.010   6.388  0.0926  0.2150 -0.5177
 7333SOL     OW33460   4.262   2.212   4.217 -0.3242  0.2894 -0.1364
 7333SOL    HW133461   4.338   2.166   4.253 -1.6904 -1.3325  0.6780
 7333SOL    HW233462   4.297   2.230   4.130 -0.1523 -0.2316 -0.1788
 7334SOL     OW33463   4.329   3.297   7.446 -0.1766 -0.9492  0.3687
 7334SOL    HW133464   4.252   3.266   7.493 -1.2723  0.0913 -0.7621
 7334SOL    HW233465   4.285   3.377   7.416  1.7190  0.7015  1.9426
 7335SOL     OW33466   3.718   4.162   2.379 -0.0433  0.0801 -0.2864
 7335SOL    HW133467   3.756   4.163   2.467  1.9889  0.0368 -1.1767
 7335SOL    HW233468   3.710   4.256   2.361 -0.3427  0.2094  0.5339
 7336SOL     OW33469   1.359   4.264   6.989 -0.0898 -0.5486  0.1980
 7336SOL    HW133470   1.287   4.252   7.051 -1.1996 -1.3884 -1.2212
 7336SOL    HW233471   1.430   4.224   7.038  0.8069 -0.4772 -1.0520
 7337SOL     OW33472   3.173   1.391   4.104  0.1162 -0.6489  0.2323
 7337SOL    HW133473   3.174   1.472   4.155 -2.0045 -1.4225  1.5359
 7337SOL    HW233474   3.095   1.349   4.141 -1.7955  1.2985 -1.5123
 7338SOL     OW33475   3.852   3.821   5.765  0.0016 -0.2516  0.0440
 7338SOL    HW133476   3.766   3.845   5.732 -0.6618  0.4387  2.3305
 7338SOL    HW233477   3.829   3.805   5.856 -1.0202  0.0150 -0.1669
 7339SOL     OW33478   4.188   1.847  16.136  0.1390 -0.2409 -0.0751
 7339SOL    HW133479   4.195   1.936  16.101 -1.6757 -0.1395 -0.1863
 7339SOL    HW233480   4.151   1.858  16.223  0.5977 -1.4268  0.2630
 7340SOL     OW33481   4.645   4.475   7.780 -0.1673  0.1913 -0.4985
 7340SOL    HW133482   4.645   4.416   7.855  3.7763  2.0696  0.9639
 7340SOL    HW233483   4.592   4.427   7.716 -2.2201  1.6101  0.1615
 7341SOL     OW33484   2.597   2.173  17.218  0.3899  0.3060  0.1353
 7341SOL    HW133485   2.662   2.183  17.288 -1.3366 -1.3915  1.9888
 7341SOL    HW233486   2.574   2.264  17.200  0.7695  0.7205  1.6837
 7342SOL     OW33487   2.312   2.005   7.834 -0.0866  0.0687  0.1199
 7342SOL    HW133488   2.406   1.991   7.835 -0.1944 -0.8411 -2.5993
 7342SOL    HW233489   2.301   2.046   7.920  0.4232  0.3082  0.0740
 7343SOL     OW33490   1.912   1.913   5.876 -0.0508 -0.1158  0.1639
 7343SOL    HW133491   1.940   2.004   5.865 -1.4724  0.3147  0.2047
 7343SOL    HW233492   1.892   1.874   5.791  0.3042  0.4927 -0.2010
 7344SOL     OW33493   0.371   2.744   3.042  0.8683 -0.3670 -0.2225
 7344SOL    HW133494   0.323   2.823   3.018  1.5436  0.8449  2.3839
 7344SOL    HW233495   0.422   2.766   3.120  0.4444  0.6700 -0.2420
 7345SOL     OW33496   3.109   3.710   5.792  0.2534 -0.2036  0.4053
 7345SOL    HW133497   3.059   3.693   5.872 -1.0717  0.3685 -0.2887
 7345SOL    HW233498   3.069   3.639   5.740  1.5856 -0.6996  0.0610
 7346SOL     OW33499   0.280   2.539  12.796 -0.1238  0.2134  0.2031
 7346SOL    HW133500   0.351   2.590  12.835 -0.3091  2.1855 -2.0283
 7346SOL    HW233501   0.205   2.596  12.812  0.3346  1.3292 -1.6800
 7347SOL     OW33502   1.525   4.245  13.259  0.2829  0.5114  0.1737
 7347SOL    HW133503   1.445   4.272  13.305  0.0739 -0.4171  0.3479
 7347SOL    HW233504   1.540   4.156  13.288 -2.3860 -0.4843 -1.4295
 7348SOL     OW33505   1.745   3.556   0.091  0.1522  0.5057  0.0138
 7348SOL    HW133506   1.782   3.493   0.153 -0.2832  0.2437  0.0066
 7348SOL    HW233507   1.702   3.612   0.156  1.6295  0.8850  0.6608
 7349SOL     OW33508   3.467   1.135   4.110  0.0884 -0.3018  0.5863
 7349SOL    HW133509   3.419   1.203   4.063  0.1157  0.3942  1.5449
 7349SOL    HW233510   3.397   1.085   4.152  1.0600 -2.1122  0.0324
 7350SOL     OW33511   0.247   1.462   8.349  0.4184 -0.2593 -0.2572
 7350SOL    HW133512   0.295   1.426   8.274  0.7475 -1.2767  0.4424
 7350SOL    HW233513   0.281   1.413   8.424  0.7168 -0.3332 -0.4398
 7351SOL     OW33514   4.302   2.500   4.048  0.1108 -0.0549  0.0542
 7351SOL    HW133515   4.391   2.534   4.041 -0.3661  1.3997  0.9053
 7351SOL    HW233516   4.282   2.517   4.141 -2.0754 -0.1320 -0.4011
 7352SOL     OW33517   3.656   4.301   0.992  0.2586 -0.3782  0.3963
 7352SOL    HW133518   3.746   4.324   1.012  0.6335 -0.2106 -1.4666
 7352SOL    HW233519   3.672   4.210   1.017  0.1519 -0.0558  1.6146
 7353SOL     OW33520   4.043   0.694   7.157 -0.1894  0.1191  0.0523
 7353SOL    HW133521   4.030   0.777   7.204  1.0516 -0.8483  2.1096
 7353SOL    HW233522   3.981   0.635   7.199 -1.1531  0.2554 -1.1904
 7354SOL     OW33523   4.199   3.839   5.005 -0.0880  0.4490 -0.0051
 7354SOL    HW133524   4.274   3.780   4.994 -1.1802 -0.9186 -0.1101
 7354SOL    HW233525   4.236   3.913   4.956 -1.3013  1.6733  0.9142
 7355SOL     OW33526   4.338   0.489   3.402  0.0020 -0.1752  0.5908
 7355SOL    HW133527   4.417   0.445   3.431 -0.1971 -0.6372  0.4523
 7355SOL    HW233528   4.275   0.423   3.433 -1.8739  1.1400 -0.3834
 7356SOL     OW33529   1.018   1.918  10.470 -0.3287  0.3950 -0.2215
 7356SOL    HW133530   1.020   1.999  10.520 -2.7282  1.9506 -2.6549
 7356SOL    HW233531   1.096   1.924  10.415  0.1904  1.4853  0.6403
 7357SOL     OW33532   4.234   2.126   8.960 -0.1105 -0.1630  0.0319
 7357SOL    HW133533   4.169   2.192   8.983 -1.2700 -0.3695 -2.6278
 7357SOL    HW233534   4.214   2.107   8.868  2.8556  0.0938 -0.6761
 7358SOL     OW33535   4.234   1.327   6.147  0.1134  0.1637 -0.3649
 7358SOL    HW133536   4.203   1.308   6.235 -1.9983  2.3427 -0.6377
 7358SOL    HW233537   4.149   1.308   6.107 -0.4707 -0.4660  1.1805
 7359SOL     OW33538   1.957   4.100  12.053 -0.0745 -0.3809 -0.2637
 7359SOL    HW133539   1.964   4.193  12.031 -0.4973  0.1414  1.8136
 7359SOL    HW233540   1.936   4.109  12.146  1.5422  0.6040  0.0122
 7360SOL     OW33541   0.589   3.666   4.855  0.0515  0.2110 -0.3056
 7360SOL    HW133542   0.643   3.676   4.933  0.7594 -2.7033 -0.4340
 7360SOL    HW233543   0.516   3.626   4.902  0.4318  1.1106  1.0434
 7361SOL     OW33544   1.829   0.091  13.412 -0.1176  0.4003  0.3541
 7361SOL    HW133545   1.915   0.103  13.373 -0.3430  2.2851  0.4095
 7361SOL    HW233546   1.796   0.019  13.358 -0.4666  0.5783  0.3258
 7362SOL     OW33547   3.573   4.331   7.569 -0.6287 -0.5549 -0.9836
 7362SOL    HW133548   3.485   4.295   7.558 -0.5683  0.0059 -3.4114
 7362SOL    HW233549   3.610   4.328   7.480 -0.1519 -0.1050 -0.8042
 7363SOL     OW33550   2.019   1.534   1.131 -0.5428  0.1165 -0.2105
 7363SOL    HW133551   2.100   1.520   1.082  0.0604 -1.1336  1.1374
 7363SOL    HW233552   1.971   1.591   1.070 -2.2229 -1.3882 -0.2921
 7364SOL     OW33553   1.701   2.939   2.912 -0.1085 -0.1452 -0.3071
 7364SOL    HW133554   1.689   2.860   2.858  1.4057 -0.4834 -0.1476
 7364SOL    HW233555   1.679   2.897   2.995 -0.0481  0.3677 -0.0363
 7365SOL     OW33556   4.356   0.762   3.687 -0.2242  0.3090  0.1429
 7365SOL    HW133557   4.267   0.796   3.700 -0.8034  0.4950 -4.1261
 7365SOL    HW233558   4.373   0.768   3.593 -1.1175 -4.2402 -0.3079
 7366SOL     OW33559   3.906   2.481  11.175  0.1858  0.1005 -0.4235
 7366SOL    HW133560   3.974   2.515  11.116 -1.5730  1.8306 -1.4492
 7366SOL    HW233561   3.830   2.476  11.117 -0.7503 -0.5472  0.8881
 7367SOL     OW33562   1.352   1.648   5.730 -0.0904 -0.6224  0.0015
 7367SOL    HW133563   1.431   1.701   5.716  0.5371 -1.4233  0.5314
 7367SOL    HW233564   1.287   1.708   5.768 -0.4314 -0.9578 -0.0567
 7368SOL     OW33565   3.690   4.243   7.314 -0.6517 -0.2962 -0.3000
 7368SOL    HW133566   3.682   4.274   7.223  0.8235  3.1093  0.7520
 7368SOL    HW233567   3.782   4.262   7.332 -1.2892  2.5733 -0.0397
 7369SOL     OW33568   1.017   1.235   8.147 -0.3987  0.0199 -0.0533
 7369SOL    HW133569   1.011   1.140   8.148  0.2695 -0.0105  0.8788
 7369SOL    HW233570   1.079   1.248   8.075  0.1355 -0.7533  0.2718
 7370SOL     OW33571   4.103   1.325   2.191  0.0676 -0.5041  0.1282
 7370SOL    HW133572   4.164   1.389   2.227  1.1232  0.3213 -3.1102
 7370SOL    HW233573   4.060   1.287   2.267  1.0300 -2.3918 -0.2691
 7371SOL     OW33574   3.319   1.340   3.560 -0.6377  0.5072  0.3362
 7371SOL    HW133575   3.279   1.358   3.475 -0.0612  0.1698 -0.0097
 7371SOL    HW233576   3.288   1.407   3.621 -3.1474 -0.2711 -0.0782
 7372SOL     OW33577   2.461   3.044   0.744  0.3808  0.1698 -0.4695
 7372SOL    HW133578   2.515   3.030   0.822 -0.7144 -1.0702  0.0740
 7372SOL    HW233579   2.503   3.121   0.708 -1.4455  0.7222 -1.4040
 7373SOL     OW33580   3.040   3.467   6.090 -0.2899 -0.1125 -0.1336
 7373SOL    HW133581   2.956   3.496   6.054 -0.4601 -1.0252 -0.4770
 7373SOL    HW233582   3.048   3.508   6.176  1.5228  2.4851 -1.5369
 7374SOL     OW33583   2.736   2.718   8.247 -0.0651 -0.2256  0.4125
 7374SOL    HW133584   2.788   2.712   8.327  1.2841  1.1649 -0.3731
 7374SOL    HW233585   2.654   2.746   8.289 -1.3252  0.1632 -2.2919
 7375SOL     OW33586   0.827   4.641   9.681 -0.0491  0.7894  0.5240
 7375SOL    HW133587   0.755   4.586   9.714  0.4286  0.8216  1.6088
 7375SOL    HW233588   0.901   4.594   9.720 -0.2638  1.0190  1.2096
 7376SOL     OW33589   2.674   3.675   3.360 -0.1188 -0.1030 -0.0741
 7376SOL    HW133590   2.659   3.623   3.281 -0.0073 -1.5231  0.8549
 7376SOL    HW233591   2.765   3.702   3.350  0.4820 -1.7187  1.1017
 7377SOL     OW33592   3.287   1.490   5.668 -0.0077  0.1192 -0.8916
 7377SOL    HW133593   3.283   1.513   5.575  0.1287  0.5170 -0.7966
 7377SOL    HW233594   3.282   1.395   5.661  1.9974 -0.0521  0.1595
 7378SOL     OW33595   1.260   2.636  16.780  0.4007 -0.2001 -0.4906
 7378SOL    HW133596   1.253   2.589  16.696  0.3229  0.1402 -0.6736
 7378SOL    HW233597   1.256   2.568  16.848 -0.3715  1.4805  1.1278
 7379SOL     OW33598   0.400   1.788  16.168  0.3810 -0.2104 -1.2527
 7379SOL    HW133599   0.484   1.807  16.126  1.2395  0.0025  0.5338
 7379SOL    HW233600   0.361   1.751  16.089 -0.9124 -0.0693 -0.6639
 7380SOL     OW33601   1.098   0.160   3.057  0.5227  0.0692  0.5222
 7380SOL    HW133602   1.065   0.194   2.974  2.1149 -0.2058 -0.2221
 7380SOL    HW233603   1.190   0.143   3.036  0.3675  0.7977 -0.7713
 7381SOL     OW33604   1.815   1.725   3.031 -0.1776 -0.3652  0.1160
 7381SOL    HW133605   1.862   1.650   2.994 -1.1250 -0.1360 -1.5510
 7381SOL    HW233606   1.834   1.800   2.975  0.4752 -0.4598  0.2127
 7382SOL     OW33607   3.724   4.338   7.834 -0.1042  0.2067 -0.1945
 7382SOL    HW133608   3.809   4.366   7.799 -0.4185  1.4563  0.0507
 7382SOL    HW233609   3.677   4.359   7.753 -0.9979  1.0561  0.5514
 7383SOL     OW33610   1.371   1.887   3.548  0.0750  0.6552 -0.0729
 7383SOL    HW133611   1.310   1.917   3.481 -0.8698 -1.4179 -0.1489
 7383SOL    HW233612   1.404   1.968   3.586 -0.0747  0.0260  1.4194
 7384SOL     OW33613   4.391   4.573   8.363 -0.3643 -0.3423 -0.0702
 7384SOL    HW133614   4.365   4.524   8.285 -1.0440  0.2191 -0.1986
 7384SOL    HW233615   4.485   4.588   8.354 -0.3034 -1.2463 -0.8913
 7385SOL     OW33616   1.958   3.282   4.968 -0.4598 -0.5441  0.1008
 7385SOL    HW133617   2.023   3.216   4.943  0.2321 -0.7678  2.4857
 7385SOL    HW233618   1.989   3.355   4.914  1.0366  0.8305  2.8535
 7386SOL     OW33619   1.554   1.110   6.284 -0.2751  0.1721  0.2047
 7386SOL    HW133620   1.572   1.020   6.257  0.6341  1.0879 -2.2846
 7386SOL    HW233621   1.635   1.162   6.289 -0.7795  1.2071 -2.1344
 7387SOL     OW33622   0.398   4.499  13.681 -0.7003  0.3260  0.1579
 7387SOL    HW133623   0.436   4.412  13.666 -1.6548 -0.1196  0.2765
 7387SOL    HW233624   0.314   4.474  13.722 -1.7066  0.9618 -1.5170
 7388SOL     OW33625   3.993   2.339   5.107  0.5519  0.4065 -0.2649
 7388SOL    HW133626   4.005   2.428   5.074 -5.0420  1.4241  0.3843
 7388SOL    HW233627   4.005   2.288   5.028  0.6081  1.6700 -1.0681
 7389SOL     OW33628   3.974   2.548   9.108  0.0582  0.3763 -0.1578
 7389SOL    HW133629   3.934   2.584   9.187 -1.2687 -0.2065 -0.5751
 7389SOL    HW233630   4.053   2.507   9.145 -1.0923 -2.2058 -0.5189
 7390SOL     OW33631   0.153   2.947   7.084  0.1106  0.1346  0.6032
 7390SOL    HW133632   0.068   2.906   7.068 -0.3258  0.6903  1.5213
 7390SOL    HW233633   0.201   2.905   7.012 -0.3318  1.3446 -0.3943
 7391SOL     OW33634   0.196   0.903   2.403 -0.3175  0.5942 -0.0562
 7391SOL    HW133635   0.152   0.988   2.405 -1.0807  0.1920  0.2996
 7391SOL    HW233636   0.268   0.922   2.343 -0.5421 -2.6354 -1.2909
 7392SOL     OW33637   1.256   3.901   8.175  0.1769 -0.1932  0.5844
 7392SOL    HW133638   1.200   3.835   8.215  0.8285 -0.3973  1.1570
 7392SOL    HW233639   1.276   3.951   8.255  1.0539  1.2382 -0.5292
 7393SOL     OW33640   3.181   0.540   2.871 -0.1867  0.0457 -0.0789
 7393SOL    HW133641   3.164   0.571   2.782 -0.8528 -0.0602  0.0082
 7393SOL    HW233642   3.093   0.539   2.908 -1.2639  0.4045 -2.5773
 7394SOL     OW33643   1.627   1.816   9.497 -0.2306 -0.0542 -0.1081
 7394SOL    HW133644   1.536   1.839   9.479 -0.6435 -0.7221  1.0654
 7394SOL    HW233645   1.656   1.776   9.415  1.0332 -1.2406  0.9172
 7395SOL     OW33646   3.172   4.458   4.978  0.3782 -0.1535 -0.6835
 7395SOL    HW133647   3.190   4.443   4.885  1.4718 -0.0755 -0.4861
 7395SOL    HW233648   3.096   4.515   4.970  0.3850 -0.3767 -2.2460
 7396SOL     OW33649   4.045   3.876   4.141  0.1234  0.1207 -0.2996
 7396SOL    HW133650   4.124   3.881   4.088  0.1402  1.0320 -0.1967
 7396SOL    HW233651   4.066   3.948   4.200 -0.1188  0.3497 -0.4890
 7397SOL     OW33652   2.378   2.155   8.143 -0.0580  0.0931  0.1582
 7397SOL    HW133653   2.402   2.232   8.091 -2.7926  1.1583  0.4562
 7397SOL    HW233654   2.453   2.164   8.203 -0.5423 -1.6733  1.0308
 7398SOL     OW33655   0.263   1.653   3.587 -0.4064  0.1767  0.1093
 7398SOL    HW133656   0.340   1.666   3.642 -0.9173 -1.1705  1.1528
 7398SOL    HW233657   0.281   1.715   3.517  0.0767 -0.7226 -0.5681
 7399SOL     OW33658   2.468   2.709  14.569  0.6347  0.1852 -0.2013
 7399SOL    HW133659   2.511   2.638  14.522  0.3086  0.2146 -0.5416
 7399SOL    HW233660   2.453   2.777  14.504  0.9500  1.0119  0.5930
 7400SOL     OW33661   0.004   0.783   1.001 -0.1129 -0.4189  0.5534
 7400SOL    HW133662   4.720   0.760   0.908  1.3478  1.0234  0.0593
 7400SOL    HW233663   0.024   0.876   0.993  0.8827 -0.5333  1.7430
 7401SOL     OW33664   0.419   0.296  12.177 -0.0303  0.4297  0.3392
 7401SOL    HW133665   0.466   0.222  12.216 -1.1982 -1.5146 -1.9801
 7401SOL    HW233666   0.362   0.316  12.252  0.6614  0.8554  0.7553
 7402SOL     OW33667   3.331   0.344   4.567 -0.2541  0.2647  0.2252
 7402SOL    HW133668   3.239   0.372   4.562 -0.4100 -0.2215  0.3373
 7402SOL    HW233669   3.374   0.425   4.594 -0.4361 -0.1537  1.7655
 7403SOL     OW33670   4.412   1.690   5.921  0.0245  0.7215 -0.7537
 7403SOL    HW133671   4.490   1.650   5.881  0.9436  0.8401  0.9175
 7403SOL    HW233672   4.419   1.644   6.005  2.7486  1.0364 -0.8029
 7404SOL     OW33673   0.327   4.622   0.026 -0.5022  0.5685 -0.1846
 7404SOL    HW133674   0.274   4.569  17.664  0.3458  1.3702 -1.6567
 7404SOL    HW233675   0.292   4.704  17.690 -1.2093  0.5419  0.5024
 7405SOL     OW33676   3.834   2.400   0.574 -0.4512  0.2727 -0.1697
 7405SOL    HW133677   3.749   2.444   0.583  0.2114  1.5929 -0.3334
 7405SOL    HW233678   3.866   2.436   0.491  1.1885 -1.3577 -0.2424
 7406SOL     OW33679   0.113   0.591   5.520  0.0801 -0.0521  0.4150
 7406SOL    HW133680   0.101   0.513   5.465  3.2532  0.1856 -0.6259
 7406SOL    HW233681   0.028   0.631   5.504  0.1220 -0.4115 -0.6744
 7407SOL     OW33682   1.219   2.642   3.546 -0.3776  0.2816 -0.8243
 7407SOL    HW133683   1.125   2.637   3.562  0.0662 -2.1830  0.9905
 7407SOL    HW233684   1.223   2.678   3.458  0.2163  0.4753 -0.7199
 7408SOL     OW33685   2.861   4.507   7.334  0.0694 -0.1553  0.4670
 7408SOL    HW133686   2.902   4.467   7.257 -3.7776 -2.8054 -0.2207
 7408SOL    HW233687   2.862   4.428   7.389  0.4504 -0.0574  0.5987
 7409SOL     OW33688   3.014   0.447  15.814 -0.4953 -0.0257  0.4983
 7409SOL    HW133689   2.926   0.483  15.824 -1.0044 -0.6183 -1.8483
 7409SOL    HW233690   3.025   0.368  15.868  0.3392 -0.0623  0.2773
 7410SOL     OW33691   1.946   0.679  11.547  0.1611 -0.2351  0.0047
 7410SOL    HW133692   2.036   0.675  11.516 -0.3627 -2.5309 -1.2096
 7410SOL    HW233693   1.894   0.709  11.472 -1.5556  0.4058  1.4333
 7411SOL     OW33694   1.230   0.504   5.365  0.4893 -0.1104  0.0026
 7411SOL    HW133695   1.238   0.529   5.457  0.1191 -0.7307  0.2037
 7411SOL    HW233696   1.294   0.433   5.357  0.9931  0.1023  2.1520
 7412SOL     OW33697   0.577   3.192  14.721  0.0172 -0.4525  0.0027
 7412SOL    HW133698   0.524   3.113  14.710 -1.1148  0.0473  1.8236
 7412SOL    HW233699   0.513   3.254  14.757  0.1545 -0.5617  0.4251
 7413SOL     OW33700   0.346   0.265   3.166 -0.6249 -0.2629 -0.2889
 7413SOL    HW133701   0.382   0.221   3.243 -1.4891  0.0483  0.3017
 7413SOL    HW233702   0.368   0.202   3.098  2.0448 -3.4819  3.5810
 7414SOL     OW33703   3.782   2.558  11.614  0.0714 -0.0347 -0.1057
 7414SOL    HW133704   3.829   2.639  11.633  0.5053 -0.5069  0.8741
 7414SOL    HW233705   3.857   2.519  11.569 -1.6384  0.0404 -3.0488
 7415SOL     OW33706   4.142   2.838   7.543 -0.4496 -0.0061  0.2372
 7415SOL    HW133707   4.148   2.743   7.531  2.8366  0.1260  0.8656
 7415SOL    HW233708   4.235   2.861   7.532 -0.7669  0.9392 -0.4248
 7416SOL     OW33709   1.796   1.683   6.705  0.7646 -0.1671 -0.7977
 7416SOL    HW133710   1.702   1.675   6.691  0.8121  1.4300 -2.0946
 7416SOL    HW233711   1.801   1.629   6.783 -1.4011  1.3070  0.3566
 7417SOL     OW33712   0.918   2.248   3.678 -0.1537  0.2403  0.1645
 7417SOL    HW133713   0.902   2.156   3.660  0.2158 -0.0511  1.3591
 7417SOL    HW233714   0.904   2.287   3.591 -1.3414 -1.1074 -0.2623
 7418SOL     OW33715   4.202   4.574   6.769 -0.6787  1.0062 -0.0189
 7418SOL    HW133716   4.121   4.530   6.741 -0.2814  1.3913 -1.8049
 7418SOL    HW233717   4.177   4.622   6.847  0.5981  1.3396  0.1727
 7419SOL     OW33718   0.403   1.133   7.952 -0.6164  0.1990 -0.2344
 7419SOL    HW133719   0.496   1.139   7.929 -0.3735 -0.7262  0.5189
 7419SOL    HW233720   0.409   1.058   8.010 -0.5916  0.3412 -0.0525
 7420SOL     OW33721   1.615   1.876   1.046 -0.1018 -0.7121 -0.2554
 7420SOL    HW133722   1.574   1.933   1.111  0.2066 -1.0545  0.2356
 7420SOL    HW233723   1.543   1.813   1.036 -0.5676 -0.3408  0.7851
 7421SOL     OW33724   3.700   1.474   9.089 -0.6372  0.0087  0.2633
 7421SOL    HW133725   3.676   1.458   9.181 -0.1892 -0.3561  0.3184
 7421SOL    HW233726   3.653   1.556   9.079 -1.2050 -0.4053 -0.4482
 7422SOL     OW33727   4.484   1.244   9.510  0.0971 -0.1408  0.3909
 7422SOL    HW133728   4.445   1.213   9.428 -0.3887  0.5442  0.3689
 7422SOL    HW233729   4.414   1.223   9.572 -0.3328  0.5585  0.1336
 7423SOL     OW33730   1.488   3.214   4.355  0.6090  0.2206 -0.2304
 7423SOL    HW133731   1.488   3.193   4.448 -1.6952  3.6499  0.5504
 7423SOL    HW233732   1.572   3.262   4.354  1.0127 -0.4886 -0.6820
 7424SOL     OW33733   2.792   2.032  14.726  0.4814  0.2280  0.1087
 7424SOL    HW133734   2.810   1.964  14.791  1.9549  0.9956  0.5133
 7424SOL    HW233735   2.881   2.062  14.708 -0.0513  1.7865 -0.0060
 7425SOL     OW33736   3.013   1.221  13.259 -0.0020 -0.4957  0.1340
 7425SOL    HW133737   3.022   1.280  13.185 -0.0473  0.5939  1.0093
 7425SOL    HW233738   3.106   1.218  13.283  0.3818 -2.5082 -1.5924
 7426SOL     OW33739   3.960   1.387   5.591  0.3599 -0.6874 -0.5391
 7426SOL    HW133740   4.021   1.455   5.564  1.0528 -1.0504  0.1260
 7426SOL    HW233741   3.961   1.344   5.506 -2.3239 -0.2722 -0.7875
 7427SOL     OW33742   4.718   1.198  11.227  0.1279 -0.3977  0.1710
 7427SOL    HW133743   4.700   1.155  11.310  0.5353 -0.5667  0.1725
 7427SOL    HW233744   0.030   1.284  11.252  2.2684 -1.1509 -0.3052
 7428SOL     OW33745   2.073   3.017   3.169 -0.1019 -0.5481  0.5001
 7428SOL    HW133746   2.008   3.004   3.099 -0.4356 -2.0033  1.0743
 7428SOL    HW233747   2.118   3.096   3.141 -0.8229 -0.2409  0.1959
 7429SOL     OW33748   3.873   2.073   6.372 -0.5960  0.0751 -0.6730
 7429SOL    HW133749   3.855   2.150   6.426 -1.6651 -0.6732  0.0449
 7429SOL    HW233750   3.898   2.004   6.434 -1.2500 -1.2556 -1.9007
 7430SOL     OW33751   4.007   0.587  15.062 -0.0244 -0.5776 -0.2741
 7430SOL    HW133752   3.969   0.622  15.143  1.4685  0.0511  0.1484
 7430SOL    HW233753   3.994   0.653  14.995  0.6888 -0.2629 -0.1074
 7431SOL     OW33754   0.490   3.016   6.857  0.1441 -0.8678  0.3852
 7431SOL    HW133755   0.577   3.001   6.820 -0.0972 -2.9466  0.6784
 7431SOL    HW233756   0.449   2.930   6.848 -0.2294 -0.4872 -1.7007
 7432SOL     OW33757   3.785   1.460  16.982  0.2638  0.2416 -0.0707
 7432SOL    HW133758   3.702   1.443  17.027 -0.4663 -0.0216 -1.5214
 7432SOL    HW233759   3.744   1.489  16.900  0.3975 -2.1246 -0.9759
 7433SOL     OW33760   4.034   2.624   5.390  0.0810 -0.0498  0.6260
 7433SOL    HW133761   3.962   2.598   5.333 -0.1697 -3.2061  2.3997
 7433SOL    HW233762   3.976   2.630   5.465  0.5000  1.2591  0.8490
 7434SOL     OW33763   4.306   2.473   6.126  0.2901  0.1055  0.4313
 7434SOL    HW133764   4.349   2.502   6.046  1.5888 -0.6622  0.8317
 7434SOL    HW233765   4.287   2.553   6.176 -4.2171 -0.1940 -0.8161
 7435SOL     OW33766   3.331   1.132   2.422 -0.3330  0.3553  0.3800
 7435SOL    HW133767   3.300   1.113   2.334 -0.1988  1.2966  0.1248
 7435SOL    HW233768   3.404   1.190   2.400  0.3435  0.3249  2.5275
 7436SOL     OW33769   0.827   1.281   4.241 -0.0562  0.2011  0.0645
 7436SOL    HW133770   0.804   1.199   4.198 -3.0910  0.4823  1.1844
 7436SOL    HW233771   0.845   1.332   4.162  0.6148 -1.5329 -0.9009
 7437SOL     OW33772   1.896   0.004   0.846  0.0342 -0.2738 -0.1796
 7437SOL    HW133773   1.848   0.086   0.852  1.3573  0.3730  1.3418
 7437SOL    HW233774   1.922   4.718   0.937  1.5382 -0.2735 -0.6145
 7438SOL     OW33775   2.273   1.153   3.363  0.5347  0.7085 -0.2754
 7438SOL    HW133776   2.194   1.150   3.417 -0.6716 -0.6487 -2.0812
 7438SOL    HW233777   2.271   1.241   3.325  2.2896  1.2949  1.0496
 7439SOL     OW33778   1.807   1.719   5.699  0.4996  0.1861  0.5543
 7439SOL    HW133779   1.784   1.752   5.612 -0.7553 -0.3417  0.6933
 7439SOL    HW233780   1.818   1.625   5.684 -0.6362  0.3404 -1.2558
 7440SOL     OW33781   0.275   1.695   8.516  0.2578 -0.6823  0.1621
 7440SOL    HW133782   0.235   1.652   8.591 -2.5068  0.5161 -0.6438
 7440SOL    HW233783   0.283   1.616   8.463 -2.6515 -1.4610  0.9282
 7441SOL     OW33784   4.498   1.814   6.326 -0.7177  0.0451 -0.4284
 7441SOL    HW133785   4.568   1.860   6.278 -0.9563  1.4745  0.6215
 7441SOL    HW233786   4.454   1.754   6.265  1.1723 -0.4043 -1.3737
 7442SOL     OW33787   3.208   0.540   9.437 -0.5745  0.0695 -0.7025
 7442SOL    HW133788   3.205   0.568   9.529 -1.4439  0.1748 -0.7581
 7442SOL    HW233789   3.301   0.522   9.427 -1.2467 -4.2299  0.8051
 7443SOL     OW33790   3.991   1.925   6.575 -0.1951 -0.1302 -0.4851
 7443SOL    HW133791   3.931   1.949   6.646  1.3617  1.8365  0.1528
 7443SOL    HW233792   3.990   1.830   6.588  0.6108  0.0145  0.6454
 7444SOL     OW33793   0.804   2.935  13.640  0.1085  0.2670  0.6080
 7444SOL    HW133794   0.761   2.849  13.635 -0.4844  0.5677  0.4477
 7444SOL    HW233795   0.877   2.928  13.701 -0.0520  0.7651  0.8561
 7445SOL     OW33796   2.206   2.068  13.418 -0.0545 -0.5359 -0.0120
 7445SOL    HW133797   2.175   2.142  13.366  0.2916  0.6904  1.5322
 7445SOL    HW233798   2.288   2.053  13.370  0.8896  0.4181  1.2945
 7446SOL     OW33799   1.698   4.160   3.367  0.2304 -0.1179  0.4432
 7446SOL    HW133800   1.700   4.218   3.291  1.1465 -1.4531 -0.5597
 7446SOL    HW233801   1.688   4.226   3.435 -1.6149 -1.2732  1.2880
 7447SOL     OW33802   0.514   2.311   1.880 -0.4282  0.1966  0.7383
 7447SOL    HW133803   0.438   2.366   1.899 -0.8680 -0.7578  1.7531
 7447SOL    HW233804   0.517   2.310   1.784 -2.5964  0.4146  0.6761
 7448SOL     OW33805   3.773   2.993   3.047  0.1484  0.2919  0.7155
 7448SOL    HW133806   3.829   3.058   3.090  0.0018  0.4328  0.6929
 7448SOL    HW233807   3.784   3.024   2.957  2.1630 -2.3979  0.0220
 7449SOL     OW33808   0.921   1.368   6.152 -0.3958  0.1993  0.1597
 7449SOL    HW133809   0.882   1.386   6.066 -1.2501 -2.3867  0.0204
 7449SOL    HW233810   0.986   1.305   6.122  2.7472  2.5131  2.0731
 7450SOL     OW33811   0.715   2.358   2.069  0.2735  0.1560 -0.0369
 7450SOL    HW133812   0.644   2.350   2.006  0.1196 -0.6675  0.2515
 7450SOL    HW233813   0.696   2.277   2.116 -0.2262  0.4140  0.2093
 7451SOL     OW33814   0.423   3.004   5.464 -1.1351 -0.6677 -0.0329
 7451SOL    HW133815   0.364   2.997   5.538 -0.2357  3.1935  1.0131
 7451SOL    HW233816   0.494   3.048   5.511  0.8699 -1.3197 -2.4191
 7452SOL     OW33817   3.888   3.150   9.515 -0.3305 -0.1570  0.3678
 7452SOL    HW133818   3.812   3.140   9.572 -0.8269 -1.9640 -0.6154
 7452SOL    HW233819   3.895   3.246   9.519 -1.1941 -0.1615  2.0756
 7453SOL     OW33820   0.861   2.968   6.438  0.6982 -0.2967  0.0950
 7453SOL    HW133821   0.859   2.880   6.476 -0.9579 -1.1151 -1.9090
 7453SOL    HW233822   0.856   2.949   6.344 -1.0660 -1.7664  0.4796
 7454SOL     OW33823   1.188   3.467   2.905 -0.2937 -0.3023  0.3824
 7454SOL    HW133824   1.243   3.538   2.938 -1.5622  0.3693  1.0552
 7454SOL    HW233825   1.103   3.511   2.914 -0.1291  0.0782  0.0497
 7455SOL     OW33826   0.730   1.079  16.753  0.1184 -0.0185 -0.5845
 7455SOL    HW133827   0.716   1.032  16.671  1.1663 -0.2321 -0.6494
 7455SOL    HW233828   0.643   1.072  16.791 -1.1346 -0.1443 -3.5582
 7456SOL     OW33829   4.528   2.856  16.786  0.3045 -0.5216 -0.2159
 7456SOL    HW133830   4.548   2.937  16.740  0.7293 -0.6480 -0.2581
 7456SOL    HW233831   4.434   2.861  16.801  0.3406  1.7415 -0.8623
 7457SOL     OW33832   3.602   0.555   5.253 -0.0533  0.3115  0.1259
 7457SOL    HW133833   3.660   0.591   5.321 -0.6012  0.1017  0.7094
 7457SOL    HW233834   3.533   0.539   5.317  0.4847  0.4970  0.7652
 7458SOL     OW33835   2.881   2.276   4.966 -0.7866  0.4364  0.0863
 7458SOL    HW133836   2.881   2.188   4.928  0.2763 -0.9053  3.1777
 7458SOL    HW233837   2.974   2.297   4.979 -1.4347  2.5716  1.2215
 7459SOL     OW33838   0.215   4.392  11.851 -0.3907  0.3233 -0.4818
 7459SOL    HW133839   0.302   4.392  11.810  0.4163  0.6037  1.1920
 7459SOL    HW233840   0.187   4.301  11.846 -0.5233  0.3157  0.4210
 7460SOL     OW33841   1.955   0.914   4.353 -0.1021  1.0116  0.4690
 7460SOL    HW133842   1.923   0.874   4.272  1.6774  0.5303  0.0211
 7460SOL    HW233843   1.983   0.841   4.407 -0.2391  0.6887  0.0997
 7461SOL     OW33844   2.370   1.871   8.248  0.1532  0.1580  0.0624
 7461SOL    HW133845   2.401   1.961   8.235  0.3805  0.1549  0.5932
 7461SOL    HW233846   2.407   1.852   8.334  2.8845  2.8038 -0.5220
 7462SOL     OW33847   0.590   2.784   4.052  0.6584  0.1184  0.2715
 7462SOL    HW133848   0.664   2.845   4.053  0.6861  0.0441  1.9968
 7462SOL    HW233849   0.525   2.825   4.109  0.9095 -0.8786  1.2562
 7463SOL     OW33850   1.428   3.477   8.385 -0.4616 -0.3393 -0.2401
 7463SOL    HW133851   1.368   3.438   8.448 -0.2272 -0.8273 -0.3186
 7463SOL    HW233852   1.412   3.415   8.314 -1.0967 -0.2204 -0.2001
 7464SOL     OW33853   2.321   1.735  17.504  0.3646  0.2200  0.6469
 7464SOL    HW133854   2.406   1.701  17.475 -0.1478  0.9593 -1.6685
 7464SOL    HW233855   2.280   1.780  17.431  2.6784  1.5645  0.1907
 7465SOL     OW33856   2.840   0.610   2.772  0.5198 -0.2295  0.1280
 7465SOL    HW133857   2.858   0.613   2.678 -1.0554  3.0571 -0.0551
 7465SOL    HW233858   2.858   0.702   2.793 -1.9518  0.3617 -0.3065
 7466SOL     OW33859   3.301   2.079   9.919  0.1141  0.1018  0.2888
 7466SOL    HW133860   3.269   2.086  10.009  1.4442 -0.9189  0.8395
 7466SOL    HW233861   3.393   2.058   9.930  0.4613  0.0899 -2.5825
 7467SOL     OW33862   3.626   3.504   8.812 -0.4134  0.0302 -0.2137
 7467SOL    HW133863   3.693   3.572   8.810 -1.7381  1.3756  0.7284
 7467SOL    HW233864   3.609   3.508   8.906 -0.5922  1.3907 -0.2994
 7468SOL     OW33865   4.245   2.743   6.157  0.2670 -0.3076  0.2891
 7468SOL    HW133866   4.192   2.789   6.092  0.6063 -2.2770 -1.3909
 7468SOL    HW233867   4.314   2.808   6.172  0.1006  0.2989 -1.5610
 7469SOL     OW33868   1.367   3.900   4.259 -0.4489  0.1048  0.0749
 7469SOL    HW133869   1.423   3.852   4.198  0.8113 -0.1685  1.4525
 7469SOL    HW233870   1.430   3.916   4.329 -0.4213 -2.3755  0.6250
 7470SOL     OW33871   1.379   4.458   6.541  0.5485 -0.4033  0.3173
 7470SOL    HW133872   1.454   4.517   6.546 -0.4441  0.8325  0.4393
 7470SOL    HW233873   1.354   4.463   6.633  1.0124 -0.5579  0.4522
 7471SOL     OW33874   3.871   2.854   3.608 -0.4393 -0.3560 -0.4982
 7471SOL    HW133875   3.908   2.767   3.620 -0.8300 -0.4316  0.1894
 7471SOL    HW233876   3.888   2.874   3.516 -0.7934  0.3788 -0.4041
 7472SOL     OW33877   0.153   2.154   5.402  0.1765 -0.0351 -0.3740
 7472SOL    HW133878   0.176   2.213   5.330 -1.3306 -0.9439 -1.6043
 7472SOL    HW233879   0.235   2.106   5.411 -1.2640 -2.1002  1.8144
 7473SOL     OW33880   0.376   2.403  13.351  0.8384 -0.5034 -0.2893
 7473SOL    HW133881   0.385   2.333  13.415  3.2483  0.1228  0.0645
 7473SOL    HW233882   0.469   2.426  13.343  0.3235  1.4799 -0.4857
 7474SOL     OW33883   2.431   2.647   1.188 -0.2839 -0.5093 -0.8780
 7474SOL    HW133884   2.461   2.699   1.114 -0.1274  0.5132 -0.1068
 7474SOL    HW233885   2.513   2.623   1.232 -0.0318 -1.1733 -1.7111
 7475SOL     OW33886   4.468   2.122   5.601 -0.3181  0.6852  0.1920
 7475SOL    HW133887   4.435   2.084   5.520 -0.3003  1.4444 -0.1629
 7475SOL    HW233888   4.389   2.167   5.632 -1.1915 -0.4321 -0.4087
 7476SOL     OW33889   3.406   1.924   8.904  0.0746  0.2081  0.1587
 7476SOL    HW133890   3.491   1.912   8.863 -1.3644  0.5581 -2.9348
 7476SOL    HW233891   3.351   1.944   8.828 -0.5307  2.2679  1.1296
 7477SOL     OW33892   3.794   1.349   6.921  0.2299 -0.7413 -0.5097
 7477SOL    HW133893   3.795   1.307   7.006 -0.2279 -0.9522 -0.6083
 7477SOL    HW233894   3.885   1.331   6.897  0.3150 -1.0389  0.0512
 7478SOL     OW33895   4.528   1.846   3.267  0.2552 -0.3154 -0.2596
 7478SOL    HW133896   4.438   1.834   3.237  0.1846  1.6133 -0.8340
 7478SOL    HW233897   4.544   1.758   3.300  0.4692 -0.7206 -1.4108
 7479SOL     OW33898   2.068   1.484   7.921  0.3327  0.4493  0.2859
 7479SOL    HW133899   2.132   1.552   7.944  0.9367  0.8136 -2.5615
 7479SOL    HW233900   1.987   1.519   7.959 -1.3570 -1.2692 -1.7537
 7480SOL     OW33901   3.753   0.759   7.486  0.0102  0.0931  0.5977
 7480SOL    HW133902   3.844   0.750   7.515 -0.3308 -1.2149  1.2435
 7480SOL    HW233903   3.712   0.742   7.570  1.2567 -0.6665  1.0535
 7481SOL     OW33904   2.203   1.724   6.858  0.1136 -0.1607 -0.2806
 7481SOL    HW133905   2.195   1.629   6.869  0.9812 -0.2305 -0.3156
 7481SOL    HW233906   2.119   1.762   6.831 -0.0189 -1.5204 -1.7585
 7482SOL     OW33907   0.463   1.170   2.386  0.8020  0.3043 -0.1583
 7482SOL    HW133908   0.452   1.095   2.327 -0.6522  0.7580 -0.4619
 7482SOL    HW233909   0.546   1.149   2.428 -0.1357 -0.6867  1.2044
 7483SOL     OW33910   4.532   2.890   4.890 -0.3518 -0.3266  0.5839
 7483SOL    HW133911   4.539   2.800   4.859 -1.1187 -0.3297  0.4139
 7483SOL    HW233912   4.597   2.884   4.961 -0.0095  0.7710  0.3651
 7484SOL     OW33913   1.395   3.577   2.713  0.2450 -0.1647 -0.1968
 7484SOL    HW133914   1.325   3.513   2.722 -1.0027  0.8808 -2.3722
 7484SOL    HW233915   1.367   3.636   2.784  1.9870 -0.7330  0.9639
 7485SOL     OW33916   0.370   3.574   6.444 -0.2718  0.1855 -0.4236
 7485SOL    HW133917   0.342   3.611   6.361 -2.0683 -0.5448 -0.1398
 7485SOL    HW233918   0.298   3.515   6.468  1.3633 -1.6392  0.0799
 7486SOL     OW33919   2.456   1.213   4.560  0.7061  0.5109 -0.2531
 7486SOL    HW133920   2.541   1.241   4.525  1.0681 -0.5775 -0.2294
 7486SOL    HW233921   2.417   1.149   4.501 -2.5524  0.9606  1.4093
 7487SOL     OW33922   3.856   2.324  14.525  0.1593  0.0935  0.1448
 7487SOL    HW133923   3.855   2.231  14.550  1.3349  0.2761  0.9030
 7487SOL    HW233924   3.828   2.370  14.604  0.5739  0.8573 -0.1561
 7488SOL     OW33925   4.374   2.326   3.282  0.2122  0.3257  0.5008
 7488SOL    HW133926   4.402   2.317   3.191 -0.3564  0.8501  0.2721
 7488SOL    HW233927   4.336   2.414   3.287 -2.3902 -0.6957 -1.1231
 7489SOL     OW33928   2.487   4.297   2.826 -0.0972  0.5709 -1.0886
 7489SOL    HW133929   2.553   4.367   2.825  0.7921 -0.2614  0.5604
 7489SOL    HW233930   2.479   4.287   2.921  0.5411  2.0125 -0.8722
 7490SOL     OW33931   4.268   4.043   7.053 -0.1644 -0.5772 -0.2269
 7490SOL    HW133932   4.188   4.094   7.068 -0.4280 -0.0580 -3.3356
 7490SOL    HW233933   4.299   4.102   6.984 -2.3046  0.0319 -0.6804
 7491SOL     OW33934   0.953   2.022   9.418  0.5510  0.0745 -0.0483
 7491SOL    HW133935   0.980   2.060   9.501 -0.7097  0.3422  0.2391
 7491SOL    HW233936   0.999   2.084   9.362 -0.1919  0.8462  0.1948
 7492SOL     OW33937   1.977   3.741   1.047 -0.1200  0.1303  0.0550
 7492SOL    HW133938   1.883   3.758   1.040 -0.5465 -2.4268 -0.3765
 7492SOL    HW233939   1.990   3.699   0.962 -2.6826 -1.0070  0.2094
 7493SOL     OW33940   2.418   0.827   0.190  0.4570  0.5393 -0.8025
 7493SOL    HW133941   2.471   0.756   0.227  0.2326  0.6016 -0.3717
 7493SOL    HW233942   2.329   0.794   0.183  0.3270  0.5519  0.9496
 7494SOL     OW33943   1.428   2.617  15.085 -0.1994  0.0052 -0.1967
 7494SOL    HW133944   1.487   2.652  15.018 -2.3956 -1.4797 -2.9278
 7494SOL    HW233945   1.480   2.566  15.147  1.7751  0.5825 -1.3452
 7495SOL     OW33946   1.855   1.611   4.374  0.8174 -0.0208 -0.3171
 7495SOL    HW133947   1.888   1.695   4.405 -0.4517  1.1122 -2.0160
 7495SOL    HW233948   1.933   1.557   4.373  1.4459  0.8918 -1.0238
 7496SOL     OW33949   4.259   2.851   3.847  0.1280 -0.4234 -0.2683
 7496SOL    HW133950   4.251   2.822   3.938 -1.0361  1.6387  0.2954
 7496SOL    HW233951   4.244   2.945   3.859  2.8276 -0.4034  3.1648
 7497SOL     OW33952   0.878   0.480   5.525 -0.1123 -0.5455  0.0902
 7497SOL    HW133953   0.930   0.558   5.547  1.4795 -1.1056 -1.7183
 7497SOL    HW233954   0.836   0.462   5.609  0.0276  0.6370  0.4169
 7498SOL     OW33955   3.535   2.703   3.732  0.5309  0.0913  0.6617
 7498SOL    HW133956   3.568   2.713   3.822 -0.0026  1.0202  0.7514
 7498SOL    HW233957   3.588   2.762   3.679  0.1122 -0.3056 -0.1853
 7499SOL     OW33958   0.812   3.274   8.107 -0.2418  0.3560  0.5168
 7499SOL    HW133959   0.862   3.269   8.026 -2.5788  0.8726 -0.9397
 7499SOL    HW233960   0.866   3.228   8.172  2.6798  1.6925 -1.0026
 7500SOL     OW33961   0.480   2.218  13.975  0.6662  0.4345  0.1351
 7500SOL    HW133962   0.494   2.290  13.913 -1.6702  0.7869  0.0108
 7500SOL    HW233963   0.478   2.257  14.062  2.9171  0.0133  0.3714
 7501SOL     OW33964   4.486   0.934   7.978  0.0200 -0.8819 -0.1179
 7501SOL    HW133965   4.426   0.945   8.052  0.2701 -0.1336 -0.0294
 7501SOL    HW233966   4.540   1.012   7.964  1.8934 -1.6043  3.1121
 7502SOL     OW33967   0.071   0.001   8.715  0.2454  0.6807 -0.3594
 7502SOL    HW133968   4.701   4.719   8.705  0.3972  0.7739 -1.8116
 7502SOL    HW233969   0.076   0.096   8.700  0.8064  0.8241  0.7281
 7503SOL     OW33970   1.524   3.732   5.681 -0.4015 -0.2184  0.0117
 7503SOL    HW133971   1.565   3.667   5.738  1.5874  1.1308  0.1195
 7503SOL    HW233972   1.471   3.778   5.746 -2.9476 -0.6546 -1.8100
 7504SOL     OW33973   2.963   2.545   6.224 -0.5600  0.2978  0.0374
 7504SOL    HW133974   3.028   2.590   6.169 -1.2301  1.9248  0.5728
 7504SOL    HW233975   2.882   2.584   6.192 -1.6709 -1.8931  0.2497
 7505SOL     OW33976   1.488   3.217  16.008  0.6325 -0.2794  0.2120
 7505SOL    HW133977   1.420   3.267  15.963 -0.0509 -2.0107 -0.6876
 7505SOL    HW233978   1.548   3.283  16.044  1.7635 -0.5235 -1.2145
 7506SOL     OW33979   1.660   1.956   7.481  0.6151 -0.4169 -0.1088
 7506SOL    HW133980   1.634   2.035   7.528  1.0217  0.2375 -1.0005
 7506SOL    HW233981   1.717   1.979   7.408  2.0040  1.0192  1.4190
 7507SOL     OW33982   1.518   1.823   4.907 -0.1398 -0.1802  0.0049
 7507SOL    HW133983   1.431   1.861   4.902  0.2849  1.0015  1.3961
 7507SOL    HW233984   1.500   1.751   4.847  1.8484 -1.0968  0.5135
 7508SOL     OW33985   3.240   1.954   8.706 -0.2410  0.3728  0.2626
 7508SOL    HW133986   3.276   1.874   8.668 -2.1593 -1.1258  1.5905
 7508SOL    HW233987   3.181   1.982   8.636 -1.7228  0.9583  1.7645
 7509SOL     OW33988   0.824   2.556   7.417  0.2143 -0.1704  0.2110
 7509SOL    HW133989   0.857   2.485   7.362  0.7604  0.0019  0.3186
 7509SOL    HW233990   0.898   2.615   7.418  1.2476 -1.4468 -1.1876
 7510SOL     OW33991   0.972   0.025   7.565  0.2493  0.2341 -0.3070
 7510SOL    HW133992   0.987   0.013   7.659  0.9910  0.3181 -0.4172
 7510SOL    HW233993   1.033   0.096   7.545  2.0361 -1.9040 -2.4837
 7511SOL     OW33994   0.898   4.628   5.132  0.3421  0.0853 -0.1012
 7511SOL    HW133995   0.816   4.601   5.174 -0.1431 -1.1700 -1.8667
 7511SOL    HW233996   0.950   4.624   5.212  0.2741  4.3361  0.1958
 7512SOL     OW33997   2.770   0.939   6.418  0.0404  0.1076  0.4423
 7512SOL    HW133998   2.777   1.033   6.433  0.2909  0.3493 -1.2052
 7512SOL    HW233999   2.856   0.905   6.395  0.0691  0.3372  0.2155
 7513SOL     OW34000   3.633   3.393   7.757 -0.2295 -0.0968 -0.1106
 7513SOL    HW134001   3.697   3.352   7.814 -0.4903  0.7360  0.7856
 7513SOL    HW234002   3.649   3.341   7.678  1.2857  0.0953  0.0885
 7514SOL     OW34003   1.541   0.706   8.158  0.0706 -0.3191 -0.2031
 7514SOL    HW134004   1.621   0.680   8.113  1.7453  1.9192  1.4597
 7514SOL    HW234005   1.483   0.701   8.082 -0.7695  3.4162  0.1438
 7515SOL     OW34006   1.178   2.307   3.731  0.7665 -0.1781 -0.5465
 7515SOL    HW134007   1.194   2.222   3.772 -2.0036 -1.0978 -1.3721
 7515SOL    HW234008   1.085   2.297   3.711  0.7020  1.6669 -1.1787
 7516SOL     OW34009   1.676   1.150  12.674 -0.1047 -0.4535 -0.3858
 7516SOL    HW134010   1.617   1.224  12.658  0.3398  0.3378  1.7001
 7516SOL    HW234011   1.613   1.079  12.659 -1.4347  0.3321  1.5333
 7517SOL     OW34012   4.023   4.369   5.900  0.4684  0.5492  0.0171
 7517SOL    HW134013   4.080   4.396   5.828 -1.0687 -0.7627 -1.6967
 7517SOL    HW234014   4.012   4.278   5.872  0.5588  0.1350  1.3264
 7518SOL     OW34015   3.261   3.583  12.066 -0.0552 -0.2773  0.1171
 7518SOL    HW134016   3.272   3.584  11.971  1.8587 -0.2910  0.3397
 7518SOL    HW234017   3.189   3.644  12.080  0.6104  0.4464  0.3896
 7519SOL     OW34018   1.160   1.379   8.343 -0.1968  0.1239 -0.1851
 7519SOL    HW134019   1.206   1.317   8.400  0.3974  1.5361  0.8755
 7519SOL    HW234020   1.135   1.328   8.266  1.0218 -0.5074 -0.1586
 7520SOL     OW34021   2.717   3.415   2.672 -0.6864  0.2972  0.1441
 7520SOL    HW134022   2.732   3.374   2.587 -4.0787 -0.7531  0.0832
 7520SOL    HW234023   2.671   3.349   2.722 -1.7948 -0.2882 -1.6670
 7521SOL     OW34024   3.636   4.706   0.329  0.3263  0.2197 -0.5086
 7521SOL    HW134025   3.704   4.642   0.348  0.9900  1.1534  0.2895
 7521SOL    HW234026   3.676   0.039   0.263 -1.4461  2.1825  0.1161
 7522SOL     OW34027   0.137   2.175  15.037 -0.1418 -0.2119  0.4168
 7522SOL    HW134028   0.178   2.166  14.951 -2.9492 -1.7199 -0.7916
 7522SOL    HW234029   0.112   2.268  15.038  0.9542  0.1012 -0.5667
 7523SOL     OW34030   1.558   4.001  12.185  0.0207 -0.4966  0.1850
 7523SOL    HW134031   1.578   4.066  12.251 -1.9229  0.7368 -0.4405
 7523SOL    HW234032   1.624   4.020  12.118 -0.3183  2.9859  0.8683
 7524SOL     OW34033   4.566   0.459   9.097 -0.0566  0.3917 -0.1184
 7524SOL    HW134034   4.473   0.479   9.094 -0.0426  0.3180 -1.0116
 7524SOL    HW234035   4.595   0.530   9.154 -0.8290  0.2234  0.4820
 7525SOL     OW34036   4.648   2.614  11.723 -0.0754  0.5883  0.2265
 7525SOL    HW134037   4.659   2.544  11.658 -0.9945 -1.2957  2.0999
 7525SOL    HW234038   0.008   2.626  11.767  0.1278  1.9596 -0.5511
 7526SOL     OW34039   0.836   1.687  14.919 -0.0044 -0.0103 -0.3661
 7526SOL    HW134040   0.845   1.610  14.862  0.2225  0.2528 -0.6838
 7526SOL    HW234041   0.881   1.750  14.863 -2.7851  3.2440  1.0668
 7527SOL     OW34042   2.140   3.839   0.762  0.2454 -0.0152  0.0121
 7527SOL    HW134043   2.138   3.764   0.822  0.2398  1.3452  1.6996
 7527SOL    HW234044   2.126   3.910   0.824  0.4776  0.9346 -1.0236
 7528SOL     OW34045   3.260   3.287   7.500 -0.4537  0.0446 -0.1862
 7528SOL    HW134046   3.238   3.205   7.545  1.6996  0.4163  1.5563
 7528SOL    HW234047   3.295   3.340   7.572  2.1165 -0.5110 -1.0550
 7529SOL     OW34048   3.028   1.641   2.922 -0.0427  0.2118 -0.2025
 7529SOL    HW134049   3.051   1.733   2.911  0.9043 -0.2164 -1.8123
 7529SOL    HW234050   3.047   1.599   2.838  4.0762  1.4507  0.1166
 7530SOL     OW34051   4.527   2.418  12.005 -0.4603 -0.0961  0.4522
 7530SOL    HW134052   4.474   2.394  11.929  0.2727  1.7034 -0.6362
 7530SOL    HW234053   4.526   2.333  12.048 -0.7307  0.6021  1.8308
 7531SOL     OW34054   0.659   2.115   8.539 -0.0358 -0.5324  0.1650
 7531SOL    HW134055   0.683   2.030   8.502 -1.2869 -0.6000 -0.5093
 7531SOL    HW234056   0.581   2.093   8.591 -0.7175  1.2579 -0.0934
 7532SOL     OW34057   2.026   0.421   6.537  0.1056 -0.0745  0.1193
 7532SOL    HW134058   2.094   0.387   6.595 -0.1129  2.8569  2.0700
 7532SOL    HW234059   2.083   0.473   6.481 -0.2350 -1.8122 -1.8584
 7533SOL     OW34060   1.865   0.830  12.537  0.0227  0.0010  0.5648
 7533SOL    HW134061   1.888   0.739  12.558 -2.1566 -0.5498  0.6368
 7533SOL    HW234062   1.771   0.831  12.557 -0.0106  0.8100  0.3242
 7534SOL     OW34063   0.970   2.179   2.183 -0.1814 -0.1291  0.0769
 7534SOL    HW134064   0.999   2.115   2.118  2.1724  3.0899 -2.0768
 7534SOL    HW234065   0.941   2.130   2.260  2.1889  0.8680  1.6106
 7535SOL     OW34066   4.503   0.445   4.746  0.7135 -0.1374 -0.2075
 7535SOL    HW134067   4.425   0.481   4.705  0.0920  0.1737  1.2584
 7535SOL    HW234068   4.460   0.370   4.785  0.9043  1.1825  2.5174
 7536SOL     OW34069   4.014   4.620   9.333  0.3815 -0.3919  0.0720
 7536SOL    HW134070   4.037   4.532   9.361 -1.2906 -1.0152 -0.5230
 7536SOL    HW234071   4.102   4.658   9.322 -0.4646  2.4972  3.3259
 7537SOL     OW34072   4.272   4.233   5.042 -0.5194 -0.2551  0.3281
 7537SOL    HW134073   4.337   4.303   5.042 -1.3477  0.4916 -1.7392
 7537SOL    HW234074   4.254   4.231   5.136  1.4329  0.6417  0.7205
 7538SOL     OW34075   1.130   2.042   3.429  0.0537 -0.3321  0.2171
 7538SOL    HW134076   1.046   2.039   3.476 -0.1369 -2.0323 -0.2160
 7538SOL    HW234077   1.119   1.984   3.354 -0.3513  0.0221  0.0043
 7539SOL     OW34078   4.573   0.773   3.191  0.7484  0.1590 -0.2566
 7539SOL    HW134079   4.631   0.798   3.119  0.5408  0.7859 -0.2062
 7539SOL    HW234080   4.643   0.772   3.257 -1.1082  1.4733  1.7202
 7540SOL     OW34081   0.400   4.294   2.278  0.1271 -0.2747  0.3913
 7540SOL    HW134082   0.336   4.241   2.325 -1.2143  0.0081 -1.1100
 7540SOL    HW234083   0.398   4.378   2.324  0.8752 -0.7046  1.2175
 7541SOL     OW34084   1.555   3.550  17.035 -0.4101  0.2577 -0.3602
 7541SOL    HW134085   1.549   3.469  16.985 -0.4318 -0.7264  1.2066
 7541SOL    HW234086   1.473   3.594  17.009 -1.0745 -0.1342  1.0612
 7542SOL     OW34087   0.219   3.743   1.925 -0.0811  0.3893  0.1613
 7542SOL    HW134088   0.159   3.736   2.000 -1.4894 -0.7849 -1.0743
 7542SOL    HW234089   0.242   3.651   1.912 -1.4091 -0.0532  0.9044
 7543SOL     OW34090   3.511   2.370  16.655 -0.0708 -0.1256 -0.2804
 7543SOL    HW134091   3.489   2.301  16.718  1.0207 -2.1303 -2.1202
 7543SOL    HW234092   3.595   2.402  16.688  0.2026 -0.2716 -0.8375
 7544SOL     OW34093   4.639   2.150   0.795  0.3740  0.4939 -0.4878
 7544SOL    HW134094   4.661   2.226   0.741  2.5332 -0.6089 -1.1751
 7544SOL    HW234095   4.605   2.082   0.737 -0.1669 -0.0840  0.5105
 7545SOL     OW34096   4.291   0.665   4.826  0.2566 -0.4657  0.2868
 7545SOL    HW134097   4.253   0.628   4.905 -0.3233  1.8203  1.0839
 7545SOL    HW234098   4.374   0.697   4.861 -0.8437  0.1073  2.3652
 7546SOL     OW34099   0.450   2.325   4.740 -0.3531  0.0903 -0.2479
 7546SOL    HW134100   0.545   2.317   4.742 -0.6261 -3.5862 -3.1511
 7546SOL    HW234101   0.430   2.418   4.751  0.8231  0.2748  0.3241
 7547SOL     OW34102   4.102   0.836  16.190  0.3956  0.3629 -0.1202
 7547SOL    HW134103   4.142   0.854  16.275 -1.4890 -0.6557  0.9837
 7547SOL    HW234104   4.168   0.878  16.136 -0.3122  1.5277 -0.0616
 7548SOL     OW34105   2.258   2.770   3.095 -0.4667 -0.3404  0.5715
 7548SOL    HW134106   2.190   2.835   3.114 -1.4696 -1.0669 -0.5754
 7548SOL    HW234107   2.249   2.775   3.000  0.3170  2.3560  0.6255
 7549SOL     OW34108   2.308   0.793   9.433  0.0583 -0.6804 -0.5760
 7549SOL    HW134109   2.398   0.825   9.445  0.5766 -0.9755 -3.4696
 7549SOL    HW234110   2.258   0.864   9.471 -1.4960 -1.6201 -0.8691
 7550SOL     OW34111   2.720   2.629  16.775  0.1058  0.5480  0.4109
 7550SOL    HW134112   2.800   2.679  16.758  1.7292 -1.4218  2.4646
 7550SOL    HW234113   2.671   2.709  16.796 -0.0803  0.2813  0.9761
 7551SOL     OW34114   2.671   0.025   1.084 -0.3356 -0.0521 -0.3460
 7551SOL    HW134115   2.745   0.004   1.026 -0.2264 -2.0734  0.5429
 7551SOL    HW234116   2.710   0.077   1.154  0.5177 -0.4965 -0.4860
 7552SOL     OW34117   2.386   3.785   2.257  0.0912 -0.3389 -0.0662
 7552SOL    HW134118   2.448   3.856   2.274  0.6592 -0.9663  0.4610
 7552SOL    HW234119   2.431   3.741   2.185 -3.1706 -1.2957 -1.5433
 7553SOL     OW34120   3.631   1.132   8.600 -0.4282  0.1284  0.2354
 7553SOL    HW134121   3.552   1.083   8.624  0.4949 -0.8932  1.1974
 7553SOL    HW234122   3.688   1.075   8.651 -0.7728  0.1944  0.6976
 7554SOL     OW34123   4.399   4.348   2.954  0.7640 -0.6230 -0.7367
 7554SOL    HW134124   4.459   4.276   2.931  0.9347 -0.5014 -0.6708
 7554SOL    HW234125   4.455   4.405   3.006 -0.7777 -0.3140  0.5604
 7555SOL     OW34126   1.760   2.835   3.313 -0.1660  0.5718 -0.2362
 7555SOL    HW134127   1.743   2.795   3.228 -1.8812 -1.0018  0.8361
 7555SOL    HW234128   1.848   2.802   3.331 -1.3777 -2.2954  0.4657
 7556SOL     OW34129   3.530   4.373  10.827  0.5829 -0.3121  0.1705
 7556SOL    HW134130   3.617   4.409  10.842  1.3049 -2.0129  0.0379
 7556SOL    HW234131   3.464   4.416  10.882 -0.5414 -0.1549 -1.3109
 7557SOL     OW34132   4.622   2.530   9.376  0.2435  0.4205  0.1114
 7557SOL    HW134133   4.670   2.601   9.332  1.2756 -1.0290 -1.0789
 7557SOL    HW234134   4.699   2.477   9.399 -1.3190 -1.4619  0.9599
 7558SOL     OW34135   2.872   2.386  10.530 -0.4509 -0.2236  0.2159
 7558SOL    HW134136   2.834   2.450  10.469  0.7703 -0.3744 -0.6869
 7558SOL    HW234137   2.953   2.363  10.486  0.1252 -0.1832  1.2629
 7559SOL     OW34138   4.053   3.700   9.168 -0.3921 -0.6555  0.8079
 7559SOL    HW134139   4.082   3.790   9.181 -1.9790 -0.0860  0.5077
 7559SOL    HW234140   3.969   3.719   9.125  0.1640  0.4024  0.2203
 7560SOL     OW34141   3.492   3.191  12.529 -0.7192 -0.0010  0.3570
 7560SOL    HW134142   3.511   3.225  12.617  0.7092 -0.7532  0.3480
 7560SOL    HW234143   3.505   3.100  12.554 -1.0931 -0.2402 -0.3307
 7561SOL     OW34144   3.823   1.528   7.925 -0.0662  0.2193  0.3655
 7561SOL    HW134145   3.893   1.477   7.966 -1.0217 -1.0922  0.3686
 7561SOL    HW234146   3.745   1.476   7.943 -0.5357  0.7812 -0.0566
 7562SOL     OW34147   1.142   1.020   7.284 -0.7898 -0.3368 -0.1567
 7562SOL    HW134148   1.079   1.054   7.348 -0.2576  1.5743 -0.6446
 7562SOL    HW234149   1.204   0.982   7.347  1.5210  0.9092 -1.6693
 7563SOL     OW34150   1.355   4.558   7.223 -0.5622  0.5915 -0.7298
 7563SOL    HW134151   1.326   4.596   7.306  0.8637 -3.4457  1.6355
 7563SOL    HW234152   1.306   4.615   7.165 -2.3353 -2.1253 -1.9189
 7564SOL     OW34153   2.142   3.827   5.288 -0.2145 -0.1529 -0.1382
 7564SOL    HW134154   2.097   3.912   5.284 -0.2711 -0.1923 -0.3138
 7564SOL    HW234155   2.164   3.819   5.381 -0.6056  0.4421  0.0065
 7565SOL     OW34156   1.672   0.830   2.449 -0.1933 -0.2237 -0.4472
 7565SOL    HW134157   1.726   0.885   2.393  0.1008  0.5431  0.5846
 7565SOL    HW234158   1.623   0.781   2.383  1.5041  0.0952 -1.9455
 7566SOL     OW34159   3.757   1.261   8.909 -0.8439 -0.1987 -0.1754
 7566SOL    HW134160   3.851   1.273   8.921 -0.7609  0.2563 -1.3340
 7566SOL    HW234161   3.722   1.317   8.978 -0.7540  1.5921 -1.6031
 7567SOL     OW34162   2.604   1.217   3.654  0.5732  0.1469 -0.4469
 7567SOL    HW134163   2.670   1.168   3.703 -0.7766  0.3757  1.5882
 7567SOL    HW234164   2.630   1.308   3.670 -0.1342  0.2963 -0.1489
 7568SOL     OW34165   3.833   0.718   5.965 -0.9334  0.5800  0.1309
 7568SOL    HW134166   3.885   0.717   5.884 -0.9437 -0.1013  0.1361
 7568SOL    HW234167   3.792   0.632   5.959  2.1364 -0.9112  0.1231
 7569SOL     OW34168   0.352   3.416   2.304  0.3207  1.1620  0.2937
 7569SOL    HW134169   0.413   3.489   2.310  1.4866  0.2671 -0.6691
 7569SOL    HW234170   0.308   3.403   2.388 -0.4351 -3.2122 -0.7949
 7570SOL     OW34171   2.316   1.804  11.545  0.1873  0.5702 -0.4488
 7570SOL    HW134172   2.299   1.822  11.637 -0.9168  0.6124 -0.6683
 7570SOL    HW234173   2.407   1.835  11.537 -0.0907  1.5698  0.3881
 7571SOL     OW34174   2.896   1.402   1.846  0.5578  0.0553  0.6179
 7571SOL    HW134175   2.982   1.403   1.887  0.3369 -0.2384  1.0738
 7571SOL    HW234176   2.906   1.340   1.774 -0.0915 -0.6084  1.1077
 7572SOL     OW34177   1.271   2.687   3.116 -0.0036  0.1249  0.1614
 7572SOL    HW134178   1.207   2.758   3.123  1.5239  1.5096 -0.0273
 7572SOL    HW234179   1.239   2.625   3.182  1.8549 -2.9847 -1.8514
 7573SOL     OW34180   1.220   4.709   3.795 -1.3289 -0.0967 -0.4497
 7573SOL    HW134181   1.187   0.036   3.870 -0.7922  0.9030 -0.8838
 7573SOL    HW234182   1.258   4.636   3.842 -0.8398  2.5181  3.2289
 7574SOL     OW34183   1.733   2.543   4.286 -0.2210 -0.4946  0.0593
 7574SOL    HW134184   1.701   2.469   4.338  0.6096 -0.3247  0.8257
 7574SOL    HW234185   1.764   2.612   4.346 -1.5772  0.5861 -0.4729
 7575SOL     OW34186   0.400   3.411   3.359 -0.0436  0.4625 -0.1489
 7575SOL    HW134187   0.479   3.362   3.335 -0.1583 -0.6702  1.8038
 7575SOL    HW234188   0.411   3.422   3.453 -2.2197  0.4081  0.0970
 7576SOL     OW34189   3.714   1.725  10.083 -0.2889 -1.0120  0.3029
 7576SOL    HW134190   3.799   1.710  10.124 -1.0302 -1.4452  1.6981
 7576SOL    HW234191   3.674   1.785  10.147 -2.0128 -0.6931 -1.0749
 7577SOL     OW34192   0.834   2.079   4.638  0.0139  0.0575  0.4264
 7577SOL    HW134193   0.742   2.055   4.650  0.3988  0.3084  3.7346
 7577SOL    HW234194   0.875   1.994   4.628 -0.6236 -0.1931 -0.0898
 7578SOL     OW34195   3.629   1.975   7.470 -0.8271  0.2025  0.3720
 7578SOL    HW134196   3.573   2.049   7.492 -1.1635  0.5643 -1.7257
 7578SOL    HW234197   3.641   1.973   7.375  1.8905  1.0811  0.6944
 7579SOL     OW34198   1.278   2.026   6.681  0.4072  0.1668 -0.0395
 7579SOL    HW134199   1.183   2.035   6.683  0.3762 -0.3250  0.6131
 7579SOL    HW234200   1.295   1.934   6.701  0.5621  0.3592  0.7047
 7580SOL     OW34201   0.650   3.228   1.889  0.4326 -0.2897  0.2576
 7580SOL    HW134202   0.697   3.146   1.904 -1.5355 -1.1131  2.0084
 7580SOL    HW234203   0.706   3.284   1.943  1.5629 -2.5517  1.4588
 7581SOL     OW34204   0.415   1.120   5.649 -0.1950 -0.0826  0.1172
 7581SOL    HW134205   0.435   1.036   5.691 -1.8886 -0.6237 -0.1597
 7581SOL    HW234206   0.447   1.094   5.562 -1.3845  1.9628 -0.9253
 7582SOL     OW34207   1.846   2.292   1.509  0.7118 -0.0007 -0.0118
 7582SOL    HW134208   1.841   2.311   1.416  0.6595 -0.1772 -0.0447
 7582SOL    HW234209   1.807   2.374   1.539 -2.5511 -1.2701 -0.6867
 7583SOL     OW34210   1.427   2.996  16.520 -0.1120 -0.2962 -0.1735
 7583SOL    HW134211   1.464   2.951  16.595  2.1061  1.7679 -0.0155
 7583SOL    HW234212   1.333   3.006  16.536  0.0449  0.9198 -0.0011
 7584SOL     OW34213   2.615   2.097  14.491 -0.5051  0.0539  0.1720
 7584SOL    HW134214   2.623   2.086  14.586 -1.9201  1.5472  0.4738
 7584SOL    HW234215   2.615   2.008  14.458 -1.0961  0.6993 -1.5596
 7585SOL     OW34216   3.366   0.815  16.060  0.0677 -0.0180  0.4437
 7585SOL    HW134217   3.286   0.776  16.094 -0.5293  0.4335 -0.4477
 7585SOL    HW234218   3.424   0.783  16.129 -0.1809 -2.7477 -0.6240
 7586SOL     OW34219   1.473   2.554   3.562  0.2539  0.2497  0.1577
 7586SOL    HW134220   1.381   2.578   3.556  0.3996  0.5326 -0.9360
 7586SOL    HW234221   1.498   2.604   3.484 -1.5672  0.0643 -0.5364
 7587SOL     OW34222   1.958   4.641   8.139  0.0897  0.2552 -0.1986
 7587SOL    HW134223   1.984   4.578   8.207  1.1263 -0.1296 -0.9510
 7587SOL    HW234224   1.863   4.635   8.147  0.2014 -0.9814  0.2247
 7588SOL     OW34225   3.507   3.012   1.485  0.1712 -0.0002 -0.1310
 7588SOL    HW134226   3.493   2.921   1.508 -0.4225 -0.1091 -0.9091
 7588SOL    HW234227   3.429   3.055   1.520 -0.8822 -1.5679 -0.5759
 7589SOL     OW34228   0.358   2.507   0.187  0.2408  0.0209  0.3396
 7589SOL    HW134229   0.293   2.540   0.248  0.0103 -0.1835  0.2030
 7589SOL    HW234230   0.347   2.412   0.196 -0.3619  0.3348  2.7749
 7590SOL     OW34231   0.060   3.281   2.100 -0.4530 -0.4285  0.5089
 7590SOL    HW134232   0.112   3.240   2.031 -0.2817 -0.5631  0.7169
 7590SOL    HW234233   0.084   3.235   2.180  2.2762  0.2917  0.1167
 7591SOL     OW34234   0.532   2.065   8.176  0.3340 -0.6189  0.2613
 7591SOL    HW134235   0.531   2.000   8.246  2.2968 -0.8342  0.0957
 7591SOL    HW234236   0.612   2.035   8.132 -1.3716  0.0455 -3.3058
 7592SOL     OW34237   4.307   3.759   3.126  0.1542 -0.2241  0.1769
 7592SOL    HW134238   4.233   3.704   3.101  0.2720  1.1818 -3.3109
 7592SOL    HW234239   4.371   3.688   3.121 -0.4845 -0.7487 -0.5348
 7593SOL     OW34240   3.966   1.526   8.392 -0.1733  0.5482 -0.5638
 7593SOL    HW134241   3.919   1.595   8.344 -1.9940  1.6835  2.8051
 7593SOL    HW234242   3.906   1.452   8.381 -0.0337  0.6043 -1.7274
 7594SOL     OW34243   3.083   2.132  13.093  0.7657 -0.0846  0.0990
 7594SOL    HW134244   3.120   2.202  13.148  2.1814 -2.3462  2.0275
 7594SOL    HW234245   3.032   2.072  13.147  0.9830 -1.6429 -1.4431
 7595SOL     OW34246   1.520   3.593  14.898 -0.2017 -0.5548 -0.0834
 7595SOL    HW134247   1.524   3.500  14.920 -2.0852 -0.4830  0.5435
 7595SOL    HW234248   1.428   3.613  14.913 -0.6606 -2.1055 -0.8998
 7596SOL     OW34249   4.072   1.881   7.192 -0.2317  0.2710 -0.4802
 7596SOL    HW134250   4.086   1.842   7.105  0.0039 -1.1227  0.1798
 7596SOL    HW234251   4.143   1.840   7.242 -0.7694  1.3138  1.1110
 7597SOL     OW34252   3.259   2.823   4.987 -0.0500 -0.3795  0.5185
 7597SOL    HW134253   3.339   2.875   4.988  0.2034 -0.8264  2.7879
 7597SOL    HW234254   3.304   2.744   4.956  1.1990  0.5820 -0.0972
 7598SOL     OW34255   3.637   3.213   2.514 -0.3543 -0.0640 -0.2646
 7598SOL    HW134256   3.636   3.222   2.609  1.2738 -0.9407 -0.1740
 7598SOL    HW234257   3.608   3.296   2.477  0.2879  0.9551  1.5190
 7599SOL     OW34258   3.732   3.266   3.482 -0.2325 -0.6836 -0.0627
 7599SOL    HW134259   3.660   3.306   3.531  0.4007  0.2910  0.0745
 7599SOL    HW234260   3.713   3.283   3.390 -2.3212 -2.2499  0.0848
 7600SOL     OW34261   1.764   1.491   8.922  0.2681  0.1151 -0.2352
 7600SOL    HW134262   1.802   1.404   8.935 -0.1984 -0.2544 -1.3073
 7600SOL    HW234263   1.671   1.468   8.927  0.3581  0.0837  1.2206
 7601SOL     OW34264   2.398   2.930   4.311  0.6773 -0.1610  0.0727
 7601SOL    HW134265   2.432   2.841   4.324 -0.7882 -1.0492 -2.1371
 7601SOL    HW234266   2.451   2.982   4.371 -0.1277 -1.1048  1.6279
 7602SOL     OW34267   0.417   4.711  16.278 -0.4807 -0.2528  0.2380
 7602SOL    HW134268   0.444   0.079  16.287 -1.6939  0.0333  0.9607
 7602SOL    HW234269   0.327   4.723  16.249  0.6079 -1.1928 -3.4470
 7603SOL     OW34270   4.431   3.273   5.528 -0.2901 -0.6902  0.8460
 7603SOL    HW134271   4.454   3.332   5.456  0.3888 -2.2846 -0.2366
 7603SOL    HW234272   4.493   3.201   5.519  0.1179 -0.5118  2.3007
 7604SOL     OW34273   1.328   4.578   5.488  0.0725  0.5806 -0.0701
 7604SOL    HW134274   1.307   4.671   5.479 -1.7853  0.2393  0.7374
 7604SOL    HW234275   1.340   4.573   5.582 -0.5334  1.4101  0.0492
 7605SOL     OW34276   0.716   4.222  17.185 -0.1098 -0.4298  0.0521
 7605SOL    HW134277   0.749   4.294  17.130  1.4305  0.8100  2.5819
 7605SOL    HW234278   0.654   4.273  17.238  0.0448  0.1116 -0.2809
 7606SOL     OW34279   0.376   1.334   3.073 -0.1810 -0.1174  0.5204
 7606SOL    HW134280   0.382   1.392   2.997 -0.2959  1.9714  2.1007
 7606SOL    HW234281   0.312   1.382   3.126  1.2931  2.2075  0.1940
 7607SOL     OW34282   1.737   0.949   8.230  0.0069 -0.2773  0.0807
 7607SOL    HW134283   1.815   0.909   8.267 -0.6556 -0.1914  1.5958
 7607SOL    HW234284   1.752   1.039   8.260  0.2563 -0.1996 -0.2812
 7608SOL     OW34285   2.063   1.861  13.649  0.5942  0.1394  0.1418
 7608SOL    HW134286   2.005   1.910  13.707  0.4065  0.4749 -0.3237
 7608SOL    HW234287   2.149   1.898  13.667  0.1852  0.5776  1.1666
 7609SOL     OW34288   3.704   1.948   2.926 -0.4389 -0.8392 -0.0288
 7609SOL    HW134289   3.617   1.910   2.943 -0.5893 -1.6556 -2.5623
 7609SOL    HW234290   3.681   2.040   2.916  0.5326 -0.6329 -0.3678
 7610SOL     OW34291   2.283   4.576   9.138  0.3572 -0.3316  0.2633
 7610SOL    HW134292   2.361   4.611   9.181 -0.0885  1.7985 -0.6737
 7610SOL    HW234293   2.322   4.501   9.094  0.6772 -0.4200  0.6979
 7611SOL     OW34294   2.205   0.097   1.594 -0.3814  0.0009  0.7201
 7611SOL    HW134295   2.289   0.144   1.590 -1.0307  1.0884 -0.0749
 7611SOL    HW234296   2.147   0.169   1.571  0.8880  1.3820  1.8751
 7612SOL     OW34297   2.138   1.927  12.126 -0.4988  0.5938  0.0270
 7612SOL    HW134298   2.082   1.937  12.049 -0.0947 -3.1677 -0.7328
 7612SOL    HW234299   2.222   1.931  12.080 -0.9981 -0.2143 -0.9665
 7613SOL     OW34300   3.603   1.027  15.055  0.5067  0.3854  0.0451
 7613SOL    HW134301   3.625   0.999  15.144 -0.8128  0.3169  0.3478
 7613SOL    HW234302   3.665   1.100  15.050  0.3109  0.4920 -0.8443
 7614SOL     OW34303   1.961   2.656   3.397 -0.2669  0.4118 -0.3406
 7614SOL    HW134304   2.009   2.612   3.326  2.1618  1.8462  0.4315
 7614SOL    HW234305   2.031   2.720   3.410  0.3182 -0.3098  0.0999
 7615SOL     OW34306   2.321   3.525   4.548  0.8425  0.1265  0.6212
 7615SOL    HW134307   2.320   3.508   4.642  0.5207 -0.6780  0.4763
 7615SOL    HW234308   2.408   3.494   4.523 -0.2597 -0.3558 -2.6266
 7616SOL     OW34309   1.105   0.307   0.392  0.6289 -0.7198  0.1348
 7616SOL    HW134310   1.150   0.386   0.421 -1.0393  0.2778  0.0064
 7616SOL    HW234311   1.090   0.339   0.303  2.4394 -0.7446 -0.1780
 7617SOL     OW34312   0.612   0.537   7.973 -0.5425  0.2880  0.0597
 7617SOL    HW134313   0.517   0.547   7.983 -0.3102  1.0790  1.4801
 7617SOL    HW234314   0.611   0.441   7.974 -0.9570  0.2772 -2.3836
 7618SOL     OW34315   4.657   2.845   4.571 -0.2661 -0.4301 -0.5487
 7618SOL    HW134316   4.661   2.755   4.601 -0.4863  0.1515  1.2324
 7618SOL    HW234317   0.001   2.842   4.503  0.8702  2.5119  0.4467
 7619SOL     OW34318   0.098   1.595  15.506 -0.2728 -0.1179  0.1314
 7619SOL    HW134319   0.090   1.676  15.557  1.6535  1.0889 -1.4898
 7619SOL    HW234320   0.060   1.622  15.422 -1.2753  0.6846  0.8411
 7620SOL     OW34321   2.087   2.708   9.580  0.1040 -0.3234 -0.7177
 7620SOL    HW134322   2.044   2.758   9.510 -2.7311 -1.2836  0.3557
 7620SOL    HW234323   2.038   2.733   9.658  1.7622  1.4545 -0.2442
 7621SOL     OW34324   1.814   1.304   4.533 -0.4093  0.5260 -0.0878
 7621SOL    HW134325   1.727   1.282   4.499 -1.5367  3.0562  1.1110
 7621SOL    HW234326   1.862   1.320   4.452 -0.7676  1.4380 -0.1289
 7622SOL     OW34327   2.400   3.433  11.931  0.3055 -0.3717  0.1790
 7622SOL    HW134328   2.319   3.481  11.917 -0.8925 -2.7070 -0.8045
 7622SOL    HW234329   2.401   3.397  11.843  0.2688  1.5184 -0.5920
 7623SOL     OW34330   0.247   2.754  12.482  0.0659  0.3466  0.2919
 7623SOL    HW134331   0.181   2.807  12.528  0.4450  0.4617  0.7018
 7623SOL    HW234332   0.273   2.812  12.410  1.5051 -2.4447 -1.4100
 7624SOL     OW34333   3.738   1.446  10.802  0.4848 -0.1676  0.4912
 7624SOL    HW134334   3.805   1.512  10.788 -0.9164  0.8861 -1.2379
 7624SOL    HW234335   3.789   1.394  10.864  0.9241  0.0298  0.2926
 7625SOL     OW34336   3.106   0.365   8.270  0.0078  0.2337 -0.5565
 7625SOL    HW134337   3.022   0.318   8.269  0.0309  0.1862 -0.3943
 7625SOL    HW234338   3.122   0.366   8.365 -0.8100 -1.3721 -0.3855
 7626SOL     OW34339   3.825   2.337   7.696  0.0957  0.2006 -0.0278
 7626SOL    HW134340   3.909   2.316   7.736  0.7500  3.5519  0.3544
 7626SOL    HW234341   3.767   2.361   7.767  1.5162  0.1710  1.1511
 7627SOL     OW34342   4.085   0.764  12.752  0.5005 -0.3077  0.0015
 7627SOL    HW134343   4.099   0.783  12.844 -0.4112 -0.2696  0.1330
 7627SOL    HW234344   4.163   0.791  12.704  0.5112 -3.0027 -1.5100
 7628SOL     OW34345   3.732   4.389   4.437 -0.0374  0.0681  0.4164
 7628SOL    HW134346   3.750   4.414   4.346 -2.0849 -1.3821 -0.3777
 7628SOL    HW234347   3.798   4.324   4.461 -0.7823 -1.8247 -2.6288
 7629SOL     OW34348   2.866   1.737   7.709 -0.2888 -0.4044  0.6252
 7629SOL    HW134349   2.832   1.823   7.685 -1.2158 -1.3856 -1.5918
 7629SOL    HW234350   2.795   1.685   7.670  0.2591  1.4608 -2.7767
 7630SOL     OW34351   1.971   2.398   2.657  0.4128 -0.3586 -0.7240
 7630SOL    HW134352   1.973   2.333   2.728  1.4574  1.8332  1.2494
 7630SOL    HW234353   2.053   2.376   2.612  0.7142  1.5757 -1.0934
 7631SOL     OW34354   0.236   4.573  12.064  0.0301 -0.0366 -0.8380
 7631SOL    HW134355   0.255   4.656  12.020  0.4967  0.9965  1.3038
 7631SOL    HW234356   0.221   4.514  11.989  0.7212 -0.0398 -0.9747
 7632SOL     OW34357   0.969   2.327   3.102  0.1924 -0.0631 -0.4480
 7632SOL    HW134358   1.056   2.286   3.095  1.9374  3.1947  2.3312
 7632SOL    HW234359   0.984   2.405   3.049  0.7351 -0.8658 -1.4767
 7633SOL     OW34360   4.228   1.373   1.937 -0.7075 -0.5025 -0.3957
 7633SOL    HW134361   4.272   1.446   1.982  0.1109 -0.7556 -0.7843
 7633SOL    HW234362   4.166   1.341   2.002  1.3096 -0.2343  1.6858
 7634SOL     OW34363   2.447   2.914  10.779  0.5829 -0.4058  0.2157
 7634SOL    HW134364   2.488   2.894  10.695 -0.1551 -1.5808  0.1314
 7634SOL    HW234365   2.511   2.977  10.813  1.5335 -1.4864  0.4163
 7635SOL     OW34366   0.707   2.932  16.301 -0.0511  0.3999 -0.1083
 7635SOL    HW134367   0.794   2.926  16.339  0.6454 -1.2441 -1.9589
 7635SOL    HW234368   0.666   2.885  16.373  0.7258 -0.8648 -0.4875
 7636SOL     OW34369   4.538   0.502   2.513 -0.0786 -0.1345  0.0023
 7636SOL    HW134370   4.555   0.500   2.418  1.2650 -1.2545  0.2616
 7636SOL    HW234371   4.495   0.588   2.517  1.1855  0.5249 -0.7655
 7637SOL     OW34372   2.766   2.583   7.776 -0.0317  0.0344  0.1073
 7637SOL    HW134373   2.733   2.671   7.794 -2.7307 -1.0591  0.5273
 7637SOL    HW234374   2.688   2.535   7.747  0.1422  0.8856 -1.8173
 7638SOL     OW34375   1.503   1.627   4.727  0.4598  0.4904 -0.0266
 7638SOL    HW134376   1.438   1.560   4.748 -0.0491 -0.5475 -4.8286
 7638SOL    HW234377   1.589   1.585   4.739 -0.2086 -0.3273  1.8949
 7639SOL     OW34378   1.660   2.429   0.368  0.3509  0.1699 -0.7374
 7639SOL    HW134379   1.583   2.470   0.331 -1.3363 -1.9337  0.4080
 7639SOL    HW234380   1.610   2.392   0.441  0.7358 -0.7488 -0.9346
 7640SOL     OW34381   0.497   2.372   8.510  0.0585 -0.4880 -0.2050
 7640SOL    HW134382   0.494   2.355   8.604 -1.4604  3.7374  0.5274
 7640SOL    HW234383   0.581   2.334   8.483  0.0739 -1.5930  1.3774
 7641SOL     OW34384   3.743   3.094   5.773 -0.0461  0.2535 -0.0901
 7641SOL    HW134385   3.777   3.151   5.704  2.5160 -0.3745  0.6784
 7641SOL    HW234386   3.817   3.071   5.829  2.2091  1.9254 -2.3840
 7642SOL     OW34387   2.380   3.485  14.230 -0.6396 -0.3078  0.7263
 7642SOL    HW134388   2.396   3.537  14.309  0.4662 -0.9949  0.9515
 7642SOL    HW234389   2.367   3.556  14.166  0.6367 -2.5255 -1.9772
 7643SOL     OW34390   2.100   1.372   7.049  0.3744 -0.0152 -0.4561
 7643SOL    HW134391   2.107   1.338   7.139 -0.6878  2.5333  0.6001
 7643SOL    HW234392   2.171   1.314   7.022  0.1996  1.0059 -3.0427
 7644SOL     OW34393   4.436   2.933   3.206 -0.1020 -0.4604  0.4490
 7644SOL    HW134394   4.385   2.942   3.286 -1.1470 -0.9513 -0.1547
 7644SOL    HW234395   4.438   2.837   3.200 -0.3046 -0.4589  0.3543
 7645SOL     OW34396   3.285   2.717   2.756  0.7763  0.2888  0.4750
 7645SOL    HW134397   3.308   2.630   2.724 -1.0832  0.2729 -0.8630
 7645SOL    HW234398   3.193   2.732   2.732  0.8366 -0.0280  0.0517
 7646SOL     OW34399   2.880   1.397  14.521 -0.1669 -0.5155 -0.2458
 7646SOL    HW134400   2.820   1.374  14.451  1.3433 -1.6556 -1.1526
 7646SOL    HW234401   2.844   1.485  14.536 -0.3069 -0.8255  1.2105
 7647SOL     OW34402   0.007   2.225   3.147 -0.1953  0.3438  0.2526
 7647SOL    HW134403   4.647   2.257   3.115 -0.0325  0.7438  0.2140
 7647SOL    HW234404   0.048   2.309   3.171  2.3836 -0.2921 -1.8233
 7648SOL     OW34405   0.012   3.126   8.614  0.2084 -0.0130  0.0382
 7648SOL    HW134406   4.665   3.188   8.629 -0.3520 -0.5336 -0.4702
 7648SOL    HW234407   0.055   3.116   8.699 -0.2946  0.8108  0.3952
 7649SOL     OW34408   2.178   3.161   7.336 -0.3547  0.3777 -0.6033
 7649SOL    HW134409   2.270   3.155   7.362 -1.3736  0.0130  2.8279
 7649SOL    HW234410   2.143   3.174   7.424  1.3358  1.9041 -0.1551
 7650SOL     OW34411   1.755   4.328   7.996  0.1149  0.7430 -0.8284
 7650SOL    HW134412   1.760   4.419   8.024  1.2399  0.5841 -0.5505
 7650SOL    HW234413   1.842   4.310   7.962 -0.0444  1.6831 -1.7430
 7651SOL     OW34414   3.899   4.441   1.127 -0.0920 -0.3891 -0.1868
 7651SOL    HW134415   3.918   4.373   1.191  1.8535  1.0191  0.7331
 7651SOL    HW234416   3.983   4.485   1.112 -0.4818 -0.1397 -1.6607
 7652SOL     OW34417   1.085   1.742  15.025 -0.2940 -0.2365  0.5655
 7652SOL    HW134418   1.079   1.816  14.965  1.6012 -0.1382  0.4892
 7652SOL    HW234419   1.002   1.699  15.006  0.0170 -0.2026 -0.8709
 7653SOL     OW34420   3.435   2.202   5.435 -0.1515  0.2632 -0.3482
 7653SOL    HW134421   3.412   2.294   5.442 -2.0023 -0.1064 -1.5952
 7653SOL    HW234422   3.389   2.157   5.506  1.4198 -1.2364 -0.2710
 7654SOL     OW34423   3.186   2.645  15.520 -0.3465 -0.5686 -0.6296
 7654SOL    HW134424   3.102   2.602  15.503 -1.3469  1.8442 -1.7124
 7654SOL    HW234425   3.244   2.597  15.460 -0.4825 -0.7728 -0.5994
 7655SOL     OW34426   1.627   1.365   2.340 -0.0029 -0.4463 -0.1241
 7655SOL    HW134427   1.647   1.358   2.247 -1.3649 -1.3778 -0.3423
 7655SOL    HW234428   1.655   1.454   2.361 -2.8119 -0.0351  1.8776
 7656SOL     OW34429   2.025   2.327  12.671 -0.1991 -0.0052  0.3033
 7656SOL    HW134430   2.104   2.333  12.617  1.1910 -0.7897  2.2371
 7656SOL    HW234431   1.952   2.338  12.610  2.1529 -2.8991 -3.0144
 7657SOL     OW34432   3.701   1.878   4.001  0.7254  0.3897  0.2894
 7657SOL    HW134433   3.767   1.947   4.002  0.0795  1.0349 -2.0993
 7657SOL    HW234434   3.721   1.837   3.917  3.5288  2.6542 -0.1611
 7658SOL     OW34435   0.710   1.033  13.341 -0.1597 -0.1640 -0.1369
 7658SOL    HW134436   0.648   0.964  13.319  0.9141 -1.5193  1.0192
 7658SOL    HW234437   0.656   1.100  13.384  0.7101  0.2521  0.3263
 7659SOL     OW34438   3.255   4.714  15.579 -0.7355  0.1844  0.5246
 7659SOL    HW134439   3.317   0.004  15.650  0.6030  1.0398 -0.8052
 7659SOL    HW234440   3.215   4.631  15.605  1.5120 -0.5991  1.4925
 7660SOL     OW34441   2.454   2.778   8.340  0.0903 -0.3890 -0.4019
 7660SOL    HW134442   2.454   2.869   8.371  0.6880 -0.0970 -1.2473
 7660SOL    HW234443   2.476   2.727   8.418  1.1255  0.9833  0.2104
 7661SOL     OW34444   1.071   4.591  13.830 -0.1327 -0.5357  0.4423
 7661SOL    HW134445   1.131   4.656  13.868 -0.4081  1.0467 -1.8312
 7661SOL    HW234446   1.130   4.519  13.806 -0.4019 -0.2873 -0.9963
 7662SOL     OW34447   2.370   2.309   5.964 -0.0932  0.4066 -0.0290
 7662SOL    HW134448   2.305   2.284   6.030 -0.0958  0.1976 -0.1108
 7662SOL    HW234449   2.332   2.375   5.906  1.2573  0.4117 -0.9170
 7663SOL     OW34450   3.894   1.995  10.713 -0.1677  0.5635 -0.1279
 7663SOL    HW134451   3.971   1.945  10.740 -0.9527 -0.6328 -0.1413
 7663SOL    HW234452   3.872   2.027  10.800 -2.0374  0.0899 -0.4350
 7664SOL     OW34453   2.443   2.956   7.072 -0.1117 -0.3955  0.2468
 7664SOL    HW134454   2.467   2.998   6.990 -0.0827 -2.3036 -0.7372
 7664SOL    HW234455   2.362   2.911   7.049 -0.4247  1.2110 -1.7462
 7665SOL     OW34456   1.005   4.662   7.817  0.1175 -0.7229  0.3841
 7665SOL    HW134457   1.015   4.568   7.804 -1.6922 -0.8284 -0.1626
 7665SOL    HW234458   0.968   4.658   7.905 -3.3558 -3.4296 -1.2073
 7666SOL     OW34459   2.470   3.716   3.518 -0.6531  0.3647  0.4119
 7666SOL    HW134460   2.557   3.722   3.479  0.7959  2.0032  3.9977
 7666SOL    HW234461   2.427   3.686   3.437 -1.7080  1.5412  0.5484
 7667SOL     OW34462   1.185   0.309   9.066 -0.3378  0.1528  0.1015
 7667SOL    HW134463   1.242   0.386   9.074  1.5343 -1.2045 -0.0898
 7667SOL    HW234464   1.246   0.237   9.082  0.4877  1.0780  1.1391
 7668SOL     OW34465   3.930   0.957   7.208 -0.1929  0.3864  0.0215
 7668SOL    HW134466   3.921   0.996   7.120  0.6663 -2.0203 -1.1200
 7668SOL    HW234467   3.841   0.971   7.240  0.6914  3.4873  1.0997
 7669SOL     OW34468   3.586   4.539  16.380  0.3779 -0.0253  0.0686
 7669SOL    HW134469   3.602   4.604  16.311 -0.4986 -0.2211 -0.3181
 7669SOL    HW234470   3.626   4.576  16.458 -0.2829  2.2472 -0.6690
 7670SOL     OW34471   1.225   4.626  13.032 -0.1243 -0.3937  0.1145
 7670SOL    HW134472   1.300   4.567  13.024  1.6120  1.8386 -0.1652
 7670SOL    HW234473   1.246   4.686  12.960 -0.0936 -0.6304 -0.0753
 7671SOL     OW34474   2.556   1.915   7.807 -0.3629 -0.0388  0.3619
 7671SOL    HW134475   2.567   1.931   7.713 -1.3659  0.4626  0.3287
 7671SOL    HW234476   2.632   1.857   7.815 -0.2877  0.0122  0.0501
 7672SOL     OW34477   2.473   0.420   2.798  0.3221  0.1477  0.1464
 7672SOL    HW134478   2.434   0.370   2.725  0.4690  1.1236 -0.6038
 7672SOL    HW234479   2.409   0.411   2.868  1.3116 -1.0092  0.8999
 7673SOL     OW34480   4.498   2.597  16.141  0.0036 -0.3298  0.0519
 7673SOL    HW134481   4.466   2.679  16.103  4.6845  1.3780 -0.1588
 7673SOL    HW234482   4.584   2.589  16.099 -0.3306  0.0498 -0.6948
 7674SOL     OW34483   2.015   4.039  12.936  0.1316 -0.3088  0.0669
 7674SOL    HW134484   1.980   4.088  13.010  0.8352 -0.4061  0.4641
 7674SOL    HW234485   2.050   3.960  12.978 -1.6227  0.7546  3.4741
 7675SOL     OW34486   0.015   0.521   8.726  0.2732 -0.4430 -0.2514
 7675SOL    HW134487   4.683   0.585   8.770  1.9724  1.4736 -0.8456
 7675SOL    HW234488   0.078   0.581   8.684 -0.3585 -1.0626 -2.0899
 7676SOL     OW34489   4.192   2.643  13.753 -0.3686  0.1351 -0.0121
 7676SOL    HW134490   4.270   2.597  13.721  0.2355  1.2346 -0.1393
 7676SOL    HW234491   4.125   2.616  13.691  0.5043  2.8782 -2.1655
 7677SOL     OW34492   1.600   2.061   9.028  0.4638 -0.3316  0.1019
 7677SOL    HW134493   1.586   2.091   9.118 -0.4784 -0.2763 -0.0660
 7677SOL    HW234494   1.693   2.036   9.030  0.0107 -2.1710 -1.8255
 7678SOL     OW34495   2.403   3.823   3.752 -0.2611 -0.3590  0.8762
 7678SOL    HW134496   2.412   3.779   3.667 -2.9437 -1.0844  0.9723
 7678SOL    HW234497   2.311   3.803   3.767 -0.8919  2.2820  0.4544
 7679SOL     OW34498   1.118   0.493   3.104 -0.3584  0.3586  0.1974
 7679SOL    HW134499   1.205   0.455   3.111 -0.2444  0.4502 -0.7385
 7679SOL    HW234500   1.078   0.470   3.188  0.0741  1.4698  0.7048
 7680SOL     OW34501   4.414   2.859  10.927 -0.3149  0.4996 -0.5360
 7680SOL    HW134502   4.399   2.916  11.002 -0.9656 -0.7688  0.2982
 7680SOL    HW234503   4.385   2.773  10.957  1.4522  0.4545  0.9739
 7681SOL     OW34504   1.629   1.174   9.168  0.0080  0.1967 -0.5043
 7681SOL    HW134505   1.537   1.158   9.148  0.1612  1.1900 -1.9897
 7681SOL    HW234506   1.627   1.143   9.259  1.0411  0.9003 -0.2398
 7682SOL     OW34507   1.818   3.871   5.262 -0.1617  0.0551 -0.0710
 7682SOL    HW134508   1.858   3.785   5.278 -2.5456 -0.6284  2.0976
 7682SOL    HW234509   1.736   3.857   5.308 -0.3367 -0.6771 -0.6118
 7683SOL     OW34510   2.896   3.255   8.030 -0.0930  0.5986 -0.4316
 7683SOL    HW134511   2.965   3.189   8.017  0.4871  1.2616 -0.7754
 7683SOL    HW234512   2.948   3.335   8.017  1.0743 -0.3908 -1.8669
 7684SOL     OW34513   0.531   2.709  11.674 -0.3792 -0.1833 -0.3296
 7684SOL    HW134514   0.516   2.682  11.583  0.3527 -0.3224 -0.4112
 7684SOL    HW234515   0.532   2.803  11.656 -1.5757 -0.7554 -3.3586
 7685SOL     OW34516   1.971   3.072  14.473 -0.1518  0.1001  0.2576
 7685SOL    HW134517   1.952   3.058  14.380  0.2711 -1.9473  0.4934
 7685SOL    HW234518   1.988   3.166  14.474  0.3955  0.0157 -0.6926
 7686SOL     OW34519   2.293   3.242   6.952 -0.1052 -0.3195  0.4916
 7686SOL    HW134520   2.276   3.296   7.030 -0.2624  1.4836 -0.7962
 7686SOL    HW234521   2.388   3.249   6.962 -0.1415  0.1275  0.5272
 7687SOL     OW34522   4.050   3.299   9.276  0.0796  0.3644  0.7190
 7687SOL    HW134523   4.036   3.206   9.294  0.1120  0.1928 -0.1334
 7687SOL    HW234524   3.958   3.326   9.281  0.4149  1.9375 -1.6891
 7688SOL     OW34525   2.814   0.465  12.874 -0.0777 -0.0712  0.3064
 7688SOL    HW134526   2.759   0.505  12.806  0.7255 -1.6027 -1.2458
 7688SOL    HW234527   2.757   0.394  12.903  2.5446 -2.6500 -0.7992
 7689SOL     OW34528   1.442   3.449   4.656  0.3228  0.5415 -0.3756
 7689SOL    HW134529   1.395   3.532   4.654 -0.4971  0.0703 -0.7073
 7689SOL    HW234530   1.532   3.480   4.645  0.9950 -0.9115  0.9339
 7690SOL     OW34531   3.976   3.872   3.632 -0.0054 -0.0621  0.2176
 7690SOL    HW134532   4.006   3.815   3.562 -0.6063  0.3012 -0.3398
 7690SOL    HW234533   3.931   3.941   3.584  2.1377  0.2161 -1.3920
 7691SOL     OW34534   4.629   3.576   1.984  0.1318  0.0635  0.7267
 7691SOL    HW134535   4.681   3.631   2.043 -2.3300  1.0993  1.9323
 7691SOL    HW234536   4.649   3.486   2.011 -1.0733 -0.3840  0.1062
 7692SOL     OW34537   4.298   0.622   6.965 -0.4093 -0.6907 -0.6880
 7692SOL    HW134538   4.365   0.571   6.919  0.7826  0.7893 -0.5964
 7692SOL    HW234539   4.307   0.696   6.905 -1.2506  0.5456  0.7265
 7693SOL     OW34540   2.954   2.004   7.461  0.0663  0.2942  0.2544
 7693SOL    HW134541   3.014   1.967   7.396 -0.0454  0.0047  0.3178
 7693SOL    HW234542   3.014   2.024   7.533 -0.4907  2.1587  0.2000
 7694SOL     OW34543   1.956   3.791  15.219  0.5058  0.2249  0.3167
 7694SOL    HW134544   1.955   3.730  15.145 -1.5160 -1.7783  2.0042
 7694SOL    HW234545   1.880   3.842  15.194  1.6053  0.0362 -3.4899
 7695SOL     OW34546   2.199   4.221   3.056  0.0783  0.5056  0.1453
 7695SOL    HW134547   2.134   4.276   3.099 -0.5797 -2.3011  2.7636
 7695SOL    HW234548   2.158   4.217   2.970  0.8325 -1.8012 -0.1248
 7696SOL     OW34549   3.172   2.142   3.710  0.2783 -0.0608  0.6133
 7696SOL    HW134550   3.217   2.214   3.667 -0.7841 -0.2715 -0.8693
 7696SOL    HW234551   3.217   2.125   3.793 -0.7950  0.2371  1.2576
 7697SOL     OW34552   0.963   1.546   9.679  0.0087 -0.7158  0.3188
 7697SOL    HW134553   0.925   1.610   9.738 -2.2293 -0.7508 -1.0910
 7697SOL    HW234554   0.996   1.600   9.607 -2.4336 -0.9139 -0.9709
 7698SOL     OW34555   2.958   3.555   2.760 -0.4406 -0.6562  0.1234
 7698SOL    HW134556   2.963   3.651   2.767  2.4695 -0.8439  0.6517
 7698SOL    HW234557   2.863   3.545   2.760 -0.8543  3.2204 -0.3496
 7699SOL     OW34558   2.360   4.669   6.887 -0.2787  0.5307 -0.3083
 7699SOL    HW134559   2.322   0.014   6.833 -0.4428 -0.1894 -1.0964
 7699SOL    HW234560   2.388   4.609   6.819 -0.8890  0.9887 -0.9630
 7700SOL     OW34561   1.191   0.065   4.446  0.4448  0.4854 -0.2705
 7700SOL    HW134562   1.252   0.083   4.374  0.0314  0.3266 -0.6665
 7700SOL    HW234563   1.199   4.694   4.453  0.8364  0.3251 -2.8610
 7701SOL     OW34564   3.962   3.094   1.543  0.3404 -0.2419  0.5258
 7701SOL    HW134565   3.913   3.022   1.503  0.8717 -0.8766  1.0158
 7701SOL    HW234566   4.051   3.070   1.517  0.1170 -1.7522  1.1611
 7702SOL     OW34567   1.537   4.298  11.533  0.2052 -0.2873 -0.3955
 7702SOL    HW134568   1.547   4.305  11.438  2.4157  2.4719  0.0393
 7702SOL    HW234569   1.534   4.202  11.532  3.4149 -0.4154  1.5186
 7703SOL     OW34570   3.741   0.985   6.089  0.1417  0.1031 -0.9612
 7703SOL    HW134571   3.718   1.017   6.002 -2.4544  0.2375 -0.2205
 7703SOL    HW234572   3.780   0.903   6.058  1.8329  1.6371 -2.8439
 7704SOL     OW34573   0.718   3.857  16.576  0.2534  0.4883 -0.5715
 7704SOL    HW134574   0.803   3.844  16.619  1.3010  0.9688 -2.4806
 7704SOL    HW234575   0.708   3.952  16.576 -0.7287  0.3861  0.9380
 7705SOL     OW34576   3.932   2.691  11.378 -0.4837  0.3741  0.4279
 7705SOL    HW134577   4.005   2.678  11.438 -0.8777 -0.4125  0.7261
 7705SOL    HW234578   3.920   2.606  11.337 -2.5650 -0.6670  3.2074
 7706SOL     OW34579   3.898   4.235   1.347 -0.2188 -0.8486  0.4309
 7706SOL    HW134580   3.907   4.150   1.305 -0.3823 -0.5662 -0.1758
 7706SOL    HW234581   3.804   4.251   1.343 -0.4895 -2.6683 -0.3129
 7707SOL     OW34582   4.607   2.636  11.214  0.8784  0.6893 -0.1563
 7707SOL    HW134583   4.658   2.651  11.135  0.7473 -0.9811 -0.5652
 7707SOL    HW234584   4.531   2.584  11.187 -0.2289  1.5363  1.3276
 7708SOL     OW34585   2.765   2.380   5.220 -0.0500 -0.0384  0.0186
 7708SOL    HW134586   2.859   2.386   5.235  0.3117 -2.8734 -1.0691
 7708SOL    HW234587   2.755   2.313   5.152  1.6089  2.1054 -2.3120
 7709SOL     OW34588   0.922   0.893   8.683  0.2373 -0.4948 -0.1242
 7709SOL    HW134589   0.916   0.942   8.601  0.5132  0.2090  0.2717
 7709SOL    HW234590   0.973   0.816   8.659 -2.1808 -1.9059 -0.7654
 7710SOL     OW34591   3.275   0.784   5.474 -0.8836  0.0228  0.0218
 7710SOL    HW134592   3.250   0.869   5.438 -1.5534 -0.2529 -0.1541
 7710SOL    HW234593   3.328   0.821   5.545  0.5985  0.0447 -1.0872
 7711SOL     OW34594   1.080   1.018   5.669 -0.1627 -0.0849  0.4456
 7711SOL    HW134595   1.101   1.041   5.578  0.9822 -1.9726  0.2247
 7711SOL    HW234596   0.989   1.046   5.674  0.0154  0.6539 -0.4607
 7712SOL     OW34597   0.602   3.258   3.310  0.1073 -0.2597 -0.0529
 7712SOL    HW134598   0.641   3.178   3.345 -1.8833 -0.7597  1.0226
 7712SOL    HW234599   0.609   3.238   3.217  2.1052  1.7011 -0.3386
 7713SOL     OW34600   2.365   1.198  11.032 -0.5330  0.7340  0.4767
 7713SOL    HW134601   2.315   1.251  10.970 -2.0500  0.6524  1.6544
 7713SOL    HW234602   2.373   1.257  11.107  2.3141 -0.3733  1.0393
 7714SOL     OW34603   0.379   2.198   1.645 -0.0902  0.1215  0.6813
 7714SOL    HW134604   0.433   2.139   1.593 -0.8580 -0.5660  0.6611
 7714SOL    HW234605   0.344   2.260   1.581  0.5897 -0.4961 -0.2899
 7715SOL     OW34606   0.280   2.788  13.160 -0.5782 -0.0636  0.0319
 7715SOL    HW134607   0.197   2.835  13.168 -0.9922 -0.9373  0.7452
 7715SOL    HW234608   0.251   2.697  13.153  1.6101 -0.7577 -0.1405
 7716SOL     OW34609   3.225   3.292   6.174  0.2004 -0.6577  0.0559
 7716SOL    HW134610   3.157   3.349   6.139  1.2807 -0.5467 -1.8264
 7716SOL    HW234611   3.205   3.212   6.127 -1.3535 -0.4958  0.4318
 7717SOL     OW34612   1.827   2.396   1.251  0.1384  0.0158  0.0933
 7717SOL    HW134613   1.775   2.443   1.185 -1.0595 -0.6593  0.5477
 7717SOL    HW234614   1.872   2.332   1.196  0.9033 -1.0221  1.9321
 7718SOL     OW34615   4.203   2.091  15.969  0.6122 -0.1919 -0.2637
 7718SOL    HW134616   4.246   2.073  15.886  1.3126 -1.3952  0.3625
 7718SOL    HW234617   4.281   2.090  16.026 -0.4758 -2.5742  1.2056
 7719SOL     OW34618   1.508   1.725   6.682  0.3404 -0.1939  0.6910
 7719SOL    HW134619   1.456   1.698   6.607  0.8670 -2.6813  1.1947
 7719SOL    HW234620   1.456   1.673   6.744 -1.6476  0.5875 -0.3219
 7720SOL     OW34621   0.731   0.631   2.984 -0.6133  0.1247  0.3352
 7720SOL    HW134622   0.769   0.640   2.896  0.5026 -2.0888  0.5970
 7720SOL    HW234623   0.796   0.649   3.051 -0.2489  0.3728 -0.0875
 7721SOL     OW34624   3.581   1.262   1.818 -0.4867 -0.6751  0.6691
 7721SOL    HW134625   3.620   1.191   1.766  1.1819 -1.0723  2.4900
 7721SOL    HW234626   3.548   1.324   1.752 -0.7068 -1.2196  0.2662
 7722SOL     OW34627   1.803   4.422  11.623  0.5457  0.3772  0.4929
 7722SOL    HW134628   1.714   4.398  11.598  0.3954  0.7387  0.6862
 7722SOL    HW234629   1.851   4.441  11.543  1.4078 -1.9405  0.4319
 7723SOL     OW34630   4.388   0.004   4.028 -0.0476  0.2396 -0.0869
 7723SOL    HW134631   4.439   0.016   4.109  1.4933 -1.6634 -0.7721
 7723SOL    HW234632   4.336   0.084   4.034  1.6306  1.4200 -1.3790
 7724SOL     OW34633   3.163   3.524  16.703  0.3344  0.4983 -0.5828
 7724SOL    HW134634   3.142   3.597  16.645  1.2961  0.4507 -0.9953
 7724SOL    HW234635   3.144   3.449  16.647 -1.8825 -1.2017  2.4839
 7725SOL     OW34636   3.302   0.211   7.353  0.2244 -0.3711  0.2595
 7725SOL    HW134637   3.258   0.138   7.309 -1.2585  0.6880 -0.0138
 7725SOL    HW234638   3.387   0.216   7.310 -0.4392 -0.8900 -1.1167
 7726SOL     OW34639   3.634   2.385   0.020  0.0728 -0.5638  0.3499
 7726SOL    HW134640   3.707   2.355  17.663  0.9415  0.1772  1.1007
 7726SOL    HW234641   3.666   2.455   0.077  0.0070  1.5702 -2.2501
 7727SOL     OW34642   3.018   2.395   4.295 -0.6514 -0.6732  0.1165
 7727SOL    HW134643   2.933   2.357   4.273 -1.3006 -0.4450  2.1751
 7727SOL    HW234644   3.081   2.327   4.270 -1.1145 -1.3757  0.8797
 7728SOL     OW34645   3.901   1.197   4.825 -0.0067  0.0713  0.0025
 7728SOL    HW134646   3.884   1.289   4.810 -1.7086 -0.2510 -0.0531
 7728SOL    HW234647   3.987   1.200   4.866  0.2890  1.6736 -0.7522
 7729SOL     OW34648   1.784   0.999   0.388  0.1909 -0.5797  0.3565
 7729SOL    HW134649   1.827   1.037   0.312 -1.6046 -1.0044 -0.8640
 7729SOL    HW234650   1.778   1.086   0.428  0.5576 -0.0809 -0.6690
 7730SOL     OW34651   4.428   4.539  12.522 -0.4742  0.6850  0.3151
 7730SOL    HW134652   4.435   4.453  12.565 -1.4380 -0.6210 -2.0992
 7730SOL    HW234653   4.519   4.556  12.498 -0.2646 -2.1992 -1.0107
 7731SOL     OW34654   3.391   1.246   2.013  0.0591 -0.3107  0.1140
 7731SOL    HW134655   3.468   1.236   2.070  1.7407 -0.1947 -2.1093
 7731SOL    HW234656   3.440   1.245   1.930  0.1229  0.9831  0.1412
 7732SOL     OW34657   1.351   3.954   3.393 -0.2312  0.2007 -0.0556
 7732SOL    HW134658   1.313   4.040   3.407  1.4711  1.1695 -1.4370
 7732SOL    HW234659   1.407   3.982   3.320 -1.2455  0.7236 -0.6337
 7733SOL     OW34660   2.373   4.269   8.747  0.2400 -0.1000 -0.3746
 7733SOL    HW134661   2.288   4.248   8.709  0.4864 -2.3026  0.2967
 7733SOL    HW234662   2.379   4.363   8.759  0.3854 -0.2878  0.9440
 7734SOL     OW34663   0.165   2.358   2.564 -0.1653 -0.0147 -0.2311
 7734SOL    HW134664   0.202   2.415   2.497  1.3886  1.6528  2.0331
 7734SOL    HW234665   0.210   2.277   2.539 -3.1646 -2.4058  2.0541
 7735SOL     OW34666   0.174   2.759  17.430  0.1709  0.1552  0.0495
 7735SOL    HW134667   0.235   2.730  17.497  0.1975 -0.0027 -0.0437
 7735SOL    HW234668   0.179   2.689  17.366  2.9036 -0.0811  0.5178
 7736SOL     OW34669   0.874   3.279   4.781 -0.3711 -0.4822 -0.4308
 7736SOL    HW134670   0.805   3.340   4.759 -0.2801  0.4909  2.0404
 7736SOL    HW234671   0.883   3.306   4.872 -0.0687  1.2264 -0.9643
 7737SOL     OW34672   1.865   4.324  11.910  0.1581 -0.4542 -0.4771
 7737SOL    HW134673   1.775   4.343  11.886  0.2325  0.5363  0.0289
 7737SOL    HW234674   1.908   4.337  11.825  0.7475 -1.2608 -0.3017
 7738SOL     OW34675   3.602   4.333   9.069  0.2069  0.2805 -0.0700
 7738SOL    HW134676   3.596   4.331   8.973 -1.5071 -0.3743  0.0540
 7738SOL    HW234677   3.632   4.421   9.091 -0.4738  0.7483 -1.0334
 7739SOL     OW34678   0.865   1.008  14.565 -0.2823  0.0625  0.3814
 7739SOL    HW134679   0.925   0.998  14.491 -1.5581 -0.3057 -0.5935
 7739SOL    HW234680   0.792   0.957  14.531  1.0488 -1.0874 -0.7753
 7740SOL     OW34681   1.712   1.640   3.991  0.3402  0.0570  0.7681
 7740SOL    HW134682   1.679   1.699   3.923  0.1752 -0.9752 -0.0509
 7740SOL    HW234683   1.659   1.565   3.964 -0.3045  0.8766 -0.2332
 7741SOL     OW34684   3.966   3.603   9.434 -0.3720 -0.2261  0.0345
 7741SOL    HW134685   3.963   3.659   9.356  0.1496  0.1075  0.2588
 7741SOL    HW234686   4.060   3.592   9.446 -0.7768 -2.9692  0.7783
 7742SOL     OW34687   4.245   1.863   5.303  0.2192 -0.0260  0.1101
 7742SOL    HW134688   4.154   1.863   5.332  0.2345 -0.2566  0.1512
 7742SOL    HW234689   4.301   1.871   5.380 -2.5972 -0.2264  2.1510
 7743SOL     OW34690   2.513   0.846   5.551 -0.7465 -0.1382 -0.3837
 7743SOL    HW134691   2.488   0.933   5.583  0.5598 -0.1268  0.6313
 7743SOL    HW234692   2.435   0.792   5.561  0.2980 -1.5974 -0.1679
 7744SOL     OW34693   1.443   4.654  15.248 -0.1454 -0.4486 -0.0328
 7744SOL    HW134694   1.435   0.025  15.236 -2.3918 -0.5953  0.3820
 7744SOL    HW234695   1.534   4.631  15.228 -0.5462 -0.3732 -1.9268
 7745SOL     OW34696   2.434   3.394   8.126  0.1966 -0.6379  0.4974
 7745SOL    HW134697   2.339   3.399   8.117  0.1478  1.3099  2.1835
 7745SOL    HW234698   2.456   3.465   8.186  0.7357  0.0287 -0.4914
 7746SOL     OW34699   3.458   2.774   3.015  0.4319 -0.3811  0.1210
 7746SOL    HW134700   3.530   2.836   3.004  1.5573 -1.7349 -0.3327
 7746SOL    HW234701   3.422   2.776   2.927 -1.0142  0.5649  0.7514
 7747SOL     OW34702   0.665   4.376   7.727  0.1454 -0.2984  0.3066
 7747SOL    HW134703   0.700   4.365   7.816  0.6890  0.6886  0.2068
 7747SOL    HW234704   0.577   4.408   7.748  0.8151  2.0419 -0.5601
 7748SOL     OW34705   1.750   3.178   3.658 -0.4115  0.5732  0.6378
 7748SOL    HW134706   1.744   3.140   3.745 -1.5608 -2.3294 -0.7371
 7748SOL    HW234707   1.825   3.238   3.662 -0.3724  0.6560 -1.2581
 7749SOL     OW34708   4.400   4.392   6.642 -0.0152  0.3383 -0.3021
 7749SOL    HW134709   4.324   4.438   6.677 -0.4436  0.4703 -1.3951
 7749SOL    HW234710   4.377   4.406   6.550 -2.3707 -0.9468  0.0846
 7750SOL     OW34711   3.751   1.873  12.453 -0.0049  0.1058  0.0721
 7750SOL    HW134712   3.689   1.943  12.471  0.0650  0.4005 -0.8439
 7750SOL    HW234713   3.838   1.912  12.465 -0.5935  1.1386  0.9760
 7751SOL     OW34714   1.187   0.815  12.205 -0.0594  0.2588 -0.2516
 7751SOL    HW134715   1.238   0.888  12.170 -0.6445  0.2487 -1.1309
 7751SOL    HW234716   1.200   0.757  12.130  1.0167 -0.8659  0.7849
 7752SOL     OW34717   2.831   3.968   1.744  0.0634  0.1818 -0.2336
 7752SOL    HW134718   2.750   4.019   1.753  0.7473  1.4534 -1.2691
 7752SOL    HW234719   2.898   4.034   1.763 -1.5405  2.1314 -1.2727
 7753SOL     OW34720   2.948   2.608   6.857 -0.1973 -0.2391  0.0825
 7753SOL    HW134721   3.036   2.575   6.870  0.7195  0.3892 -4.7338
 7753SOL    HW234722   2.923   2.629   6.947 -1.7607 -2.5064  0.1857
 7754SOL     OW34723   2.973   3.851   2.787 -0.0266  0.5311 -1.0533
 7754SOL    HW134724   3.068   3.864   2.782 -0.1901  2.2449  0.0666
 7754SOL    HW234725   2.946   3.912   2.856  1.8172  1.5486 -1.2316
 7755SOL     OW34726   3.596   2.598  11.371  0.4223 -0.6855  0.4510
 7755SOL    HW134727   3.686   2.627  11.385  0.0584  0.8370 -0.4049
 7755SOL    HW234728   3.592   2.503  11.359  0.2282 -0.4986 -0.9007
 7756SOL     OW34729   1.026   2.848   7.919  0.0992  0.7718  0.2741
 7756SOL    HW134730   0.940   2.868   7.882  0.3569 -0.3823 -0.9289
 7756SOL    HW234731   1.087   2.873   7.850  0.9257 -1.8123  0.0909
 7757SOL     OW34732   1.213   1.809  10.767  0.2143 -0.3452 -0.0240
 7757SOL    HW134733   1.282   1.868  10.736 -0.8897  2.9542  3.8149
 7757SOL    HW234734   1.174   1.867  10.833  1.9051  1.8134 -0.9139
 7758SOL     OW34735   1.476   2.099   3.697  0.0545 -0.1583 -0.5888
 7758SOL    HW134736   1.433   2.139   3.773  1.2366  0.4530 -0.2356
 7758SOL    HW234737   1.524   2.170   3.654  0.1385  0.0796 -0.0952
 7759SOL     OW34738   4.051   0.502   8.119  0.3724 -0.2822 -0.5412
 7759SOL    HW134739   4.034   0.420   8.072  1.6645 -1.6923  1.4507
 7759SOL    HW234740   3.963   0.534   8.140  0.7158 -0.6798  1.4948
 7760SOL     OW34741   2.555   2.998   1.985 -0.5514  0.0194  0.1407
 7760SOL    HW134742   2.504   3.065   1.939 -2.0215 -0.4928  1.0085
 7760SOL    HW234743   2.558   2.929   1.920  1.6719 -1.7793  2.1483
 7761SOL     OW34744   0.727   4.517   9.938 -0.0604 -0.1109  0.0140
 7761SOL    HW134745   0.644   4.565   9.934 -0.8088 -1.3814  0.1721
 7761SOL    HW234746   0.696   4.446   9.881 -1.6576  1.3546 -0.9110
 7762SOL     OW34747   4.563   0.756   0.719 -0.3447  0.6930 -0.6051
 7762SOL    HW134748   4.575   0.840   0.764  1.5538 -0.5775  1.2719
 7762SOL    HW234749   4.628   0.770   0.651 -1.4293 -1.6188 -2.1363
 7763SOL     OW34750   3.083   0.843   4.044  0.1621  0.2762 -0.0358
 7763SOL    HW134751   3.135   0.861   3.965 -1.7374  2.8182 -0.7119
 7763SOL    HW234752   3.006   0.805   4.002  0.9794  1.4938 -2.6441
 7764SOL     OW34753   0.688   1.375  13.998 -0.3076 -0.5276 -0.2333
 7764SOL    HW134754   0.654   1.422  14.074 -1.1145 -1.3167 -0.0979
 7764SOL    HW234755   0.713   1.291  14.038  1.9104  0.4424  0.3771
 7765SOL     OW34756   1.651   2.436   2.193  0.5809  0.2531 -0.1856
 7765SOL    HW134757   1.708   2.381   2.247 -1.3726 -0.2049  1.4015
 7765SOL    HW234758   1.594   2.369   2.155 -0.9550  0.7392  1.2295
 7766SOL     OW34759   0.292   0.804  12.533  0.3180 -0.3067 -0.6380
 7766SOL    HW134760   0.330   0.865  12.596 -1.0356 -1.8522  1.7014
 7766SOL    HW234761   0.253   0.731  12.581  0.0497 -0.7092 -1.4639
 7767SOL     OW34762   4.023   1.887   5.450 -1.0462 -0.1027  0.3357
 7767SOL    HW134763   4.010   1.968   5.401  2.6686  0.8336  0.9400
 7767SOL    HW234764   3.947   1.830   5.437 -1.2135 -0.1380  1.4285
 7768SOL     OW34765   1.261   0.025  13.908  0.6393 -0.5261  0.0060
 7768SOL    HW134766   1.336   4.720  13.960 -0.1181 -1.2813  0.6742
 7768SOL    HW234767   1.300   0.092  13.852 -0.3002  0.4226  0.4944
 7769SOL     OW34768   0.779   1.700   3.707  0.2246  0.2482 -0.6290
 7769SOL    HW134769   0.776   1.608   3.736 -1.0602  0.5360  0.1505
 7769SOL    HW234770   0.867   1.702   3.671  0.1309  0.3916 -0.8456
 7770SOL     OW34771   3.690   4.410   0.679  0.3243 -0.3666  0.1747
 7770SOL    HW134772   3.698   4.371   0.766 -2.6525 -2.2297 -0.4215
 7770SOL    HW234773   3.780   4.410   0.647  0.6417  0.6301  1.0638
 7771SOL     OW34774   1.957   1.781   2.325  0.5877 -0.4062 -0.3375
 7771SOL    HW134775   1.923   1.835   2.254 -2.2135  0.1131  1.4034
 7771SOL    HW234776   1.998   1.847   2.380  1.0752 -0.0049 -1.1750
 7772SOL     OW34777   1.815   1.968   8.725  0.1817 -0.4592  0.6121
 7772SOL    HW134778   1.730   2.011   8.733  1.5097  1.9876  1.2833
 7772SOL    HW234779   1.781   1.882   8.700 -0.6041  0.4941 -1.5209
 7773SOL     OW34780   1.823   4.356   0.595  0.4653  0.6131  0.8184
 7773SOL    HW134781   1.907   4.384   0.630  0.7914  2.6421 -1.6046
 7773SOL    HW234782   1.833   4.262   0.613  2.0027  0.6693  0.2270
 7774SOL     OW34783   2.065   4.564   6.307 -0.2269  0.4650  0.2541
 7774SOL    HW134784   1.977   4.526   6.315  0.3401 -0.3380  2.4172
 7774SOL    HW234785   2.069   4.562   6.211 -0.3167 -1.2698  0.2901
 7775SOL     OW34786   4.200   0.499  15.246 -0.6314  0.3289  0.0485
 7775SOL    HW134787   4.203   0.425  15.184  1.0649  0.2926  0.1542
 7775SOL    HW234788   4.193   0.564  15.176  0.5681  2.7991  2.2191
 7776SOL     OW34789   4.434   3.580   7.607  0.1202 -0.2848  0.1399
 7776SOL    HW134790   4.517   3.628   7.602  0.0572 -0.2431 -0.5110
 7776SOL    HW234791   4.401   3.589   7.518 -0.2281 -5.6568 -0.2522
 7777SOL     OW34792   3.820   0.017   2.663 -0.2043  0.0181  0.0326
 7777SOL    HW134793   3.746   0.020   2.724  0.4634 -1.8129  0.9151
 7777SOL    HW234794   3.811   4.653   2.628  0.1408  0.0609 -0.1674
 7778SOL     OW34795   2.189   2.924  13.219 -0.4443  0.1875 -0.8651
 7778SOL    HW134796   2.159   2.919  13.310  2.7918 -0.2734  0.1670
 7778SOL    HW234797   2.104   2.933  13.175 -1.0864  1.7896  0.7175
 7779SOL     OW34798   0.348   2.334   2.211  0.7444  0.4879 -1.0178
 7779SOL    HW134799   0.415   2.397   2.239 -0.5261  1.2882  0.1991
 7779SOL    HW234800   0.302   2.385   2.145 -1.3052  0.4565  0.3862
 7780SOL     OW34801   4.253   2.311   5.287 -0.3286  0.1440 -0.0077
 7780SOL    HW134802   4.210   2.359   5.216 -0.3166  0.5015  0.2257
 7780SOL    HW234803   4.275   2.378   5.351  0.7731 -0.6597  0.4548
 7781SOL     OW34804   4.230   1.456   8.319 -0.3256  0.3968  0.4137
 7781SOL    HW134805   4.152   1.509   8.328  0.0475  1.1566 -0.7594
 7781SOL    HW234806   4.287   1.491   8.386  1.9472  2.0442 -2.3708
 7782SOL     OW34807   2.209   3.194  10.703  0.0587  0.3613 -0.2157
 7782SOL    HW134808   2.168   3.280  10.716 -1.5883 -0.4405 -0.2096
 7782SOL    HW234809   2.293   3.211  10.746 -0.3472 -2.9289  1.8630
 7783SOL     OW34810   0.531   1.297   6.680 -0.2963  1.1271  0.2967
 7783SOL    HW134811   0.614   1.254   6.657 -2.0512 -0.7918 -2.4342
 7783SOL    HW234812   0.507   1.242   6.754 -1.2531 -0.2138 -1.0147
 7784SOL     OW34813   2.116   1.511   5.534  0.0520  0.2921  0.1546
 7784SOL    HW134814   2.094   1.558   5.614  1.2877 -0.2983  0.8302
 7784SOL    HW234815   2.038   1.456   5.540  2.1759 -2.5875  1.2687
 7785SOL     OW34816   3.346   3.390   8.746 -0.3269 -0.0691 -0.4737
 7785SOL    HW134817   3.409   3.353   8.808 -0.7281 -0.5649 -0.3652
 7785SOL    HW234818   3.400   3.388   8.667  0.3054  0.5793 -0.0540
 7786SOL     OW34819   3.737   1.905  12.025 -0.6603  0.3129 -0.3292
 7786SOL    HW134820   3.805   1.867  11.970 -0.0565 -0.6185  1.0627
 7786SOL    HW234821   3.753   1.999  12.020  3.2332 -0.2335  1.7452
 7787SOL     OW34822   3.611   4.703  11.984  0.3827 -0.1262  0.5099
 7787SOL    HW134823   3.643   0.063  11.951 -0.6227 -0.0988 -0.3731
 7787SOL    HW234824   3.562   0.006  12.062  0.3723 -1.4647  0.9751
 7788SOL     OW34825   2.775   1.488   5.797 -0.1820  0.2838  0.5250
 7788SOL    HW134826   2.817   1.523   5.875  0.9954 -0.5240  0.2385
 7788SOL    HW234827   2.776   1.574   5.755  1.0802  0.2065  0.4195
 7789SOL     OW34828   4.530   4.706   6.503  0.3137  0.6173 -0.0397
 7789SOL    HW134829   4.580   4.628   6.526  2.7201  1.5023 -2.3237
 7789SOL    HW234830   4.444   4.675   6.476  0.6860 -0.6227  0.2211
 7790SOL     OW34831   1.603   0.579   8.508  0.2634  0.5323  0.4119
 7790SOL    HW134832   1.530   0.582   8.446  1.4017  2.1395 -0.8694
 7790SOL    HW234833   1.618   0.671   8.533  1.3816 -0.2614  2.6065
 7791SOL     OW34834   1.983   1.345   9.174 -0.9963  0.0728 -0.6457
 7791SOL    HW134835   1.973   1.301   9.258  1.2370  1.6504  0.4653
 7791SOL    HW234836   1.950   1.286   9.106  0.5835 -0.3701 -1.0256
 7792SOL     OW34837   0.178   3.241   8.357 -0.2015 -0.1677 -0.1832
 7792SOL    HW134838   0.156   3.203   8.442  0.6649  2.5703  1.2953
 7792SOL    HW234839   0.236   3.313   8.384  1.6078 -1.5880 -0.2387
 7793SOL     OW34840   2.788   3.903   5.557 -0.4126  0.1852 -0.2742
 7793SOL    HW134841   2.851   3.835   5.534 -0.4157 -0.2360  0.9384
 7793SOL    HW234842   2.782   3.888   5.651  0.6205  3.8219  0.3427
 7794SOL     OW34843   3.310   1.186   6.876  0.1860 -0.1166 -0.1899
 7794SOL    HW134844   3.404   1.173   6.888  0.4385  0.6709 -1.3318
 7794SOL    HW234845   3.287   1.256   6.937 -0.3833  1.4684 -2.2284
 7795SOL     OW34846   3.247   4.472   2.677 -0.1458 -0.8040  0.8130
 7795SOL    HW134847   3.306   4.455   2.604 -0.7720 -0.5896  0.2605
 7795SOL    HW234848   3.257   4.565   2.697  1.2827 -0.6396 -0.6221
 7796SOL     OW34849   2.781   4.620   7.816 -0.3488 -0.3729  0.6585
 7796SOL    HW134850   2.706   4.649   7.868 -0.1780 -0.4922  0.9704
 7796SOL    HW234851   2.735   4.589   7.738 -1.1482 -0.0072  0.9855
 7797SOL     OW34852   3.584   0.864  11.921 -0.1651  0.0723 -0.7895
 7797SOL    HW134853   3.523   0.833  11.854 -2.6538  0.0419  1.4507
 7797SOL    HW234854   3.662   0.876  11.868  2.0283 -0.9606  2.2048
 7798SOL     OW34855   3.310   2.241   6.296  0.1049 -0.4975 -0.1857
 7798SOL    HW134856   3.320   2.280   6.209 -2.3197 -2.3959 -1.3246
 7798SOL    HW234857   3.215   2.234   6.292  0.0304  1.8554 -2.5694
 7799SOL     OW34858   3.034   3.938   1.124 -0.2009 -0.8568  0.0370
 7799SOL    HW134859   2.974   3.882   1.073  1.4428 -0.9828 -1.7778
 7799SOL    HW234860   3.033   4.021   1.076 -0.7195  0.0296  1.5752
 7800SOL     OW34861   0.776   3.045  14.892 -0.5879  0.2688  0.0566
 7800SOL    HW134862   0.830   3.070  14.967  0.4807 -1.6344 -0.0902
 7800SOL    HW234863   0.725   3.126  14.882 -1.1398 -0.2545 -1.3914
 7801SOL     OW34864   0.996   4.589   5.374  0.1975 -0.0557 -0.0730
 7801SOL    HW134865   0.969   4.538   5.450 -0.0748 -0.7388 -0.6250
 7801SOL    HW234866   1.039   4.663   5.416 -0.1963 -0.1054  0.4078
 7802SOL     OW34867   1.024   0.052  15.082 -0.6003  0.1811  0.1673
 7802SOL    HW134868   0.954   4.723  15.119 -1.2816 -1.1086 -2.9521
 7802SOL    HW234869   1.006   0.132  15.131  0.9075  2.1939 -2.5317
 7803SOL     OW34870   3.074   0.633   7.517 -0.9761 -0.5885 -0.6493
 7803SOL    HW134871   3.032   0.598   7.595  4.1261 -0.2595  2.2503
 7803SOL    HW234872   3.078   0.725   7.543  0.0069  0.0480 -3.0386
 7804SOL     OW34873   1.946   3.986   7.545 -0.9133  0.5052  0.3507
 7804SOL    HW134874   1.896   4.036   7.609 -2.0589  0.5249 -0.5648
 7804SOL    HW234875   1.897   3.904   7.548  0.7966 -0.4997  0.7411
 7805SOL     OW34876   4.206   4.716   6.049  0.2522  0.3823  0.1841
 7805SOL    HW134877   4.154   0.021   5.975  0.8153  1.0316  0.0407
 7805SOL    HW234878   4.213   0.071   6.103  1.7845  1.5471 -1.7131
 7806SOL     OW34879   1.761   2.266   9.938  0.6396 -0.4890 -0.1762
 7806SOL    HW134880   1.844   2.218   9.943  1.0384  0.2164 -0.0470
 7806SOL    HW234881   1.705   2.221  10.002 -0.1693  0.7241 -0.0299
 7807SOL     OW34882   0.315   3.578   5.342  0.0198  0.4120 -0.1882
 7807SOL    HW134883   0.299   3.510   5.407 -1.4799 -0.0298 -1.0052
 7807SOL    HW234884   0.394   3.540   5.303 -1.4854 -0.5793 -2.3014
 7808SOL     OW34885   2.403   3.908  17.052  0.2772 -0.1773 -0.0540
 7808SOL    HW134886   2.314   3.917  17.018 -0.1897  2.1637  1.7337
 7808SOL    HW234887   2.409   3.983  17.113 -0.6677  0.1220 -0.3384
 7809SOL     OW34888   1.569   2.408   7.377  0.4601  0.0901  0.4555
 7809SOL    HW134889   1.650   2.359   7.362  0.4666  0.1007  0.4560
 7809SOL    HW234890   1.549   2.433   7.287  1.8110 -0.2826  0.0525
 7810SOL     OW34891   1.137   0.123   5.765  0.1416 -0.1079 -0.1958
 7810SOL    HW134892   1.193   0.048   5.785 -0.6326 -0.1298  1.8862
 7810SOL    HW234893   1.049   0.088   5.781  0.9797 -1.5119  1.3416
 7811SOL     OW34894   0.717   0.115   7.493  0.1123  0.1928 -0.2868
 7811SOL    HW134895   0.677   0.191   7.449  0.0336 -1.1667 -2.5886
 7811SOL    HW234896   0.803   0.146   7.518  0.6047 -0.3324 -1.3139
 7812SOL     OW34897   0.659   2.441   6.465  0.6033  0.2146 -0.2122
 7812SOL    HW134898   0.726   2.372   6.467  0.5231  0.1326 -0.3144
 7812SOL    HW234899   0.668   2.490   6.383  1.9532  0.1419 -0.1081
 7813SOL     OW34900   1.977   2.171   7.102 -0.1794 -0.2209  0.0024
 7813SOL    HW134901   1.920   2.247   7.092  0.9414  0.6893  0.5478
 7813SOL    HW234902   2.059   2.206   7.066  0.6424 -0.2225  1.9052
 7814SOL     OW34903   0.346   1.524   6.101  0.1216 -0.4671  0.6987
 7814SOL    HW134904   0.348   1.436   6.064 -1.3366  0.5582 -1.8342
 7814SOL    HW234905   0.430   1.529   6.147  0.3269 -2.4945  0.5397
 7815SOL     OW34906   0.425   3.736  14.786 -0.1715 -0.2165  0.1287
 7815SOL    HW134907   0.415   3.827  14.759 -2.2905 -1.2670 -2.6265
 7815SOL    HW234908   0.412   3.693  14.702 -1.7214 -1.5385  1.0547
 7816SOL     OW34909   2.622   3.877   1.239 -0.0747  0.7393  0.3405
 7816SOL    HW134910   2.595   3.852   1.327 -0.0322  1.7350  0.6332
 7816SOL    HW234911   2.658   3.960   1.271 -0.2058  0.1056  2.1516
 7817SOL     OW34912   4.447   3.498   0.808 -0.2603  0.4665 -0.0821
 7817SOL    HW134913   4.408   3.451   0.734  0.6349  1.3393 -1.1098
 7817SOL    HW234914   4.431   3.435   0.879  1.6277 -0.3194 -0.3595
 7818SOL     OW34915   2.883   4.033   4.791  0.6557  0.4224 -0.2053
 7818SOL    HW134916   2.841   3.951   4.817 -0.9308  0.6479 -2.0640
 7818SOL    HW234917   2.975   4.007   4.796  0.2545 -0.9797 -0.3051
 7819SOL     OW34918   3.156   2.304  14.872  0.4725  0.6874 -0.3938
 7819SOL    HW134919   3.239   2.350  14.885  0.0908  0.4703  2.7298
 7819SOL    HW234920   3.097   2.379  14.876  0.3172  0.5950 -0.9976
 7820SOL     OW34921   0.363   0.980   6.262 -0.3891  0.2079  0.2330
 7820SOL    HW134922   0.334   0.888   6.265  1.5156 -0.3470  1.2702
 7820SOL    HW234923   0.445   0.963   6.217 -1.0058 -1.0322 -0.4348
 7821SOL     OW34924   3.681   2.630   0.782 -0.1082 -0.2491  0.0894
 7821SOL    HW134925   3.694   2.650   0.690  0.4451 -1.7447 -0.1602
 7821SOL    HW234926   3.614   2.695   0.804 -0.1863  0.1981 -1.4942
 7822SOL     OW34927   2.236   0.670  10.747  0.0789 -0.1068 -0.4002
 7822SOL    HW134928   2.143   0.654  10.762 -0.1280  0.9819 -0.4640
 7822SOL    HW234929   2.276   0.636  10.826  0.6314 -0.4368 -0.8222
 7823SOL     OW34930   3.521   1.901   8.456  0.0741 -0.0188 -0.5900
 7823SOL    HW134931   3.504   1.861   8.371 -0.4671  3.2658 -2.0275
 7823SOL    HW234932   3.484   1.839   8.518 -1.5747  0.0244 -1.5451
 7824SOL     OW34933   0.424   3.765  15.741 -0.5555 -0.4864 -0.2898
 7824SOL    HW134934   0.491   3.698  15.749  0.3171  0.2361 -1.7715
 7824SOL    HW234935   0.360   3.731  15.678 -0.2603 -1.4518 -0.0639
 7825SOL     OW34936   2.677   3.530   3.629  0.1401 -0.1831  0.0412
 7825SOL    HW134937   2.733   3.518   3.552 -0.6249  1.2643 -0.7403
 7825SOL    HW234938   2.623   3.604   3.602 -0.6074 -0.7967 -0.1169
 7826SOL     OW34939   2.657   3.120  10.789  0.4447 -0.2751 -0.1370
 7826SOL    HW134940   2.721   3.069  10.838  0.7108 -0.1510 -0.3488
 7826SOL    HW234941   2.643   3.077  10.705 -3.2210  0.0303  0.3315
 7827SOL     OW34942   3.947   2.780   8.212  0.2887  0.3264 -0.5090
 7827SOL    HW134943   3.990   2.786   8.126 -2.6854  0.6581 -1.9717
 7827SOL    HW234944   3.910   2.868   8.222 -1.9622 -1.0194  2.9254
 7828SOL     OW34945   3.105   2.948   2.628  0.0170  0.6663  0.4036
 7828SOL    HW134946   3.035   2.885   2.612  1.5522 -0.3067 -2.5472
 7828SOL    HW234947   3.162   2.934   2.552 -0.7243  0.7769 -0.1799
 7829SOL     OW34948   1.714   0.107   6.671 -0.3277 -0.2373  0.6403
 7829SOL    HW134949   1.699   0.138   6.581  0.1023  0.1027  0.6868
 7829SOL    HW234950   1.750   0.191   6.698 -0.0887 -0.2823  0.4662
 7830SOL     OW34951   0.414   0.476  11.476 -0.0557 -0.0304 -0.2677
 7830SOL    HW134952   0.425   0.560  11.431  1.6102  0.1502  0.4912
 7830SOL    HW234953   0.481   0.475  11.544  1.0682 -0.9814 -1.3898
 7831SOL     OW34954   3.281   2.486   2.596  0.1424 -0.0064 -0.7190
 7831SOL    HW134955   3.244   2.438   2.522  1.1150 -2.1334  0.1802
 7831SOL    HW234956   3.297   2.566   2.546  1.6044  2.2934  3.4166
 7832SOL     OW34957   4.491   3.107   6.425  0.3018  0.3630  0.2035
 7832SOL    HW134958   4.445   3.045   6.482 -0.2291 -0.7078 -1.3928
 7832SOL    HW234959   4.556   3.147   6.483 -1.0387  2.7152  0.0718
 7833SOL     OW34960   1.524   2.158  16.480  0.2800 -0.7090 -0.1163
 7833SOL    HW134961   1.528   2.212  16.558  0.0906  0.6013 -1.0013
 7833SOL    HW234962   1.602   2.179  16.429 -1.2827  4.9807 -0.1792
 7834SOL     OW34963   3.843   1.319   3.047 -0.2545  0.3953 -0.0274
 7834SOL    HW134964   3.824   1.341   2.956 -0.4902 -0.1238 -0.1040
 7834SOL    HW234965   3.932   1.287   3.036 -0.4808  0.3727 -1.7389
 7835SOL     OW34966   3.471   4.526   3.827 -0.2052 -0.0021  0.1716
 7835SOL    HW134967   3.505   4.441   3.855 -0.4849 -1.0714 -2.6451
 7835SOL    HW234968   3.548   4.551   3.777 -0.3700  0.5041  0.1692
 7836SOL     OW34969   3.933   1.608   2.502  0.2416  0.0496  0.0644
 7836SOL    HW134970   3.900   1.686   2.547  0.4955 -0.1023  0.5147
 7836SOL    HW234971   4.027   1.615   2.522 -0.3686 -0.1532  2.9850
 7837SOL     OW34972   4.332   2.705   0.325  0.2013 -0.2865 -0.0027
 7837SOL    HW134973   4.249   2.731   0.365  1.6639  1.5243  1.8317
 7837SOL    HW234974   4.394   2.700   0.398  1.8020  0.5336 -1.2980
 7838SOL     OW34975   3.262   3.842   3.730  0.2923  0.0745 -0.1772
 7838SOL    HW134976   3.233   3.796   3.809 -0.6027  2.2545  0.7622
 7838SOL    HW234977   3.352   3.866   3.754 -0.4064  2.5132  0.0337
 7839SOL     OW34978   2.065   3.558   1.891 -0.3967 -0.0286 -0.6353
 7839SOL    HW134979   2.158   3.568   1.911 -0.3359 -0.0757 -0.9017
 7839SOL    HW234980   2.046   3.466   1.874 -0.7599 -0.0586 -0.0536
 7840SOL     OW34981   4.051   3.985   4.665  0.4705  0.1551 -0.7094
 7840SOL    HW134982   3.999   3.941   4.732  0.6081  0.6252 -0.2884
 7840SOL    HW234983   3.972   4.004   4.614  0.1679 -0.8058 -0.6015
 7841SOL     OW34984   2.733   4.190   3.099  0.6625  0.1584 -0.4494
 7841SOL    HW134985   2.744   4.282   3.073  0.5120  0.5320  0.8074
 7841SOL    HW234986   2.642   4.182   3.129  1.0314  0.6846  0.7932
 7842SOL     OW34987   3.304   2.031  14.802 -0.1271 -0.0389  0.0427
 7842SOL    HW134988   3.272   2.109  14.848 -0.2962 -0.4559  0.6375
 7842SOL    HW234989   3.225   1.978  14.795 -0.7620  0.9446 -0.2338
 7843SOL     OW34990   3.901   1.877   5.032 -0.0482  0.8060  0.0277
 7843SOL    HW134991   3.981   1.851   4.986 -1.0805 -0.4728 -1.0663
 7843SOL    HW234992   3.838   1.853   4.964 -1.3902  0.0150  1.5521
 7844SOL     OW34993   3.961   4.411   0.645  0.6457 -0.4105  0.1124
 7844SOL    HW134994   4.005   4.466   0.580 -0.5823  0.1604 -0.2183
 7844SOL    HW234995   3.964   4.331   0.593  1.5854 -0.9269  0.9557
 7845SOL     OW34996   1.138   0.698   3.462 -0.1957  0.5711 -0.2826
 7845SOL    HW134997   1.223   0.655   3.461  0.2245  1.3842  0.3669
 7845SOL    HW234998   1.115   0.707   3.369 -0.3589 -1.3338 -0.4162
 7846SOL     OW34999   4.562   0.183   7.843 -0.5167  0.6651  0.2191
 7846SOL    HW135000   4.585   0.130   7.767 -0.1624 -0.1430  0.8777
 7846SOL    HW235001   4.546   0.111   7.904  1.6743 -0.4810 -0.5564
 7847SOL     OW35002   2.901   4.640  11.702 -0.0092 -0.4355 -0.4283
 7847SOL    HW135003   2.903   4.724  11.655 -0.2852  0.5065  1.2627
 7847SOL    HW235004   2.993   4.619  11.685  0.9164  1.1227  2.8091
 7848SOL     OW35005   1.724   0.620   9.464 -0.6224 -0.2749  0.1971
 7848SOL    HW135006   1.704   0.691   9.403  2.3017 -0.0279 -0.5134
 7848SOL    HW235007   1.639   0.612   9.507 -0.4813 -2.2062  0.1004
 7849SOL     OW35008   2.089   1.791   8.796 -0.4337 -0.6234  0.6846
 7849SOL    HW135009   1.996   1.806   8.779 -0.5652 -0.0389  1.8810
 7849SOL    HW235010   2.087   1.721   8.862  0.7880 -0.0420  1.3297
 7850SOL     OW35011   2.411   2.151   6.221 -0.6406  0.5494  0.4290
 7850SOL    HW135012   2.325   2.157   6.179 -0.6454 -2.0328  0.0074
 7850SOL    HW235013   2.405   2.217   6.290  1.2131 -1.0037  2.0775
 7851SOL     OW35014   0.038   4.305   5.193  0.5853  0.1147 -0.1310
 7851SOL    HW135015   0.122   4.334   5.157 -1.2361  0.6079 -4.0705
 7851SOL    HW235016   4.702   4.351   5.134  2.0650  1.7942 -0.3211
 7852SOL     OW35017   2.960   1.018   4.200  0.4403  0.5013  0.0146
 7852SOL    HW135018   2.986   0.961   4.128  0.4133  1.0405 -0.4158
 7852SOL    HW235019   2.942   0.948   4.263 -0.6049  1.2443  0.5417
 7853SOL     OW35020   2.358   1.973   7.229  0.3560 -0.0449 -0.0699
 7853SOL    HW135021   2.332   1.928   7.309  1.1384 -1.6288 -0.7184
 7853SOL    HW235022   2.453   1.974   7.237  0.3147  0.4326  0.3327
 7854SOL     OW35023   3.823   0.558  11.588  0.1216  0.2863 -0.1520
 7854SOL    HW135024   3.764   0.509  11.530  0.0886  0.6877 -0.4592
 7854SOL    HW235025   3.869   0.618  11.530 -0.6546  0.7931 -0.2405
 7855SOL     OW35026   1.598   0.647   7.599  0.1637 -0.1243 -0.1666
 7855SOL    HW135027   1.649   0.698   7.662  1.2282  0.0254 -1.1624
 7855SOL    HW235028   1.667   0.595   7.558  0.0282 -0.7046  0.3336
 7856SOL     OW35029   0.475   2.752  12.620 -0.5159  0.0154  0.1289
 7856SOL    HW135030   0.453   2.842  12.645  0.0029  0.1902 -0.0408
 7856SOL    HW235031   0.389   2.725  12.590  0.3086 -3.3452  0.7917
 7857SOL     OW35032   1.759   4.191   9.041 -0.2935  0.4918  0.0761
 7857SOL    HW135033   1.704   4.114   9.027  0.0007  0.3399 -0.2352
 7857SOL    HW235034   1.707   4.262   9.002 -1.1753 -0.0138  0.3370
 7858SOL     OW35035   3.751   0.299   9.352  0.4410  0.5848  0.1686
 7858SOL    HW135036   3.708   0.248   9.421  0.0303  0.7058  0.0044
 7858SOL    HW235037   3.831   0.247   9.347 -0.1899 -0.1805 -1.9869
 7859SOL     OW35038   3.033   2.560  14.058 -0.1223 -0.1816  0.4677
 7859SOL    HW135039   2.967   2.562  13.989  0.8784  0.7093 -0.4624
 7859SOL    HW235040   3.116   2.593  14.023 -1.4340  1.3272 -1.2162
 7860SOL     OW35041   2.559   3.696   0.644  0.7044  0.0513  0.0260
 7860SOL    HW135042   2.529   3.611   0.676  0.0688  0.8122  1.4221
 7860SOL    HW235043   2.640   3.679   0.594  0.6151 -0.7180  0.1399
 7861SOL     OW35044   2.284   4.277   6.861 -0.3757 -0.1052 -0.2828
 7861SOL    HW135045   2.305   4.303   6.771 -2.2958  0.0367 -0.7006
 7861SOL    HW235046   2.223   4.343   6.895  1.4358  2.3761 -1.8253
 7862SOL     OW35047   2.056   3.056   7.872  0.8726 -0.1259 -0.1115
 7862SOL    HW135048   2.049   3.006   7.953 -0.3040 -1.8947 -1.2942
 7862SOL    HW235049   2.012   3.134   7.904  3.8210  1.4075  0.2191
 7863SOL     OW35050   4.661   2.312  11.294  0.1012 -0.3839  0.4457
 7863SOL    HW135051   4.615   2.236  11.259  0.6029  0.8630 -2.9823
 7863SOL    HW235052   0.003   2.320  11.225  1.3041 -1.9079  1.4325
 7864SOL     OW35053   0.406   0.812  13.550 -0.0970  0.5429 -0.1305
 7864SOL    HW135054   0.314   0.836  13.562  0.3439  0.8831  2.4968
 7864SOL    HW235055   0.417   0.752  13.624 -0.2073  0.9944  0.2483
 7865SOL     OW35056   0.802   1.568   2.933  0.1459  0.1963 -0.0786
 7865SOL    HW135057   0.867   1.506   2.899 -0.3327 -0.5906  0.4386
 7865SOL    HW235058   0.793   1.626   2.858 -1.7701  0.2425  0.1931
 7866SOL     OW35059   4.168   3.003   4.546 -0.3239  0.1172 -0.2186
 7866SOL    HW135060   4.252   2.988   4.590 -0.8481  1.7279  1.3252
 7866SOL    HW235061   4.177   3.096   4.526 -0.5110  0.2617  0.3772
 7867SOL     OW35062   0.281   3.179   5.275  0.2259  0.0178  0.5938
 7867SOL    HW135063   0.296   3.133   5.192 -1.7112  1.4574 -0.5540
 7867SOL    HW235064   0.307   3.114   5.340  0.7101  0.2214  0.6070
 7868SOL     OW35065   3.104   1.078   7.150  0.0879 -0.3083 -0.0017
 7868SOL    HW135066   3.116   1.044   7.239 -2.1070 -1.8113 -0.2656
 7868SOL    HW235067   3.161   1.018   7.101  0.6042 -0.5354  0.8814
 7869SOL     OW35068   0.850   0.505   6.799 -0.2544  0.0337  0.2869
 7869SOL    HW135069   0.884   0.585   6.759 -0.5668  0.5188  1.0073
 7869SOL    HW235070   0.773   0.542   6.841  1.0895  3.3705 -0.2009
 7870SOL     OW35071   2.065   3.505   5.440  0.5803  0.0185 -0.1893
 7870SOL    HW135072   2.003   3.557   5.388 -0.6421 -1.7948 -0.5502
 7870SOL    HW235073   2.003   3.463   5.499  0.7079  0.4296  0.2389
 7871SOL     OW35074   0.755   2.352   8.391 -0.0514  0.1459 -0.0846
 7871SOL    HW135075   0.744   2.268   8.436  0.2269  0.7445  1.0998
 7871SOL    HW235076   0.767   2.312   8.304  1.4611 -3.0445  1.5961
 7872SOL     OW35077   2.117   0.555  12.768  0.0246  0.2076 -0.0532
 7872SOL    HW135078   2.141   0.648  12.777  0.4731  0.0048  0.8007
 7872SOL    HW235079   2.048   0.584  12.708 -0.2144  1.0415  0.6116
 7873SOL     OW35080   3.345   4.301   6.383 -0.4939  0.0500 -0.3115
 7873SOL    HW135081   3.251   4.282   6.380 -0.9875  1.9154  3.2740
 7873SOL    HW235082   3.373   4.250   6.459 -1.4176  0.1176  0.0741
 7874SOL     OW35083   2.746   0.357   0.635  0.4834 -0.4973 -0.9385
 7874SOL    HW135084   2.718   0.265   0.633  0.8906 -0.6196 -1.3494
 7874SOL    HW235085   2.838   0.336   0.620  0.9274  1.2985 -0.6789
 7875SOL     OW35086   2.280   3.057   3.843  0.7213 -0.5337  0.2337
 7875SOL    HW135087   2.223   3.077   3.917  3.0918 -0.7437  2.1102
 7875SOL    HW235088   2.229   3.077   3.764 -0.7140 -1.9818  0.7865
 7876SOL     OW35089   2.576   0.798   3.878  0.2976 -0.1220 -0.3154
 7876SOL    HW135090   2.552   0.879   3.923  1.5662  0.7497 -1.2150
 7876SOL    HW235091   2.669   0.806   3.855  0.4638  1.4591  0.8921
 7877SOL     OW35092   1.612   1.364  13.263  0.4556  0.1426 -0.0658
 7877SOL    HW135093   1.608   1.269  13.254 -1.2155  0.2881 -0.9229
 7877SOL    HW235094   1.518   1.379  13.279 -0.0172 -4.5266  1.3028
 7878SOL     OW35095   0.174   4.709   6.711 -0.2604  0.0505 -0.5040
 7878SOL    HW135096   0.219   0.007   6.792  0.1788 -0.8187 -0.5081
 7878SOL    HW235097   0.196   4.616   6.700  1.8848  0.5375 -0.3747
 7879SOL     OW35098   2.801   0.352  11.157  0.0891 -0.1126  0.4662
 7879SOL    HW135099   2.805   0.366  11.251 -1.6236 -2.0488  0.8237
 7879SOL    HW235100   2.713   0.368  11.125  0.2481  0.5303  0.3551
 7880SOL     OW35101   1.597   1.495   7.431  0.2358 -0.5441  0.1314
 7880SOL    HW135102   1.657   1.462   7.364 -1.4226 -0.7944 -1.2321
 7880SOL    HW235103   1.658   1.554   7.476 -0.3515  0.5084 -0.4364
 7881SOL     OW35104   1.905   4.435   4.427 -0.3971  0.0018 -0.6542
 7881SOL    HW135105   1.963   4.459   4.498  0.5230 -1.3081 -0.9613
 7881SOL    HW235106   1.846   4.374   4.471  0.3108  0.7449  1.3041
 7882SOL     OW35107   3.729   4.651   3.714  0.1110  0.0834  0.2863
 7882SOL    HW135108   3.769   4.612   3.791 -0.2935 -1.1355 -0.0985
 7882SOL    HW235109   3.808   4.654   3.661 -0.0075  4.0058  0.3769
 7883SOL     OW35110   4.671   2.731  13.362  0.0765  0.0125  0.4469
 7883SOL    HW135111   4.692   2.812  13.316 -2.3061  1.0598  1.1658
 7883SOL    HW235112   4.607   2.772  13.420 -1.9331 -1.3622 -0.7547
 7884SOL     OW35113   4.320   1.583   7.878  0.6417  0.4031  0.0344
 7884SOL    HW135114   4.379   1.556   7.949 -1.4108 -1.4834  1.0384
 7884SOL    HW235115   4.383   1.641   7.836 -0.3808  0.8939 -0.8189
 7885SOL     OW35116   3.250   4.583   6.136 -0.3036 -0.2276  0.2901
 7885SOL    HW135117   3.329   4.607   6.088 -0.6978  0.5368  0.0409
 7885SOL    HW235118   3.206   4.667   6.145 -1.0101 -0.2583 -2.9110
 7886SOL     OW35119   0.972   1.739   5.929 -0.2873  0.5280  0.2842
 7886SOL    HW135120   1.064   1.764   5.924 -1.1552  3.4450 -0.9527
 7886SOL    HW235121   0.938   1.801   5.994 -1.5771 -0.7214  0.8086
 7887SOL     OW35122   2.761   4.245   9.609  0.1713 -0.2048  0.4983
 7887SOL    HW135123   2.810   4.326   9.627  2.1307 -1.1567 -0.6066
 7887SOL    HW235124   2.677   4.289   9.591  0.6310  0.4457 -0.0766
 7888SOL     OW35125   3.481   2.988  16.416  0.5360 -0.1425 -0.3370
 7888SOL    HW135126   3.424   2.924  16.458 -1.5890  0.8570 -1.6767
 7888SOL    HW235127   3.496   3.049  16.488  0.0386 -2.2994  1.5993
 7889SOL     OW35128   0.698   1.390   5.930  0.2078  0.5694  0.1457
 7889SOL    HW135129   0.628   1.373   5.866 -1.6289  3.0230  1.5276
 7889SOL    HW235130   0.776   1.411   5.878  1.0779  1.2935  1.7679
 7890SOL     OW35131   2.258   3.169   4.992  0.5257  0.4092  0.0803
 7890SOL    HW135132   2.346   3.133   4.997 -0.1253 -1.1350  0.3080
 7890SOL    HW235133   2.243   3.161   5.086 -3.6519  3.5625 -0.2871
 7891SOL     OW35134   0.758   0.244  12.377 -0.1403  0.0884 -0.1844
 7891SOL    HW135135   0.803   0.323  12.346 -2.0436  1.1956 -0.1347
 7891SOL    HW235136   0.798   0.234  12.464 -0.5403 -0.8932 -0.1096
 7892SOL     OW35137   4.106   3.664   5.202  0.0460 -0.3977  0.1754
 7892SOL    HW135138   4.144   3.728   5.262  2.4034  0.5733 -2.3596
 7892SOL    HW235139   4.111   3.724   5.127  1.8299  0.2579  0.8283
 7893SOL     OW35140   4.351   1.994   1.474  0.5301  0.2586 -0.1294
 7893SOL    HW135141   4.445   2.012   1.465  0.2716  1.8335  0.2614
 7893SOL    HW235142   4.351   1.975   1.568  0.0278  2.9590  0.4112
 7894SOL     OW35143   4.605   3.935   4.660 -0.2297  0.1847  0.5268
 7894SOL    HW135144   4.642   3.853   4.693  2.6352  0.4300 -2.0465
 7894SOL    HW235145   4.512   3.917   4.676 -0.4364  0.8792  0.0816
 7895SOL     OW35146   3.758   2.838   4.671  0.3416 -0.3030  0.4548
 7895SOL    HW135147   3.795   2.769   4.617 -1.9763 -1.1017 -0.1053
 7895SOL    HW235148   3.827   2.851   4.736  1.0627  1.9504 -0.7301
 7896SOL     OW35149   2.693   1.121   2.800  0.2330 -0.0815  0.0678
 7896SOL    HW135150   2.722   1.069   2.725 -1.8542  0.1042 -0.8755
 7896SOL    HW235151   2.610   1.074   2.811  0.1703 -0.0247 -0.1446
 7897SOL     OW35152   1.568   1.668  13.121  0.3404  0.1078 -0.4682
 7897SOL    HW135153   1.509   1.598  13.151  3.2396 -2.3363 -0.4130
 7897SOL    HW235154   1.582   1.636  13.032  1.7250 -1.7163  0.4006
 7898SOL     OW35155   0.403   0.735  17.148  0.1288  0.6559  0.0525
 7898SOL    HW135156   0.426   0.674  17.078  0.7605  0.9237  0.0284
 7898SOL    HW235157   0.459   0.807  17.120 -0.1291  1.8595  2.5704
 7899SOL     OW35158   0.718   2.680   2.831  0.6242 -0.3068 -0.6736
 7899SOL    HW135159   0.753   2.591   2.826  0.6236 -0.3786  0.6443
 7899SOL    HW235160   0.707   2.692   2.925  0.2233 -1.8816 -0.5211
 7900SOL     OW35161   4.668   2.209   7.200 -0.6478  0.1006  0.0094
 7900SOL    HW135162   0.027   2.222   7.246 -1.5285  1.7513  1.1191
 7900SOL    HW235163   4.699   2.209   7.109  0.5926  0.3491  0.4399
 7901SOL     OW35164   1.483   2.837   6.998 -0.1103 -0.2964  0.3497
 7901SOL    HW135165   1.477   2.914   7.054 -1.8678  2.3394 -3.4069
 7901SOL    HW235166   1.390   2.820   6.980 -0.2593  0.9637 -0.1413
 7902SOL     OW35167   3.227   2.805  17.010 -0.2031 -0.0741  0.8408
 7902SOL    HW135168   3.320   2.798  17.032 -0.5582 -0.5876  2.1695
 7902SOL    HW235169   3.227   2.715  16.976 -2.4324  0.4587 -0.5352
 7903SOL     OW35170   3.882   1.609   6.138 -0.0756 -0.0022  0.7020
 7903SOL    HW135171   3.914   1.693   6.172 -0.4876  0.2347  0.5063
 7903SOL    HW235172   3.947   1.568   6.082 -1.9812 -1.3902 -0.5309
 7904SOL     OW35173   3.792   4.582   8.216  0.1847  0.0962  0.0422
 7904SOL    HW135174   3.720   4.569   8.153  1.1125  1.0414 -1.2016
 7904SOL    HW235175   3.745   4.633   8.282 -0.6042  1.8467 -1.8601
 7905SOL     OW35176   2.326   3.161  11.236 -0.0389  0.1920 -0.1489
 7905SOL    HW135177   2.404   3.152  11.181  1.0431 -0.7497  1.4992
 7905SOL    HW235178   2.271   3.085  11.217 -0.1000  0.4105 -0.8217
 7906SOL     OW35179   0.794   3.745   9.192  0.6248 -0.1542 -0.1423
 7906SOL    HW135180   0.833   3.658   9.204  0.8431  0.2336  2.0188
 7906SOL    HW235181   0.851   3.776   9.121 -0.5103 -0.8427 -1.3549
 7907SOL     OW35182   1.110   3.573  10.517  0.1269  0.2383  0.5190
 7907SOL    HW135183   1.172   3.618  10.459  0.9399 -0.1719  1.0835
 7907SOL    HW235184   1.023   3.586  10.478  0.7689  1.8225 -0.4075
 7908SOL     OW35185   1.166   1.098  17.244  0.2948  0.2202 -0.4031
 7908SOL    HW135186   1.201   1.120  17.330 -1.8014  0.0523  0.4983
 7908SOL    HW235187   1.114   1.018  17.254 -1.5902  1.4297 -0.5988
 7909SOL     OW35188   2.734   2.102   2.875  0.5639  0.1740 -0.4687
 7909SOL    HW135189   2.820   2.122   2.910  0.4505 -0.2757  0.0624
 7909SOL    HW235190   2.697   2.185   2.844  0.8252  0.0132 -1.1987
 7910SOL     OW35191   3.720   2.827  14.013  0.0464 -0.3118  0.4718
 7910SOL    HW135192   3.728   2.889  14.086 -0.0348  1.7807 -1.3190
 7910SOL    HW235193   3.769   2.753  14.047 -0.1224 -0.5639  0.1591
 7911SOL     OW35194   2.192   2.849   5.853 -0.8505 -0.2234 -0.1617
 7911SOL    HW135195   2.182   2.763   5.894  0.7660  0.7264  2.2429
 7911SOL    HW235196   2.154   2.824   5.769  3.3097 -2.1076 -1.5146
 7912SOL     OW35197   3.356   0.872   0.511 -0.3243 -1.1076 -0.2313
 7912SOL    HW135198   3.296   0.946   0.513  1.0385 -0.0732  2.8691
 7912SOL    HW235199   3.301   0.796   0.492  2.3713 -2.6615 -1.9232
 7913SOL     OW35200   3.738   3.495   0.016 -0.6600  0.1371  0.3161
 7913SOL    HW135201   3.726   3.479   0.110  2.0261  1.8502  0.9674
 7913SOL    HW235202   3.814   3.444  17.687 -0.3819  1.3308 -1.1750
 7914SOL     OW35203   0.200   4.043  14.245 -0.1749 -0.0933  0.1457
 7914SOL    HW135204   0.276   4.093  14.215  1.2449 -1.9954  0.5467
 7914SOL    HW235205   0.233   4.024  14.333 -1.5642 -0.4570  0.5905
 7915SOL     OW35206   1.178   3.685  15.399 -0.4452  0.0929 -0.4436
 7915SOL    HW135207   1.147   3.741  15.470 -1.9462  0.0555 -1.0684
 7915SOL    HW235208   1.135   3.606  15.434 -0.1056 -1.0765 -2.6396
 7916SOL     OW35209   4.150   4.060   8.818  0.0441 -0.0828  0.2544
 7916SOL    HW135210   4.145   4.107   8.901 -1.5917  1.5923 -0.8127
 7916SOL    HW235211   4.108   3.981   8.852  1.1193 -0.4352  0.7917
 7917SOL     OW35212   0.721   3.490   4.696  0.0916  0.9405 -0.1057
 7917SOL    HW135213   0.792   3.532   4.648  0.5563 -0.3399 -0.5393
 7917SOL    HW235214   0.700   3.553   4.764  0.3993  0.2217  0.6574
 7918SOL     OW35215   2.088   2.785   2.827 -0.4850  0.0537 -0.0063
 7918SOL    HW135216   2.074   2.875   2.856 -1.0440 -0.5099  1.4807
 7918SOL    HW235217   2.168   2.788   2.775 -0.4559 -0.0248  0.0339
 7919SOL     OW35218   3.834   1.218   9.211 -0.3302 -0.1394 -0.3859
 7919SOL    HW135219   3.902   1.281   9.187 -0.2145  0.6576  2.0362
 7919SOL    HW235220   3.864   1.172   9.289 -1.6478  0.2439  0.3462
 7920SOL     OW35221   0.148   0.891  13.548  0.4823  0.3428 -0.3377
 7920SOL    HW135222   0.072   0.875  13.491  0.2120  3.4581 -0.8153
 7920SOL    HW235223   0.104   0.867  13.629  0.7182  1.9690  0.2627
 7921SOL     OW35224   0.987   1.676   3.105  0.0036 -0.7951 -0.3410
 7921SOL    HW135225   1.030   1.592   3.116  1.0635 -0.1365  0.5542
 7921SOL    HW235226   0.917   1.661   3.042 -0.6587  0.6433  0.0391
 7922SOL     OW35227   4.706   2.701   3.459 -0.3184  0.2151  0.3300
 7922SOL    HW135228   0.069   2.741   3.450 -1.1049  2.2718  1.8215
 7922SOL    HW235229   4.655   2.781   3.471  1.1550  1.4019 -1.2199
 7923SOL     OW35230   0.006   3.956  10.174  0.3578 -0.5081  0.6725
 7923SOL    HW135231   4.652   4.011  10.174  1.0931  0.5624 -1.2288
 7923SOL    HW235232   4.694   3.870  10.155 -0.4874  0.1093 -0.5064
 7924SOL     OW35233   2.567   3.014   4.493 -0.4814 -0.2857 -0.1029
 7924SOL    HW135234   2.536   3.098   4.528  0.7557  0.0907  0.1020
 7924SOL    HW235235   2.570   2.971   4.579 -2.3158 -1.5726 -0.6936
 7925SOL     OW35236   3.137   0.567   0.138 -0.6760 -0.6631 -0.4030
 7925SOL    HW135237   3.164   0.497   0.078  1.4528 -1.6686  1.7386
 7925SOL    HW235238   3.058   0.600   0.095  0.0551  0.0491 -1.1869
 7926SOL     OW35239   2.590   2.800   0.457 -0.0632 -0.5336 -0.0113
 7926SOL    HW135240   2.546   2.716   0.456 -0.1226 -0.4903 -2.2947
 7926SOL    HW235241   2.676   2.763   0.477  0.0864  0.0087  0.3473
 7927SOL     OW35242   2.322   3.074   3.369 -0.5133  0.2875  0.1135
 7927SOL    HW135243   2.328   3.102   3.278 -0.9661  1.3411  0.4011
 7927SOL    HW235244   2.299   3.155   3.416 -2.4084 -0.1189 -0.1399
 7928SOL     OW35245   2.139   0.565   8.512  0.0138 -0.5922  0.5440
 7928SOL    HW135246   2.082   0.620   8.458  0.1273 -1.1328 -0.1243
 7928SOL    HW235247   2.110   0.584   8.601  1.8729 -3.7952  1.8477
 7929SOL     OW35248   2.041   1.999   2.508 -0.1269 -0.2478 -0.2545
 7929SOL    HW135249   1.992   2.005   2.590 -0.1780  0.8693 -0.3558
 7929SOL    HW235250   2.130   2.018   2.539  0.8103  0.0950 -3.1336
 7930SOL     OW35251   1.466   1.598   0.278 -0.0169  0.0481  0.1820
 7930SOL    HW135252   1.433   1.565   0.362  0.4880 -0.3532  0.2242
 7930SOL    HW235253   1.558   1.590   0.303  0.1676  0.0313 -0.4837
 7931SOL     OW35254   0.566   1.789  13.423 -0.4123  0.1776  0.1006
 7931SOL    HW135255   0.506   1.734  13.374 -1.2655  1.2909 -0.0935
 7931SOL    HW235256   0.636   1.728  13.447  2.4101  2.5624 -2.0520
 7932SOL     OW35257   1.271   3.039  12.588 -0.2023 -0.1405  0.2767
 7932SOL    HW135258   1.340   2.973  12.593  1.5167  1.7919  2.2648
 7932SOL    HW235259   1.319   3.092  12.525  1.8686 -1.1432  1.0221
 7933SOL     OW35260   2.765   4.441   6.390  0.7553 -0.8201  0.0724
 7933SOL    HW135261   2.787   4.411   6.302  1.0554 -0.4595  0.0225
 7933SOL    HW235262   2.710   4.515   6.368  1.8180  0.5463  1.9773
 7934SOL     OW35263   3.407   4.144  10.787  0.1146 -0.4987 -0.2381
 7934SOL    HW135264   3.480   4.197  10.820  1.7229 -2.2626 -1.0019
 7934SOL    HW235265   3.376   4.110  10.872 -0.7690  2.8041  0.7625
 7935SOL     OW35266   0.500   3.236   2.149  0.1192  0.6682 -0.1187
 7935SOL    HW135267   0.457   3.304   2.202 -0.8115  0.2147 -0.2833
 7935SOL    HW235268   0.584   3.278   2.130  0.0086  0.7690 -0.3948
 7936SOL     OW35269   3.723   2.860  16.913  0.1156  0.1650  0.0017
 7936SOL    HW135270   3.662   2.787  16.925 -0.1934  0.7189  1.7214
 7936SOL    HW235271   3.731   2.872  16.818 -0.9151 -1.6107 -0.3168
 7937SOL     OW35272   0.438   1.955   6.905 -0.2904 -0.0375 -0.4980
 7937SOL    HW135273   0.512   1.937   6.963 -0.1603 -3.3137 -1.6775
 7937SOL    HW235274   0.482   1.989   6.827  0.2449  0.2214 -0.0854
 7938SOL     OW35275   1.867   1.976   1.257  0.3725 -0.0967  0.0971
 7938SOL    HW135276   1.780   2.007   1.230  0.8137  0.9320 -0.1342
 7938SOL    HW235277   1.929   2.049   1.249  0.2967  0.0230  0.6506
 7939SOL     OW35278   0.080   2.507   3.600  0.1674  0.0003  0.0941
 7939SOL    HW135279   0.031   2.565   3.542  4.1051  1.2698 -1.9583
 7939SOL    HW235280   0.093   2.573   3.669  2.0859  0.4511 -0.6968
 7940SOL     OW35281   0.242   2.515  13.136  0.2584 -0.3263  0.2544
 7940SOL    HW135282   0.268   2.468  13.215  1.7276 -0.0670 -0.0891
 7940SOL    HW235283   0.217   2.438  13.086 -1.4541  1.0927 -1.0735
 7941SOL     OW35284   2.013   2.249   2.894 -0.5505 -0.5263 -0.5106
 7941SOL    HW135285   1.974   2.220   2.977 -1.6856 -3.2785 -2.0107
 7941SOL    HW235286   2.103   2.228   2.920 -0.4499  1.5570  0.9057
 7942SOL     OW35287   0.330   0.605   5.720  0.3786  0.6625  0.3274
 7942SOL    HW135288   0.270   0.625   5.648  1.1307  2.0521  0.0923
 7942SOL    HW235289   0.329   0.510   5.712 -0.3037  0.6648  0.3450
 7943SOL     OW35290   1.993   2.753  11.276  0.3140  0.0565 -0.8762
 7943SOL    HW135291   2.000   2.663  11.307 -0.2881  0.4424  0.3603
 7943SOL    HW235292   1.902   2.765  11.249  0.6193  0.7593 -1.5733
 7944SOL     OW35293   0.548   0.351   8.233  0.2530  0.2950 -0.5201
 7944SOL    HW135294   0.620   0.293   8.207  0.3163  1.1528 -2.2150
 7944SOL    HW235295   0.519   0.300   8.309 -2.2661  0.8091 -1.1403
 7945SOL     OW35296   3.863   4.103   5.542  0.4768  0.4899  0.1635
 7945SOL    HW135297   3.933   4.038   5.535 -0.0490 -0.2951  2.0629
 7945SOL    HW235298   3.843   4.088   5.635  0.5693  0.9910  0.2610
 7946SOL     OW35299   0.256   1.833   3.365  0.6717  0.0712  0.2110
 7946SOL    HW135300   0.187   1.841   3.299 -0.2643  0.0717  1.1949
 7946SOL    HW235301   0.229   1.898   3.429  0.3928  0.2215 -0.0578
 7947SOL     OW35302   3.809   0.358   1.883  0.2633 -0.1313  0.1860
 7947SOL    HW135303   3.717   0.336   1.899  0.0045  0.5347 -0.4298
 7947SOL    HW235304   3.826   0.341   1.791  1.1246  0.4624  0.2405
 7948SOL     OW35305   1.849   1.987   7.282 -0.0524  0.1289  0.5171
 7948SOL    HW135306   1.904   2.014   7.356 -0.2539 -0.5083  0.8927
 7948SOL    HW235307   1.904   2.038   7.223  0.8102 -1.6099 -0.1862
 7949SOL     OW35308   2.559   3.312   3.375 -0.1704  0.2035  0.0483
 7949SOL    HW135309   2.638   3.257   3.374 -0.3576 -0.0546 -0.4219
 7949SOL    HW235310   2.533   3.285   3.463  0.4931  1.3486  0.5952
 7950SOL     OW35311   3.728   1.011   9.408 -0.3525 -0.4060 -0.0009
 7950SOL    HW135312   3.764   0.972   9.487 -1.4479 -0.5022  0.4516
 7950SOL    HW235313   3.723   1.103   9.432  0.0414  0.1554 -2.0412
 7951SOL     OW35314   4.688   1.971   8.134  0.2631 -0.2308 -0.6479
 7951SOL    HW135315   0.039   2.015   8.174 -1.9066  1.5676  1.4639
 7951SOL    HW235316   4.678   1.899   8.197 -2.3118  0.9776  0.3277
 7952SOL     OW35317   0.044   1.840   8.807 -0.7099  0.3937 -0.4059
 7952SOL    HW135318   0.104   1.890   8.752 -0.6905  2.5439  1.5790
 7952SOL    HW235319   0.044   1.892   8.887 -1.1654 -2.3475  1.3400
 7953SOL     OW35320   1.309   0.936   7.478 -0.0222  0.2252 -0.4832
 7953SOL    HW135321   1.362   0.991   7.536  0.6351  0.2076 -1.0644
 7953SOL    HW235322   1.347   0.848   7.484 -0.7658 -0.1367 -1.0468
 7954SOL     OW35323   2.508   4.593   8.476 -0.2916 -0.0389 -0.4054
 7954SOL    HW135324   2.473   4.674   8.514 -2.1077 -0.7122 -0.6720
 7954SOL    HW235325   2.560   4.565   8.551  1.3858 -1.1390 -1.9742
 7955SOL     OW35326   3.230   0.049   8.929 -0.1463  0.3223  0.7906
 7955SOL    HW135327   3.194   0.127   8.888 -0.0256 -0.8354 -1.5196
 7955SOL    HW235328   3.321   0.077   8.937 -0.1259  0.4530  0.0733
 7956SOL     OW35329   0.489   0.883  14.511 -0.3660 -0.4390 -0.2096
 7956SOL    HW135330   0.402   0.923  14.510 -0.3753 -0.3822  1.6572
 7956SOL    HW235331   0.468   0.791  14.531 -1.5363 -0.6724 -2.4887
 7957SOL     OW35332   3.297   1.914   7.146  0.4592 -0.2830 -0.3218
 7957SOL    HW135333   3.331   1.841   7.094 -1.1377  0.5611 -2.5434
 7957SOL    HW235334   3.364   1.971   7.110 -0.4566  1.2559  0.3978
 7958SOL     OW35335   1.457   0.298   8.528  0.4520  0.2576  0.4053
 7958SOL    HW135336   1.421   0.361   8.466 -1.2348 -1.1570 -0.0461
 7958SOL    HW235337   1.471   0.351   8.607  2.4583 -1.9983  1.5619
 7959SOL     OW35338   4.383   3.332   1.021 -0.3904  0.0575 -0.5403
 7959SOL    HW135339   4.355   3.340   1.112 -1.6823  1.0913 -1.0398
 7959SOL    HW235340   4.329   3.255   0.999  0.5721 -1.3875  2.1437
 7960SOL     OW35341   2.470   0.937   8.584 -0.2500  0.5477  0.0064
 7960SOL    HW135342   2.481   1.016   8.636  0.9500  1.0585 -1.0210
 7960SOL    HW235343   2.554   0.934   8.539 -1.1309  3.0200 -1.8080
 7961SOL     OW35344   2.632   4.554   2.810  0.3759  0.3177  0.3360
 7961SOL    HW135345   2.544   4.587   2.827  0.2191 -0.3911  0.8775
 7961SOL    HW235346   2.689   4.615   2.856  1.8473 -0.9227  0.1576
 7962SOL     OW35347   3.283   3.354   3.373  0.0138 -0.0439  0.3338
 7962SOL    HW135348   3.232   3.277   3.348 -1.9327  1.3544  0.0630
 7962SOL    HW235349   3.255   3.359   3.464 -1.3401 -1.2265 -0.0187
 7963SOL     OW35350   2.208   1.700  15.163 -0.0358  0.7857  0.6250
 7963SOL    HW135351   2.303   1.711  15.165  0.1879 -0.7806 -2.1265
 7963SOL    HW235352   2.202   1.632  15.231  0.1347  1.3112  1.1686
 7964SOL     OW35353   0.556   2.517   3.209 -0.7484  0.1549 -0.8554
 7964SOL    HW135354   0.561   2.434   3.163 -1.4779  0.8302 -2.1680
 7964SOL    HW235355   0.550   2.483   3.298 -0.7804 -0.5768 -1.1424
 7965SOL     OW35356   4.664   1.439   3.843 -0.2289  0.4530 -0.2135
 7965SOL    HW135357   4.632   1.358   3.803  0.6739  0.1772 -0.3675
 7965SOL    HW235358   4.624   1.420   3.928  0.2691 -0.4072 -0.1739
 7966SOL     OW35359   2.616   4.209   6.387  0.1427  0.5716  0.0711
 7966SOL    HW135360   2.607   4.304   6.377 -0.6401  0.4757 -0.1485
 7966SOL    HW235361   2.542   4.180   6.334 -0.1204 -2.0236  1.8908
 7967SOL     OW35362   1.180   3.533   2.119  0.1018  0.1163 -0.1102
 7967SOL    HW135363   1.135   3.497   2.196  0.4511  0.1268  0.1000
 7967SOL    HW235364   1.229   3.457   2.089  0.1883  0.7747 -1.6266
 7968SOL     OW35365   1.253   2.156   4.704 -0.7184 -0.3187  0.1447
 7968SOL    HW135366   1.228   2.125   4.617 -0.2716 -1.4551  0.4258
 7968SOL    HW235367   1.293   2.238   4.677 -0.6795 -0.8586 -1.4073
 7969SOL     OW35368   0.061   2.732   8.019 -0.2858  0.0451  0.4086
 7969SOL    HW135369   0.001   2.801   7.991 -2.9088 -3.0246 -1.5320
 7969SOL    HW235370   0.047   2.652   7.968 -1.3591  0.2802  0.3417
 7970SOL     OW35371   2.702   0.739   8.774  0.4639 -0.4825 -0.0178
 7970SOL    HW135372   2.762   0.757   8.847  0.5952  0.5043 -0.3717
 7970SOL    HW235373   2.761   0.704   8.707  1.4260 -0.4434  0.7997
 7971SOL     OW35374   0.401   3.811  17.043  0.3366  0.0699 -0.1528
 7971SOL    HW135375   0.492   3.804  17.071 -0.3372 -2.1995  1.4176
 7971SOL    HW235376   0.362   3.805  17.130 -0.2112 -2.3592 -0.5859
 7972SOL     OW35377   1.024   0.699   5.576  0.4524  0.0579  0.0978
 7972SOL    HW135378   1.041   0.769   5.639  1.6419 -0.2631  0.1289
 7972SOL    HW235379   1.096   0.643   5.603 -2.5886 -3.6880  0.4493
 7973SOL     OW35380   0.012   2.390   0.665  0.5395 -0.3059  0.5444
 7973SOL    HW135381   0.056   2.475   0.666  0.6220 -0.3416 -0.0830
 7973SOL    HW235382   4.708   2.381   0.574 -0.6313  1.6132  0.7007
 7974SOL     OW35383   3.736   0.174   2.401  0.4755  0.1100 -0.1100
 7974SOL    HW135384   3.782   0.256   2.381  0.7968 -0.5423 -2.0155
 7974SOL    HW235385   3.778   0.158   2.486 -0.2971  1.2903  0.5087
 7975SOL     OW35386   1.214   4.378   2.590  0.4372 -0.1579  0.1581
 7975SOL    HW135387   1.190   4.418   2.506 -1.4978 -2.4667 -0.3899
 7975SOL    HW235388   1.303   4.412   2.591  1.1910 -2.0884 -1.1648
 7976SOL     OW35389   1.686   2.658   2.800  0.0715  0.1371 -0.4441
 7976SOL    HW135390   1.663   2.593   2.734 -2.6863  0.1305  0.5465
 7976SOL    HW235391   1.600   2.699   2.813 -0.2210 -0.9504  0.9191
 7977SOL     OW35392   0.369   3.248  11.509 -0.0586 -0.4316 -0.5630
 7977SOL    HW135393   0.384   3.290  11.593 -0.2408 -1.5411  0.0243
 7977SOL    HW235394   0.445   3.273  11.457  0.3089  0.3113  0.3426
 7978SOL     OW35395   0.839   1.153   0.337  0.3343  0.4046 -0.3362
 7978SOL    HW135396   0.826   1.248   0.337  1.0698  0.5150  2.4998
 7978SOL    HW235397   0.933   1.136   0.337 -0.1289 -2.1060 -0.1315
 7979SOL     OW35398   1.467   4.169   5.467  0.4858 -0.3774 -0.1737
 7979SOL    HW135399   1.378   4.186   5.434  0.6882 -1.2704 -1.1837
 7979SOL    HW235400   1.526   4.189   5.394 -1.0897 -0.6775 -1.5393
 7980SOL     OW35401   3.780   0.275  17.291 -0.8732 -0.4286  0.3361
 7980SOL    HW135402   3.774   0.328  17.370  0.4540  0.3640 -0.0907
 7980SOL    HW235403   3.707   0.313  17.243 -1.0835  0.6964  1.5580
 7981SOL     OW35404   4.194   3.241   7.821  0.8482  0.0967 -0.0771
 7981SOL    HW135405   4.225   3.318   7.773 -0.2923  1.3060  1.1301
 7981SOL    HW235406   4.099   3.244   7.809  0.7674  0.8583  0.7310
 7982SOL     OW35407   1.788   0.592   3.740 -0.6827  0.5196  0.0337
 7982SOL    HW135408   1.738   0.516   3.770  0.6004 -0.5600 -0.5914
 7982SOL    HW235409   1.759   0.585   3.649 -0.9243  2.4347 -0.0396
 7983SOL     OW35410   0.133   3.403   7.963  0.4407  0.6380  0.8026
 7983SOL    HW135411   0.211   3.348   7.959 -0.9349 -1.2485 -0.2254
 7983SOL    HW235412   0.157   3.449   7.882 -1.3182  4.1983  2.3085
 7984SOL     OW35413   1.784   1.808   5.000  0.2130 -0.0526 -0.4222
 7984SOL    HW135414   1.700   1.838   4.963 -1.0364 -1.4493  1.2876
 7984SOL    HW235415   1.771   1.731   5.054  1.3679  0.3639  0.4493
 7985SOL     OW35416   2.842   1.701   2.462 -0.7076 -0.3112  0.2070
 7985SOL    HW135417   2.784   1.777   2.467 -1.5914 -0.9002 -1.0372
 7985SOL    HW235418   2.780   1.633   2.434 -0.1929 -1.2829  1.4322
 7986SOL     OW35419   3.809   3.982  11.970 -0.2799  0.2350  0.0715
 7986SOL    HW135420   3.827   4.056  12.029 -0.0747  1.2722 -1.2814
 7986SOL    HW235421   3.752   4.028  11.908 -3.3260 -2.0928  1.1943
 7987SOL     OW35422   2.458   4.180   3.124  0.1279 -1.0142 -0.3950
 7987SOL    HW135423   2.372   4.179   3.083 -0.0060 -1.7357 -0.0931
 7987SOL    HW235424   2.453   4.089   3.153  0.4836 -0.7182  0.6008
 7988SOL     OW35425   3.123   2.265   7.223  0.4921 -0.0304  0.2784
 7988SOL    HW135426   3.138   2.280   7.316  3.1344 -0.2201 -0.1135
 7988SOL    HW235427   3.210   2.286   7.186  0.8799 -2.2625 -0.1030
 7989SOL     OW35428   0.855   1.096   4.694  0.1608  0.0888  0.2843
 7989SOL    HW135429   0.911   1.113   4.769  2.3032 -1.2972 -1.0215
 7989SOL    HW235430   0.878   1.009   4.662  2.7848  1.1123 -0.5553
 7990SOL     OW35431   0.291   0.784   1.904 -0.3074  0.0236 -0.4053
 7990SOL    HW135432   0.300   0.830   1.821  1.1913 -0.7482 -0.6679
 7990SOL    HW235433   0.309   0.695   1.877  0.8007  0.1123  0.0208
 7991SOL     OW35434   1.038   1.933   6.395  0.3669  0.2796  0.2813
 7991SOL    HW135435   1.017   1.851   6.441  0.7618 -0.9472 -1.7551
 7991SOL    HW235436   1.052   1.988   6.472  2.9333  0.6748 -0.4884
 7992SOL     OW35437   4.154   3.441   9.096 -0.4866 -0.5263  0.0505
 7992SOL    HW135438   4.149   3.519   9.151  1.6454 -0.9426  0.8482
 7992SOL    HW235439   4.120   3.372   9.154 -0.9928 -1.1467 -0.9927
 7993SOL     OW35440   2.204   2.874  17.473  0.2085 -0.6890  0.0015
 7993SOL    HW135441   2.239   2.807  17.414  1.4799  0.6237 -0.7369
 7993SOL    HW235442   2.175   2.816  17.543  1.5739 -0.9298  0.3706
 7994SOL     OW35443   3.641   0.639  14.860 -0.8005 -0.1272  0.0031
 7994SOL    HW135444   3.662   0.660  14.951  0.1819 -0.7045 -0.0927
 7994SOL    HW235445   3.583   0.709  14.831  1.6675  1.4641 -0.9980
 7995SOL     OW35446   3.140   0.165   9.259 -0.1666 -0.8220 -0.0680
 7995SOL    HW135447   3.100   0.247   9.289  1.3474 -0.3459  0.6841
 7995SOL    HW235448   3.213   0.191   9.203  0.3306  0.1063  1.0056
 7996SOL     OW35449   3.287   1.122   6.251  0.1543  0.7233  0.7519
 7996SOL    HW135450   3.350   1.177   6.204  1.2430  0.4420  1.8798
 7996SOL    HW235451   3.276   1.182   6.324 -0.9122 -0.3773  1.4921
 7997SOL     OW35452   0.326   2.944  12.314 -0.1165  0.1335  0.1007
 7997SOL    HW135453   0.396   3.004  12.341 -0.7897  1.1649 -0.4693
 7997SOL    HW235454   0.370   2.872  12.268 -1.6433 -1.2710  0.8030
 7998SOL     OW35455   0.910   3.999  11.876 -0.1878 -0.4349  0.3814
 7998SOL    HW135456   0.954   3.927  11.921  0.6734 -1.8594 -2.7432
 7998SOL    HW235457   0.850   3.962  11.811 -0.0769 -0.6388  0.3955
 7999SOL     OW35458   0.342   1.554   4.817 -0.0841 -0.5628 -0.6909
 7999SOL    HW135459   0.259   1.574   4.860  1.1060 -2.2006  2.3169
 7999SOL    HW235460   0.313   1.550   4.725  0.2341 -0.7811 -0.7819
 8000SOL     OW35461   3.156   4.364   6.775 -0.4050 -0.0844 -0.5222
 8000SOL    HW135462   3.095   4.435   6.797  0.4586  0.6467 -0.4763
 8000SOL    HW235463   3.238   4.412   6.786 -1.3056  1.0831  1.0700
 8001SOL     OW35464   2.249   1.477   4.873 -0.1926  0.3128 -0.4164
 8001SOL    HW135465   2.219   1.518   4.792 -1.2727  0.0184 -0.1660
 8001SOL    HW235466   2.167   1.443   4.908  0.8357  0.3629  1.9982
 8002SOL     OW35467   2.753   3.556   0.452  0.4323  0.0477  0.3699
 8002SOL    HW135468   2.720   3.468   0.432 -0.4919 -0.1440  2.7384
 8002SOL    HW235469   2.847   3.544   0.442  0.6916  0.7598  1.9643
 8003SOL     OW35470   2.018   0.296  12.026  0.5838  0.3325  0.1481
 8003SOL    HW135471   2.061   0.256  11.951 -1.3677 -0.1937 -0.7113
 8003SOL    HW235472   2.080   0.264  12.091  1.3078 -0.8829 -1.1380
 8004SOL     OW35473   3.497   1.316   8.083 -0.1168  0.0342  0.1840
 8004SOL    HW135474   3.502   1.227   8.049 -1.9062  0.1592 -0.4001
 8004SOL    HW235475   3.417   1.311   8.136 -0.8936 -0.5080 -1.0550
 8005SOL     OW35476   4.212   4.144   7.615  0.8572 -0.1321 -0.0455
 8005SOL    HW135477   4.134   4.108   7.657 -0.5638  0.5588 -2.0434
 8005SOL    HW235478   4.264   4.064   7.621  0.3503 -0.3423  1.4763
 8006SOL     OW35479   0.150   0.601  17.082  0.1147  0.2155  0.5771
 8006SOL    HW135480   0.217   0.660  17.118 -1.2083  1.4692  0.9776
 8006SOL    HW235481   0.133   0.637  16.996 -0.5423  0.6059  0.8701
 8007SOL     OW35482   3.393   3.569  10.143 -0.2073 -0.6067 -0.3604
 8007SOL    HW135483   3.335   3.645  10.142  0.3113 -0.1294  6.1927
 8007SOL    HW235484   3.382   3.552  10.050 -0.5489 -2.6729  0.0365
 8008SOL     OW35485   1.007   1.409  13.758  0.0036 -0.1369 -0.1048
 8008SOL    HW135486   0.951   1.457  13.697  0.7110 -1.5656 -1.8869
 8008SOL    HW235487   0.960   1.326  13.757 -0.5888  0.1996 -0.4747
 8009SOL     OW35488   3.831   1.583   4.237 -0.1029  0.1317 -0.3640
 8009SOL    HW135489   3.909   1.637   4.223  0.6499 -0.9896 -0.4735
 8009SOL    HW235490   3.818   1.564   4.144  0.9246 -2.7910  0.0909
 8010SOL     OW35491   0.286   3.170   1.646  0.3549  0.1901 -0.1873
 8010SOL    HW135492   0.288   3.212   1.732 -0.6632 -1.7564  0.7758
 8010SOL    HW235493   0.196   3.138   1.640  0.2441  0.4076  0.3396
 8011SOL     OW35494   3.204   2.039  10.225 -0.2722  0.1280 -0.2237
 8011SOL    HW135495   3.271   2.075  10.282 -2.4541 -1.4269  3.3606
 8011SOL    HW235496   3.159   2.118  10.195  0.1376  1.0015  1.4726
 8012SOL     OW35497   1.734   1.109   8.612  0.3886 -0.6831 -0.3116
 8012SOL    HW135498   1.812   1.102   8.558  1.6076  0.0203  1.3872
 8012SOL    HW235499   1.758   1.068   8.695  0.7173 -0.7670 -0.4501
 8013SOL     OW35500   1.482   3.773  16.725  0.7307 -0.3132  0.0385
 8013SOL    HW135501   1.481   3.861  16.764 -0.4277  0.1792 -1.1351
 8013SOL    HW235502   1.467   3.714  16.799 -0.3950 -3.3813 -2.6700
 8014SOL     OW35503   3.261   0.014   8.394 -0.1125  0.3987 -0.9484
 8014SOL    HW135504   3.257   0.055   8.481  0.9327  0.4880 -0.9361
 8014SOL    HW235505   3.252   4.647   8.423 -0.7241  1.1427  1.2186
 8015SOL     OW35506   4.712   3.421   4.193 -0.2900 -0.7382  0.2809
 8015SOL    HW135507   4.650   3.348   4.186 -1.4364  0.2315  0.3790
 8015SOL    HW235508   0.056   3.403   4.128  0.3063  3.8970 -0.3788
 8016SOL     OW35509   3.671   1.490   8.178  0.2132  0.7005 -0.3654
 8016SOL    HW135510   3.604   1.425   8.154  0.9993 -1.2128  2.5419
 8016SOL    HW235511   3.691   1.455   8.265 -1.1513  4.7336  1.5552
 8017SOL     OW35512   1.869   3.363   5.198  0.4252 -0.5797  0.1913
 8017SOL    HW135513   1.839   3.272   5.205  0.0886 -0.4481  0.4557
 8017SOL    HW235514   1.912   3.348   5.113 -1.4504  1.3167 -1.1055
 8018SOL     OW35515   1.769   1.019   7.473 -0.1875  0.2640  0.4076
 8018SOL    HW135516   1.861   1.043   7.489 -0.3690  1.7612 -0.7293
 8018SOL    HW235517   1.723   1.043   7.553 -0.2254 -0.6556  0.6527
 8019SOL     OW35518   1.112   0.953  14.784 -0.2126  0.0504  0.2791
 8019SOL    HW135519   1.029   0.956  14.737 -0.4533 -0.7003  0.6522
 8019SOL    HW235520   1.111   1.045  14.809 -1.0754 -0.5292  2.4175
 8020SOL     OW35521   3.281   1.561   3.071  0.4442  0.5597  0.1643
 8020SOL    HW135522   3.217   1.579   3.002  0.7708  1.0426 -0.0149
 8020SOL    HW235523   3.278   1.465   3.076 -1.2315  0.6594  1.1550
 8021SOL     OW35524   2.351   2.143  11.268 -0.0461  0.1754 -0.1993
 8021SOL    HW135525   2.412   2.209  11.234  0.6294 -0.6260 -0.5353
 8021SOL    HW235526   2.403   2.110  11.342  0.1894 -2.3857 -1.5263
 8022SOL     OW35527   0.995   3.392  14.588 -0.0973  0.3626 -0.3802
 8022SOL    HW135528   1.051   3.321  14.620 -1.3483  1.0293  3.3305
 8022SOL    HW235529   1.057   3.457  14.555 -0.5224  0.7553 -0.4037
 8023SOL     OW35530   0.972   4.142  15.689  0.0759 -0.2761 -0.3160
 8023SOL    HW135531   1.022   4.105  15.762  0.8180 -0.5627 -0.9608
 8023SOL    HW235532   1.018   4.220  15.657  0.2299  0.3253  1.4185
 8024SOL     OW35533   4.396   4.590  11.034 -0.2462  0.1376  0.6710
 8024SOL    HW135534   4.443   4.514  11.071 -0.0317 -1.3562 -2.6530
 8024SOL    HW235535   4.396   4.565  10.942  1.4253  1.9553  0.1721
 8025SOL     OW35536   1.090   0.171   7.960 -0.3228  0.1247  0.6183
 8025SOL    HW135537   1.074   0.093   7.907 -1.1745 -1.2597  2.9128
 8025SOL    HW235538   1.158   0.220   7.913 -0.0925  2.3900  3.3073
 8026SOL     OW35539   3.604   0.566  16.591  0.1831 -0.0422 -0.6608
 8026SOL    HW135540   3.548   0.635  16.626  0.4764 -0.3965  0.5088
 8026SOL    HW235541   3.680   0.620  16.570  0.0997  1.0301  1.8616
 8027SOL     OW35542   3.525   2.413   2.323  0.2807 -0.4826 -0.1310
 8027SOL    HW135543   3.488   2.489   2.278  1.7027 -0.9283 -2.0525
 8027SOL    HW235544   3.493   2.338   2.272  0.0827  0.1097 -0.8757
 8028SOL     OW35545   2.529   0.840   2.650  0.0860  0.1321 -0.2018
 8028SOL    HW135546   2.535   0.807   2.740 -2.4222 -2.5375 -1.0194
 8028SOL    HW235547   2.477   0.768   2.614  0.3242  0.9381 -2.1204
 8029SOL     OW35548   1.463   2.574   9.738  0.2624  0.4540 -0.1628
 8029SOL    HW135549   1.557   2.580   9.756  0.4362  0.8578 -1.1915
 8029SOL    HW235550   1.427   2.606   9.821  1.0695  0.2624  0.2567
 8030SOL     OW35551   0.321   4.278  11.170  0.3118  0.4027  0.7070
 8030SOL    HW135552   0.297   4.213  11.104 -1.3117  0.1985  1.4939
 8030SOL    HW235553   0.384   4.224  11.219  0.9549  0.1951 -0.3553
 8031SOL     OW35554   3.695   4.172   8.334  0.2838  0.3383  0.1687
 8031SOL    HW135555   3.697   4.155   8.239 -0.0915  2.2033 -0.1754
 8031SOL    HW235556   3.767   4.119   8.367  0.0705  0.0815  0.2164
 8032SOL     OW35557   2.657   2.908  10.575 -0.3873  0.5675  0.1381
 8032SOL    HW135558   2.725   2.853  10.613 -0.2739  1.0409  0.6257
 8032SOL    HW235559   2.664   2.885  10.482  2.2803  1.8043  0.0268
 8033SOL     OW35560   0.207   1.325   6.883  0.4074 -0.2862  0.8100
 8033SOL    HW135561   0.243   1.413   6.874 -1.7918  0.5606  0.3288
 8033SOL    HW235562   0.158   1.323   6.801 -2.3737  1.5162  2.4331
 8034SOL     OW35563   4.126   1.179   7.756  0.3779  0.0783 -0.1351
 8034SOL    HW135564   4.171   1.099   7.729  1.2529  1.2063 -1.9920
 8034SOL    HW235565   4.032   1.164   7.754  0.2583  0.6627  1.1034
 8035SOL     OW35566   3.140   0.481   5.628  0.0142  0.0516  0.4953
 8035SOL    HW135567   3.217   0.499   5.574  1.6794 -1.0505  2.5251
 8035SOL    HW235568   3.070   0.519   5.574 -1.2280 -1.0294  1.3658
 8036SOL     OW35569   1.525   2.615   4.883 -0.4178  0.0313  0.6686
 8036SOL    HW135570   1.484   2.553   4.943 -2.8306  0.8272 -0.1312
 8036SOL    HW235571   1.617   2.598   4.902 -0.5548 -1.7664 -0.2912
 8037SOL     OW35572   2.926   2.078   7.933 -0.6014  0.2199 -0.2590
 8037SOL    HW135573   2.975   2.020   7.875 -1.1280 -2.0842  1.6122
 8037SOL    HW235574   2.888   2.145   7.876 -0.3971  0.3010 -0.3005
 8038SOL     OW35575   1.071   2.724   3.302 -0.4842  0.1200 -0.0203
 8038SOL    HW135576   0.985   2.691   3.274 -0.4304 -0.4338  0.4691
 8038SOL    HW235577   1.051   2.817   3.311 -0.0637  0.0333  1.7364
 8039SOL     OW35578   2.977   2.972   7.744 -0.3500 -0.1150  0.3596
 8039SOL    HW135579   2.971   2.877   7.750 -1.8343 -0.1464 -1.3841
 8039SOL    HW235580   2.978   2.999   7.836  0.2878 -0.2361  0.3868
 8040SOL     OW35581   0.517   2.700  13.896 -0.0293 -0.3301  0.1091
 8040SOL    HW135582   0.481   2.760  13.830  1.5297 -0.6630 -1.0565
 8040SOL    HW235583   0.561   2.758  13.957  1.9305  0.7753 -2.3813
 8041SOL     OW35584   1.308   1.704   6.489  0.1169 -0.5231 -0.1141
 8041SOL    HW135585   1.297   1.708   6.394 -1.5219 -0.0849  0.0944
 8041SOL    HW235586   1.220   1.734   6.512  0.5512  0.1371  0.6886
 8042SOL     OW35587   4.041   2.153   4.913 -0.3113 -0.0268 -1.0223
 8042SOL    HW135588   4.136   2.155   4.901  0.0127 -1.5769  1.3459
 8042SOL    HW235589   4.029   2.062   4.885  0.5177 -0.1610 -0.9460
 8043SOL     OW35590   4.575   2.871   9.213  0.1508  0.2279  0.2900
 8043SOL    HW135591   4.654   2.923   9.210  1.1959 -1.3832 -0.1667
 8043SOL    HW235592   4.581   2.825   9.129  1.0445  2.3158 -0.7718
 8044SOL     OW35593   3.912   1.584   1.964  0.2787  0.2472  0.6010
 8044SOL    HW135594   3.829   1.606   1.924  0.3136  0.2533  0.5325
 8044SOL    HW235595   3.909   1.489   1.965  3.8793  0.1425  1.9126
 8045SOL     OW35596   0.992   0.140   5.349 -0.1836 -0.6139  0.4745
 8045SOL    HW135597   1.077   0.143   5.392  0.2880  1.4220 -0.5590
 8045SOL    HW235598   1.020   0.143   5.257  0.2415  1.4080  0.6627
 8046SOL     OW35599   3.720   2.426  13.750  0.2512 -0.0396  0.0224
 8046SOL    HW135600   3.648   2.433  13.687  0.6845 -0.3444 -0.5108
 8046SOL    HW235601   3.736   2.515  13.780  2.8262  0.0051 -1.4627
 8047SOL     OW35602   1.789   0.196   8.851  0.1041 -0.2257 -0.1755
 8047SOL    HW135603   1.742   0.135   8.794  1.5667 -2.6820  1.2708
 8047SOL    HW235604   1.717   0.224   8.907  0.5748 -0.0978  0.3623
 8048SOL     OW35605   2.183   0.236   1.257  0.7890 -0.0728  0.2181
 8048SOL    HW135606   2.259   0.200   1.303  0.3538 -0.9583  0.2295
 8048SOL    HW235607   2.132   0.262   1.334  1.6565 -0.6949  1.0049
 8049SOL     OW35608   2.674   1.316   6.361  0.1116 -0.3749  0.1002
 8049SOL    HW135609   2.754   1.281   6.400 -0.8305 -0.8585  1.6236
 8049SOL    HW235610   2.721   1.373   6.301 -2.4963  0.3316 -1.2748
 8050SOL     OW35611   0.854   4.479  17.053  0.4094 -0.1347  0.1693
 8050SOL    HW135612   0.919   4.508  16.989  0.8692  2.3309  1.7270
 8050SOL    HW235613   0.890   4.508  17.137 -0.7767  2.1852 -0.1382
 8051SOL     OW35614   0.967   0.737   3.065 -0.4638 -0.1917 -0.5976
 8051SOL    HW135615   1.009   0.653   3.084  3.5224  1.8936 -0.1812
 8051SOL    HW235616   0.993   0.757   2.975 -1.0534  0.8656 -0.5297
 8052SOL     OW35617   1.250   4.152  11.023  0.0589  0.0411  0.4256
 8052SOL    HW135618   1.211   4.239  11.033  0.4901  0.5106 -1.9474
 8052SOL    HW235619   1.188   4.109  11.081 -2.4774  1.9579 -0.8681
 8053SOL     OW35620   2.448   2.539   8.930 -0.3203  0.5940 -0.4880
 8053SOL    HW135621   2.390   2.572   8.861  0.9829 -0.9208 -2.3116
 8053SOL    HW235622   2.444   2.448   8.901  1.9298  0.7630 -1.3230
 8054SOL     OW35623   1.241   1.627   5.242  0.1584 -0.2365 -0.1694
 8054SOL    HW135624   1.275   1.538   5.240  0.6052 -0.0275 -1.5987
 8054SOL    HW235625   1.314   1.670   5.287 -0.7956  1.0522  0.1338
 8055SOL     OW35626   1.356   2.092   0.758  0.1061 -0.4585 -0.1456
 8055SOL    HW135627   1.351   2.172   0.811  2.8301 -1.2290  1.2750
 8055SOL    HW235628   1.264   2.073   0.741 -0.2048  0.2371  0.7207
 8056SOL     OW35629   2.540   2.560   1.701 -0.0810  0.1757  0.0675
 8056SOL    HW135630   2.611   2.620   1.677 -0.1177  0.2170  0.0627
 8056SOL    HW235631   2.586   2.507   1.766  1.3338 -0.0914 -1.1469
 8057SOL     OW35632   0.467   1.885  12.151  0.4244 -0.3531 -0.4213
 8057SOL    HW135633   0.484   1.845  12.065 -0.3693 -0.2192 -0.6392
 8057SOL    HW235634   0.447   1.974  12.122  1.3795 -0.3781 -1.1740
 8058SOL     OW35635   0.743   2.759  17.574 -0.0948 -0.2442 -0.2552
 8058SOL    HW135636   0.669   2.819  17.572  2.3737  2.7576 -1.1247
 8058SOL    HW235637   0.704   2.673  17.562 -0.1484  0.1156 -2.5556
 8059SOL     OW35638   2.536   4.484   5.033  0.5067 -0.4493  0.1309
 8059SOL    HW135639   2.458   4.452   5.078  0.6942  0.0120  0.7804
 8059SOL    HW235640   2.601   4.472   5.102  1.6801  1.4863 -0.6392
 8060SOL     OW35641   1.270   1.471   7.186  0.4333 -0.1737  0.4826
 8060SOL    HW135642   1.313   1.406   7.241 -1.4900 -2.1409 -0.3657
 8060SOL    HW235643   1.343   1.522   7.149  0.6626 -0.0672  1.0850
 8061SOL     OW35644   0.314   3.249  14.229 -0.2637  0.2057 -0.4165
 8061SOL    HW135645   0.233   3.292  14.202 -0.8660  0.3517  1.6357
 8061SOL    HW235646   0.380   3.275  14.164  0.8717 -1.1477  0.1963
 8062SOL     OW35647   0.929   3.885   8.673 -0.5084 -0.2212 -0.6776
 8062SOL    HW135648   0.855   3.931   8.713 -0.4957 -2.1302  1.5592
 8062SOL    HW235649   0.968   3.964   8.635  0.2995  0.3918  1.4484
 8063SOL     OW35650   3.169   3.990   4.106 -0.1511  0.5557 -0.2540
 8063SOL    HW135651   3.189   3.958   4.194 -0.9647 -0.6700 -0.5183
 8063SOL    HW235652   3.238   4.054   4.089  1.0349 -0.2217  1.6236
 8064SOL     OW35653   0.185   0.706   5.082 -0.2704  0.1705 -0.2522
 8064SOL    HW135654   0.211   0.716   5.174  1.6280 -0.8868 -0.6661
 8064SOL    HW235655   0.270   0.705   5.037 -0.8006  3.1817 -1.3022
 8065SOL     OW35656   3.242   2.473  17.649 -0.2240 -0.4412  0.0979
 8065SOL    HW135657   3.201   2.553  17.682  2.0568  1.1705 -0.9564
 8065SOL    HW235658   3.270   2.509  17.565  2.4784  1.3286  1.7395
 8066SOL     OW35659   3.923   3.330   8.749  0.0930 -0.4355 -0.4923
 8066SOL    HW135660   3.958   3.375   8.826 -1.6702 -1.1736  0.7367
 8066SOL    HW235661   3.933   3.237   8.766  1.0012 -0.0735  0.9273
 8067SOL     OW35662   0.928   4.043   2.257 -0.2294 -0.3549 -0.1606
 8067SOL    HW135663   0.997   3.980   2.279  1.9313  1.8464 -0.6529
 8067SOL    HW235664   0.856   4.012   2.313  1.2905 -0.7325  1.5901
 8068SOL     OW35665   0.873   1.514   5.523  0.8554 -0.9536 -0.0377
 8068SOL    HW135666   0.949   1.567   5.547 -0.0998 -0.6259  2.2956
 8068SOL    HW235667   0.837   1.561   5.448 -1.9153 -2.1813  0.5348
 8069SOL     OW35668   3.439   1.924   8.047 -0.1892  0.0432 -0.0193
 8069SOL    HW135669   3.475   1.864   8.112  1.2044 -0.6307 -1.4148
 8069SOL    HW235670   3.513   1.969   8.008  0.7293 -0.6459  0.9280
 8070SOL     OW35671   3.669   0.872   8.219  0.4522 -0.5570 -0.0849
 8070SOL    HW135672   3.580   0.865   8.254  0.6449  0.2602  0.5673
 8070SOL    HW235673   3.661   0.930   8.143  0.7195 -0.8748 -0.3562
 8071SOL     OW35674   1.106   2.141   4.483 -0.5414 -0.0688  0.0256
 8071SOL    HW135675   1.016   2.119   4.458 -0.0653 -1.0848 -0.7972
 8071SOL    HW235676   1.122   2.222   4.433  3.1414 -0.3100  0.8115
 8072SOL     OW35677   4.203   2.098   8.694 -0.0646  0.2044  0.0844
 8072SOL    HW135678   4.127   2.056   8.654  0.3859 -0.6341  0.1100
 8072SOL    HW235679   4.199   2.183   8.650 -1.6352 -0.4254 -0.9658
 8073SOL     OW35680   1.027   0.187   2.256 -0.6319  0.3680  0.0627
 8073SOL    HW135681   0.965   0.147   2.194 -0.6294  0.9445 -0.3160
 8073SOL    HW235682   1.079   0.109   2.274 -0.2736  0.2388 -1.5723
 8074SOL     OW35683   4.348   3.147   5.832 -0.8132 -0.3794 -0.3587
 8074SOL    HW135684   4.410   3.188   5.771 -1.3433 -0.2283 -0.7950
 8074SOL    HW235685   4.275   3.209   5.834 -0.6252 -0.1431 -0.9874
 8075SOL     OW35686   0.444   3.000   5.125  0.4386  0.6494 -0.1142
 8075SOL    HW135687   0.475   2.937   5.189  0.2907 -1.0990 -1.7440
 8075SOL    HW235688   0.428   2.945   5.048 -0.1692  0.5014  0.1193
 8076SOL     OW35689   1.639   3.758   2.379 -0.6137 -0.1900  0.1676
 8076SOL    HW135690   1.628   3.771   2.285 -0.8034  0.3123  0.2635
 8076SOL    HW235691   1.724   3.796   2.403  0.5417 -1.1183 -2.4896
 8077SOL     OW35692   1.973   3.107   3.436 -0.3718  0.0534  0.2325
 8077SOL    HW135693   1.974   3.074   3.347  0.6034  4.1303 -1.2946
 8077SOL    HW235694   1.884   3.142   3.434 -0.6012 -0.5909 -0.6861
 8078SOL     OW35695   0.140   2.090   5.778 -0.1656  0.0346  0.2959
 8078SOL    HW135696   0.121   2.156   5.711 -0.4253  1.7607  2.0823
 8078SOL    HW235697   0.087   2.107   5.856  1.2007  1.0057  1.0012
 8079SOL     OW35698   4.120   1.611   8.050 -0.3442  0.2747  0.1763
 8079SOL    HW135699   4.186   1.601   7.981  0.3176  0.0492  0.8409
 8079SOL    HW235700   4.132   1.695   8.093 -2.0693  0.1131  0.9722
 8080SOL     OW35701   3.918   0.748   1.180  0.3348 -0.2582  0.2062
 8080SOL    HW135702   4.003   0.774   1.216 -0.1117  1.1319  0.2295
 8080SOL    HW235703   3.953   0.722   1.095  0.0491 -0.3893  0.1310
 8081SOL     OW35704   4.281   0.333   5.704 -0.6073  0.5598  0.5999
 8081SOL    HW135705   4.347   0.401   5.697  0.3573 -0.2317  1.8737
 8081SOL    HW235706   4.331   0.256   5.677 -0.7384  0.9598 -0.7547
 8082SOL     OW35707   3.600   1.865  16.128 -0.3564 -0.0453  0.2023
 8082SOL    HW135708   3.549   1.943  16.149  0.4644  0.7955 -0.8722
 8082SOL    HW235709   3.675   1.870  16.187 -1.7567  1.3283  1.8316
 8083SOL     OW35710   1.859   4.130  13.394 -0.1923 -0.3361 -0.2910
 8083SOL    HW135711   1.941   4.175  13.374 -0.9990  1.1475 -0.2053
 8083SOL    HW235712   1.842   4.053  13.339 -0.6644  0.0249 -0.6499
 8084SOL     OW35713   4.243   4.428   5.665 -0.1124 -0.0861 -0.1846
 8084SOL    HW135714   4.198   4.437   5.581 -0.5185 -0.1123  0.0287
 8084SOL    HW235715   4.256   4.519   5.690 -2.1817  0.1991 -0.1272
 8085SOL     OW35716   4.023   3.228  13.636  0.1023 -0.7456 -0.1512
 8085SOL    HW135717   4.033   3.162  13.705  1.7640 -0.7396 -0.3880
 8085SOL    HW235718   4.106   3.274  13.649 -0.3858 -0.6425  2.7418
 8086SOL     OW35719   3.873   1.007   8.869  0.4260 -0.5143  0.1125
 8086SOL    HW135720   3.912   1.057   8.797  1.5501  0.2107  1.2104
 8086SOL    HW235721   3.798   1.062   8.893  0.0919 -0.6202 -0.7021
 8087SOL     OW35722   2.248   1.344   9.050 -0.0847 -0.3328  0.0707
 8087SOL    HW135723   2.311   1.393   9.103 -0.3525  0.2482 -0.1501
 8087SOL    HW235724   2.179   1.337   9.116  1.2990  0.6575  1.6393
 8088SOL     OW35725   4.016   3.489   4.061 -0.1149  0.0692 -0.0965
 8088SOL    HW135726   4.110   3.506   4.059  0.1472 -1.2356  0.9435
 8088SOL    HW235727   3.982   3.557   4.004 -0.6309  0.3972  0.6015
 8089SOL     OW35728   0.966   1.390   3.621 -0.1309  0.5175 -0.5365
 8089SOL    HW135729   0.932   1.417   3.536  3.2292  3.0069 -1.0665
 8089SOL    HW235730   0.903   1.433   3.680 -0.2512 -0.6160  0.1598
 8090SOL     OW35731   4.030   2.046   0.664  0.4520  0.0561  0.4120
 8090SOL    HW135732   4.107   1.997   0.691  1.4902  0.3921 -1.9701
 8090SOL    HW235733   4.030   2.027   0.570  0.2065  2.2972 -0.0475
 8091SOL     OW35734   4.291   3.193   5.136 -0.2971  0.4143  0.2317
 8091SOL    HW135735   4.377   3.196   5.094  0.0231  2.1898  1.0149
 8091SOL    HW235736   4.290   3.286   5.161  0.7749  0.6454 -0.5405
 8092SOL     OW35737   3.545   1.027   7.019  0.0934 -0.1634 -0.2352
 8092SOL    HW135738   3.556   1.077   6.938  0.1079  0.6358  0.2623
 8092SOL    HW235739   3.555   1.101   7.078 -0.5606  0.5898 -1.0837
 8093SOL     OW35740   4.278   1.138   3.193 -0.3288 -0.0876  0.5442
 8093SOL    HW135741   4.238   1.112   3.276  1.3610  2.7993  2.2789
 8093SOL    HW235742   4.291   1.059   3.142  1.4184  1.6317 -1.6470
 8094SOL     OW35743   1.333   0.179  15.163 -0.1310 -0.7435  0.4496
 8094SOL    HW135744   1.279   0.253  15.136  1.0544  0.7748  2.2546
 8094SOL    HW235745   1.296   0.107  15.112  2.3373 -0.1253 -2.2587
 8095SOL     OW35746   3.090   2.128   9.765  0.1935 -0.2729 -0.5332
 8095SOL    HW135747   3.165   2.079   9.799 -1.3416 -2.8682 -0.8890
 8095SOL    HW235748   3.019   2.068   9.790 -1.2699  0.7541 -2.2941
 8096SOL     OW35749   1.119   1.473   9.335  0.0829 -0.9634 -0.2351
 8096SOL    HW135750   1.060   1.547   9.351  0.7438 -0.4446 -0.2060
 8096SOL    HW235751   1.105   1.417   9.411  1.3095 -1.9336 -0.7177
 8097SOL     OW35752   4.462   2.700   4.330  0.1773 -0.2565 -0.2428
 8097SOL    HW135753   4.536   2.697   4.270  0.2086  1.9767 -0.3246
 8097SOL    HW235754   4.499   2.667   4.411 -0.0985 -0.4222 -0.1843
 8098SOL     OW35755   4.082   3.874  15.713 -0.1415  0.0516 -0.5486
 8098SOL    HW135756   4.014   3.817  15.751  0.6118 -1.3608 -1.3361
 8098SOL    HW235757   4.046   3.899  15.628  0.0150  1.0188 -0.3234
 8099SOL     OW35758   4.571   2.332   6.903  0.4505 -0.3869  0.2802
 8099SOL    HW135759   4.516   2.256   6.883  0.4724 -0.3249 -0.0095
 8099SOL    HW235760   4.596   2.354   6.813  0.3249 -4.1124 -0.6781
 8100SOL     OW35761   3.731   2.479   4.394 -0.2054  0.3002  0.1139
 8100SOL    HW135762   3.665   2.518   4.336  1.6798  2.4812 -0.5324
 8100SOL    HW235763   3.677   2.435   4.460 -3.0740  3.5456 -0.0480
 8101SOL     OW35764   3.674   2.434   8.383 -0.6854 -0.6921 -0.2288
 8101SOL    HW135765   3.676   2.434   8.479  0.9410  4.6606 -0.2867
 8101SOL    HW235766   3.715   2.349   8.367  0.3304 -0.1807 -0.3550
 8102SOL     OW35767   4.573   4.521   5.879 -0.2814  0.2407 -0.3645
 8102SOL    HW135768   4.616   4.518   5.794  0.4747 -0.7009  0.0477
 8102SOL    HW235769   4.547   4.613   5.881  0.7434  0.5008  2.1686
 8103SOL     OW35770   0.221   3.357   6.513 -0.1450  0.1038  0.0223
 8103SOL    HW135771   0.227   3.283   6.573  0.8033 -1.2950 -1.7768
 8103SOL    HW235772   0.136   3.344   6.471 -0.7366 -3.4234  2.3440
 8104SOL     OW35773   0.726   0.370   5.178  0.4644  0.2967  0.2497
 8104SOL    HW135774   0.702   0.347   5.267 -2.5598  2.7397  0.0663
 8104SOL    HW235775   0.754   0.284   5.149 -0.4779  0.4812 -1.2315
 8105SOL     OW35776   4.522   1.864   4.187  0.3185 -0.2857  0.1387
 8105SOL    HW135777   4.470   1.909   4.120 -0.8532  0.2107  1.4058
 8105SOL    HW235778   4.586   1.818   4.133 -0.7778  1.0701 -2.3423
 8106SOL     OW35779   3.074   0.182   4.056 -0.9998 -0.1360  0.4803
 8106SOL    HW135780   3.098   0.236   3.980  2.1910 -1.5295  0.4940
 8106SOL    HW235781   3.024   0.245   4.108  1.5509  2.3838 -0.1472
 8107SOL     OW35782   4.050   2.338   4.380  0.0407 -0.2127  0.1831
 8107SOL    HW135783   4.086   2.425   4.364  0.0340 -0.2353  0.0463
 8107SOL    HW235784   4.118   2.285   4.339 -1.0737 -0.2839 -1.5833
 8108SOL     OW35785   4.385   2.524   5.595  0.4525  0.1423  0.5807
 8108SOL    HW135786   4.340   2.581   5.532 -2.1554 -1.0158  1.4095
 8108SOL    HW235787   4.471   2.508   5.556 -0.6633 -2.8280 -0.6210
 8109SOL     OW35788   1.612   4.401   8.368  0.3920  0.0236 -0.9984
 8109SOL    HW135789   1.708   4.403   8.362  0.4453  1.0540  0.1036
 8109SOL    HW235790   1.596   4.315   8.330 -1.0909  0.0778 -0.4603
 8110SOL     OW35791   2.388   0.172   7.125  0.9425 -0.3990 -0.1337
 8110SOL    HW135792   2.345   0.211   7.201  1.2107  0.0848 -0.2287
 8110SOL    HW235793   2.372   0.239   7.058  1.7526  0.7122  0.7751
 8111SOL     OW35794   1.843   0.522   7.449  0.2933  0.0383  0.2729
 8111SOL    HW135795   1.936   0.505   7.437 -0.3537 -2.2631 -1.4354
 8111SOL    HW235796   1.819   0.513   7.357 -1.2624 -0.3612  0.7033
 8112SOL     OW35797   2.550   1.536   4.601  0.4281 -0.3538 -0.0942
 8112SOL    HW135798   2.582   1.581   4.679 -0.1235 -0.2784  0.0923
 8112SOL    HW235799   2.456   1.554   4.591  0.1883 -2.5722 -1.6620
 8113SOL     OW35800   0.410   1.742   7.390  0.4026  0.7414  0.3416
 8113SOL    HW135801   0.383   1.680   7.458  1.2800  1.7996  1.6481
 8113SOL    HW235802   0.341   1.742   7.324  1.1760  1.4482 -0.4730
 8114SOL     OW35803   3.165   0.427  17.602  0.2566  0.1341  0.0485
 8114SOL    HW135804   3.120   0.500  17.561  0.5204 -0.0125 -0.4975
 8114SOL    HW235805   3.216   0.398  17.527  0.6009 -0.1549  0.3896
 8115SOL     OW35806   2.587   3.685   3.896  0.0778 -0.0443  0.5388
 8115SOL    HW135807   2.531   3.738   3.839 -0.4616 -2.0399 -0.8137
 8115SOL    HW235808   2.557   3.597   3.874 -1.2026  0.6925 -0.7186
 8116SOL     OW35809   0.660   3.588   8.121  0.0194 -0.0328  0.5972
 8116SOL    HW135810   0.694   3.499   8.123  2.8876  1.0778  0.7806
 8116SOL    HW235811   0.587   3.579   8.183  0.2796  1.7751  1.1819
 8117SOL     OW35812   1.237   2.298   6.265  0.5980  0.5263  0.5126
 8117SOL    HW135813   1.272   2.264   6.347 -2.3840  0.2819  1.6867
 8117SOL    HW235814   1.289   2.378   6.259  0.7949  0.3394 -0.2990
 8118SOL     OW35815   2.324   4.223   4.096  0.2363 -0.2062 -0.3530
 8118SOL    HW135816   2.321   4.130   4.072  1.1579 -0.7161  1.5432
 8118SOL    HW235817   2.378   4.256   4.024  1.0019  0.0626  0.3527
 8119SOL     OW35818   0.935   2.536  10.832  0.1462  0.0990 -0.0293
 8119SOL    HW135819   0.975   2.620  10.855  1.0231  0.0831 -1.5624
 8119SOL    HW235820   1.000   2.473  10.866  0.0099  0.2107  0.4446
 8120SOL     OW35821   3.639   1.495   5.395  0.4968 -0.1014 -0.7122
 8120SOL    HW135822   3.613   1.403   5.392  0.0756 -0.0270  0.7032
 8120SOL    HW235823   3.588   1.531   5.322 -0.2796  1.2359  0.5035
 8121SOL     OW35824   0.011   2.280  12.459  0.1565 -0.1645  0.8939
 8121SOL    HW135825   0.054   2.256  12.542 -0.8353  2.3913  2.1365
 8121SOL    HW235826   4.704   2.369  12.473  3.3775  1.1742 -0.3717
 8122SOL     OW35827   1.860   1.156   3.764 -0.0287  0.1511  0.7737
 8122SOL    HW135828   1.877   1.249   3.754  0.8902  0.0375  1.3180
 8122SOL    HW235829   1.764   1.158   3.759  0.0224 -0.6098 -0.5122
 8123SOL     OW35830   0.471   1.012   4.525  0.3254  0.2489 -0.0637
 8123SOL    HW135831   0.547   1.048   4.569  1.1052 -1.8751  0.3474
 8123SOL    HW235832   0.508   0.961   4.453 -0.1995 -0.6218  0.2799
 8124SOL     OW35833   1.016   2.999   6.758 -0.3547 -0.1727 -0.0876
 8124SOL    HW135834   1.019   3.086   6.717  0.2894 -0.1759 -0.0530
 8124SOL    HW235835   1.090   3.002   6.819 -0.6817 -1.9695  0.3863
 8125SOL     OW35836   0.381   3.099   8.651  0.0840  0.1519  0.3331
 8125SOL    HW135837   0.288   3.076   8.656  0.6409 -2.3571 -1.4825
 8125SOL    HW235838   0.431   3.024   8.620 -2.9784 -0.9156 -1.9802
 8126SOL     OW35839   0.626   1.619   5.624 -0.0614 -0.5016  0.0747
 8126SOL    HW135840   0.641   1.663   5.708  0.8097 -1.9854  0.6881
 8126SOL    HW235841   0.704   1.564   5.627  0.4590  0.2565  0.3946
 8127SOL     OW35842   4.298   1.556   2.995  0.3269 -0.1822  0.0422
 8127SOL    HW135843   4.347   1.509   2.927  0.8057 -0.2663  0.4405
 8127SOL    HW235844   4.216   1.529   2.954  0.1677 -0.9303  0.8473
 8128SOL     OW35845   3.301   1.135   4.414  0.1968  0.2048 -0.1816
 8128SOL    HW135846   3.354   1.095   4.484 -0.6406  0.5076  0.6203
 8128SOL    HW235847   3.301   1.071   4.343 -0.3763 -0.8168  0.7374
 8129SOL     OW35848   2.791   4.406   8.001  0.1229  0.1965  0.3144
 8129SOL    HW135849   2.818   4.478   7.943 -0.2825 -0.1818 -0.3378
 8129SOL    HW235850   2.814   4.450   8.083 -1.0912 -0.3885  0.9749
 8130SOL     OW35851   2.018   0.157   9.712 -0.0889  0.2815  0.0919
 8130SOL    HW135852   2.086   0.199   9.659  0.5686 -0.9784 -0.0624
 8130SOL    HW235853   1.988   0.077   9.669  1.5573 -1.6466  2.5019
 8131SOL     OW35854   3.541   2.418   6.864  0.0552  0.2275 -0.6581
 8131SOL    HW135855   3.517   2.456   6.780 -1.1690  0.4363 -0.2070
 8131SOL    HW235856   3.612   2.472   6.898  0.0888 -0.2116 -0.0351
 8132SOL     OW35857   4.720   0.378   7.771  0.0147  0.2721  0.7398
 8132SOL    HW135858   4.670   0.439   7.716 -0.3560 -0.1646  0.5854
 8132SOL    HW235859   4.661   0.308   7.800  0.2496 -0.1263  0.2746
 8133SOL     OW35860   3.885   2.239   4.568 -1.0044 -0.1523  0.0160
 8133SOL    HW135861   3.932   2.298   4.509 -0.1985  1.9856  2.7715
 8133SOL    HW235862   3.931   2.156   4.556  1.4988  0.8039  3.0120
 8134SOL     OW35863   3.736   3.488   6.171 -0.0656 -0.7094  0.0005
 8134SOL    HW135864   3.698   3.403   6.151 -0.0182 -0.8646  0.5802
 8134SOL    HW235865   3.651   3.522   6.199  0.2633 -1.5499  2.0292
 8135SOL     OW35866   0.067   1.382   7.898  0.0387 -0.1162 -0.3601
 8135SOL    HW135867   0.074   1.436   7.976 -0.4768 -0.3648 -0.1454
 8135SOL    HW235868   0.046   1.448   7.832  2.7154  0.0480 -1.0590
 8136SOL     OW35869   0.661   4.375  12.188  0.0796 -0.0036 -0.4555
 8136SOL    HW135870   0.599   4.438  12.224  1.7006  0.8311  0.8505
 8136SOL    HW235871   0.627   4.374  12.098 -0.8957  1.2292 -0.0909
 8137SOL     OW35872   1.717   3.471   3.456  0.1767 -0.6276 -0.6121
 8137SOL    HW135873   1.749   3.388   3.419  0.5280 -1.1413  0.8330
 8137SOL    HW235874   1.704   3.528   3.380 -0.5442 -0.8242 -0.6336
 8138SOL     OW35875   3.156   2.198   4.195 -0.4521 -1.1134  0.1123
 8138SOL    HW135876   3.154   2.130   4.128 -0.6078  0.2450 -1.2493
 8138SOL    HW235877   3.172   2.145   4.273 -3.4158 -2.3422 -0.1284
 8139SOL     OW35878   0.629   0.587   6.913  0.1046  0.0359  0.2717
 8139SOL    HW135879   0.573   0.652   6.871  0.3499 -0.8592 -1.4264
 8139SOL    HW235880   0.629   0.615   7.005  0.9490  1.9216 -0.3146
 8140SOL     OW35881   0.975   2.946  16.384 -0.1517  0.2976 -0.2333
 8140SOL    HW135882   1.038   2.966  16.453 -0.5964  1.1142 -0.0662
 8140SOL    HW235883   0.961   3.027  16.335 -2.2587  1.2612  2.0010
 8141SOL     OW35884   2.160   0.684   2.800  0.3255 -0.7770  0.0816
 8141SOL    HW135885   2.138   0.732   2.720  0.5588  0.0658  0.5228
 8141SOL    HW235886   2.226   0.738   2.842 -1.0896  0.7128  0.3902
 8142SOL     OW35887   2.658   3.015   8.841  0.0937 -0.6286 -0.7214
 8142SOL    HW135888   2.646   2.965   8.921  2.6207 -0.7026 -0.3946
 8142SOL    HW235889   2.721   3.084   8.862  0.0983 -0.9143  0.1885
 8143SOL     OW35890   4.385   2.739   9.334 -0.2304  0.0351  0.4832
 8143SOL    HW135891   4.423   2.735   9.422 -1.9194 -1.1081  1.1567
 8143SOL    HW235892   4.453   2.793   9.292 -0.8545  1.4940  1.3526
 8144SOL     OW35893   1.552   2.913   3.636 -0.8606 -0.0732 -0.8360
 8144SOL    HW135894   1.562   2.985   3.573 -0.1802  0.1891 -0.4261
 8144SOL    HW235895   1.545   2.841   3.573 -1.0700  0.5097 -1.4814
 8145SOL     OW35896   1.746   2.925  10.517  0.1277 -0.7367 -0.4550
 8145SOL    HW135897   1.747   2.939  10.612  2.7804 -1.5271 -0.3762
 8145SOL    HW235898   1.655   2.918  10.489  0.1054 -1.6015 -0.1697
 8146SOL     OW35899   1.061   1.723   0.817  0.5172  0.0448  1.1349
 8146SOL    HW135900   0.970   1.708   0.843  0.3452 -1.3137 -0.3009
 8146SOL    HW235901   1.068   1.814   0.787 -0.9959  0.1675  1.1715
 8147SOL     OW35902   2.016   4.152  14.051  0.2258 -0.5023  0.2111
 8147SOL    HW135903   2.107   4.144  14.081  0.6175  0.7154 -0.6267
 8147SOL    HW235904   1.972   4.222  14.100 -1.7247 -1.3803 -0.2879
 8148SOL     OW35905   4.521   3.418   5.329  0.0626 -0.3015  0.0072
 8148SOL    HW135906   4.452   3.429   5.264 -0.9479 -0.4595  1.0308
 8148SOL    HW235907   4.585   3.488   5.317  0.3296 -0.6244 -0.4065
 8149SOL     OW35908   1.357   1.540   4.207  0.1048  0.0398  0.2080
 8149SOL    HW135909   1.318   1.608   4.262 -0.8326 -0.3767  0.0596
 8149SOL    HW235910   1.440   1.538   4.253 -0.8094  0.5192  1.8798
 8150SOL     OW35911   0.842   0.567   9.821  0.1768 -0.2708  0.0040
 8150SOL    HW135912   0.909   0.544   9.886 -0.2925 -0.1532  0.5220
 8150SOL    HW235913   0.861   0.659   9.803 -1.7330 -0.0983 -1.0938
 8151SOL     OW35914   1.311   1.253   9.553 -0.1685 -0.6783  0.0881
 8151SOL    HW135915   1.223   1.278   9.581  0.0059 -1.0073  0.9300
 8151SOL    HW235916   1.360   1.336   9.550 -0.4571 -0.4353  2.3494
 8152SOL     OW35917   1.045   4.356   7.777 -0.2639  0.1261 -0.3555
 8152SOL    HW135918   1.029   4.325   7.688  2.3618 -1.3880 -0.2852
 8152SOL    HW235919   1.141   4.361   7.776 -0.2733 -0.3534 -2.4501
 8153SOL     OW35920   2.139   3.086  11.707  0.4468 -0.6452  0.1381
 8153SOL    HW135921   2.094   3.028  11.645 -0.0885 -0.9769  0.8449
 8153SOL    HW235922   2.223   3.089  11.659 -1.6469  3.6974 -3.2683
 8154SOL     OW35923   1.054   3.816  15.613 -0.4153  0.3296 -0.1538
 8154SOL    HW135924   1.129   3.867  15.645 -0.1319  0.0106 -0.3047
 8154SOL    HW235925   1.028   3.759  15.686 -0.5540  1.7459  0.8960
 8155SOL     OW35926   3.679   0.174   3.172  0.0246 -0.3310  0.0384
 8155SOL    HW135927   3.637   0.260   3.170  1.2298  0.2493  0.0426
 8155SOL    HW235928   3.631   0.130   3.242 -3.0300 -0.3560 -2.0327
 8156SOL     OW35929   1.873   4.698   4.242  0.3944 -0.0171  0.6157
 8156SOL    HW135930   1.887   4.627   4.305 -3.5250 -1.1603  0.2533
 8156SOL    HW235931   1.780   4.721   4.243  0.9322  2.0247  3.3623
 8157SOL     OW35932   1.478   1.704  17.569 -0.3919  0.1532  0.5026
 8157SOL    HW135933   1.466   1.791  17.530  1.9337  0.1711 -0.1199
 8157SOL    HW235934   1.399   1.664  17.533  0.1299 -0.8737  0.5138
 8158SOL     OW35935   3.186   3.800  15.144 -0.3876  0.0691 -0.6661
 8158SOL    HW135936   3.184   3.833  15.054  0.9034  1.0315 -0.3303
 8158SOL    HW235937   3.158   3.715  15.110  0.1727  0.0434 -1.0615
 8159SOL     OW35938   1.511   0.833   3.766 -0.1328 -0.3533 -0.0515
 8159SOL    HW135939   1.604   0.850   3.754 -0.3557  1.3749  0.7040
 8159SOL    HW235940   1.509   0.742   3.796 -0.4477 -0.0249  0.9072
 8160SOL     OW35941   0.841   4.296   2.744 -0.0325  0.2886 -0.2012
 8160SOL    HW135942   0.796   4.376   2.772 -2.1377 -1.4833  1.3542
 8160SOL    HW235943   0.885   4.325   2.663 -0.3022  0.7488 -0.1826
 8161SOL     OW35944   2.749   1.634  10.558 -0.1566 -0.2978  0.2375
 8161SOL    HW135945   2.834   1.593  10.575  0.5537  1.2284  0.3476
 8161SOL    HW235946   2.717   1.629  10.648 -0.7687  2.0580  0.1592
 8162SOL     OW35947   4.371   1.607   4.847  0.0067 -0.1340 -0.1735
 8162SOL    HW135948   4.457   1.625   4.809  0.3412 -3.1040 -0.8274
 8162SOL    HW235949   4.335   1.555   4.775 -0.3404 -0.2878  0.1096
 8163SOL     OW35950   2.698   0.464  14.946  0.3776  0.0881  0.4867
 8163SOL    HW135951   2.635   0.429  15.009  1.3104 -4.6146 -1.1772
 8163SOL    HW235952   2.698   0.555  14.976  1.0176  0.2474  0.0200
 8164SOL     OW35953   4.570   1.282  13.639  0.6722  0.3201 -0.1350
 8164SOL    HW135954   4.658   1.266  13.604  1.9957  1.1733  2.7937
 8164SOL    HW235955   4.532   1.195  13.636  1.1683  0.1028 -0.2390
 8165SOL     OW35956   3.136   0.665   5.243  0.1145 -0.2489  0.1166
 8165SOL    HW135957   3.169   0.703   5.325 -0.5813 -2.0430  1.2316
 8165SOL    HW235958   3.203   0.687   5.178 -0.8281  0.2898 -0.6585
 8166SOL     OW35959   1.835   3.318   8.845  0.1616  0.0169 -0.1897
 8166SOL    HW135960   1.763   3.259   8.870 -0.4552  0.6785 -0.4056
 8166SOL    HW235961   1.818   3.384   8.912 -2.4437  0.5196 -1.3325
 8167SOL     OW35962   3.457   4.151   6.611  0.5271 -0.1880 -0.1377
 8167SOL    HW135963   3.510   4.198   6.675  1.1449 -1.5477  0.3394
 8167SOL    HW235964   3.485   4.062   6.634  1.1684 -0.8318 -3.4325
 8168SOL     OW35965   1.390   3.083   2.668  0.4052 -0.3643  0.1487
 8168SOL    HW135966   1.441   3.003   2.674 -0.7846 -0.9924  1.7918
 8168SOL    HW235967   1.379   3.080   2.572 -1.3594  2.0263  0.2664
 8169SOL     OW35968   4.562   3.469   8.865  0.4747  0.7821  0.5227
 8169SOL    HW135969   4.602   3.554   8.881  0.9822  0.8771 -1.1925
 8169SOL    HW235970   4.616   3.439   8.792  0.1216  0.0437  0.5605
 8170SOL     OW35971   3.877   1.705  10.986  1.0682 -0.3591  0.1472
 8170SOL    HW135972   3.799   1.710  10.931  0.3058 -0.9597  1.1682
 8170SOL    HW235973   3.890   1.798  11.007  0.4516  0.0324 -1.2300
 8171SOL     OW35974   3.670   1.670   5.129  0.0864 -0.2520 -0.5766
 8171SOL    HW135975   3.686   1.579   5.102  2.8721  0.1009 -0.1559
 8171SOL    HW235976   3.711   1.719   5.058  0.7753  0.1111  0.0687
 8172SOL     OW35977   1.807   0.610   8.851  0.2103  0.1985 -0.2048
 8172SOL    HW135978   1.844   0.694   8.822  0.8320  0.6170  1.7794
 8172SOL    HW235979   1.886   0.557   8.858  0.5958  0.6460 -1.1896
 8173SOL     OW35980   2.986   3.647   1.010  0.0031  0.2221  0.5480
 8173SOL    HW135981   2.904   3.688   0.984 -0.9456 -0.8409  1.8807
 8173SOL    HW235982   2.967   3.628   1.102  0.3648  1.8588  0.9591
 8174SOL     OW35983   1.736   3.112   5.181 -0.0528 -0.1332 -0.1622
 8174SOL    HW135984   1.749   3.052   5.108 -0.1677  2.5111 -2.3576
 8174SOL    HW235985   1.750   3.049   5.251 -0.2142 -0.7483 -0.6887
 8175SOL     OW35986   2.349   3.812   8.959  0.4861  0.3848 -0.0590
 8175SOL    HW135987   2.388   3.886   8.912 -0.8787  0.8453 -0.4885
 8175SOL    HW235988   2.376   3.827   9.050 -1.2616 -1.2691  0.7377
 8176SOL     OW35989   1.998   3.543  17.035 -0.1217 -0.2539  0.1627
 8176SOL    HW135990   1.999   3.497  16.951  0.5517  0.0522 -0.0005
 8176SOL    HW235991   1.956   3.625  17.011  1.8076  0.1229 -1.8920
 8177SOL     OW35992   0.668   0.533   4.205 -0.0791 -0.0590 -0.2825
 8177SOL    HW135993   0.722   0.457   4.185  0.7087 -0.3157  2.8396
 8177SOL    HW235994   0.636   0.498   4.288 -1.5320  0.0273 -0.8003
 8178SOL     OW35995   3.004   1.167   2.202  0.0472  0.4059  0.6707
 8178SOL    HW135996   3.037   1.236   2.144 -0.7256  1.0133  0.9512
 8178SOL    HW235997   3.088   1.124   2.220 -0.4775 -0.3887  1.2059
 8179SOL     OW35998   1.941   2.623   8.053 -0.3473 -0.1619 -0.5092
 8179SOL    HW135999   2.000   2.698   8.043  0.9585 -0.6995  2.9898
 8179SOL    HW236000   1.858   2.661   8.083 -0.1276  1.4247 -1.8949
 8180SOL     OW36001   0.204   0.584  13.702 -0.9595 -0.1594 -0.1050
 8180SOL    HW136002   0.166   0.580  13.614  1.2540  0.3635 -1.0737
 8180SOL    HW236003   0.132   0.584  13.765  1.0653  1.2740  2.2023
 8181SOL     OW36004   1.285   1.460   3.953  0.0631 -0.4461 -0.5033
 8181SOL    HW136005   1.317   1.490   4.038  2.0294 -1.4890 -0.8712
 8181SOL    HW236006   1.360   1.477   3.897 -0.6898 -0.4772 -1.5259
 8182SOL     OW36007   3.880   4.674   0.877  0.3301 -0.1291 -0.4487
 8182SOL    HW136008   3.950   4.633   0.929 -0.1762 -2.2612 -1.4728
 8182SOL    HW236009   3.872   4.620   0.799 -0.2037 -0.9206  0.1575
 8183SOL     OW36010   0.396   3.072  10.328  0.1035  0.3872 -0.0532
 8183SOL    HW136011   0.343   3.116  10.395  2.7065  0.2864  2.0643
 8183SOL    HW236012   0.453   3.145  10.305  0.3369  0.8557  2.0056
 8184SOL     OW36013   0.653   3.769   3.382  0.3320  0.2109  0.1651
 8184SOL    HW136014   0.677   3.682   3.413  0.1663 -0.3346 -1.2780
 8184SOL    HW236015   0.560   3.759   3.359  0.6545  0.6230 -1.2883
 8185SOL     OW36016   0.899   2.887   5.911 -0.4063 -0.4974  0.1684
 8185SOL    HW136017   0.908   2.938   5.830 -1.0081  2.6587  2.1029
 8185SOL    HW236018   0.830   2.822   5.910 -0.9238  0.0613 -0.4885
 8186SOL     OW36019   4.089   4.398  11.529  0.2042  0.5896 -0.3895
 8186SOL    HW136020   4.122   4.421  11.615 -1.0232  1.6652 -0.2177
 8186SOL    HW236021   3.997   4.394  11.554  0.6181 -0.4719  0.9348
 8187SOL     OW36022   1.790   4.644  11.771  0.0464 -1.0332  0.1377
 8187SOL    HW136023   1.814   4.581  11.702  0.0805 -1.2357  0.3352
 8187SOL    HW236024   1.720   4.589  11.805 -0.7451 -0.4832 -0.6086
 8188SOL     OW36025   3.166   4.583   2.406 -0.3646 -0.1269 -0.0223
 8188SOL    HW136026   3.223   4.599   2.481 -0.9777 -3.0756  1.0545
 8188SOL    HW236027   3.142   4.674   2.387  0.7734  0.6389  2.1621
 8189SOL     OW36028   2.429   2.963  12.545  0.4073 -0.1434  0.1758
 8189SOL    HW136029   2.340   2.927  12.545  0.6857 -0.8193  1.3534
 8189SOL    HW236030   2.433   3.006  12.459  0.8131  0.5731  0.5539
 8190SOL     OW36031   0.298   4.035   2.365  0.2158  0.5610  0.1345
 8190SOL    HW136032   0.230   3.973   2.340 -1.5183  1.5840  2.3128
 8190SOL    HW236033   0.372   3.978   2.387  0.7255 -0.0948 -3.3482
 8191SOL     OW36034   2.097   2.523   9.127 -0.1118  0.3105 -0.1204
 8191SOL    HW136035   2.045   2.601   9.144  1.3394  0.7743  2.1860
 8191SOL    HW236036   2.173   2.536   9.184 -0.3250  1.8530 -0.2050
 8192SOL     OW36037   4.195   2.012   6.896 -0.0219 -0.0670  0.6486
 8192SOL    HW136038   4.111   2.053   6.916  1.0353  0.7279  3.4183
 8192SOL    HW236039   4.171   1.921   6.917  2.4711 -0.7050  0.6797
 8193SOL     OW36040   0.317   0.665   6.537  0.6875  0.0143  0.1697
 8193SOL    HW136041   0.246   0.721   6.508 -0.9097 -0.7678  2.5487
 8193SOL    HW236042   0.303   0.686   6.630 -1.2150  0.9724 -0.3421
 8194SOL     OW36043   0.480   2.056   6.076  0.7957 -0.1069  0.1364
 8194SOL    HW136044   0.439   2.024   5.996 -0.2945  1.0581  0.2384
 8194SOL    HW236045   0.512   1.970   6.105 -0.4039 -1.0291 -1.2816
 8195SOL     OW36046   0.691   1.878   5.226 -0.2629 -0.0380 -0.1053
 8195SOL    HW136047   0.754   1.880   5.154  0.3755  0.4628  0.4734
 8195SOL    HW236048   0.610   1.856   5.180  0.3298  1.1081 -1.6941
 8196SOL     OW36049   2.601   4.111   1.788 -0.0697 -0.6921 -0.2477
 8196SOL    HW136050   2.605   4.158   1.871 -1.3770  1.1089 -1.2182
 8196SOL    HW236051   2.517   4.064   1.795 -0.4181 -0.0631 -0.2351
 8197SOL     OW36052   0.009   2.424   6.181  0.0687  0.0642 -0.6572
 8197SOL    HW136053   0.058   2.487   6.234  1.2361 -0.8741 -0.6204
 8197SOL    HW236054   4.678   2.476   6.123 -0.1167  0.4374 -0.1513
 8198SOL     OW36055   3.788   3.344   5.653  0.1219 -0.1054 -0.0890
 8198SOL    HW136056   3.849   3.376   5.719  1.5690 -1.1297 -0.9332
 8198SOL    HW236057   3.708   3.392   5.675  0.4436  0.5635 -0.3750
 8199SOL     OW36058   3.815   4.601  10.651 -0.1451 -0.4397 -0.4381
 8199SOL    HW136059   3.788   4.531  10.710  1.8244  1.1018  2.2755
 8199SOL    HW236060   3.887   4.638  10.702 -0.5898 -1.2290  0.7469
 8200SOL     OW36061   3.767   2.925   5.013  0.4877  0.0793  0.1568
 8200SOL    HW136062   3.719   2.853   5.054 -0.2788  0.5384  0.0704
 8200SOL    HW236063   3.834   2.929   5.081  1.9534 -0.0156 -1.2986
 8201SOL     OW36064   2.610   3.427  16.502 -0.7094  0.3256  0.1913
 8201SOL    HW136065   2.660   3.421  16.583 -1.0677 -0.4100  0.3552
 8201SOL    HW236066   2.549   3.355  16.516 -0.5453 -0.1223 -1.3285
 8202SOL     OW36067   0.513   4.411   8.091 -0.0276  0.4304 -0.4964
 8202SOL    HW136068   0.553   4.498   8.099 -1.3650  1.0707 -0.8929
 8202SOL    HW236069   0.423   4.432   8.115  0.1196  1.2534 -0.6585
 8203SOL     OW36070   4.604   1.179   7.829  0.2027  0.0874  0.1616
 8203SOL    HW136071   4.520   1.217   7.858 -0.4522 -0.5231 -0.9298
 8203SOL    HW236072   4.664   1.247   7.858 -1.1757  1.0053  0.9139
 8204SOL     OW36073   3.467   2.918  12.565 -0.9943 -0.1830  0.4073
 8204SOL    HW136074   3.381   2.883  12.540 -1.4243  2.7457 -2.1729
 8204SOL    HW236075   3.522   2.841  12.585 -0.4429 -0.0984 -0.7819
 8205SOL     OW36076   1.200   3.875   7.672  0.0203 -0.6540  0.7575
 8205SOL    HW136077   1.119   3.824   7.685 -0.6630 -0.0098 -0.9247
 8205SOL    HW236078   1.232   3.883   7.761 -1.9755 -0.0817  1.4251
 8206SOL     OW36079   2.434   0.941  10.976  0.1984  0.4726 -0.2927
 8206SOL    HW136080   2.345   0.922  11.005  0.8231 -4.1536 -1.4824
 8206SOL    HW236081   2.432   1.037  10.979  1.1656  0.5322 -1.7288
 8207SOL     OW36082   4.587   1.807   5.554  0.3011  0.3692 -0.0305
 8207SOL    HW136083   4.602   1.712   5.564 -0.7420  0.0442 -1.4801
 8207SOL    HW236084   4.668   1.857   5.547  0.7138 -0.2676  0.1502
 8208SOL     OW36085   2.670   0.053  16.498  0.2589  0.4594 -0.0208
 8208SOL    HW136086   2.617   0.120  16.539 -1.5790  1.7047 -4.3630
 8208SOL    HW236087   2.642   0.053  16.406  0.1125 -1.0375  0.0187
 8209SOL     OW36088   3.959   2.187   5.636 -0.3146 -0.8748 -0.3867
 8209SOL    HW136089   3.965   2.216   5.545  0.5858  0.0229 -0.0439
 8209SOL    HW236090   4.048   2.161   5.656 -0.1499  1.2817  1.7109
 8210SOL     OW36091   1.448   3.004   5.565  0.1729 -0.3524 -0.1411
 8210SOL    HW136092   1.434   2.986   5.658 -1.9138  3.3949  0.2294
 8210SOL    HW236093   1.528   2.953   5.549 -0.7098 -2.0902  0.9864
 8211SOL     OW36094   2.052   0.422   5.282  0.7379  0.3305  0.2834
 8211SOL    HW136095   2.115   0.352   5.298  0.8038 -0.0682 -1.7778
 8211SOL    HW236096   1.995   0.421   5.360 -0.1661 -1.9237 -0.4246
 8212SOL     OW36097   1.688   0.729   4.237  0.2276  0.3363 -0.1337
 8212SOL    HW136098   1.602   0.767   4.250  0.3706  1.0470 -1.2506
 8212SOL    HW236099   1.734   0.791   4.181  0.9699  1.2011  1.4425
 8213SOL     OW36100   0.783   0.711   7.127  0.2509  0.0219 -0.4744
 8213SOL    HW136101   0.703   0.760   7.145  0.0130 -0.1535 -1.0508
 8213SOL    HW236102   0.798   0.675   7.214 -2.8094  1.4079  0.6184
 8214SOL     OW36103   2.914   4.286   4.967  0.0943  0.0988 -0.2841
 8214SOL    HW136104   2.852   4.254   4.901 -0.6808  1.6611 -0.3074
 8214SOL    HW236105   2.922   4.382   4.963 -0.5376  0.1882  0.6993
 8215SOL     OW36106   0.620   2.607  13.260  0.6049 -0.4943  0.1122
 8215SOL    HW136107   0.561   2.682  13.268 -0.0402 -0.8032 -1.5783
 8215SOL    HW236108   0.669   2.615  13.341 -2.3276  3.2869  1.5068
 8216SOL     OW36109   1.731   1.671   0.454 -0.4100 -0.1314  0.2587
 8216SOL    HW136110   1.737   1.578   0.431 -0.3308  0.1010 -0.6621
 8216SOL    HW236111   1.804   1.710   0.405 -0.5818 -0.9531 -0.6417
 8217SOL     OW36112   1.291   4.433   6.791  0.4282  0.2659 -0.0512
 8217SOL    HW136113   1.199   4.413   6.809 -0.1351  1.4469 -1.6306
 8217SOL    HW236114   1.339   4.385   6.858 -0.6010 -1.1978 -0.3664
 8218SOL     OW36115   0.930   1.283   8.986  0.5617 -0.5873 -0.6306
 8218SOL    HW136116   0.910   1.193   8.958 -2.4313  0.5862 -2.2277
 8218SOL    HW236117   1.020   1.260   9.009  0.3945 -0.2952  0.3075
 8219SOL     OW36118   0.041   3.809  14.200 -0.1836  0.6370  0.1697
 8219SOL    HW136119   0.129   3.780  14.225 -0.6756  0.2767  1.4942
 8219SOL    HW236120   0.014   3.732  14.149 -1.8613  0.3017  1.5562
 8220SOL     OW36121   3.875   2.917  13.701  0.3002  0.4313 -0.0722
 8220SOL    HW136122   3.937   2.864  13.651  1.1416  0.5025  0.9043
 8220SOL    HW236123   3.930   2.973  13.755 -0.3269  1.1549 -0.1798
 8221SOL     OW36124   1.994   1.970   0.956  0.6227  0.8039  0.0373
 8221SOL    HW136125   1.955   2.021   1.028  2.1024  0.8176  0.8238
 8221SOL    HW236126   1.961   1.882   0.974 -1.0580  1.3678 -0.2950
 8222SOL     OW36127   2.721   1.850   4.667  0.6780  0.1146 -0.0863
 8222SOL    HW136128   2.769   1.770   4.690  1.2810  0.7583  0.9173
 8222SOL    HW236129   2.631   1.846   4.699  1.0565 -2.5981  0.6157
 8223SOL     OW36130   0.991   4.572   9.973  0.2194  0.2756 -0.0195
 8223SOL    HW136131   0.903   4.536   9.983  0.5367 -1.3157 -2.6920
 8223SOL    HW236132   0.979   4.667   9.970  1.2447  0.4005 -0.0588
 8224SOL     OW36133   2.128   3.073   2.203 -0.2545  0.0652  0.1521
 8224SOL    HW136134   2.032   3.078   2.206 -0.2417 -0.0034  0.7000
 8224SOL    HW236135   2.150   3.161   2.172  0.3098 -0.4340 -0.8445
 8225SOL     OW36136   0.819   3.331  13.430 -0.2200 -0.0081 -0.0282
 8225SOL    HW136137   0.786   3.405  13.480 -0.9163 -0.0705 -0.4080
 8225SOL    HW236138   0.843   3.276  13.505 -1.3874 -0.8793 -0.2907
 8226SOL     OW36139   0.202   1.685  10.445 -0.1955  0.6830  0.1746
 8226SOL    HW136140   0.207   1.631  10.366 -0.6455 -1.4453  1.6127
 8226SOL    HW236141   0.249   1.632  10.509 -2.5509 -0.7219  0.7404
 8227SOL     OW36142   2.231   4.710   5.713 -0.2083  0.0210 -0.0399
 8227SOL    HW136143   2.220   4.636   5.653 -0.3067  0.1381 -0.1652
 8227SOL    HW236144   2.160   4.684   5.771 -1.2435  0.7284 -0.9901
 8228SOL     OW36145   0.018   3.325   6.350  0.1697  0.2270 -0.2400
 8228SOL    HW136146   0.045   3.384   6.279 -1.5550  1.1932 -0.0805
 8228SOL    HW236147   4.648   3.332   6.336 -0.0259  2.0747  2.0066
 8229SOL     OW36148   2.159   0.196  14.724  0.3837  0.1606 -0.5356
 8229SOL    HW136149   2.193   0.266  14.668 -0.9762  1.7948  0.6698
 8229SOL    HW236150   2.203   0.220  14.806 -0.0761  1.2020 -0.5957
 8230SOL     OW36151   3.185   0.615   8.598  0.0383  0.0301 -0.0456
 8230SOL    HW136152   3.188   0.695   8.545 -0.7900  0.5510  0.7113
 8230SOL    HW236153   3.220   0.640   8.683 -0.0880 -0.2557  0.0886
 8231SOL     OW36154   3.342   2.285   7.030 -0.0956  0.7248 -0.4188
 8231SOL    HW136155   3.411   2.327   6.978 -0.9554  2.9328  0.1955
 8231SOL    HW236156   3.338   2.204   6.979  2.2877  1.4199 -1.7161
 8232SOL     OW36157   4.608   3.690   4.053  0.2738 -0.2789  0.4835
 8232SOL    HW136158   4.685   3.720   4.005 -0.4396 -2.3166 -1.9543
 8232SOL    HW236159   4.592   3.602   4.018 -0.2862 -0.4872  1.2544
 8233SOL     OW36160   1.772   0.883   3.714 -0.1968 -0.2721  0.4494
 8233SOL    HW136161   1.810   0.798   3.736 -0.6872 -0.2146  1.5164
 8233SOL    HW236162   1.837   0.950   3.736 -1.9593  1.5624  0.0651
 8234SOL     OW36163   4.577   2.774   5.405 -0.2928  0.4328 -0.0648
 8234SOL    HW136164   4.508   2.762   5.339 -0.2781 -1.3674  0.2342
 8234SOL    HW236165   4.566   2.688   5.447 -2.1611 -0.4201 -2.2895
 8235SOL     OW36166   4.050   1.057   3.902  0.2018 -0.3098  0.5403
 8235SOL    HW136167   4.019   1.111   3.975  0.1697  0.2796  0.0957
 8235SOL    HW236168   4.027   1.123   3.836  0.3712 -1.9955 -1.2267
 8236SOL     OW36169   3.702   4.139   3.694  0.3285  0.2746  0.0376
 8236SOL    HW136170   3.626   4.081   3.704 -0.4931  1.9209  3.3491
 8236SOL    HW236171   3.739   4.107   3.612 -1.7855  0.5618 -1.0395
 8237SOL     OW36172   2.051   0.141   7.253  0.3048  0.3614  0.3509
 8237SOL    HW136173   2.116   0.211   7.250  1.5635 -0.8558 -0.3278
 8237SOL    HW236174   2.080   0.106   7.337 -0.1359 -1.0665 -0.1021
 8238SOL     OW36175   0.662   2.214   6.794 -0.3207 -0.5752  0.6413
 8238SOL    HW136176   0.743   2.168   6.818  0.4022  0.1152 -0.4958
 8238SOL    HW236177   0.616   2.144   6.748 -0.7361 -0.6549  1.1763
 8239SOL     OW36178   1.337   3.700   6.494 -0.9003  0.3787 -0.3836
 8239SOL    HW136179   1.267   3.745   6.541  0.2239  0.5362  1.1126
 8239SOL    HW236180   1.294   3.620   6.462  1.4643 -0.6337 -1.0749
 8240SOL     OW36181   0.588   1.776   8.278  0.5789 -0.1131 -0.2031
 8240SOL    HW136182   0.677   1.778   8.314  0.1590  1.7771  0.7070
 8240SOL    HW236183   0.592   1.705   8.213 -0.1887 -0.7701  0.4686
 8241SOL     OW36184   3.625   0.541   0.890  0.2129  0.0629 -0.1193
 8241SOL    HW136185   3.593   0.471   0.833  0.7054 -0.4934  0.2936
 8241SOL    HW236186   3.569   0.609   0.852 -0.3311  0.0511  0.6514
 8242SOL     OW36187   4.715   2.417  16.388 -0.0937 -0.5797  0.2081
 8242SOL    HW136188   0.028   2.442  16.473 -0.0433  2.6824 -0.7604
 8242SOL    HW236189   0.070   2.376  16.353 -0.3605  1.3527 -2.6415
 8243SOL     OW36190   4.322   3.830   8.900  0.3271 -0.4518 -0.2154
 8243SOL    HW136191   4.268   3.863   8.972 -0.4603 -1.3133 -0.4175
 8243SOL    HW236192   4.392   3.895   8.905  0.8974 -1.0340 -0.6351
 8244SOL     OW36193   2.595   2.130   8.781 -0.3512 -0.1131  0.3469
 8244SOL    HW136194   2.582   2.122   8.687 -0.1017  0.0133  0.3000
 8244SOL    HW236195   2.679   2.084   8.786  0.3581  1.0246 -1.1455
 8245SOL     OW36196   3.179   0.845   9.350  0.7369  0.2741  0.3607
 8245SOL    HW136197   3.268   0.868   9.379  0.7420 -0.5014  0.9502
 8245SOL    HW236198   3.129   0.827   9.429  2.0248 -0.2192  1.0599
 8246SOL     OW36199   3.997   1.774  12.281  0.3235 -0.6984 -0.1980
 8246SOL    HW136200   3.985   1.817  12.365 -1.6762  0.1460 -0.9053
 8246SOL    HW236201   3.940   1.698  12.294 -0.5466 -0.0739 -0.3099
 8247SOL     OW36202   3.940   0.650   6.740  0.0664 -0.1837 -0.6514
 8247SOL    HW136203   3.904   0.647   6.652 -0.3074  0.2945 -0.5195
 8247SOL    HW236204   3.898   0.573   6.778  1.0360 -1.1309 -1.5149
 8248SOL     OW36205   4.167   2.564   2.402  0.3307  0.0335  0.4275
 8248SOL    HW136206   4.228   2.637   2.408  0.1335  0.3898 -1.6873
 8248SOL    HW236207   4.084   2.610   2.412  1.4477  2.1769 -0.1611
 8249SOL     OW36208   1.712   2.462   7.656 -0.3632 -0.1644  0.0359
 8249SOL    HW136209   1.650   2.454   7.728  3.1902  1.1246  3.2738
 8249SOL    HW236210   1.657   2.443   7.580  1.3290  0.6727 -1.4143
 8250SOL     OW36211   0.094   3.513   1.547 -0.3398  0.3507 -0.1856
 8250SOL    HW136212   0.052   3.463   1.477 -0.9531 -1.9899  1.8172
 8250SOL    HW236213   0.077   3.604   1.522 -1.9719  0.3795  0.9952
 8251SOL     OW36214   0.223   2.813   0.860 -0.1643 -0.0095  0.1536
 8251SOL    HW136215   0.182   2.881   0.808 -0.9868 -0.2069  0.5498
 8251SOL    HW236216   0.200   2.735   0.810  0.3992 -0.7719  1.0807
 8252SOL     OW36217   1.059   0.106   9.305  0.2273 -0.3058 -0.5892
 8252SOL    HW136218   1.080   0.029   9.358 -1.4882 -0.3622  0.0100
 8252SOL    HW236219   1.086   0.170   9.371  2.6349 -0.6235 -1.2467
 8253SOL     OW36220   2.996   0.035   3.296  0.0868 -0.1890 -0.0297
 8253SOL    HW136221   2.932   4.687   3.289 -0.2049  0.0835 -0.1702
 8253SOL    HW236222   3.040   0.010   3.377 -0.7857  2.0428  1.1169
 8254SOL     OW36223   3.731   3.925   4.642  0.4897 -0.1061  0.6093
 8254SOL    HW136224   3.679   4.002   4.622 -1.0892 -1.1204  0.7767
 8254SOL    HW236225   3.741   3.932   4.737 -1.0332  2.0174  0.6058
 8255SOL     OW36226   1.998   2.074   7.500 -0.1818  0.2824 -0.1739
 8255SOL    HW136227   2.050   2.116   7.569  1.3843 -1.1801 -0.4721
 8255SOL    HW236228   2.007   1.979   7.502 -1.3507  0.1649 -1.1352
 8256SOL     OW36229   2.095   0.240   3.456  0.2257  0.0062  0.1372
 8256SOL    HW136230   2.015   0.206   3.415 -1.1990  3.0866  0.4148
 8256SOL    HW236231   2.098   0.325   3.412 -0.7651 -0.2013 -0.3517
 8257SOL     OW36232   0.378   0.866   0.020 -0.0805  0.1130  0.4264
 8257SOL    HW136233   0.408   0.898   0.105 -0.2587  2.0292 -0.2177
 8257SOL    HW236234   0.416   0.778   0.022 -0.6415 -0.1916 -1.9098
 8258SOL     OW36235   4.440   1.383  16.614  0.1084 -0.4997  0.5143
 8258SOL    HW136236   4.350   1.382  16.583  0.9652  1.9117 -2.1319
 8258SOL    HW236237   4.426   1.364  16.707 -1.0917  0.4893  0.5306
 8259SOL     OW36238   1.540   2.308   1.723 -0.2194  0.3548  0.0302
 8259SOL    HW136239   1.485   2.252   1.779 -1.0666 -2.2696 -3.3657
 8259SOL    HW236240   1.600   2.348   1.785  0.7179  0.9230 -1.2495
 8260SOL     OW36241   1.892   1.305   5.373 -0.0942 -0.7143 -0.3487
 8260SOL    HW136242   1.928   1.254   5.445  0.1227 -0.8596 -0.5613
 8260SOL    HW236243   1.823   1.246   5.342 -0.9918  0.0054  0.2651
 8261SOL     OW36244   0.889   1.112  13.114  0.8052  0.2867  0.5067
 8261SOL    HW136245   0.965   1.058  13.140 -0.0308 -1.7536 -1.3252
 8261SOL    HW236246   0.818   1.065  13.158 -0.2321 -0.6497 -2.1558
 8262SOL     OW36247   2.525   3.815   4.509 -0.2389 -0.2202 -0.4715
 8262SOL    HW136248   2.507   3.768   4.428 -1.8168 -1.2854  0.4968
 8262SOL    HW236249   2.461   3.886   4.508  1.8269  1.7041  4.0669
 8263SOL     OW36250   1.240   1.046   5.239  0.0685  0.3975 -0.1341
 8263SOL    HW136251   1.213   0.972   5.185 -0.3916 -1.2641  2.3929
 8263SOL    HW236252   1.326   1.016   5.271 -0.5124  0.0466  1.1097
 8264SOL     OW36253   0.991   1.393  11.536 -0.2996  0.0007  0.0931
 8264SOL    HW136254   1.022   1.430  11.453 -2.3624  1.5209  0.0065
 8264SOL    HW236255   0.999   1.469  11.593  3.6234 -0.8009  0.6069
 8265SOL     OW36256   4.335   3.370   8.599 -0.4037 -0.1852  0.2295
 8265SOL    HW136257   4.248   3.410   8.588 -1.1554 -2.0719 -0.9254
 8265SOL    HW236258   4.335   3.358   8.693 -0.6455 -0.2787  0.2180
 8266SOL     OW36259   0.186   2.540   0.406  0.0153 -0.0877  0.2414
 8266SOL    HW136260   0.177   2.634   0.391  1.1219 -0.0157  0.0087
 8266SOL    HW236261   0.262   2.539   0.465  0.3984  0.1456 -0.2455
 8267SOL     OW36262   0.957   2.808   0.394  0.5788  0.5400 -0.9434
 8267SOL    HW136263   0.965   2.766   0.309  2.0358 -1.1337  0.0036
 8267SOL    HW236264   0.959   2.900   0.368  2.3575  0.9620  0.6827
 8268SOL     OW36265   2.688   4.699   3.368 -0.7456 -0.5492 -0.8848
 8268SOL    HW136266   2.633   0.018   3.302 -0.0174  1.4286 -0.2108
 8268SOL    HW236267   2.695   0.054   3.422 -2.6351  0.0034 -1.4355
 8269SOL     OW36268   0.810   0.126   9.354  0.1794 -0.3383 -0.0304
 8269SOL    HW136269   0.818   0.142   9.260 -0.2414 -1.8051 -0.3188
 8269SOL    HW236270   0.897   0.093   9.373  0.5830 -1.2096 -3.5118
 8270SOL     OW36271   2.925   2.961   3.152  0.8325  0.0764  0.0276
 8270SOL    HW136272   2.917   3.047   3.111  0.4268 -1.2387 -2.6779
 8270SOL    HW236273   3.019   2.955   3.166  0.7520  1.3000  1.0678
 8271SOL     OW36274   3.677   2.462   2.638  0.0003 -0.3266 -0.2676
 8271SOL    HW136275   3.702   2.420   2.720 -1.1532  1.6765  1.1055
 8271SOL    HW236276   3.582   2.450   2.633  0.0323  0.0981 -1.8390
 8272SOL     OW36277   1.221   2.472   3.275 -0.0384  0.1974  0.1739
 8272SOL    HW136278   1.141   2.517   3.300  0.8010  0.2558  2.7329
 8272SOL    HW236279   1.225   2.407   3.345  1.0109  0.9501  0.8173
 8273SOL     OW36280   0.004   4.522  11.496  0.2927 -0.4433 -0.0437
 8273SOL    HW136281   0.046   4.438  11.476 -0.8183 -1.4470  1.8670
 8273SOL    HW236282   0.067   4.549  11.563  1.0871 -3.6420  0.4919
 8274SOL     OW36283   1.337   1.742   7.880  0.0007  0.1871  0.6692
 8274SOL    HW136284   1.377   1.704   7.959  0.1682  0.0628  0.5265
 8274SOL    HW236285   1.342   1.836   7.896 -2.7179  0.3933  0.1837
 8275SOL     OW36286   2.551   4.238   2.232  0.1981  0.4126  0.1285
 8275SOL    HW136287   2.535   4.237   2.327 -1.6171  0.9357 -0.1763
 8275SOL    HW236288   2.578   4.330   2.222 -1.5057  1.0478  1.3075
 8276SOL     OW36289   0.910   1.330   6.663 -0.0876 -0.2631  0.3835
 8276SOL    HW136290   0.841   1.266   6.643 -0.8408  1.2674 -1.9288
 8276SOL    HW236291   0.918   1.355   6.571  1.6787  1.3729  0.9929
 8277SOL     OW36292   3.600   1.261   9.423  0.3408  0.1741  0.8805
 8277SOL    HW136293   3.532   1.317   9.387 -1.2877 -2.5715 -0.2855
 8277SOL    HW236294   3.660   1.327   9.460 -0.1064  0.9637  0.2093
 8278SOL     OW36295   2.545   4.054  11.204  0.2336 -0.0117 -0.0384
 8278SOL    HW136296   2.571   4.026  11.292  1.1405  0.7231 -0.0710
 8278SOL    HW236297   2.629   4.075  11.163 -0.4791  2.3194 -0.3072
 8279SOL     OW36298   3.304   3.564   3.898  0.0300  0.2187 -0.7007
 8279SOL    HW136299   3.278   3.479   3.934 -0.4733  1.4493  1.8201
 8279SOL    HW236300   3.237   3.620   3.937 -0.5004  0.7573 -2.3917
 8280SOL     OW36301   4.249   3.345   2.681  0.3730  0.8327  0.2518
 8280SOL    HW136302   4.178   3.304   2.631  1.3462  1.6768 -1.8015
 8280SOL    HW236303   4.305   3.269   2.695 -0.4409  0.6757  2.5785
 8281SOL     OW36304   2.632   0.680   0.817  0.5117 -0.1196  0.2147
 8281SOL    HW136305   2.591   0.765   0.802 -1.6185 -1.3986 -1.2142
 8281SOL    HW236306   2.674   0.661   0.733  0.8449  1.3523  0.0395
 8282SOL     OW36307   1.494   2.762   3.355  0.0255 -0.2496 -0.1081
 8282SOL    HW136308   1.469   2.831   3.293 -0.1628 -1.5417 -1.4770
 8282SOL    HW236309   1.587   2.775   3.338  0.1170 -0.0199  0.5855
 8283SOL     OW36310   2.307   0.410   3.026 -0.0344  0.4909  0.0627
 8283SOL    HW136311   2.258   0.478   3.071 -2.0443  0.1843 -1.6529
 8283SOL    HW236312   2.238   0.353   2.991 -1.3437  0.4130  2.7808
 8284SOL     OW36313   3.939   0.688   9.183  0.4031  0.3319 -0.3015
 8284SOL    HW136314   4.028   0.689   9.148  1.4288  0.3032  2.3036
 8284SOL    HW236315   3.895   0.719   9.104  1.3839 -0.6752 -1.2417
 8285SOL     OW36316   0.982   0.785   9.702 -0.6321  0.2929 -0.3148
 8285SOL    HW136317   0.952   0.869   9.668  0.2084  0.9574  0.5857
 8285SOL    HW236318   1.058   0.816   9.751 -0.5432 -1.0245  0.3741
 8286SOL     OW36319   0.150   1.395  13.243  0.6077  0.0572  0.2545
 8286SOL    HW136320   0.096   1.318  13.257 -0.6799  0.4462 -2.5594
 8286SOL    HW236321   0.226   1.390  13.300 -1.8394 -1.8838  3.3817
 8287SOL     OW36322   3.454   4.590   7.337 -0.0826 -0.6322  0.2715
 8287SOL    HW136323   3.527   4.608   7.396 -0.0011 -0.5656  0.1517
 8287SOL    HW236324   3.407   4.515   7.372  0.8185 -0.0389  2.7735
 8288SOL     OW36325   2.120   3.175   3.661 -0.1716 -0.8375 -0.3245
 8288SOL    HW136326   2.070   3.256   3.651  1.5468  0.2389 -0.2159
 8288SOL    HW236327   2.099   3.123   3.583  1.7749  1.0430 -2.0984
 8289SOL     OW36328   2.921   3.790   3.280 -0.3898 -0.6276 -0.6532
 8289SOL    HW136329   2.957   3.851   3.216 -0.3866  0.2409  0.1765
 8289SOL    HW236330   2.959   3.837   3.354  0.7961 -0.1099 -1.5877
 8290SOL     OW36331   2.625   3.790   1.888 -0.2566 -0.1336 -0.3116
 8290SOL    HW136332   2.663   3.832   1.811  2.1620  0.7354  1.3845
 8290SOL    HW236333   2.543   3.839   1.896 -0.3540 -0.3052 -0.2366
 8291SOL     OW36334   1.676   4.147  11.977  0.1562  0.1195 -0.4655
 8291SOL    HW136335   1.772   4.153  11.975  0.0213  1.6279 -1.8951
 8291SOL    HW236336   1.637   4.232  11.995 -0.8934  0.0205 -2.3900
 8292SOL     OW36337   3.893   4.436   3.387 -0.2186  0.1287  0.3427
 8292SOL    HW136338   3.884   4.432   3.482 -1.5747 -1.7994  0.1346
 8292SOL    HW236339   3.952   4.361   3.378 -0.1897 -0.0133  1.7491
 8293SOL     OW36340   2.401   4.373   0.425 -0.1118 -0.0754  0.0868
 8293SOL    HW136341   2.310   4.369   0.455 -0.0496 -0.1064  0.2687
 8293SOL    HW236342   2.430   4.282   0.420  1.6226  0.4853  0.0753
 8294SOL     OW36343   1.674   1.357   6.558  0.3941  0.7712 -0.2644
 8294SOL    HW136344   1.609   1.414   6.517  0.0200  1.4007  1.1933
 8294SOL    HW236345   1.693   1.295   6.488  0.0874 -0.9975  1.2314
 8295SOL     OW36346   0.827   4.516   4.275 -0.0170 -0.0201  0.0321
 8295SOL    HW136347   0.854   4.450   4.211  0.8408  0.7758 -0.4179
 8295SOL    HW236348   0.810   4.473   4.359 -1.4592 -0.9122 -0.7212
 8296SOL     OW36349   2.322   2.221  10.371  0.0180 -0.1096 -0.2178
 8296SOL    HW136350   2.360   2.308  10.358  2.1771 -1.0075  0.0366
 8296SOL    HW236351   2.378   2.174  10.308 -2.3729  0.9140 -3.1091
 8297SOL     OW36352   3.475   4.602   9.779 -0.3133  0.4276  0.2127
 8297SOL    HW136353   3.540   4.636   9.718 -1.2355 -0.6117 -1.3204
 8297SOL    HW236354   3.459   4.677   9.837  2.1015  0.4705  0.8272
 8298SOL     OW36355   1.529   1.212  13.550  0.2867  0.2397 -0.7161
 8298SOL    HW136356   1.578   1.283  13.591 -0.8558  2.1929 -2.6885
 8298SOL    HW236357   1.566   1.210  13.462 -0.5121 -0.3539 -1.0429
 8299SOL     OW36358   1.174   3.282   6.815  0.0254 -0.5173 -0.1585
 8299SOL    HW136359   1.238   3.304   6.882 -0.0056  0.4237 -0.4362
 8299SOL    HW236360   1.234   3.260   6.744  0.6011 -0.7647  0.4181
 8300SOL     OW36361   0.994   2.643   6.845  0.1309 -0.3965 -0.2876
 8300SOL    HW136362   0.914   2.692   6.865  0.7909  1.8508 -3.0769
 8300SOL    HW236363   0.955   2.569   6.799  0.8205  1.4507 -3.8404
 8301SOL     OW36364   1.994   3.988   6.578 -0.3365 -0.0440 -0.2641
 8301SOL    HW136365   2.077   3.944   6.559 -1.8922 -2.6250 -1.0759
 8301SOL    HW236366   1.982   3.992   6.672 -0.2626  0.2063 -0.2653
 8302SOL     OW36367   0.710   3.800   0.342  0.4941  0.0949  0.1233
 8302SOL    HW136368   0.678   3.871   0.287  1.2694  0.8739  0.6821
 8302SOL    HW236369   0.694   3.727   0.282  0.6232  0.4922 -0.3902
 8303SOL     OW36370   4.162   1.830   9.440 -0.1406 -0.6328 -0.1912
 8303SOL    HW136371   4.102   1.759   9.460 -2.2017  1.4693  1.0863
 8303SOL    HW236372   4.167   1.887   9.517 -1.2077 -1.9676  0.8515
 8304SOL     OW36373   4.218   0.356  14.870  0.0393 -0.0048  0.2717
 8304SOL    HW136374   4.226   0.450  14.882  3.8863 -0.2796  0.0130
 8304SOL    HW236375   4.204   0.326  14.960 -2.4965  0.1943 -0.0498
 8305SOL     OW36376   0.256   3.911   4.681  0.1482  0.5735  0.4601
 8305SOL    HW136377   0.348   3.889   4.667 -0.1875 -0.8756  0.5092
 8305SOL    HW236378   0.244   3.890   4.773  1.6427 -0.3818  0.4446
 8306SOL     OW36379   0.231   2.313  16.238 -0.3876 -0.1912  0.4139
 8306SOL    HW136380   0.221   2.334  16.145 -1.0828  0.1301  0.5609
 8306SOL    HW236381   0.236   2.217  16.234  2.2100  0.0060 -1.8478
 8307SOL     OW36382   3.051   2.147  14.674 -0.0909  0.2620 -0.2798
 8307SOL    HW136383   3.098   2.180  14.597  0.6305 -0.5007 -0.1761
 8307SOL    HW236384   3.075   2.207  14.745  1.1059 -2.2131  1.4497
 8308SOL     OW36385   1.783   4.636   5.394 -0.0318  0.1641 -0.2794
 8308SOL    HW136386   1.782   4.630   5.298  4.0592 -1.3976 -0.2060
 8308SOL    HW236387   1.721   4.568   5.422  1.9267 -2.1590 -1.5878
 8309SOL     OW36388   0.669   0.381   4.700 -0.2856 -0.7593 -0.1710
 8309SOL    HW136389   0.662   0.307   4.761  0.4347 -0.5470  0.1643
 8309SOL    HW236390   0.763   0.390   4.688 -0.1718  0.1472  1.3909
 8310SOL     OW36391   3.091   2.988   6.318 -0.0023 -0.0655  1.0208
 8310SOL    HW136392   3.086   3.000   6.223  1.8584 -2.8610  0.5652
 8310SOL    HW236393   3.024   2.920   6.314 -1.9041  1.8470  0.6164
 8311SOL     OW36394   4.073   3.619   0.189 -0.2756  0.4555  0.3252
 8311SOL    HW136395   3.984   3.639   0.218 -0.6568 -0.2012 -0.4134
 8311SOL    HW236396   4.103   3.707   0.164  4.2618 -0.3585  2.8043
 8312SOL     OW36397   1.269   0.077   0.100 -0.0186  0.2784  0.2725
 8312SOL    HW136398   1.296   0.023   0.175  1.0537  0.0463 -0.2902
 8312SOL    HW236399   1.293   0.165   0.126  2.3611 -0.1753 -0.4045
 8313SOL     OW36400   3.921   0.039   4.844 -0.2446 -0.2368  0.0869
 8313SOL    HW136401   3.871   0.119   4.859 -0.1511  0.2849 -2.3962
 8313SOL    HW236402   3.860   4.696   4.875  0.2609 -0.9431 -0.4703
 8314SOL     OW36403   4.317   2.975  11.160  0.3581  0.0039  0.0918
 8314SOL    HW136404   4.341   2.903  11.218  2.2033 -0.6921 -1.5266
 8314SOL    HW236405   4.222   2.970  11.163  0.2754  1.6938  0.2006
 8315SOL     OW36406   0.546   1.201   0.116  0.1484 -0.0804  0.1570
 8315SOL    HW136407   0.639   1.208   0.093 -0.0200 -0.5444 -0.6416
 8315SOL    HW236408   0.553   1.239   0.204 -1.6088 -1.4805  0.8922
 8316SOL     OW36409   2.834   0.725   9.409 -0.3095 -0.2400 -0.4392
 8316SOL    HW136410   2.850   0.815   9.438  2.0675 -0.4593 -1.0661
 8316SOL    HW236411   2.895   0.685   9.470 -0.0425  0.3991 -0.2912
 8317SOL     OW36412   1.256   2.039   8.434 -0.2498 -0.3233  0.1817
 8317SOL    HW136413   1.276   2.132   8.425 -0.0597 -0.4691 -0.8936
 8317SOL    HW236414   1.226   2.031   8.525  0.1068 -2.2926  0.1255
 8318SOL     OW36415   3.988   3.364  17.695  0.1170  0.6826 -0.1370
 8318SOL    HW136416   4.009   3.454  17.669 -1.6107  1.8529  2.5553
 8318SOL    HW236417   4.002   3.316  17.613 -1.4807  0.2464 -0.1462
 8319SOL     OW36418   2.131   0.951   6.126  0.3343  0.8061 -0.0929
 8319SOL    HW136419   2.198   0.958   6.059  1.5014 -2.3548  0.7657
 8319SOL    HW236420   2.173   0.900   6.195 -2.4290 -0.5086  0.6189
 8320SOL     OW36421   4.406   4.016   5.195  0.0992  0.6356  0.0058
 8320SOL    HW136422   4.380   4.044   5.108  0.8902 -1.0438 -0.7623
 8320SOL    HW236423   4.384   4.094   5.247 -1.2412 -0.3655  0.9271
 8321SOL     OW36424   1.697   0.656   4.505 -0.4644  0.0457  0.1029
 8321SOL    HW136425   1.715   0.670   4.412  0.4924  3.8435  0.8399
 8321SOL    HW236426   1.709   0.741   4.548  2.9085 -0.2980 -0.1532
 8322SOL     OW36427   0.586   0.685  10.171 -0.0199  0.0762  0.6300
 8322SOL    HW136428   0.628   0.756  10.123  0.3300 -0.6986 -0.2010
 8322SOL    HW236429   0.600   0.713  10.262 -0.1724 -2.0335  1.3132
 8323SOL     OW36430   1.540   0.845   3.110  0.1514  0.2122  0.1257
 8323SOL    HW136431   1.545   0.939   3.089 -0.1203  0.1529 -0.2053
 8323SOL    HW236432   1.458   0.843   3.159  0.1270 -0.4529  0.0579
 8324SOL     OW36433   2.733   0.620   0.142 -0.2979 -0.0566  0.2125
 8324SOL    HW136434   2.749   0.526   0.138 -2.6744 -0.4286 -0.5377
 8324SOL    HW236435   2.652   0.620   0.193  0.2901 -0.4686  1.1320
 8325SOL     OW36436   1.833   1.795  16.612  0.3910  0.2689  0.1904
 8325SOL    HW136437   1.817   1.781  16.519  0.8562  1.6768 -0.1000
 8325SOL    HW236438   1.898   1.728  16.635  0.6334  0.6174  0.5247
 8326SOL     OW36439   4.288   3.667   1.805 -0.2655 -0.9260 -0.1096
 8326SOL    HW136440   4.332   3.751   1.813 -2.8854  0.3237  1.0288
 8326SOL    HW236441   4.201   3.696   1.830  0.1016 -1.4768  1.8550
 8327SOL     OW36442   0.273   1.515  13.506  0.4229  0.4864 -0.7519
 8327SOL    HW136443   0.245   1.569  13.580  1.5277 -0.5235  0.4166
 8327SOL    HW236444   0.315   1.566  13.436  1.7938 -1.1467 -1.1217
 8328SOL     OW36445   4.618   3.658   4.699  0.7592  0.0562 -0.3546
 8328SOL    HW136446   4.671   3.586   4.733 -0.9185 -0.7739  0.4567
 8328SOL    HW236447   4.622   3.637   4.606 -0.5783 -0.3436 -0.3158
 8329SOL     OW36448   2.515   2.501   5.322  0.9474  0.7984 -0.1014
 8329SOL    HW136449   2.459   2.426   5.303  0.4017  1.0998  0.3077
 8329SOL    HW236450   2.594   2.472   5.277  0.1371  0.1409 -1.0988
 8330SOL     OW36451   0.858   1.314   2.144 -0.4284  0.3509  0.2010
 8330SOL    HW136452   0.815   1.237   2.105  1.0222 -0.1748 -0.3735
 8330SOL    HW236453   0.942   1.322   2.098 -0.5207  0.7056  0.0978
 8331SOL     OW36454   1.853   2.596  12.707 -0.2342 -0.0507 -0.6327
 8331SOL    HW136455   1.854   2.532  12.777 -0.0303  0.2781 -0.3363
 8331SOL    HW236456   1.904   2.556  12.636  0.2090  1.4548 -1.1648
 8332SOL     OW36457   4.570   1.458   8.883 -0.5034 -0.3945  0.0510
 8332SOL    HW136458   4.585   1.496   8.970  2.5647  0.9281 -1.0783
 8332SOL    HW236459   4.478   1.480   8.873 -0.2520  0.7115  0.1843
 8333SOL     OW36460   4.208   1.081  10.736  0.0166 -0.1302 -0.0825
 8333SOL    HW136461   4.151   1.085  10.813 -1.2412  1.5240 -1.0948
 8333SOL    HW236462   4.293   1.069  10.778  0.8902  0.6015 -1.6278
 8334SOL     OW36463   3.802   3.963  13.412 -0.1273 -0.6750  0.5538
 8334SOL    HW136464   3.716   3.921  13.417 -1.2445  1.5829  0.3549
 8334SOL    HW236465   3.785   4.015  13.333 -2.1912 -1.0700  0.7387
 8335SOL     OW36466   1.720   2.562   1.051 -0.4025 -0.4212  0.0978
 8335SOL    HW136467   1.712   2.537   0.959  0.3842 -0.2448 -0.0180
 8335SOL    HW236468   1.796   2.619   1.041 -0.9775  0.0800 -1.4237
 8336SOL     OW36469   2.058   1.566   6.094 -0.1634  0.2646 -0.1645
 8336SOL    HW136470   1.973   1.524   6.096 -0.0325  0.1570  2.1646
 8336SOL    HW236471   2.071   1.605   6.180  3.9126 -0.7894 -0.2861
 8337SOL     OW36472   3.855   4.250   6.478 -0.1527 -0.0124  0.1839
 8337SOL    HW136473   3.844   4.214   6.389  2.4584  1.5539 -0.7735
 8337SOL    HW236474   3.916   4.185   6.512  0.7796  0.3247 -0.8484
 8338SOL     OW36475   3.575   2.465  11.728  0.2514  0.1562 -0.5096
 8338SOL    HW136476   3.579   2.443  11.635 -0.8738 -0.1802 -0.4909
 8338SOL    HW236477   3.656   2.516  11.731  0.6372 -0.4566 -0.5146
 8339SOL     OW36478   2.933   0.904   4.483  0.0643 -0.0689 -0.3543
 8339SOL    HW136479   2.881   0.957   4.544  1.2619  0.0407  0.5649
 8339SOL    HW236480   2.978   0.843   4.540  1.1289  0.7914 -0.2538
 8340SOL     OW36481   3.543   2.231  11.862 -0.1179 -0.2722  0.1435
 8340SOL    HW136482   3.491   2.247  11.941 -2.3223 -1.8969 -0.9656
 8340SOL    HW236483   3.566   2.322  11.843  2.0536 -0.1663  3.1570
 8341SOL     OW36484   4.293   4.324   0.360  0.2780  0.2518 -0.0245
 8341SOL    HW136485   4.198   4.318   0.366  0.2384  0.5097 -0.3842
 8341SOL    HW236486   4.318   4.355   0.447  0.3762  2.4019 -0.8324
 8342SOL     OW36487   1.751   3.686   8.231 -0.1406  0.2377 -0.0321
 8342SOL    HW136488   1.666   3.701   8.272  1.8533  1.3033  3.7707
 8342SOL    HW236489   1.765   3.594   8.251  0.7617  0.2007 -0.8419
 8343SOL     OW36490   3.076   0.918  15.900 -0.3478 -0.4785  0.7197
 8343SOL    HW136491   3.159   0.943  15.860 -1.5614  1.4990 -0.6057
 8343SOL    HW236492   3.088   0.825  15.918  1.5780 -0.4332 -0.3453
 8344SOL     OW36493   4.316   3.456   4.553  0.1941 -0.3008  0.0747
 8344SOL    HW136494   4.394   3.441   4.501  0.3748 -0.0196  0.2679
 8344SOL    HW236495   4.303   3.550   4.542  0.0268 -0.0862  2.0139
 8345SOL     OW36496   2.295   0.595   4.872  0.3391 -0.7320  0.3939
 8345SOL    HW136497   2.352   0.633   4.939 -0.2680  1.1407 -0.1586
 8345SOL    HW236498   2.268   0.667   4.815 -1.0845 -2.2220 -0.8012
 8346SOL     OW36499   1.928   2.663   2.617 -0.3766  0.0260  0.6405
 8346SOL    HW136500   1.968   2.711   2.689  1.9595  0.3325 -0.8754
 8346SOL    HW236501   1.955   2.573   2.634 -0.9549 -0.7314 -2.4243
 8347SOL     OW36502   0.554   0.503  13.998  0.1754 -0.2112 -0.2503
 8347SOL    HW136503   0.530   0.540  13.913 -1.1721  0.8233  0.5759
 8347SOL    HW236504   0.643   0.532  14.019 -0.5601  1.3525  0.7874
 8348SOL     OW36505   1.152   2.421  12.014 -0.3270 -0.2276 -0.2432
 8348SOL    HW136506   1.105   2.345  12.047  0.0273  0.7304  2.5218
 8348SOL    HW236507   1.242   2.401  12.039  0.4424  4.2642  0.6824
 8349SOL     OW36508   1.649   0.108  11.632 -0.0855  0.0087 -0.0702
 8349SOL    HW136509   1.689   0.033  11.677  0.5631  1.0064  1.0209
 8349SOL    HW236510   1.669   0.180  11.691 -0.6147  0.1129 -0.0144
 8350SOL     OW36511   4.403   2.209   9.930 -0.0295 -0.8056 -0.9715
 8350SOL    HW136512   4.442   2.287   9.891  0.0341  0.1818  1.1054
 8350SOL    HW236513   4.460   2.180  10.001 -0.3451 -2.1459 -1.2609
 8351SOL     OW36514   2.394   0.022   7.446 -0.5069  0.2503  0.4149
 8351SOL    HW136515   2.432   0.097   7.491 -1.5458  0.1815  1.4416
 8351SOL    HW236516   2.468   4.715   7.395  0.8609  2.5282  1.0559
 8352SOL     OW36517   3.295   4.624   5.811 -0.2806  0.1045  0.6071
 8352SOL    HW136518   3.225   4.566   5.783 -0.7111  0.2551  1.3860
 8352SOL    HW236519   3.369   4.564   5.804  0.9079  1.6666 -0.2810
 8353SOL     OW36520   3.337   3.741   6.424 -0.1353 -0.0591  0.6642
 8353SOL    HW136521   3.407   3.799   6.455  0.7425 -0.1579 -1.1276
 8353SOL    HW236522   3.264   3.803   6.423  0.5025  0.6195 -2.2192
 8354SOL     OW36523   4.338   3.697   1.515  0.1358 -0.3752 -0.0707
 8354SOL    HW136524   4.428   3.685   1.547 -0.7270  0.0860  2.4697
 8354SOL    HW236525   4.286   3.665   1.588 -2.0105 -0.7088 -1.7550
 8355SOL     OW36526   2.804   3.227   5.177  0.4120 -0.0451  0.6180
 8355SOL    HW136527   2.820   3.214   5.084 -2.6722 -2.7861  0.4714
 8355SOL    HW236528   2.733   3.292   5.174  0.3470  0.0181  3.4328
 8356SOL     OW36529   1.729   1.326   5.847  0.3599  0.2179  0.1646
 8356SOL    HW136530   1.744   1.371   5.930 -1.6534  1.5440 -0.1974
 8356SOL    HW236531   1.659   1.263   5.863  1.7131 -1.3908 -0.2650
 8357SOL     OW36532   3.641   3.660   7.608 -0.6709  0.0964 -0.4879
 8357SOL    HW136533   3.688   3.578   7.624 -0.3976  0.1767 -0.8710
 8357SOL    HW236534   3.578   3.632   7.542 -0.7208 -0.1876 -0.3175
 8358SOL     OW36535   1.713   4.054   2.786 -0.3711 -0.0035  0.3689
 8358SOL    HW136536   1.730   4.146   2.807  2.5527 -0.6381  0.7388
 8358SOL    HW236537   1.619   4.049   2.768 -0.0445 -1.6246 -0.9249
 8359SOL     OW36538   3.952   3.362   2.826  0.2023 -0.3601 -0.0444
 8359SOL    HW136539   4.005   3.301   2.774 -1.0086  2.0040 -4.0252
 8359SOL    HW236540   4.020   3.377   2.892 -1.0852 -0.5327  1.3245
 8360SOL     OW36541   2.424   4.641   1.039 -0.6386 -0.0252 -0.1369
 8360SOL    HW136542   2.379   0.001   1.042  0.6194  0.5986  0.8861
 8360SOL    HW236543   2.515   4.668   1.040 -0.6090 -0.1319  0.0098
 8361SOL     OW36544   1.663   2.451  11.314  0.2839  0.1853 -0.6226
 8361SOL    HW136545   1.754   2.461  11.342  0.3511 -0.2362 -0.6846
 8361SOL    HW236546   1.619   2.482  11.393  1.6764  1.5653 -0.3780
 8362SOL     OW36547   4.459   3.802  16.763  0.1841  0.0121 -0.1133
 8362SOL    HW136548   4.421   3.805  16.675 -0.3085 -3.0154 -0.0312
 8362SOL    HW236549   4.549   3.831  16.753  1.1195 -2.5460  0.9414
 8363SOL     OW36550   3.267   3.737   1.627 -0.0548 -0.4011  0.8230
 8363SOL    HW136551   3.337   3.685   1.588 -2.6907 -1.3070 -2.7485
 8363SOL    HW236552   3.220   3.775   1.552  0.4287  1.3268  1.3955
 8364SOL     OW36553   3.575   0.628   3.673 -0.4796 -0.1676  0.1766
 8364SOL    HW136554   3.595   0.715   3.709 -2.8055  0.3930  0.1722
 8364SOL    HW236555   3.665   0.607   3.648 -0.7545  0.1201 -1.0493
 8365SOL     OW36556   3.498   1.252   7.189 -0.7204  0.4071  0.0341
 8365SOL    HW136557   3.457   1.225   7.271 -2.2457 -0.6961 -1.0968
 8365SOL    HW236558   3.451   1.333   7.171 -2.0929 -0.4023  0.0153
 8366SOL     OW36559   1.569   0.888  12.563 -0.6231  0.0252 -0.5675
 8366SOL    HW136560   1.544   0.808  12.609  0.2020  0.1212  0.0560
 8366SOL    HW236561   1.494   0.878  12.505 -0.7374 -2.2204 -0.0367
 8367SOL     OW36562   2.234   2.527   3.630 -0.5953 -0.1878  0.3654
 8367SOL    HW136563   2.209   2.618   3.650  0.6780 -0.0581  1.3391
 8367SOL    HW236564   2.329   2.529   3.643 -0.5037 -0.3588 -0.2974
 8368SOL     OW36565   3.098   3.597   8.509 -0.5299  0.4144 -0.5002
 8368SOL    HW136566   3.081   3.625   8.599  4.3170  0.3215  0.4549
 8368SOL    HW236567   3.014   3.635   8.484 -0.5350 -0.5926 -1.9850
 8369SOL     OW36568   4.459   0.381   4.392  0.0045  0.2721 -0.4515
 8369SOL    HW136569   4.504   0.416   4.470 -1.2335  2.7442 -0.8522
 8369SOL    HW236570   4.412   0.310   4.436 -0.1192 -0.4031 -1.6764
 8370SOL     OW36571   3.258   2.668   2.406  0.1863 -0.1809 -0.4157
 8370SOL    HW136572   3.244   2.692   2.314  2.1431 -0.5784 -0.8283
 8370SOL    HW236573   3.336   2.722   2.418  1.5914 -2.1548 -0.7640
 8371SOL     OW36574   3.478   3.533   1.993 -0.4227  0.3068  0.9255
 8371SOL    HW136575   3.549   3.583   1.953  0.5155 -2.4262 -0.7965
 8371SOL    HW236576   3.497   3.440   1.982 -2.0856  0.0804 -0.0057
 8372SOL     OW36577   0.353   0.792   3.199 -0.0126 -0.5276  0.4385
 8372SOL    HW136578   0.391   0.704   3.196 -0.8964 -0.8885 -0.2066
 8372SOL    HW236579   0.422   0.845   3.240 -2.4022  1.2030  2.2116
 8373SOL     OW36580   3.584   4.022   7.164 -0.5549 -0.2567  0.0515
 8373SOL    HW136581   3.659   4.013   7.105 -0.2647 -2.4144  0.7666
 8373SOL    HW236582   3.627   4.083   7.224 -0.2559  1.8313 -2.2527
 8374SOL     OW36583   0.889   0.762  13.464  0.7508 -0.6233  0.6154
 8374SOL    HW136584   0.817   0.719  13.418 -0.0731  1.0753  0.3074
 8374SOL    HW236585   0.853   0.754  13.553  0.5312 -1.3800  0.4598
 8375SOL     OW36586   0.278   2.146  15.291 -0.3499 -0.7043 -0.0070
 8375SOL    HW136587   0.235   2.151  15.206  0.3915 -3.7583 -0.5497
 8375SOL    HW236588   0.334   2.069  15.280 -2.0386 -2.2763  2.3828
 8376SOL     OW36589   0.393   2.926  14.869  0.3366  0.0220 -0.2119
 8376SOL    HW136590   0.309   2.951  14.906 -0.2263 -1.5801 -0.3637
 8376SOL    HW236591   0.448   2.945  14.944 -1.1359 -2.2599  1.4497
 8377SOL     OW36592   4.715   1.548   7.365  0.1170  0.3999  0.1976
 8377SOL    HW136593   4.687   1.469   7.320 -2.1627  0.7267  1.0281
 8377SOL    HW236594   0.081   1.530   7.393  0.5647 -0.1046 -1.6048
 8378SOL     OW36595   0.094   2.569   1.381  0.2397  0.1692 -0.0591
 8378SOL    HW136596   0.069   2.603   1.296  0.1429 -0.1400 -0.1545
 8378SOL    HW236597   0.013   2.533   1.416  0.8533 -0.3263  0.8677
 8379SOL     OW36598   4.593   1.265   4.421 -0.1345 -0.0064 -0.3421
 8379SOL    HW136599   4.569   1.202   4.488 -2.8750 -0.9101 -2.1638
 8379SOL    HW236600   4.572   1.222   4.338 -0.3542 -1.0721  0.2687
 8380SOL     OW36601   3.260   3.367   3.653  0.0532 -0.1801  1.0154
 8380SOL    HW136602   3.245   3.446   3.705  0.5250 -0.3763  1.4489
 8380SOL    HW236603   3.220   3.301   3.709  2.0468 -0.8548  1.6301
 8381SOL     OW36604   1.141   0.593  14.353  0.5268  0.3832  0.4463
 8381SOL    HW136605   1.215   0.535  14.334  0.4344  0.1354  0.8315
 8381SOL    HW236606   1.190   0.675  14.356 -1.3544  1.5758 -1.0087
 8382SOL     OW36607   2.463   4.078   5.159 -0.2522 -0.4760 -0.0746
 8382SOL    HW136608   2.507   4.161   5.179 -2.1728 -0.1539  2.8825
 8382SOL    HW236609   2.489   4.020   5.230  1.7359 -0.1023 -0.5074
 8383SOL     OW36610   2.681   3.262   3.650 -0.4092 -0.7464 -0.0747
 8383SOL    HW136611   2.670   3.357   3.661 -0.5438 -0.7999  0.2619
 8383SOL    HW236612   2.607   3.219   3.692  0.5618 -1.2065  1.1843
 8384SOL     OW36613   4.501   4.028   9.408 -0.0174  0.8182  0.2588
 8384SOL    HW136614   4.419   3.978   9.411  1.0226 -0.8057  1.1559
 8384SOL    HW236615   4.536   3.993   9.326  0.1644  1.1953  0.1744
 8385SOL     OW36616   0.520   0.712  11.426 -0.3993  0.7161  0.2146
 8385SOL    HW136617   0.507   0.799  11.388  0.7487  0.3862 -0.9384
 8385SOL    HW236618   0.595   0.715  11.486 -0.9428  2.4942  0.8039
 8386SOL     OW36619   2.630   0.296   3.903  1.2982 -0.3792 -0.0612
 8386SOL    HW136620   2.665   0.314   3.990 -0.1917 -1.3029  0.7213
 8386SOL    HW236621   2.642   0.202   3.886 -0.3770 -1.1547  3.2325
 8387SOL     OW36622   2.026   1.004   3.902  0.2531  0.0908 -0.3654
 8387SOL    HW136623   2.098   1.050   3.947  0.0992 -0.1311  0.1080
 8387SOL    HW236624   1.973   1.076   3.867  0.9149  0.7076 -0.1020
 8388SOL     OW36625   2.224   0.648  15.293  0.4659 -0.0954  0.2806
 8388SOL    HW136626   2.248   0.559  15.318  1.1149 -0.0519 -0.1626
 8388SOL    HW236627   2.300   0.668  15.238  0.9771 -0.0901  0.9746
 8389SOL     OW36628   4.334   3.400   0.575  0.0094 -0.3826  0.0365
 8389SOL    HW136629   4.262   3.421   0.515  0.5433 -0.8066 -0.7588
 8389SOL    HW236630   4.357   3.310   0.553 -3.3176 -0.3634 -3.5313
 8390SOL     OW36631   2.861   2.878   5.836  0.0396 -0.2768 -1.0172
 8390SOL    HW136632   2.957   2.884   5.840  0.0393 -0.0119 -1.4001
 8390SOL    HW236633   2.848   2.910   5.747 -2.0578  1.7270  0.0181
 8391SOL     OW36634   4.656   4.225   4.870 -0.0547  0.0523 -0.0322
 8391SOL    HW136635   4.582   4.280   4.898  1.2304  2.3831 -1.2215
 8391SOL    HW236636   4.719   4.291   4.842 -0.5732  0.9937  1.0126
 8392SOL     OW36637   1.937   0.130  17.342 -0.8995 -0.0339 -0.4629
 8392SOL    HW136638   1.856   0.135  17.392 -1.2872 -1.1071 -0.9881
 8392SOL    HW236639   1.997   0.098  17.409  0.8638 -1.4594 -2.7172
 8393SOL     OW36640   2.648   4.536  16.657 -0.1269 -0.6195  0.1375
 8393SOL    HW136641   2.647   4.618  16.608  1.3272 -0.7210 -0.0400
 8393SOL    HW236642   2.732   4.542  16.702  0.3547  0.7607 -0.9308
 8394SOL     OW36643   0.229   2.804   5.835  0.1083 -0.6346  0.0834
 8394SOL    HW136644   0.288   2.789   5.909 -0.4814 -1.5266  0.3711
 8394SOL    HW236645   0.230   2.715   5.800 -0.1226 -1.3686  1.9757
 8395SOL     OW36646   2.802   1.384   5.071  0.0173  0.3680  0.0788
 8395SOL    HW136647   2.707   1.390   5.074 -0.1414 -1.5675 -1.5793
 8395SOL    HW236648   2.809   1.354   4.981 -0.2051 -0.8005  0.4490
 8396SOL     OW36649   3.634   2.445   4.064 -0.3252  0.0296 -0.0459
 8396SOL    HW136650   3.664   2.427   3.975  2.3805 -1.4217  1.1650
 8396SOL    HW236651   3.625   2.540   4.052  1.2950  0.1876  0.0788
 8397SOL     OW36652   0.784   0.775   0.507 -0.0499  0.3557 -0.2772
 8397SOL    HW136653   0.750   0.690   0.533  0.5602 -0.2591 -1.5005
 8397SOL    HW236654   0.840   0.759   0.431 -0.1937  0.5760 -0.4299
 8398SOL     OW36655   2.802   4.461   2.126 -0.1286  0.2941  0.1202
 8398SOL    HW136656   2.776   4.553   2.129 -1.0459  0.0602 -0.4285
 8398SOL    HW236657   2.825   4.438   2.216 -0.4662 -2.6274 -0.5408
 8399SOL     OW36658   3.680   4.320   3.191  0.1393  0.2283  0.2069
 8399SOL    HW136659   3.719   4.394   3.144 -1.2557  0.8411  0.0101
 8399SOL    HW236660   3.692   4.365   3.274 -0.4409  1.1856 -0.2188
 8400SOL     OW36661   4.225   1.382   3.435 -0.6984 -0.8376 -0.0761
 8400SOL    HW136662   4.216   1.340   3.521  0.1866  0.1824  0.5248
 8400SOL    HW236663   4.296   1.442   3.459  0.3598 -0.8482 -3.1899
 8401SOL     OW36664   0.368   3.831  12.811  0.5106 -0.4752  0.3064
 8401SOL    HW136665   0.275   3.810  12.822 -0.3159  2.7249 -0.5232
 8401SOL    HW236666   0.382   3.888  12.886  2.1187 -0.4424 -0.0312
 8402SOL     OW36667   0.136   2.597   5.385  0.1702 -0.5651 -0.1765
 8402SOL    HW136668   0.209   2.652   5.413 -2.0174  1.7869  0.8648
 8402SOL    HW236669   0.139   2.614   5.291  0.0222  0.0602 -0.0677
 8403SOL     OW36670   3.166   3.996  10.361 -0.3625  0.4475 -0.5695
 8403SOL    HW136671   3.198   3.905  10.361 -1.4451  0.0542  2.5318
 8403SOL    HW236672   3.251   4.039  10.368  0.0262 -0.2394 -0.9931
 8404SOL     OW36673   4.326   3.943   5.579 -0.2068  0.1613 -0.1319
 8404SOL    HW136674   4.366   3.983   5.656  2.4326 -0.4090 -1.2214
 8404SOL    HW236675   4.382   3.865   5.577 -0.7310 -0.1770 -1.8154
 8405SOL     OW36676   3.536   1.542   3.594 -0.2264 -0.3859  0.5572
 8405SOL    HW136677   3.468   1.483   3.562 -0.4540  0.3064 -0.2268
 8405SOL    HW236678   3.604   1.484   3.631  0.7302 -1.2771 -2.5991
 8406SOL     OW36679   2.573   1.367  14.068  0.1701  0.0636  0.4112
 8406SOL    HW136680   2.484   1.371  14.032  0.4012 -1.8853 -0.3310
 8406SOL    HW236681   2.602   1.282  14.036  1.5157  0.5065  0.4842
 8407SOL     OW36682   0.996   3.974   6.729 -0.3642 -0.0246 -0.6134
 8407SOL    HW136683   1.059   3.943   6.664 -0.2671 -2.4414  0.6187
 8407SOL    HW236684   1.039   3.956   6.813 -1.7545  1.1218  0.3580
 8408SOL     OW36685   0.883   1.779   4.544  0.0677  0.2426  0.2823
 8408SOL    HW136686   0.966   1.731   4.533  1.4521  2.4270  1.1242
 8408SOL    HW236687   0.836   1.717   4.600  0.4412 -0.6705 -0.3948
 8409SOL     OW36688   1.435   3.465   3.528  0.1630 -0.1332 -0.1404
 8409SOL    HW136689   1.510   3.510   3.489  0.1859 -1.4571 -1.6449
 8409SOL    HW236690   1.374   3.533   3.554 -0.7491 -0.1426 -2.2714
 8410SOL     OW36691   4.280   4.349   9.277  0.4162 -0.5081 -0.2321
 8410SOL    HW136692   4.299   4.417   9.213  1.0925  1.3517  1.9250
 8410SOL    HW236693   4.338   4.379   9.347 -1.1286 -2.4394  1.9236
 8411SOL     OW36694   3.113   1.733   3.294 -0.0288  0.4737  0.2753
 8411SOL    HW136695   3.161   1.650   3.296 -0.4233  0.2177 -0.7454
 8411SOL    HW236696   3.159   1.777   3.365  1.0755 -0.0514 -0.1196
 8412SOL     OW36697   3.836   2.920   6.069 -0.4752 -0.1467 -0.7783
 8412SOL    HW136698   3.838   2.936   6.163  3.0333 -0.1884 -0.8351
 8412SOL    HW236699   3.775   2.850   6.046 -0.1981 -0.1819 -1.4257
 8413SOL     OW36700   2.618   4.220  11.684 -0.0313  0.5003 -0.3692
 8413SOL    HW136701   2.667   4.281  11.738 -0.0671  1.5707 -1.5352
 8413SOL    HW236702   2.560   4.187  11.753  0.0535 -1.0824 -1.0515
 8414SOL     OW36703   4.207   3.878   5.303  0.2498  0.0646 -0.4016
 8414SOL    HW136704   4.205   3.917   5.391 -0.9117 -0.9442  0.0233
 8414SOL    HW236705   4.290   3.906   5.266 -0.1730  2.2850  0.3631
 8415SOL     OW36706   4.057   0.063   5.230  0.1215 -0.1085  0.0810
 8415SOL    HW136707   3.975   0.016   5.244 -0.4230  0.3965 -1.4745
 8415SOL    HW236708   4.111   4.714   5.260 -0.0107  0.0590  0.7254
 8416SOL     OW36709   4.326   0.197   4.520  0.1991  0.7398  0.4930
 8416SOL    HW136710   4.271   0.157   4.453  1.7188  0.0365 -0.3181
 8416SOL    HW236711   4.294   0.152   4.598 -0.1850 -1.0558 -0.7068
 8417SOL     OW36712   0.702   0.309   6.440  0.5252  0.4405  0.1792
 8417SOL    HW136713   0.713   0.404   6.441  0.7082  0.4250 -1.2029
 8417SOL    HW236714   0.718   0.288   6.532 -0.8726 -1.1012  0.0667
 8418SOL     OW36715   1.194   2.718   6.628  0.0228  0.1003 -0.1280
 8418SOL    HW136716   1.166   2.806   6.603  0.5400 -0.3266 -2.2181
 8418SOL    HW236717   1.150   2.695   6.710  0.5485  0.6839  0.3122
 8419SOL     OW36718   2.775   0.662   6.374  0.0307 -0.2556 -0.0801
 8419SOL    HW136719   2.797   0.727   6.441 -0.5260 -1.1753  0.9934
 8419SOL    HW236720   2.699   0.609   6.397 -0.2228  0.9066  1.7744
 8420SOL     OW36721   2.465   3.585   2.933  0.0727 -0.0008 -0.5393
 8420SOL    HW136722   2.501   3.556   3.017 -0.3809  2.6902  0.5904
 8420SOL    HW236723   2.542   3.604   2.880  1.3431  1.5568  1.8743
 8421SOL     OW36724   4.091   3.886   9.398 -0.0252  0.0096  0.4040
 8421SOL    HW136725   4.110   3.975   9.368 -3.0520 -0.1665 -2.0227
 8421SOL    HW236726   4.031   3.905   9.470  0.3890  2.5858  0.0759
 8422SOL     OW36727   1.517   0.469   7.997  0.0290  0.1022 -0.4959
 8422SOL    HW136728   1.586   0.411   7.965 -1.0987 -0.2493 -2.3071
 8422SOL    HW236729   1.497   0.428   8.081 -0.1676 -0.0671 -0.6261
 8423SOL     OW36730   4.572   4.373   7.458  0.0396 -0.0213 -0.1336
 8423SOL    HW136731   4.539   4.328   7.535  1.7550  0.8369  1.1136
 8423SOL    HW236732   4.590   4.303   7.395 -0.4406 -0.0345 -0.2572
 8424SOL     OW36733   4.553   4.462   2.476 -0.2350  0.7598  0.2161
 8424SOL    HW136734   4.559   4.529   2.408 -1.6208 -0.1775 -0.8345
 8424SOL    HW236735   4.466   4.424   2.477 -0.5000  1.4434  3.2145
 8425SOL     OW36736   3.019   2.591   4.738 -0.7991  0.0475  0.3145
 8425SOL    HW136737   3.031   2.502   4.771  2.6661  0.8071  1.1482
 8425SOL    HW236738   2.998   2.585   4.645 -3.9239  1.4376  0.9386
 8426SOL     OW36739   2.892   1.206   6.802 -0.2582 -0.7996  0.5363
 8426SOL    HW136740   2.955   1.164   6.744  1.8259  0.6237  1.7746
 8426SOL    HW236741   2.805   1.204   6.762  1.0783 -3.2247 -2.2063
 8427SOL     OW36742   4.213   2.423  12.128 -0.1064 -0.2647  0.8177
 8427SOL    HW136743   4.210   2.433  12.223  1.5704 -1.0137  0.9509
 8427SOL    HW236744   4.289   2.366  12.113 -0.6028 -0.3697 -1.2555
 8428SOL     OW36745   3.283   2.720   8.335 -0.5746 -0.1090 -0.3506
 8428SOL    HW136746   3.337   2.744   8.410  0.6012  2.5339 -2.0023
 8428SOL    HW236747   3.198   2.697   8.373 -0.5025 -0.2428 -0.2738
 8429SOL     OW36748   1.041   3.460  15.471  0.3154 -0.8182  0.4757
 8429SOL    HW136749   1.057   3.389  15.533 -0.9017 -0.0615  1.6482
 8429SOL    HW236750   1.015   3.411  15.393 -2.1757  0.4772  0.4821
 8430SOL     OW36751   3.786   1.537   3.980  0.2549  0.0214 -0.0235
 8430SOL    HW136752   3.747   1.470   3.923  0.0750  0.4666 -0.4221
 8430SOL    HW236753   3.830   1.590   3.913  1.4691  0.9870  1.5453
 8431SOL     OW36754   0.506   0.672  14.767  0.5582 -0.1380  0.3428
 8431SOL    HW136755   0.570   0.604  14.750  0.4127 -0.7669  2.3026
 8431SOL    HW236756   0.554   0.730  14.826 -1.3616  0.2956  1.5056
 8432SOL     OW36757   1.986   3.410   3.568  0.3480 -0.1351  0.0406
 8432SOL    HW136758   1.896   3.438   3.581 -0.0820 -0.2022 -2.6077
 8432SOL    HW236759   2.029   3.492   3.543  0.5578  0.2692  1.7590
 8433SOL     OW36760   0.979   2.338   6.127  0.1019  0.1908 -0.6051
 8433SOL    HW136761   0.986   2.433   6.133 -0.5106  0.2247 -0.4156
 8433SOL    HW236762   1.059   2.302   6.166 -1.0059  0.0537  1.5136
 8434SOL     OW36763   0.480   3.193   2.841 -0.2147  0.1460 -0.4361
 8434SOL    HW136764   0.414   3.255   2.809 -1.6036 -1.1034 -0.0155
 8434SOL    HW236765   0.502   3.163   2.753  1.2040 -1.0124  0.3210
 8435SOL     OW36766   1.618   1.822   3.781  0.3779 -0.2815 -0.1484
 8435SOL    HW136767   1.647   1.873   3.705 -0.5032 -2.2322 -1.7928
 8435SOL    HW236768   1.529   1.855   3.793  0.3861 -0.7424  1.1832
 8436SOL     OW36769   1.191   0.520   0.545 -0.1881 -0.0113 -0.2713
 8436SOL    HW136770   1.166   0.605   0.581  0.5364 -1.0098  2.5565
 8436SOL    HW236771   1.260   0.545   0.483  0.5286  1.2209  1.0411
 8437SOL     OW36772   1.386   1.370   5.672  0.1027 -0.0466 -0.2311
 8437SOL    HW136773   1.430   1.370   5.587  2.1738  1.8371  0.8104
 8437SOL    HW236774   1.400   1.463   5.691 -2.2941 -0.0098  1.3969
 8438SOL     OW36775   4.682   1.666  11.159  0.4708 -0.6361  0.3906
 8438SOL    HW136776   4.687   1.640  11.251  0.8628 -0.4465  0.4218
 8438SOL    HW236777   0.036   1.721  11.155  0.6599 -0.9604 -0.3061
 8439SOL     OW36778   1.643   2.628   6.931 -0.0742 -0.6044  0.0274
 8439SOL    HW136779   1.699   2.687   6.880  1.1734  0.6539  2.8360
 8439SOL    HW236780   1.565   2.683   6.944  0.5053  0.1328  0.3718
 8440SOL     OW36781   3.546   2.398  14.436 -0.0018  0.5008  0.4874
 8440SOL    HW136782   3.556   2.321  14.492 -2.8418 -0.3545 -0.1919
 8440SOL    HW236783   3.530   2.461  14.506  0.1726  0.0431  0.9411
 8441SOL     OW36784   4.197   3.687   2.567 -1.0821 -0.0123  0.5010
 8441SOL    HW136785   4.273   3.741   2.588 -0.8717 -0.1050 -0.0121
 8441SOL    HW236786   4.181   3.638   2.648  0.6237  1.3287  1.6389
 8442SOL     OW36787   3.326   1.970   0.286 -1.0667 -0.5467 -0.7531
 8442SOL    HW136788   3.277   1.935   0.360  0.2371  0.7391  0.7195
 8442SOL    HW236789   3.385   2.037   0.322 -1.2139 -0.7684 -0.0938
 8443SOL     OW36790   4.398   3.853   7.245 -0.0575  0.1749  0.3765
 8443SOL    HW136791   4.376   3.932   7.195 -1.5656 -0.3880  0.1577
 8443SOL    HW236792   4.494   3.848   7.244 -0.0279  0.8893 -0.4880
 8444SOL     OW36793   3.468   1.254   5.241  0.9401 -0.0895 -0.1751
 8444SOL    HW136794   3.489   1.315   5.171 -0.8572  0.1717 -0.5021
 8444SOL    HW236795   3.393   1.294   5.288  2.5547 -0.7068  2.9435
 8445SOL     OW36796   3.003   2.603   2.894 -0.1282  0.1549 -0.2229
 8445SOL    HW136797   2.913   2.601   2.926 -0.9800 -1.2403 -2.6954
 8445SOL    HW236798   3.049   2.541   2.951 -1.3493  0.4049  1.0290
 8446SOL     OW36799   2.766   2.546   1.032 -0.3578  0.0625  0.0921
 8446SOL    HW136800   2.854   2.578   1.048 -0.5081 -0.1189  1.2946
 8446SOL    HW236801   2.759   2.455   1.061  2.7978  0.1829  1.2103
 8447SOL     OW36802   0.217   4.512   7.946  0.0550 -0.3065 -0.6143
 8447SOL    HW136803   0.200   4.515   8.040 -1.8964 -1.6762 -0.9404
 8447SOL    HW236804   0.129   4.501   7.912 -0.3389 -0.9698  0.6549
 8448SOL     OW36805   4.586   4.096  12.833 -0.2718 -0.0350 -0.2109
 8448SOL    HW136806   4.610   4.086  12.741 -1.8546 -0.3595 -0.5806
 8448SOL    HW236807   4.493   4.080  12.842 -0.9913  2.1798 -3.6325
 8449SOL     OW36808   0.317   3.556  14.053 -0.0164 -0.1509  0.1970
 8449SOL    HW136809   0.296   3.544  13.961  0.4184  1.5081 -0.1283
 8449SOL    HW236810   0.382   3.486  14.058 -0.1312 -0.0109  3.5982
 8450SOL     OW36811   1.431   2.162   8.821  0.4892  1.0807 -0.2201
 8450SOL    HW136812   1.364   2.094   8.813  0.4262  1.0127  0.9830
 8450SOL    HW236813   1.462   2.135   8.907 -1.4445 -2.0176 -0.4709
 8451SOL     OW36814   1.060   3.563   6.735 -0.3277  0.1940  1.0680
 8451SOL    HW136815   1.036   3.471   6.744  2.0955 -0.7201 -1.3678
 8451SOL    HW236816   1.107   3.585   6.815  0.2031  0.4305  0.6951
 8452SOL     OW36817   1.346   1.514   9.197  0.3862 -0.2774 -0.0421
 8452SOL    HW136818   1.352   1.609   9.207  0.6009 -0.0319 -2.4552
 8452SOL    HW236819   1.261   1.496   9.235 -0.4415 -1.9292 -2.6337
 8453SOL     OW36820   4.383   3.170   6.100 -0.2054  0.1329 -0.0774
 8453SOL    HW136821   4.423   3.084   6.116 -1.6882 -0.7488 -1.1114
 8453SOL    HW236822   4.340   3.148   6.018 -0.9943  0.3022  0.2839
 8454SOL     OW36823   2.750   1.866  15.346  0.5844 -0.1711 -0.3321
 8454SOL    HW136824   2.800   1.794  15.384 -1.0339 -1.1983 -0.1593
 8454SOL    HW236825   2.810   1.876  15.272  0.5514  0.8134 -0.2316
 8455SOL     OW36826   3.352   0.041   7.931 -0.0601 -0.1945 -0.4346
 8455SOL    HW136827   3.278   0.004   7.978  0.2135  0.0717  0.1997
 8455SOL    HW236828   3.359   4.692   7.870 -0.5424 -0.5894 -0.0129
 8456SOL     OW36829   3.509   3.218   7.075  0.9472 -0.0287  0.4614
 8456SOL    HW136830   3.483   3.255   6.991  0.8052 -0.8582  0.1427
 8456SOL    HW236831   3.425   3.216   7.121  1.4765  0.1326  1.4482
 8457SOL     OW36832   3.391   3.052   9.070  0.1128  0.5360  0.1118
 8457SOL    HW136833   3.456   3.073   9.137 -0.6760 -4.0134  2.3355
 8457SOL    HW236834   3.364   3.141   9.047  0.8104  0.9365  0.8142
 8458SOL     OW36835   2.598   4.561   8.214  0.3371  0.4140  0.0743
 8458SOL    HW136836   2.687   4.590   8.234  0.4559  0.4151 -0.4564
 8458SOL    HW236837   2.561   4.566   8.302 -0.6308 -2.2665 -0.2039
 8459SOL     OW36838   4.325   0.875  16.052  0.4848  0.0574 -0.0169
 8459SOL    HW136839   4.344   0.903  15.962 -0.8564  0.6875 -0.0967
 8459SOL    HW236840   4.413   0.866  16.091  0.0604 -0.7149  0.7607
 8460SOL     OW36841   2.814   1.071   8.865 -0.7615 -0.0215  0.5972
 8460SOL    HW136842   2.850   1.007   8.803 -1.9813 -0.7299  0.6112
 8460SOL    HW236843   2.756   1.119   8.806 -0.4738  1.3857  1.4686
 8461SOL     OW36844   0.629   0.134   5.885 -0.0274  0.2907  0.3687
 8461SOL    HW136845   0.583   0.205   5.930  0.2012 -1.2018  3.0065
 8461SOL    HW236846   0.558   0.074   5.860 -1.4566  2.0059  0.3075
 8462SOL     OW36847   2.469   2.802   2.170  0.1693  0.3848 -0.2590
 8462SOL    HW136848   2.391   2.769   2.125  0.1063 -0.6571  0.6088
 8462SOL    HW236849   2.505   2.852   2.096 -0.5001 -0.1313 -0.9338
 8463SOL     OW36850   3.708   0.550   9.236  0.1706 -0.2277  0.3138
 8463SOL    HW136851   3.796   0.583   9.218  1.2694 -2.5788  1.3189
 8463SOL    HW236852   3.731   0.463   9.268  0.9909  0.4316  1.5013
 8464SOL     OW36853   1.274   2.735  12.108  0.3414 -0.1834 -0.2263
 8464SOL    HW136854   1.364   2.737  12.140  0.2699 -1.0889  0.0173
 8464SOL    HW236855   1.237   2.812  12.151  2.0176  0.1566  0.6130
 8465SOL     OW36856   4.091   0.309   9.070 -0.2039 -0.0962  0.1226
 8465SOL    HW136857   4.143   0.232   9.047 -0.1279  0.2462 -0.8674
 8465SOL    HW236858   4.050   0.273   9.149  0.8662 -0.4093  0.5332
 8466SOL     OW36859   2.439   1.321   7.891  0.5222  0.0454 -0.3989
 8466SOL    HW136860   2.493   1.397   7.870 -0.0241  1.2743  2.5996
 8466SOL    HW236861   2.353   1.337   7.852  0.4035  0.7843  0.1584
 8467SOL     OW36862   0.289   3.069   9.713 -0.0385  0.2629  0.2063
 8467SOL    HW136863   0.361   3.124   9.745 -1.8253  2.9613 -0.4535
 8467SOL    HW236864   0.252   3.033   9.793  1.5526 -2.4819 -0.2579
 8468SOL     OW36865   1.682   0.254  14.618  0.0419  0.0527  0.6087
 8468SOL    HW136866   1.686   0.250  14.713  0.8143  1.4614  0.6390
 8468SOL    HW236867   1.752   0.200  14.582  0.3559 -0.0332  1.3464
 8469SOL     OW36868   1.830   3.837   3.672  0.1215 -0.0777 -0.0499
 8469SOL    HW136869   1.760   3.901   3.660 -0.4266 -0.4983  0.9423
 8469SOL    HW236870   1.790   3.795   3.748  2.0188 -0.2337  0.8837
 8470SOL     OW36871   3.347   4.083   0.021  0.2581 -0.8699  0.3952
 8470SOL    HW136872   3.348   4.084   0.116 -1.0865  4.2528  0.3926
 8470SOL    HW236873   3.436   4.051   0.010 -0.8637 -3.4674 -0.9606
 8471SOL     OW36874   0.229   4.111   8.929 -0.1758  0.0805 -0.0058
 8471SOL    HW136875   0.265   4.178   8.987 -1.9369  0.7269  0.3441
 8471SOL    HW236876   0.246   4.028   8.975 -0.7265 -0.3603 -0.6111
 8472SOL     OW36877   2.757   2.733  13.584 -0.1797  0.0570 -0.1414
 8472SOL    HW136878   2.711   2.812  13.557 -0.6991  0.1480  1.0046
 8472SOL    HW236879   2.848   2.762  13.588  0.4921 -1.8913 -1.2496
 8473SOL     OW36880   4.415   1.791   0.686 -0.3341 -0.4632  0.0759
 8473SOL    HW136881   4.448   1.702   0.677  0.9145  0.2658 -2.4267
 8473SOL    HW236882   4.490   1.824   0.735 -0.8177  0.3353  0.2768
 8474SOL     OW36883   0.503   3.760   2.041  0.3537  0.6737  0.0325
 8474SOL    HW136884   0.426   3.742   2.095 -0.6548  0.1628 -1.5869
 8474SOL    HW236885   0.494   3.854   2.024 -2.7847  0.2404 -0.7235
 8475SOL     OW36886   4.557   4.073   6.110  0.2812  0.6130 -0.1194
 8475SOL    HW136887   4.574   4.121   6.029 -0.8343 -1.8015 -1.7895
 8475SOL    HW236888   4.616   4.000   6.093  0.1911  0.5711 -0.2544
 8476SOL     OW36889   2.013   1.876   6.464  0.0267  0.3235 -0.1897
 8476SOL    HW136890   1.927   1.919   6.463 -0.2827 -0.2909  0.0324
 8476SOL    HW236891   2.011   1.824   6.384 -1.9538 -0.9492  0.6671
 8477SOL     OW36892   1.836   3.586   5.309 -0.0008 -0.1093  0.7007
 8477SOL    HW136893   1.803   3.546   5.389  1.7173  0.2275  1.5833
 8477SOL    HW236894   1.837   3.505   5.259  2.2228 -0.1046  0.7195
 8478SOL     OW36895   0.708   1.740   6.865  0.3566 -0.0694 -1.0746
 8478SOL    HW136896   0.664   1.656   6.865 -0.6993  0.4682  0.9318
 8478SOL    HW236897   0.787   1.717   6.915 -0.2624  1.8599  0.8259
 8479SOL     OW36898   2.990   1.009  14.566  0.3385 -0.0892 -0.0850
 8479SOL    HW136899   2.998   1.086  14.623 -2.6639  0.8864 -1.0144
 8479SOL    HW236900   3.031   0.937  14.615 -0.4490  0.3647  1.2488
 8480SOL     OW36901   4.716   1.319   2.123  0.4059  0.4021 -0.4153
 8480SOL    HW136902   4.663   1.350   2.196 -0.1817 -0.3503 -0.5210
 8480SOL    HW236903   0.046   1.256   2.169 -1.6166  2.2871  4.5564
 8481SOL     OW36904   2.987   0.962   2.982 -0.4412  0.0765  0.0041
 8481SOL    HW136905   3.034   1.043   2.963 -0.7527  0.6351  1.6040
 8481SOL    HW236906   3.004   0.913   2.902  2.8692  3.4463 -1.3584
 8482SOL     OW36907   2.904   2.780   2.217 -0.1731 -0.0563 -0.3781
 8482SOL    HW136908   2.995   2.750   2.215 -0.4608 -0.9369 -0.3407
 8482SOL    HW236909   2.883   2.790   2.124 -1.1975 -0.9530 -0.2491
 8483SOL     OW36910   3.832   0.472  11.859 -0.6329  0.0065 -0.1070
 8483SOL    HW136911   3.793   0.537  11.918  0.2649  0.3711  0.0983
 8483SOL    HW236912   3.857   0.533  11.789  0.1382  0.3474  0.4575
 8484SOL     OW36913   1.581   2.863   8.356  0.0872  0.0867 -0.6388
 8484SOL    HW136914   1.506   2.804   8.370  0.2651 -0.3842 -1.6704
 8484SOL    HW236915   1.608   2.854   8.447 -1.4118 -1.4556 -0.3411
 8485SOL     OW36916   0.770   0.403   6.125 -0.3411 -0.7487 -0.1710
 8485SOL    HW136917   0.790   0.460   6.051 -2.7587 -0.9024 -0.9310
 8485SOL    HW236918   0.771   0.458   6.203  2.1756 -0.8859 -0.0864
 8486SOL     OW36919   1.411   3.781   4.813 -0.1317 -0.3830  0.4671
 8486SOL    HW136920   1.498   3.821   4.808  1.1871 -3.4504 -0.8368
 8486SOL    HW236921   1.393   3.776   4.720  0.6065 -0.5086  0.3325
 8487SOL     OW36922   0.224   3.369   4.062 -0.0641  0.3759  0.0563
 8487SOL    HW136923   0.204   3.347   3.972  2.3804 -0.0598 -0.3850
 8487SOL    HW236924   0.318   3.386   4.062 -0.4028  2.2561 -1.5351
 8488SOL     OW36925   3.039   2.261   5.559  0.0941  0.3462 -0.0659
 8488SOL    HW136926   3.087   2.213   5.626  0.2632  1.1154  0.3547
 8488SOL    HW236927   2.957   2.212   5.569 -0.7968  1.6501 -1.0216
 8489SOL     OW36928   2.779   4.631   0.712 -0.0140  0.0411 -0.1784
 8489SOL    HW136929   2.719   4.706   0.715  0.0625  0.0014  1.9593
 8489SOL    HW236930   2.719   4.565   0.676 -0.7834  1.1532 -0.9643
 8490SOL     OW36931   2.022   2.146   3.323 -0.1089 -0.1683 -0.3398
 8490SOL    HW136932   1.973   2.176   3.399  1.7718  0.4265  0.6246
 8490SOL    HW236933   1.965   2.181   3.254 -0.3526 -0.6635 -0.3931
 8491SOL     OW36934   1.343   1.832   8.270 -0.5496 -0.8200  0.0801
 8491SOL    HW136935   1.325   1.915   8.315 -1.0871 -2.0703  2.1088
 8491SOL    HW236936   1.309   1.770   8.334 -1.2101 -0.2112  0.3194
 8492SOL     OW36937   0.013   1.402   0.557  0.0297 -0.8093  0.3449
 8492SOL    HW136938   0.075   1.459   0.511  1.7434 -3.1846 -0.2959
 8492SOL    HW236939   0.025   1.322   0.505  0.9724 -2.3634  2.9235
 8493SOL     OW36940   1.349   3.512   4.975  0.2748 -0.6377  0.1009
 8493SOL    HW136941   1.425   3.463   5.008  1.4720 -0.6252 -2.5834
 8493SOL    HW236942   1.387   3.593   4.939 -1.8179 -0.5461 -1.8629
 8494SOL     OW36943   0.958   1.161   2.991 -0.3899 -0.6753  0.0072
 8494SOL    HW136944   0.968   1.195   3.080 -2.2399  1.9623 -0.8326
 8494SOL    HW236945   1.051   1.161   2.967 -0.7000  2.5208 -1.1720
 8495SOL     OW36946   1.078   1.634  15.276 -0.4957  0.0740  0.7705
 8495SOL    HW136947   1.082   1.673  15.188 -4.5607 -2.9239 -0.6896
 8495SOL    HW236948   1.164   1.658  15.312 -1.1041  1.7993  1.0838
 8496SOL     OW36949   0.993   2.342   1.963 -0.2441 -0.0952  0.5064
 8496SOL    HW136950   1.087   2.345   1.979 -0.2536 -0.3507  0.6067
 8496SOL    HW236951   0.966   2.317   2.052 -0.8612 -0.5209  0.1950
 8497SOL     OW36952   2.908   4.351   9.176 -1.1209  0.2673 -0.0090
 8497SOL    HW136953   2.884   4.329   9.266  2.6937  0.9339  1.1971
 8497SOL    HW236954   2.957   4.432   9.190  0.7857 -0.5642 -1.8065
 8498SOL     OW36955   0.540   3.449   8.728  0.2018 -0.2824  0.4956
 8498SOL    HW136956   0.614   3.509   8.719  0.5013 -0.3319  2.6792
 8498SOL    HW236957   0.558   3.427   8.819  1.5473  0.5721  0.4254
 8499SOL     OW36958   3.488   4.443   2.486 -0.1084 -0.3357  0.1112
 8499SOL    HW136959   3.480   4.538   2.499  2.7903  0.0775 -1.1302
 8499SOL    HW236960   3.524   4.441   2.397 -0.0497  2.2082  0.0781
 8500SOL     OW36961   1.115   1.885   2.590  0.7060 -0.7247 -0.0485
 8500SOL    HW136962   1.151   1.884   2.679  0.5504  0.6285  0.0175
 8500SOL    HW236963   1.102   1.792   2.570 -1.6375  0.2274 -2.8723
 8501SOL     OW36964   3.382   0.531   3.030  0.0431  0.3436 -0.2477
 8501SOL    HW136965   3.337   0.519   3.114  1.7256  1.4109  0.7867
 8501SOL    HW236966   3.303   0.525   2.976  0.1663  1.9681 -0.5982
 8502SOL     OW36967   4.193   2.676  16.185 -0.4028  0.4096 -0.5815
 8502SOL    HW136968   4.108   2.702  16.151 -0.3314  0.5240 -0.6708
 8502SOL    HW236969   4.241   2.748  16.144 -1.8205  2.2553  1.0156
 8503SOL     OW36970   2.401   4.263   9.084 -0.4051 -0.4901 -0.1677
 8503SOL    HW136971   2.308   4.247   9.071 -0.6822  1.1131 -0.1563
 8503SOL    HW236972   2.442   4.200   9.024  0.2578  2.2835 -2.6227
 8504SOL     OW36973   1.867   1.277  13.846 -0.3528 -0.3558 -0.2994
 8504SOL    HW136974   1.838   1.189  13.823  0.2835 -0.8924  0.9369
 8504SOL    HW236975   1.817   1.331  13.784 -1.2300 -0.4081  0.3507
 8505SOL     OW36976   2.346   0.841   2.988  0.1034  0.2267 -0.6289
 8505SOL    HW136977   2.333   0.865   3.080  1.7802  0.5756 -0.4799
 8505SOL    HW236978   2.418   0.778   2.992 -1.6010 -1.7761 -2.0083
 8506SOL     OW36979   2.872   1.325   2.932  0.5014 -0.3197  0.2026
 8506SOL    HW136980   2.807   1.347   2.998  0.5821  0.5055  0.0072
 8506SOL    HW236981   2.832   1.260   2.874  0.5745 -0.9912  0.9057
 8507SOL     OW36982   0.362   3.842   0.237 -0.5528 -0.5695 -0.3830
 8507SOL    HW136983   0.341   3.934   0.253  4.3032  0.5171 -0.2713
 8507SOL    HW236984   0.404   3.845   0.150 -0.7924  1.9445 -0.4085
 8508SOL     OW36985   0.013   2.379  10.765 -0.3449  0.4186  0.3269
 8508SOL    HW136986   0.008   2.327  10.685  0.2260 -0.5058  0.8902
 8508SOL    HW236987   0.102   2.415  10.766 -0.4943  0.7001  2.4120
 8509SOL     OW36988   4.334   1.561   5.514 -0.1837 -0.2388 -0.4816
 8509SOL    HW136989   4.303   1.652   5.518 -1.2302 -0.5996 -0.3597
 8509SOL    HW236990   4.428   1.570   5.524 -0.1254  1.3066 -2.4673
 8510SOL     OW36991   2.375   0.433   7.497 -0.2613 -0.1402 -0.3239
 8510SOL    HW136992   2.423   0.366   7.547 -0.8702 -0.9276 -0.7981
 8510SOL    HW236993   2.459   0.446   7.452 -0.9588  0.3247 -1.4773
 8511SOL     OW36994   4.316   0.080   2.689  0.0844 -0.7291 -1.0225
 8511SOL    HW136995   4.229   0.117   2.675 -0.2505 -0.6868  1.2677
 8511SOL    HW236996   4.297   4.723   2.737  1.4773  1.3405  2.9867
 8512SOL     OW36997   2.666   1.480   3.583  0.0739 -0.3459  0.2909
 8512SOL    HW136998   2.747   1.490   3.632 -0.4445 -1.9178  1.4714
 8512SOL    HW236999   2.696   1.454   3.496  0.0397 -0.3714  0.2865
 8513SOL     OW37000   2.078   4.231   6.164 -0.6765  0.4828 -0.3661
 8513SOL    HW137001   2.066   4.312   6.212  0.5095  1.8042 -2.3261
 8513SOL    HW237002   2.120   4.173   6.227 -0.6091  1.3107  0.3481
 8514SOL     OW37003   2.299   4.058   8.027  0.1442  0.4942  0.3750
 8514SOL    HW137004   2.254   4.046   8.110 -0.7143 -1.2758 -0.3606
 8514SOL    HW237005   2.390   4.049   8.054  0.4453  1.0651 -0.4541
 8515SOL     OW37006   2.140   2.092   8.051  0.0504 -0.4818 -0.8314
 8515SOL    HW137007   2.084   2.169   8.056 -0.6274 -1.0477  0.3489
 8515SOL    HW237008   2.217   2.129   8.094 -0.9619  0.1104  0.4564
 8516SOL     OW37009   2.223   4.144   1.102  0.4358 -0.0022 -0.1330
 8516SOL    HW137010   2.265   4.197   1.170  1.2355  1.0950 -1.4782
 8516SOL    HW237011   2.289   4.075   1.101 -1.7979 -2.1106 -0.0588
 8517SOL     OW37012   4.221   4.626  10.647  0.0574 -1.0005 -0.3159
 8517SOL    HW137013   4.197   4.557  10.585 -2.2419 -1.5568  1.1954
 8517SOL    HW237014   4.290   4.581  10.697  0.6690 -1.5048 -1.6253
 8518SOL     OW37015   3.904   0.270   9.774  0.0806 -0.5732 -0.1553
 8518SOL    HW137016   3.915   0.248   9.866  0.9839 -0.4291 -0.2307
 8518SOL    HW237017   3.925   0.187   9.732 -2.3850 -1.2912  0.0173
 8519SOL     OW37018   1.694   1.409   3.047  0.2985  0.0881  0.3770
 8519SOL    HW137019   1.650   1.494   3.051  1.1098  0.4731  1.1713
 8519SOL    HW237020   1.787   1.428   3.049  0.1590  0.7602  0.4895
 8520SOL     OW37021   1.791   1.220   6.872 -0.2866  0.1952  0.3253
 8520SOL    HW137022   1.780   1.147   6.811 -1.3704  0.0969  0.6347
 8520SOL    HW237023   1.795   1.171   6.955  1.5952 -1.0552 -0.5028
 8521SOL     OW37024   3.208   3.187   4.294 -0.1239 -0.4768 -0.8342
 8521SOL    HW137025   3.225   3.094   4.283  0.8923 -0.5559  1.4135
 8521SOL    HW237026   3.299   3.213   4.284 -0.2006 -0.7924 -2.3952
 8522SOL     OW37027   3.800   1.198   5.217 -0.0882  0.2680 -0.1579
 8522SOL    HW137028   3.799   1.177   5.310  0.3358  2.1659  0.2681
 8522SOL    HW237029   3.822   1.111   5.185 -1.7214 -0.8034  1.6164
 8523SOL     OW37030   1.611   3.389   6.287 -0.4033  0.4866 -0.3510
 8523SOL    HW137031   1.584   3.420   6.373  2.7297 -0.0581  0.8361
 8523SOL    HW237032   1.621   3.466   6.231 -1.1895  0.7722 -0.0931
 8524SOL     OW37033   1.579   2.224  10.680  0.3095  0.3674  0.3892
 8524SOL    HW137034   1.547   2.261  10.762 -1.1185 -1.8555  0.8557
 8524SOL    HW237035   1.602   2.296  10.621 -2.6544  0.3569 -0.7531
 8525SOL     OW37036   3.573   0.207  12.467  0.6157 -0.3899 -0.8639
 8525SOL    HW137037   3.653   0.162  12.494 -0.4352 -0.5403  1.9492
 8525SOL    HW237038   3.602   0.242  12.382 -0.2131 -0.5990 -1.2318
 8526SOL     OW37039   1.090   4.565   6.081  0.4443  0.3580 -0.5495
 8526SOL    HW137040   1.161   4.625   6.104  2.6985 -1.8044 -1.7995
 8526SOL    HW237041   1.147   4.496   6.046  2.0907 -0.5198  3.7515
 8527SOL     OW37042   2.745   4.264   3.423 -0.1688  0.1563  0.1727
 8527SOL    HW137043   2.769   4.243   3.513 -1.5467  0.0585  0.5195
 8527SOL    HW237044   2.698   4.191   3.382 -0.9747  0.4257  0.6213
 8528SOL     OW37045   1.260   1.564   0.746  0.3217 -0.0475  0.2369
 8528SOL    HW137046   1.334   1.625   0.753 -0.7479  1.1361  1.1536
 8528SOL    HW237047   1.190   1.622   0.774  0.1879 -0.8281  1.5083
 8529SOL     OW37048   3.626   0.871   2.818  0.9189  0.9075 -0.1370
 8529SOL    HW137049   3.585   0.913   2.743 -1.2269  0.9511  1.0601
 8529SOL    HW237050   3.578   0.882   2.900  2.4918  0.5569  0.8414
 8530SOL     OW37051   0.352   2.748   5.458  0.1441  0.0349  0.0413
 8530SOL    HW137052   0.423   2.696   5.497 -1.8947 -3.2355 -0.5756
 8530SOL    HW237053   0.405   2.826   5.444 -1.3138  1.3178  1.6965
 8531SOL     OW37054   2.821   4.413   5.452  0.1311 -0.0365 -0.1722
 8531SOL    HW137055   2.873   4.494   5.453 -1.3633  0.8280  3.4457
 8531SOL    HW237056   2.880   4.349   5.492 -0.7110  0.4870  1.8667
 8532SOL     OW37057   4.547   3.731   6.843  0.0450 -0.0818  0.5485
 8532SOL    HW137058   4.626   3.763   6.800 -0.8667  0.6070 -0.6071
 8532SOL    HW237059   4.588   3.695   6.922 -1.1969 -1.8298  0.4047
 8533SOL     OW37060   4.180   0.708   9.030  0.1843  0.1303  0.2090
 8533SOL    HW137061   4.220   0.657   8.960  0.6007 -0.2346  0.7110
 8533SOL    HW237062   4.259   0.756   9.057  0.2431  0.2108 -0.1083
 8534SOL     OW37063   0.764   2.586   1.940  0.1186 -0.4682 -0.5244
 8534SOL    HW137064   0.800   2.500   1.962 -0.8983 -0.9669 -0.8134
 8534SOL    HW237065   0.683   2.587   1.992 -0.4268  0.9377 -1.3848
 8535SOL     OW37066   0.027   2.360   4.219 -0.2538  0.6524  0.5651
 8535SOL    HW137067   0.002   2.278   4.176  1.0003  0.4357  0.2391
 8535SOL    HW237068   0.107   2.329   4.263 -0.8733 -0.8619  0.6409
 8536SOL     OW37069   1.092   2.371   9.022 -0.0875 -0.4514  0.2653
 8536SOL    HW137070   1.109   2.351   8.930  3.9631  0.8888  0.7237
 8536SOL    HW237071   1.056   2.457   9.001  0.6277 -0.6626 -1.7743
 8537SOL     OW37072   0.138   0.217   2.993 -0.4412 -0.1243  0.2016
 8537SOL    HW137073   0.082   0.150   3.032  0.6064 -2.5734 -2.4735
 8537SOL    HW237074   0.205   0.236   3.058  0.0619  1.7285 -0.8496
 8538SOL     OW37075   1.809   1.859  14.505 -0.2415  0.2040  0.1792
 8538SOL    HW137076   1.818   1.765  14.523  1.3350  0.2669 -0.3394
 8538SOL    HW237077   1.714   1.874  14.513 -0.2583 -0.5782  1.5147
 8539SOL     OW37078   0.218   2.512  12.298  0.3259  0.5958  0.1604
 8539SOL    HW137079   0.146   2.459  12.331  1.3536 -0.5389  0.5500
 8539SOL    HW237080   0.196   2.585  12.357 -0.7107  0.3332  0.0989
 8540SOL     OW37081   0.150   4.374   9.995 -0.4286 -0.0229  0.0217
 8540SOL    HW137082   0.116   4.307   9.937  2.1437 -0.0558 -1.4493
 8540SOL    HW237083   0.107   4.351  10.077  0.3209 -0.2490  0.3483
 8541SOL     OW37084   0.190   3.991   6.172 -0.0427  0.6579 -0.2303
 8541SOL    HW137085   0.157   3.975   6.084  1.0185  1.0865 -0.6967
 8541SOL    HW237086   0.149   4.077   6.181  1.5209  1.5436 -1.8582
 8542SOL     OW37087   1.862   2.959   1.438 -0.5006  0.0765  0.9114
 8542SOL    HW137088   1.808   2.882   1.420  2.6110 -1.4908 -1.5546
 8542SOL    HW237089   1.908   2.966   1.355  0.4284  0.0910  1.4314
 8543SOL     OW37090   4.378   3.264  11.780  0.0335  0.3749 -0.5438
 8543SOL    HW137091   4.332   3.213  11.714 -1.4383  0.8826  0.0934
 8543SOL    HW237092   4.309   3.295  11.838 -0.3899 -0.2089 -0.7362
 8544SOL     OW37093   1.974   2.954  14.746 -0.6200 -0.9079 -0.1295
 8544SOL    HW137094   2.068   2.952  14.731 -0.5225  0.4510  0.2653
 8544SOL    HW237095   1.957   2.986  14.657 -1.3616  0.6681  0.5773
 8545SOL     OW37096   4.139   4.029   8.165  0.1279 -0.3842 -0.1155
 8545SOL    HW137097   4.184   3.986   8.092  0.4389 -0.5050  0.1491
 8545SOL    HW237098   4.209   4.033   8.230  1.0549 -2.1534 -1.0032
 8546SOL     OW37099   0.092   0.286  16.510  0.9716 -0.1509 -0.2287
 8546SOL    HW137100   0.142   0.366  16.527  0.0119  0.2350  0.8334
 8546SOL    HW237101   0.027   0.311  16.444 -1.7084 -0.1042  2.4073
 8547SOL     OW37102   1.971   1.472   3.081 -0.1487 -0.8394  0.9109
 8547SOL    HW137103   2.005   1.528   3.152  0.2081  1.2464 -0.9141
 8547SOL    HW237104   2.045   1.413   3.066 -0.6602 -0.6299 -2.3872
 8548SOL     OW37105   3.879   0.828  12.000  0.2899  0.4338  0.2748
 8548SOL    HW137106   3.869   0.837  11.905 -1.1590  1.3919  0.5205
 8548SOL    HW237107   3.972   0.807  12.000  0.6548  2.0651 -2.3213
 8549SOL     OW37108   0.492   3.799   2.433 -0.2396 -0.1909  0.2853
 8549SOL    HW137109   0.449   3.741   2.495 -1.7475  0.1222 -0.4612
 8549SOL    HW237110   0.511   3.740   2.359  1.7538  0.3856  0.3393
 8550SOL     OW37111   3.848   3.042   8.295 -0.0651  0.5807  0.4919
 8550SOL    HW137112   3.790   3.025   8.369  1.4013 -0.6412  1.3455
 8550SOL    HW237113   3.809   3.116   8.249  1.3428  1.1742  0.2651
 8551SOL     OW37114   1.988   2.979   7.300 -0.0381  0.3712 -0.0418
 8551SOL    HW137115   2.072   3.021   7.283  0.8782 -1.7359 -0.7007
 8551SOL    HW237116   1.922   3.042   7.272 -2.4645 -2.1213  0.0956
 8552SOL     OW37117   2.032   1.391  16.841 -0.3846 -0.0306  0.0986
 8552SOL    HW137118   1.958   1.332  16.849 -0.1437 -0.2511  0.7028
 8552SOL    HW237119   2.101   1.329  16.818  0.9837  1.8762 -1.0259
 8553SOL     OW37120   3.699   0.934   9.714  0.5473 -0.0225 -0.4368
 8553SOL    HW137121   3.776   0.937   9.770 -0.4915 -1.4045  1.0443
 8553SOL    HW237122   3.655   0.855   9.744 -0.7729  1.1658  0.7744
 8554SOL     OW37123   3.575   1.366   7.819 -0.3877 -0.0710 -0.5742
 8554SOL    HW137124   3.654   1.314   7.826 -1.0699 -1.1097 -0.5819
 8554SOL    HW237125   3.525   1.328   7.891 -1.9676 -0.0224 -1.6322
 8555SOL     OW37126   1.753   0.339   3.279  0.5547 -0.3651  0.0657
 8555SOL    HW137127   1.830   0.396   3.282 -0.5860  1.1236  1.2536
 8555SOL    HW237128   1.695   0.390   3.336 -0.2750 -3.8013  2.2947
 8556SOL     OW37129   4.097   0.031   5.492  0.3664 -0.1218 -1.1076
 8556SOL    HW137130   4.162   0.066   5.554 -1.2168  0.0099  0.4729
 8556SOL    HW237131   4.079   0.103   5.432 -0.6876 -0.3719 -1.0976
 8557SOL     OW37132   3.689   4.474  11.290 -0.6153  0.2596  0.2875
 8557SOL    HW137133   3.625   4.502  11.224  0.8076 -0.1600 -1.2776
 8557SOL    HW237134   3.679   4.549  11.349  0.4887  1.8738 -1.5876
 8558SOL     OW37135   0.802   3.698   0.779 -0.0526 -0.3112  0.2452
 8558SOL    HW137136   0.724   3.702   0.724  1.7412  0.3903 -2.2284
 8558SOL    HW237137   0.836   3.781   0.746 -1.3092  0.1745  0.1664
 8559SOL     OW37138   0.532   0.724  13.079  0.2997  0.5644 -0.3143
 8559SOL    HW137139   0.533   0.735  13.174  0.2603 -1.7073 -0.0579
 8559SOL    HW237140   0.605   0.776  13.045  1.2681 -0.8466 -0.3613
 8560SOL     OW37141   0.813   0.507  13.131 -0.0166 -0.7461 -0.0444
 8560SOL    HW137142   0.768   0.496  13.047 -1.0097 -0.0287  0.3971
 8560SOL    HW237143   0.876   0.575  13.106  0.7685 -0.7794  1.8524
 8561SOL     OW37144   2.626   2.018   6.384 -0.2080 -0.4820 -0.0370
 8561SOL    HW137145   2.668   1.999   6.300 -0.0626 -1.6705  0.2987
 8561SOL    HW237146   2.577   2.092   6.349  0.3278  0.3794  1.0210
 8562SOL     OW37147   1.782   1.796   8.025 -0.1301  0.1001 -0.4248
 8562SOL    HW137148   1.735   1.870   8.063 -2.5195 -0.1711 -2.8596
 8562SOL    HW237149   1.871   1.830   8.023 -0.6040  1.3964  0.8334
 8563SOL     OW37150   0.237   1.678  14.935  0.4551 -0.0747  0.8196
 8563SOL    HW137151   0.315   1.690  14.880  0.1862  2.4337  0.9677
 8563SOL    HW237152   0.282   1.680  15.019 -0.5925  0.5031  1.3696
 8564SOL     OW37153   1.021   1.016  17.693 -0.2192  0.3621 -0.7077
 8564SOL    HW137154   1.079   1.064   0.054 -1.4864 -2.0062  2.4836
 8564SOL    HW237155   1.074   0.971  17.626 -1.7380  0.0211 -1.6920
 8565SOL     OW37156   3.964   3.048   2.862 -0.3190  0.5443  0.1102
 8565SOL    HW137157   4.006   3.039   2.777 -1.5950  1.3291 -0.6014
 8565SOL    HW237158   3.892   3.104   2.831 -2.2459 -1.4350  0.9450
 8566SOL     OW37159   0.105   2.134   4.099  0.0870 -0.5477  0.3498
 8566SOL    HW137160   0.177   2.167   4.046 -0.3343 -0.2344 -0.0285
 8566SOL    HW237161   0.136   2.046   4.119  1.8501  0.3796  1.6916
 8567SOL     OW37162   4.189   0.997   4.209  0.4410 -0.0086 -0.1858
 8567SOL    HW137163   4.168   1.046   4.130 -0.0286 -1.0889 -0.7290
 8567SOL    HW237164   4.101   0.976   4.240  0.6534 -0.3439  0.1923
 8568SOL     OW37165   3.670   1.268   3.263  0.1239  0.1502 -0.6858
 8568SOL    HW137166   3.740   1.286   3.200  1.3665 -0.3387  0.5357
 8568SOL    HW237167   3.715   1.273   3.347 -2.2466  0.5590  0.5617
 8569SOL     OW37168   4.687   4.256   7.128  0.1430  0.0069 -0.4045
 8569SOL    HW137169   0.042   4.302   7.099  1.1428  0.2360  2.6324
 8569SOL    HW237170   4.610   4.304   7.099  0.3970  0.7840  0.2064
 8570SOL     OW37171   1.916   2.083  13.761 -0.0672 -0.0364  0.1566
 8570SOL    HW137172   1.902   2.087  13.856  1.6707  0.8270  0.3764
 8570SOL    HW237173   1.841   2.029  13.736 -0.4004  0.7298 -0.5148
 8571SOL     OW37174   3.233   1.850   7.835 -0.4017  0.0441  0.3581
 8571SOL    HW137175   3.281   1.774   7.801  0.0036 -0.1253  1.3151
 8571SOL    HW237176   3.273   1.862   7.921  3.3347 -0.3783 -1.3414
 8572SOL     OW37177   2.534   1.072   6.841  0.0445 -0.2129  0.3412
 8572SOL    HW137178   2.565   0.984   6.820  2.4546  0.4462  1.1738
 8572SOL    HW237179   2.487   1.098   6.761 -0.4640 -1.3230  0.2838
 8573SOL     OW37180   3.884   2.088   4.042  0.1330 -0.3521 -0.7688
 8573SOL    HW137181   3.864   2.165   4.095 -1.4616  0.3274 -2.3613
 8573SOL    HW237182   3.947   2.045   4.099 -0.2310  0.0299 -0.0791
 8574SOL     OW37183   0.462   1.006   2.034 -0.8388  0.5420 -0.3996
 8574SOL    HW137184   0.449   1.083   1.978 -0.1603  0.2727 -0.9308
 8574SOL    HW237185   0.413   0.935   1.993  0.4386 -0.3797 -0.3299
 8575SOL     OW37186   2.401   0.524  10.583  0.6093  0.5233 -0.7994
 8575SOL    HW137187   2.383   0.594  10.646  3.6150  3.0445 -2.7021
 8575SOL    HW237188   2.480   0.546  10.533 -0.0254  4.5874 -0.0551
 8576SOL     OW37189   3.250   4.381   5.516  0.5758 -0.1774  0.2919
 8576SOL    HW137190   3.215   4.302   5.474  0.0947 -0.6778  1.6634
 8576SOL    HW237191   3.196   4.383   5.595  0.9336  1.0132  0.5007
 8577SOL     OW37192   4.410   1.190   4.225  0.4234 -0.0191  0.0252
 8577SOL    HW137193   4.381   1.099   4.227 -1.2888  0.4997 -0.7738
 8577SOL    HW237194   4.322   1.226   4.240 -0.2548 -0.7194 -2.1994
 8578SOL     OW37195   4.363   1.178   3.891 -0.0639 -0.5847  0.4747
 8578SOL    HW137196   4.278   1.205   3.927  0.4124  0.5348  0.7415
 8578SOL    HW237197   4.373   1.101   3.947 -0.3486 -1.3387 -0.4971
 8579SOL     OW37198   1.148   1.395   4.847 -0.2593 -0.3854 -0.0874
 8579SOL    HW137199   1.088   1.328   4.880 -1.5064  1.2378  0.9314
 8579SOL    HW237200   1.118   1.402   4.757 -0.0516  2.1028  0.0454
 8580SOL     OW37201   0.729   1.918   6.378  0.0579  0.1083 -0.0307
 8580SOL    HW137202   0.725   1.853   6.448 -1.0283  1.2534  0.9632
 8580SOL    HW237203   0.814   1.905   6.335 -0.2911  0.7570 -0.9123
 8581SOL     OW37204   2.904   1.201  14.078  0.6151 -0.3218  0.0524
 8581SOL    HW137205   2.815   1.173  14.098 -0.0010  1.5844  0.0432
 8581SOL    HW237206   2.948   1.186  14.161 -1.8052 -1.3701  1.1460
 8582SOL     OW37207   3.527   0.887   8.780 -0.6488 -0.5689  0.3103
 8582SOL    HW137208   3.548   0.802   8.741 -1.1349 -0.3284 -0.4943
 8582SOL    HW237209   3.493   0.872   8.868 -0.4376  0.4508  0.5606
 8583SOL     OW37210   3.151   2.501   6.578 -0.4749  0.5687 -0.3687
 8583SOL    HW137211   3.209   2.552   6.521  3.8869 -3.1406  0.7619
 8583SOL    HW237212   3.171   2.528   6.667 -0.1757  0.4240 -0.3923
 8584SOL     OW37213   0.549   4.312   3.132  0.3402 -0.0640  0.1680
 8584SOL    HW137214   0.489   4.324   3.206  0.1242  1.5643 -0.2591
 8584SOL    HW237215   0.623   4.364   3.162  1.6362 -2.1622  0.5711
 8585SOL     OW37216   4.068   2.806  13.547  0.7262  0.2884 -0.0947
 8585SOL    HW137217   4.020   2.794  13.465  0.9136  1.5890 -0.4016
 8585SOL    HW237218   4.036   2.727  13.589  1.5140 -1.0786 -2.0303
 8586SOL     OW37219   1.491   3.924  10.764 -0.2798 -0.4750 -0.6026
 8586SOL    HW137220   1.562   3.913  10.700  0.7105  0.8871  0.2793
 8586SOL    HW237221   1.413   3.891  10.720 -1.3434 -1.1222  1.7901
 8587SOL     OW37222   3.350   0.599  16.393 -0.1888 -0.1113  0.3600
 8587SOL    HW137223   3.377   0.579  16.483  0.5427 -0.7483  0.0035
 8587SOL    HW237224   3.429   0.620  16.342  0.0249  0.2999  0.8505
 8588SOL     OW37225   2.126   0.713   4.494  0.5559 -0.3380 -0.3480
 8588SOL    HW137226   2.177   0.790   4.519 -0.8610  0.3051  0.5774
 8588SOL    HW237227   2.176   0.671   4.425  1.6981  0.8624 -0.2391
 8589SOL     OW37228   4.084   3.821  12.881  0.3058 -0.3719 -0.1630
 8589SOL    HW137229   4.112   3.832  12.972 -0.6605  0.9421 -0.0223
 8589SOL    HW237230   4.093   3.910  12.846  0.7562 -1.2477 -2.2533
 8590SOL     OW37231   1.726   0.642   3.180 -0.1640 -0.1804 -0.2918
 8590SOL    HW137232   1.659   0.700   3.144  0.1380  1.1464  1.2940
 8590SOL    HW237233   1.788   0.633   3.107  0.2739  0.7109 -0.0351
 8591SOL     OW37234   2.321   3.393   4.834  0.2875  0.5368  0.9346
 8591SOL    HW137235   2.299   3.319   4.890  0.2211  0.9690  1.4862
 8591SOL    HW237236   2.247   3.455   4.838  1.4791  2.0141  0.0122
 8592SOL     OW37237   3.904   1.572  15.603 -0.1455 -0.4626  0.9854
 8592SOL    HW137238   3.907   1.639  15.534 -0.2026 -0.1990  1.2365
 8592SOL    HW237239   3.868   1.638  15.664  1.3608  0.1374  1.2356
 8593SOL     OW37240   2.251   3.275   1.665 -0.8852  0.0481  0.7168
 8593SOL    HW137241   2.169   3.238   1.632 -1.7852  1.5285  1.2410
 8593SOL    HW237242   2.314   3.251   1.598 -0.8456 -2.5597  1.6878
 8594SOL     OW37243   3.633   2.794  13.427 -0.1591 -0.2681 -0.1550
 8594SOL    HW137244   3.582   2.801  13.508 -1.9288 -1.1469 -1.1986
 8594SOL    HW237245   3.655   2.887  13.420  0.2875 -0.4945 -1.8524
 8595SOL     OW37246   4.160   1.088   2.812  0.2387  0.6561 -0.1450
 8595SOL    HW137247   4.083   1.050   2.854  1.7574 -0.3006  1.8046
 8595SOL    HW237248   4.198   1.009   2.773 -1.2193 -0.7140  1.2079
 8596SOL     OW37249   0.183   0.865  10.593  0.1980  0.0294  0.6419
 8596SOL    HW137250   0.149   0.840  10.507  1.0248  0.1025  0.2829
 8596SOL    HW237251   0.190   0.777  10.631 -0.3729 -0.0319  0.6069
 8597SOL     OW37252   2.748   3.862   3.597 -0.5709 -0.0066  0.0590
 8597SOL    HW137253   2.740   3.872   3.502 -1.7523  2.5307  0.4134
 8597SOL    HW237254   2.810   3.790   3.601 -0.9477 -0.3141  0.3670
 8598SOL     OW37255   1.441   1.983   9.318  0.0616  0.0001  0.2769
 8598SOL    HW137256   1.521   2.025   9.287 -0.4075  1.3384  0.8913
 8598SOL    HW237257   1.444   2.002   9.412  0.1021  1.7188 -0.0689
 8599SOL     OW37258   4.544   2.006  12.845  0.0357  0.2802 -0.6601
 8599SOL    HW137259   4.562   1.912  12.838  3.9790  1.0876 -0.8959
 8599SOL    HW237260   4.450   2.000  12.862  0.1442 -0.5164 -0.3550
 8600SOL     OW37261   4.636   2.837   7.017  0.0662 -0.3895  0.1794
 8600SOL    HW137262   4.621   2.766   6.954  0.4574  1.5519 -2.1032
 8600SOL    HW237263   4.580   2.911   6.993  1.0923  0.8970  1.7183
 8601SOL     OW37264   3.016   0.398   9.347  0.0331 -0.1754 -0.5059
 8601SOL    HW137265   3.096   0.447   9.363 -0.1477  0.2002 -0.7359
 8601SOL    HW237266   2.954   0.423   9.416  2.1765  2.8839  0.2816
 8602SOL     OW37267   3.570   0.344  14.863 -0.1133  0.6215  0.0422
 8602SOL    HW137268   3.545   0.350  14.955 -0.8716 -1.2682 -0.0581
 8602SOL    HW237269   3.574   0.435  14.834 -0.6187  0.6835  0.1708
 8603SOL     OW37270   3.230   3.004   8.560 -0.4199  0.4360 -0.1116
 8603SOL    HW137271   3.314   3.033   8.524 -0.5922  1.1652  0.0750
 8603SOL    HW237272   3.255   2.966   8.644 -2.9441 -1.9736 -0.4671
 8604SOL     OW37273   3.566   2.371   5.085 -0.0715  0.0096 -0.4915
 8604SOL    HW137274   3.586   2.418   5.004 -0.9534 -1.0413 -1.3358
 8604SOL    HW237275   3.619   2.292   5.078 -0.2581 -0.0856 -0.8494
 8605SOL     OW37276   2.976   0.141   7.628 -0.3942 -0.1523 -0.4828
 8605SOL    HW137277   3.019   0.120   7.711  3.4343  0.0950 -2.4168
 8605SOL    HW237278   3.019   0.083   7.565 -1.5589 -1.4663 -0.0709
 8606SOL     OW37279   0.136   1.122   5.598  0.4332  0.0447  0.0891
 8606SOL    HW137280   0.224   1.106   5.632  0.9976  0.6106 -1.0818
 8606SOL    HW237281   0.160   1.117   5.505  1.0386  2.9541  0.0732
 8607SOL     OW37282   0.703   2.995   3.427  0.2571  0.2930  0.0100
 8607SOL    HW137283   0.795   3.007   3.403  0.7625  0.1087  1.9156
 8607SOL    HW237284   0.708   2.979   3.521 -0.5086  2.8014  0.4834
 8608SOL     OW37285   4.378   3.599  17.653 -0.2310 -0.2344 -0.3998
 8608SOL    HW137286   4.379   3.589  17.558 -0.8912  0.1900 -0.4470
 8608SOL    HW237287   4.302   3.656  17.660  0.7604  0.7320  2.4222
 8609SOL     OW37288   2.461   1.750   6.361 -0.2513  0.3231  0.2996
 8609SOL    HW137289   2.490   1.839   6.377  0.5901  0.0283  0.4445
 8609SOL    HW237290   2.443   1.739   6.267  1.3744 -1.5772  0.2099
 8610SOL     OW37291   0.867   1.237  14.728  0.2971  0.1413 -0.0677
 8610SOL    HW137292   0.959   1.244  14.754  0.2318 -0.9808  0.4762
 8610SOL    HW237293   0.863   1.155  14.679 -0.9894 -1.0456  2.0093
 8611SOL     OW37294   4.660   0.747   2.334  0.0830 -1.0238  0.0812
 8611SOL    HW137295   4.697   0.816   2.280  0.1023 -1.2500 -0.1979
 8611SOL    HW237296   4.618   0.804   2.399  0.2228 -0.1273 -0.6200
 8612SOL     OW37297   2.488   4.091   6.641 -0.0219  0.4546  0.1335
 8612SOL    HW137298   2.552   4.138   6.587  2.4691 -1.1824  1.6429
 8612SOL    HW237299   2.483   4.018   6.580 -1.1674  0.3313  0.3840
 8613SOL     OW37300   2.101   3.041  15.522 -0.0885  0.5313  0.9850
 8613SOL    HW137301   2.074   3.039  15.430  0.9250  1.7907  0.6527
 8613SOL    HW237302   2.193   3.015  15.526  0.3141  1.7640 -0.2221
 8614SOL     OW37303   0.487   2.386  12.395 -0.2020  0.0001 -0.3192
 8614SOL    HW137304   0.540   2.465  12.394 -3.6753  2.3306 -1.8074
 8614SOL    HW237305   0.421   2.418  12.333  0.3978 -0.9919 -1.4878
 8615SOL     OW37306   2.168   2.478   0.358  0.1968 -0.0729 -0.5172
 8615SOL    HW137307   2.147   2.430   0.438 -2.8727 -0.8654 -1.8078
 8615SOL    HW237308   2.082   2.506   0.327 -0.3243 -0.4775  0.5818
 8616SOL     OW37309   0.540   2.628   2.092  0.3964 -0.8652  0.5869
 8616SOL    HW137310   0.556   2.614   2.185  1.7233  0.2945  0.5161
 8616SOL    HW237311   0.450   2.659   2.098  0.1369 -1.9271  2.2395
 8617SOL     OW37312   0.814   0.152   5.020  0.3106  0.4287 -0.1835
 8617SOL    HW137313   0.888   0.145   4.960 -0.3295  1.7253 -1.1011
 8617SOL    HW237314   0.838   0.072   5.067  0.5774  0.0807 -0.9245
 8618SOL     OW37315   2.221   3.090  11.988  0.0269  0.7803 -0.1035
 8618SOL    HW137316   2.311   3.062  12.002 -0.3675 -0.5326 -0.1347
 8618SOL    HW237317   2.220   3.104  11.893 -0.5628  0.0852 -0.2042
 8619SOL     OW37318   3.478   0.350  11.664  0.0209 -0.4141 -0.0069
 8619SOL    HW137319   3.560   0.383  11.626 -0.1304 -0.0579 -0.0225
 8619SOL    HW237320   3.467   0.270  11.614 -0.8144 -0.4767  0.2840
 8620SOL     OW37321   2.269   4.169   0.053 -0.4165  0.8899  0.2496
 8620SOL    HW137322   2.230   4.100  17.697  3.4187 -2.6332  1.9656
 8620SOL    HW237323   2.299   4.114   0.126 -0.4265 -2.1420 -2.0260
 8621SOL     OW37324   1.217   4.469  15.143 -0.1787  0.5296 -0.3603
 8621SOL    HW137325   1.265   4.550  15.128 -2.1817  1.5138 -1.3860
 8621SOL    HW237326   1.175   4.484  15.227 -1.5245  1.5110 -1.2126
 8622SOL     OW37327   0.662   2.877  12.964 -0.4243  0.1275 -0.4507
 8622SOL    HW137328   0.642   2.917  13.048  0.4340  0.1943 -0.2773
 8622SOL    HW237329   0.728   2.941  12.937  1.6587 -1.2450  1.4183
 8623SOL     OW37330   1.032   1.845   8.876  0.2668 -0.2428 -0.7856
 8623SOL    HW137331   0.946   1.806   8.894 -0.2605  0.9331 -0.7998
 8623SOL    HW237332   1.040   1.891   8.960 -1.3290  0.1462 -0.8497
 8624SOL     OW37333   4.714   3.350  15.168  0.0953  0.2168 -0.0708
 8624SOL    HW137334   0.053   3.317  15.232 -1.2931 -1.1362  0.5812
 8624SOL    HW237335   0.013   3.443  15.165 -2.2516  0.8293  1.0487
 8625SOL     OW37336   1.203   3.167   7.520 -0.0769 -0.4658  0.1705
 8625SOL    HW137337   1.193   3.097   7.585  0.4989  0.2037  0.9693
 8625SOL    HW237338   1.164   3.247   7.556  1.0650  0.1392  0.0332
 8626SOL     OW37339   1.732   4.132  13.968 -0.7578 -0.3659 -0.0911
 8626SOL    HW137340   1.770   4.199  13.911  0.3568 -0.7200  0.2404
 8626SOL    HW237341   1.811   4.111  14.018 -0.5919  0.6874  0.0793
 8627SOL     OW37342   2.358   0.234  14.400 -0.1046 -0.0488  0.0951
 8627SOL    HW137343   2.270   0.272  14.404 -0.1470 -0.1323 -0.0431
 8627SOL    HW237344   2.408   0.311  14.374 -1.0192 -0.4286 -2.7296
 8628SOL     OW37345   2.252   0.408  12.181 -0.0480  0.0770 -0.6086
 8628SOL    HW137346   2.239   0.497  12.214 -2.4923 -0.8443  0.9045
 8628SOL    HW237347   2.261   0.364  12.265 -0.3303  0.3285 -0.4451
 8629SOL     OW37348   3.569   3.580   5.213 -0.2511  0.4524 -0.3289
 8629SOL    HW137349   3.663   3.588   5.227 -0.3391  0.3152  0.3591
 8629SOL    HW237350   3.543   3.543   5.298 -0.8528  0.4744 -0.5034
 8630SOL     OW37351   2.599   3.427  15.237  0.5215 -0.8147 -0.1126
 8630SOL    HW137352   2.510   3.419  15.273  1.5206  4.8197  3.6658
 8630SOL    HW237353   2.653   3.469  15.305 -1.0796 -0.5944  1.0366
 8631SOL     OW37354   2.839   0.372   0.133  0.1213 -0.6866 -0.0962
 8631SOL    HW137355   2.896   0.302   0.166 -0.1245 -0.5183  0.6872
 8631SOL    HW237356   2.846   0.369   0.037  0.4476 -0.7680 -0.0720
 8632SOL     OW37357   2.275   3.080   8.970  0.5118 -0.4918 -0.3575
 8632SOL    HW137358   2.290   3.099   9.062 -0.9854 -1.3338  0.0505
 8632SOL    HW237359   2.307   3.159   8.926 -0.4506 -0.8852 -1.7846
 8633SOL     OW37360   3.154   3.887   1.388  0.7350  0.2830 -1.0616
 8633SOL    HW137361   3.129   3.886   1.296 -1.8054 -0.3576 -0.3509
 8633SOL    HW237362   3.210   3.965   1.390  1.6282 -0.4062  0.2008
 8634SOL     OW37363   4.566   2.292   1.967 -0.1860 -0.0523 -0.5858
 8634SOL    HW137364   4.473   2.310   1.982  0.1758  1.1842  0.1971
 8634SOL    HW237365   4.586   2.211   2.013  1.5435  0.0468 -1.1780
 8635SOL     OW37366   0.815   3.690  10.725  0.0993  0.8705 -0.2285
 8635SOL    HW137367   0.895   3.694  10.777 -1.7192  0.6821  2.5542
 8635SOL    HW237368   0.737   3.690  10.781  1.4476  0.0701  1.6252
 8636SOL     OW37369   3.537   0.480   9.907 -0.0383  0.4062  0.2109
 8636SOL    HW137370   3.554   0.392   9.875  1.3432  0.3652  1.0597
 8636SOL    HW237371   3.464   0.464   9.966 -0.7988 -1.0802 -1.1588
 8637SOL     OW37372   2.801   2.223   2.103  0.7993  0.1830 -0.7368
 8637SOL    HW137373   2.789   2.129   2.088 -0.8734  0.4775 -1.2411
 8637SOL    HW237374   2.735   2.262   2.046 -1.1287 -0.7640  0.8645
 8638SOL     OW37375   2.300   4.563  13.254 -0.0119 -0.4192 -0.4685
 8638SOL    HW137376   2.312   4.579  13.347  2.1691 -1.9350 -0.4751
 8638SOL    HW237377   2.388   4.585  13.223 -0.3755 -0.0908 -1.2677
 8639SOL     OW37378   0.260   3.820   7.504  0.2744  0.0559  0.0617
 8639SOL    HW137379   0.354   3.822   7.521  0.2240  0.0221  0.3380
 8639SOL    HW237380   0.229   3.859   7.586  0.1113 -0.6750  0.3426
 8640SOL     OW37381   0.008   4.120  13.074  0.2106  0.4287 -0.2696
 8640SOL    HW137382   4.679   4.095  12.998  0.1651 -0.0182 -0.0942
 8640SOL    HW237383   0.025   4.032  13.110  0.1215  1.1520  1.5602
 8641SOL     OW37384   4.394   3.261   3.004 -0.2196 -0.2987  0.6624
 8641SOL    HW137385   4.442   3.178   3.002 -0.7151 -0.5324 -1.2834
 8641SOL    HW237386   4.422   3.290   2.917 -0.2579 -1.7827  0.1713
 8642SOL     OW37387   2.724   2.453   4.759  0.2199 -0.3759 -0.4921
 8642SOL    HW137388   2.808   2.438   4.802 -1.3359  0.4572  2.8497
 8642SOL    HW237389   2.736   2.381   4.697 -1.4555 -0.5997 -0.5519
 8643SOL     OW37390   1.550   1.699   3.454  0.0965  0.0213 -0.6807
 8643SOL    HW137391   1.483   1.763   3.476  2.2556  1.0615  2.8075
 8643SOL    HW237392   1.629   1.752   3.465 -0.2476  0.4888 -0.4965
 8644SOL     OW37393   3.784   0.091  12.569 -0.3721  0.0572 -0.1627
 8644SOL    HW137394   3.868   0.066  12.530 -0.5017 -1.8165  0.7787
 8644SOL    HW237395   3.803   0.118  12.659 -1.0329 -2.1828  0.6542
 8645SOL     OW37396   2.940   3.523   5.665  0.4043  0.4869 -0.1103
 8645SOL    HW137397   2.859   3.562   5.697  1.3301  2.4365 -0.1796
 8645SOL    HW237398   2.943   3.429   5.686  1.3200  0.6867  0.6720
 8646SOL     OW37399   2.576   3.786  16.901 -0.2727  0.1203 -0.4042
 8646SOL    HW137400   2.529   3.833  16.970 -0.1214  0.1323 -0.3073
 8646SOL    HW237401   2.549   3.839  16.826  0.8603  1.2513 -0.0339
 8647SOL     OW37402   4.011   4.072   6.589  0.1485  0.2106 -0.3087
 8647SOL    HW137403   3.995   3.984   6.555  0.5570  0.4691 -1.1637
 8647SOL    HW237404   4.090   4.048   6.639  0.3331  2.5792  0.5099
 8648SOL     OW37405   0.186   0.009   6.165  0.0467 -0.4022 -0.5354
 8648SOL    HW137406   0.114   4.701   6.220 -2.7322  1.1192 -3.2981
 8648SOL    HW237407   0.176   0.103   6.184  1.3361  0.0170 -1.9242
 8649SOL     OW37408   3.055   4.661   7.477 -0.3707 -0.1948 -0.1903
 8649SOL    HW137409   3.116   4.668   7.403  0.8557 -1.6887  0.7051
 8649SOL    HW237410   2.979   4.618   7.440  0.3176 -2.3051  0.8893
 8650SOL     OW37411   1.518   2.978  12.247 -0.1447  0.1389  0.6366
 8650SOL    HW137412   1.453   3.035  12.289 -0.0072  0.4029  0.4910
 8650SOL    HW237413   1.526   3.024  12.163  2.6939 -0.7508  0.4248
 8651SOL     OW37414   2.447   2.860   0.113 -0.2466 -0.0789 -0.8305
 8651SOL    HW137415   2.422   2.912   0.190  2.8595 -1.5509  1.1331
 8651SOL    HW237416   2.428   2.771   0.143  0.6044  0.5760  1.6250
 8652SOL     OW37417   1.072   3.131   6.504  0.6019 -0.2585  0.7825
 8652SOL    HW137418   1.005   3.062   6.498 -0.1132  0.6034 -1.2959
 8652SOL    HW237419   1.033   3.186   6.436 -0.1424  0.3728  1.7238
 8653SOL     OW37420   0.032   1.015  12.213  0.0257 -0.4298 -0.3324
 8653SOL    HW137421   4.716   1.100  12.232  0.9620 -0.1610  0.4339
 8653SOL    HW237422   0.011   1.021  12.120  0.0622  1.2041 -0.2318
 8654SOL     OW37423   3.713   0.356   4.560  0.4695  0.0448 -0.8509
 8654SOL    HW137424   3.707   0.400   4.475  1.6444  1.8768 -0.0090
 8654SOL    HW237425   3.628   0.314   4.566 -0.6369  2.4469  0.4391
 8655SOL     OW37426   2.216   3.328   8.464 -0.5037  0.9627 -0.4551
 8655SOL    HW137427   2.156   3.391   8.424 -0.5217  0.4294 -1.2735
 8655SOL    HW237428   2.155   3.283   8.523  1.0320 -0.7602 -0.1874
 8656SOL     OW37429   3.068   4.019  12.750 -0.1167 -0.1365  0.2923
 8656SOL    HW137430   3.019   4.057  12.823  0.4768 -0.5038  0.8728
 8656SOL    HW237431   2.996   3.978  12.702  0.0731 -0.2207  0.0798
 8657SOL     OW37432   2.938   1.494   7.470  0.3818 -0.8602  0.0740
 8657SOL    HW137433   2.946   1.520   7.378 -0.6999 -2.9143 -0.5899
 8657SOL    HW237434   2.991   1.563   7.510 -1.5579  0.9688 -0.5085
 8658SOL     OW37435   0.623   3.804  15.431  0.0125  0.0100 -0.1162
 8658SOL    HW137436   0.605   3.849  15.348 -0.2588  1.5030  0.7504
 8658SOL    HW237437   0.561   3.732  15.433  0.0231 -0.0221 -1.1951
 8659SOL     OW37438   3.530   3.872  13.414  0.3579  0.0346  0.1422
 8659SOL    HW137439   3.478   3.941  13.372  0.5010 -1.0981 -1.8991
 8659SOL    HW237440   3.501   3.881  13.504  1.9435 -0.2867  0.6962
 8660SOL     OW37441   3.333   4.100   5.669 -0.2981 -0.0020 -0.2454
 8660SOL    HW137442   3.317   4.088   5.575 -3.7898  1.3670  0.1913
 8660SOL    HW237443   3.419   4.142   5.661 -0.1357  0.1326  2.3531
 8661SOL     OW37444   3.223   1.642   4.578  0.0261 -0.1374 -0.2325
 8661SOL    HW137445   3.271   1.566   4.548  1.6875  0.6142  0.5507
 8661SOL    HW237446   3.213   1.702   4.503 -2.0473  0.1466  0.2490
 8662SOL     OW37447   0.311   3.812  15.418 -0.4164 -0.0683 -0.3066
 8662SOL    HW137448   0.315   3.717  15.403  1.0396  0.0901 -0.9885
 8662SOL    HW237449   0.388   3.841  15.368 -2.0221 -0.0228 -2.7530
 8663SOL     OW37450   1.925   2.844   2.261  0.0608  0.7208 -0.2928
 8663SOL    HW137451   1.846   2.796   2.238  0.9447 -0.3859 -0.9982
 8663SOL    HW237452   1.943   2.886   2.177 -0.2110 -0.2337 -0.8242
 8664SOL     OW37453   3.882   3.066  16.066  0.0508 -0.1362 -0.0831
 8664SOL    HW137454   3.964   3.080  16.115 -0.0402 -0.5233  0.1782
 8664SOL    HW237455   3.892   3.124  15.990 -1.0582 -0.1893 -0.2637
 8665SOL     OW37456   0.583   1.273   4.389  0.0677  0.1301 -0.2061
 8665SOL    HW137457   0.604   1.247   4.478  0.4563  0.1080 -0.3039
 8665SOL    HW237458   0.667   1.301   4.353  0.7677  0.8855  2.0391
 8666SOL     OW37459   2.944   0.174  12.004  0.9490  0.4631 -0.8477
 8666SOL    HW137460   2.965   0.241  12.069  1.0051  0.5527 -0.9573
 8666SOL    HW237461   2.974   0.100  12.057  0.8198 -0.0084 -1.4311
 8667SOL     OW37462   3.764   1.970   8.391 -0.1334  0.0176  0.2716
 8667SOL    HW137463   3.745   2.049   8.341  0.6983  0.0374 -0.0068
 8667SOL    HW237464   3.681   1.961   8.439 -0.6324 -0.0577 -0.6137
 8668SOL     OW37465   1.137   3.747   5.799  0.2148 -0.1793 -0.0029
 8668SOL    HW137466   1.069   3.684   5.825  1.5941 -1.1218  1.3435
 8668SOL    HW237467   1.117   3.738   5.706 -0.3172 -2.3945  0.3212
 8669SOL     OW37468   2.802   0.544  13.170 -0.3807 -0.4565 -0.5483
 8669SOL    HW137469   2.895   0.563  13.156 -0.5981  1.5416  0.7908
 8669SOL    HW237470   2.806   0.454  13.137 -0.9382 -0.1458 -1.4901
 8670SOL     OW37471   3.480   2.145   9.041 -0.3862 -0.0618  0.3591
 8670SOL    HW137472   3.434   2.125   9.122 -0.2924 -3.1734 -0.3777
 8670SOL    HW237473   3.487   2.061   8.997  0.2777  0.1063  0.1304
 8671SOL     OW37474   2.098   0.030   5.330  0.4568  0.2778 -0.1409
 8671SOL    HW137475   2.053   4.717   5.406 -0.4861  3.4186  0.7993
 8671SOL    HW237476   2.130   0.113   5.364  0.6313 -0.6108  1.8442
 8672SOL     OW37477   2.777   0.358   3.277 -1.0554  0.2585 -0.7367
 8672SOL    HW137478   2.764   0.305   3.356 -2.1036  1.6537  0.0403
 8672SOL    HW237479   2.684   0.365   3.257 -1.0081  1.7680 -0.4583
 8673SOL     OW37480   3.764   0.589   5.033  0.2730 -0.2834 -0.1472
 8673SOL    HW137481   3.777   0.683   5.043 -2.2160  0.0762 -0.1578
 8673SOL    HW237482   3.718   0.574   5.116  0.2650 -0.1102 -0.1194
 8674SOL     OW37483   3.237   0.144  11.534  0.1369  0.4400  0.4672
 8674SOL    HW137484   3.245   0.201  11.610 -1.2776  0.4381  0.6144
 8674SOL    HW237485   3.322   0.101  11.536  0.6908  1.4671 -0.6227
 8675SOL     OW37486   4.066   0.096   3.165 -0.0616  0.5773  0.2972
 8675SOL    HW137487   4.132   0.067   3.228  1.5963  2.6787 -0.4736
 8675SOL    HW237488   4.023   0.160   3.221 -2.3081  0.4586 -1.3009
 8676SOL     OW37489   4.296   4.312   2.039  0.0476  0.1902  0.1681
 8676SOL    HW137490   4.364   4.376   2.017  1.3238 -0.9743  0.7403
 8676SOL    HW237491   4.226   4.373   2.016  0.6615  1.0049  0.4744
 8677SOL     OW37492   1.662   2.820   5.520  0.1057 -0.4629 -0.0750
 8677SOL    HW137493   1.732   2.764   5.487 -0.1582 -0.2818 -0.9524
 8677SOL    HW237494   1.659   2.785   5.609 -0.2863  2.2917  0.9763
 8678SOL     OW37495   2.833   2.187   2.393  0.2042 -0.6716 -0.1716
 8678SOL    HW137496   2.747   2.145   2.399 -1.1254  1.9447 -0.7076
 8678SOL    HW237497   2.834   2.218   2.302  1.2835  0.9132  0.3719
 8679SOL     OW37498   3.130   2.147   8.368  0.2117  0.4204  0.0692
 8679SOL    HW137499   3.125   2.052   8.377 -1.5176  0.3812 -1.3270
 8679SOL    HW237500   3.193   2.144   8.297 -0.7595  0.4054 -0.7864
 8680SOL     OW37501   1.362   4.360   7.783  0.2857 -0.3587  0.1642
 8680SOL    HW137502   1.330   4.392   7.699  1.2592 -0.7134 -0.3507
 8680SOL    HW237503   1.447   4.405   7.789 -2.0056  4.0395 -0.4940
 8681SOL     OW37504   3.429   1.770   4.326  0.4624 -0.4023 -0.1857
 8681SOL    HW137505   3.369   1.696   4.318  1.8565 -1.7961  2.3356
 8681SOL    HW237506   3.400   1.811   4.244  0.4644  1.4617  0.7576
 8682SOL     OW37507   4.421   0.241  16.746  0.1975 -0.3435  0.1667
 8682SOL    HW137508   4.492   0.177  16.736 -0.0156 -0.6625  0.7269
 8682SOL    HW237509   4.382   0.214  16.829 -0.0758 -1.0615 -0.1903
 8683SOL     OW37510   2.740   0.250   6.247 -0.6459 -0.0942  0.3360
 8683SOL    HW137511   2.733   0.255   6.342  0.3879 -0.3047  0.4239
 8683SOL    HW237512   2.684   0.176   6.222 -2.9308  1.1757  1.6928
 8684SOL     OW37513   0.721   2.681   5.930  0.2078  0.8265  0.8496
 8684SOL    HW137514   0.629   2.682   5.954  0.2109  0.4506  0.8760
 8684SOL    HW237515   0.724   2.680   5.834  1.4272  2.4354  0.8689
 8685SOL     OW37516   4.341   3.631   5.847  0.1803 -0.3362 -0.0081
 8685SOL    HW137517   4.310   3.599   5.762 -1.7000  1.1430  0.1114
 8685SOL    HW237518   4.433   3.606   5.850  0.2999 -0.1223 -1.7220
 8686SOL     OW37519   0.357   4.721  14.085 -0.1742 -0.1046  0.1740
 8686SOL    HW137520   0.388   0.083  14.054  0.9940 -0.4668  0.3182
 8686SOL    HW237521   0.312   4.703  14.003 -1.3238 -1.1014  1.0265
 8687SOL     OW37522   0.708   0.827   1.254 -0.2374  0.0775 -0.0384
 8687SOL    HW137523   0.619   0.794   1.259 -0.2773  0.4901  1.9657
 8687SOL    HW237524   0.690   0.905   1.203  1.5748  0.8438  0.4742
 8688SOL     OW37525   2.426   3.569   9.011  0.2160 -0.2292  0.5293
 8688SOL    HW137526   2.383   3.653   8.993  0.6619 -0.1392 -0.1088
 8688SOL    HW237527   2.432   3.587   9.105 -1.1885  0.9148  0.3979
 8689SOL     OW37528   2.711   2.460   3.397  0.2920  0.0502 -0.5952
 8689SOL    HW137529   2.781   2.400   3.421 -0.6784 -0.5468  0.7284
 8689SOL    HW237530   2.690   2.433   3.307  0.1311  2.4686 -1.3016
 8690SOL     OW37531   4.176   4.441  13.059  0.2148 -0.0843 -0.4008
 8690SOL    HW137532   4.164   4.528  13.022 -2.1831 -0.1093  0.3244
 8690SOL    HW237533   4.256   4.457  13.109  1.4763 -0.0789 -2.4325
 8691SOL     OW37534   2.735   2.863   3.388  0.4372 -0.0429  0.0999
 8691SOL    HW137535   2.788   2.925   3.438  0.9610 -0.2058 -0.2533
 8691SOL    HW237536   2.732   2.788   3.447 -0.0308  1.3337  1.8334
 8692SOL     OW37537   0.185   0.743  15.698  0.3550  0.3063 -0.0593
 8692SOL    HW137538   0.095   0.729  15.668  0.3502 -2.1342  1.0399
 8692SOL    HW237539   0.170   0.807  15.767  0.0892 -1.6551  1.7171
 8693SOL     OW37540   4.129   1.467  15.703  0.1943  0.1409  0.6449
 8693SOL    HW137541   4.057   1.488  15.644  0.0727 -2.0389 -0.0145
 8693SOL    HW237542   4.196   1.440  15.640 -2.7247 -1.7727 -1.6483
 8694SOL     OW37543   2.521   4.107  11.926 -0.7650  0.2006 -0.2658
 8694SOL    HW137544   2.542   4.144  12.012 -2.5417 -2.5458  1.3879
 8694SOL    HW237545   2.550   4.018  11.947 -1.6794 -0.0173  0.1074
 8695SOL     OW37546   1.523   2.859   6.544  0.1407 -0.3290  0.7785
 8695SOL    HW137547   1.593   2.813   6.589 -1.4060 -1.2803  2.1917
 8695SOL    HW237548   1.512   2.938   6.597 -0.5110  0.6072 -0.7335
 8696SOL     OW37549   2.746   3.598   7.981  0.0283 -0.2005 -0.2596
 8696SOL    HW137550   2.828   3.646   7.987  0.1250 -0.5051  0.7926
 8696SOL    HW237551   2.769   3.508   7.957  2.5681  0.8715 -1.7620
 8697SOL     OW37552   4.397   4.453   4.104  0.0315 -0.2281 -0.1427
 8697SOL    HW137553   4.386   4.543   4.075 -0.2379 -0.5388 -1.0117
 8697SOL    HW237554   4.476   4.463   4.158 -0.5387  0.4468  0.5713
 8698SOL     OW37555   0.026   3.967   3.695 -0.0774  0.2671  0.1755
 8698SOL    HW137556   4.716   3.881   3.673 -2.0176  0.8935  0.7570
 8698SOL    HW237557   0.120   3.948   3.690 -0.4559 -1.6097  0.4543
 8699SOL     OW37558   4.670   0.955   9.072 -0.2991 -0.0685 -0.1729
 8699SOL    HW137559   4.632   0.956   9.159  0.2821  2.1216  0.0449
 8699SOL    HW237560   4.666   1.050   9.062 -0.7525 -0.1810 -1.1372
 8700SOL     OW37561   2.236   3.915   6.738  0.1515 -0.0753  0.5194
 8700SOL    HW137562   2.154   3.939   6.781  0.0562 -0.0203  0.3066
 8700SOL    HW237563   2.292   3.991   6.752 -0.0684  0.1931 -0.0528
 8701SOL     OW37564   1.909   4.107   8.736 -0.4008  0.3676  0.9431
 8701SOL    HW137565   1.864   4.038   8.784  0.9147 -0.3100  1.1957
 8701SOL    HW237566   1.976   4.135   8.799 -0.5631 -1.1583  1.8010
 8702SOL     OW37567   2.722   3.761   0.998 -0.2066  0.3694  0.1238
 8702SOL    HW137568   2.663   3.814   0.944 -2.4686 -1.1346  1.1143
 8702SOL    HW237569   2.696   3.779   1.088  2.0178 -1.2200  1.0759
 8703SOL     OW37570   1.841   3.762   6.129  0.0524 -0.3498 -0.3280
 8703SOL    HW137571   1.873   3.848   6.100 -1.7463  1.1517  2.2031
 8703SOL    HW237572   1.855   3.772   6.223 -1.0254 -0.4036 -0.1647
 8704SOL     OW37573   0.802   3.594   1.729 -0.6906 -0.1565  1.4182
 8704SOL    HW137574   0.707   3.594   1.746 -0.9094 -1.5672  0.1729
 8704SOL    HW237575   0.812   3.684   1.760  1.9934 -0.1028  0.3246
 8705SOL     OW37576   0.105   1.725  17.585  0.7855 -0.3182  0.0207
 8705SOL    HW137577   0.059   1.645  17.560 -1.6683  1.6758 -1.7220
 8705SOL    HW237578   0.035   1.789  17.587  0.8766 -0.1741 -1.3463
 8706SOL     OW37579   4.326   0.642  14.956  0.9390  0.1757 -0.7756
 8706SOL    HW137580   4.332   0.737  14.966  0.7217 -0.0900  1.8516
 8706SOL    HW237581   4.404   0.614  15.003  0.3607  2.2670  1.4076
 8707SOL     OW37582   3.405   0.771   8.292  0.1612  0.2652  0.2905
 8707SOL    HW137583   3.449   0.703   8.342 -1.2912 -0.9164 -0.0214
 8707SOL    HW237584   3.349   0.721   8.232  0.3714 -0.7452  0.9441
 8708SOL     OW37585   1.262   0.746  14.702 -0.3452 -0.1686 -1.0583
 8708SOL    HW137586   1.203   0.809  14.742  0.5871  0.9787 -1.4997
 8708SOL    HW237587   1.321   0.809  14.661 -0.5560 -0.5019 -1.8830
 8709SOL     OW37588   1.102   1.559  15.564  0.1931 -0.1553 -0.7150
 8709SOL    HW137589   1.062   1.575  15.478 -0.6344 -0.1411 -0.3255
 8709SOL    HW237590   1.025   1.547  15.620  1.5904  1.0734  1.4633
 8710SOL     OW37591   4.645   3.693  13.289  0.1705  0.6323 -0.2267
 8710SOL    HW137592   0.002   3.741  13.272  1.4569 -0.9449  1.4335
 8710SOL    HW237593   4.602   3.675  13.206 -0.8962 -0.7777  0.6298
 8711SOL     OW37594   0.443   2.466   6.097 -0.2389  0.5155 -0.1872
 8711SOL    HW137595   0.416   2.374   6.100 -0.3644  0.4826 -2.5080
 8711SOL    HW237596   0.451   2.489   6.004 -1.4824 -1.1315 -0.7181
 8712SOL     OW37597   3.369   2.676   4.196  0.4178  0.3649  0.2915
 8712SOL    HW137598   3.407   2.593   4.226 -2.0108 -1.0329 -0.5159
 8712SOL    HW237599   3.279   2.646   4.207 -0.1273  2.0415  0.2318
 8713SOL     OW37600   4.672   2.403   6.669  0.1486  0.2406  0.3809
 8713SOL    HW137601   4.717   2.470   6.618 -0.4963 -0.6732 -1.3831
 8713SOL    HW237602   4.627   2.355   6.600 -1.0693  0.9734  0.6464
 8714SOL     OW37603   3.168   1.328   1.903  0.6600  0.0239 -0.2744
 8714SOL    HW137604   3.241   1.294   1.956 -0.5370  0.8264  1.9030
 8714SOL    HW237605   3.203   1.364   1.821  1.0403  2.2697  0.8783
 8715SOL     OW37606   1.837   0.016  11.336  0.2380 -0.0806 -0.7646
 8715SOL    HW137607   1.845   4.724  11.430 -0.1425  2.5290 -0.2813
 8715SOL    HW237608   1.851   4.657  11.291 -1.0286 -0.7328  0.0590
 8716SOL     OW37609   1.554   1.785   9.036 -0.6979 -0.1229  0.3047
 8716SOL    HW137610   1.548   1.881   9.035 -0.1566 -0.1144 -1.6458
 8716SOL    HW237611   1.471   1.769   9.081  0.7216 -2.4184  2.1070
 8717SOL     OW37612   0.636   1.672  15.094 -0.3436 -0.4592  0.3503
 8717SOL    HW137613   0.587   1.595  15.066 -0.8084 -0.5810  1.4787
 8717SOL    HW237614   0.690   1.698  15.020  0.1030 -1.6661  0.2609
 8718SOL     OW37615   0.289   3.158   4.246 -0.3334  0.8072 -0.0139
 8718SOL    HW137616   0.289   3.199   4.333 -1.5145 -0.3907  0.5551
 8718SOL    HW237617   0.275   3.235   4.192 -1.0185  0.0643 -0.8922
 8719SOL     OW37618   4.188   1.615   5.116 -0.0079 -0.1835 -0.0796
 8719SOL    HW137619   4.111   1.559   5.126  0.4835 -0.7330  0.6493
 8719SOL    HW237620   4.151   1.674   5.049  0.5994 -2.3658 -2.3263
 8720SOL     OW37621   3.211   3.641   1.871 -0.2774 -0.3611 -0.4426
 8720SOL    HW137622   3.297   3.617   1.904  1.2079  1.0042 -3.3378
 8720SOL    HW237623   3.236   3.678   1.786 -1.5819  0.8184 -0.3194
 8721SOL     OW37624   0.921   2.165   5.122  0.1553  0.1583 -0.1133
 8721SOL    HW137625   0.931   2.076   5.088 -0.9516 -1.2249  3.1403
 8721SOL    HW237626   0.927   2.148   5.216 -0.2959  1.3306  0.1265
 8722SOL     OW37627   1.197   2.835  10.756  0.4480 -0.1220  0.0132
 8722SOL    HW137628   1.182   2.926  10.729 -0.4241 -0.1182  0.5343
 8722SOL    HW237629   1.293   2.830  10.750  0.4511 -0.7482  0.7407
 8723SOL     OW37630   0.051   2.817   1.558 -0.0688  0.4920  0.5109
 8723SOL    HW137631   0.072   2.758   1.486 -0.0299 -0.6550  1.4698
 8723SOL    HW237632   4.690   2.844   1.522 -0.9238 -1.4332  1.1070
 8724SOL     OW37633   0.686   3.058  13.190  0.4429 -0.1140  0.2400
 8724SOL    HW137634   0.748   3.032  13.259 -0.5899  0.9736  1.5833
 8724SOL    HW237635   0.610   3.069  13.247  1.0380  1.3272  0.7695
 8725SOL     OW37636   2.553   2.499   8.151  0.2418  0.9996 -0.1932
 8725SOL    HW137637   2.566   2.591   8.129 -0.3078  1.1076 -0.0806
 8725SOL    HW237638   2.491   2.468   8.085  0.6577  0.6499 -0.4225
 8726SOL     OW37639   2.479   2.945   3.622 -0.0187 -0.2853  0.4118
 8726SOL    HW137640   2.414   2.980   3.561 -1.8335  1.1099  3.1143
 8726SOL    HW237641   2.533   3.020   3.646  0.4045 -0.5824  0.3801
 8727SOL     OW37642   0.840   0.593   7.371 -0.0474 -0.2345 -0.3385
 8727SOL    HW137643   0.784   0.584   7.447 -0.2857  2.4106 -0.1990
 8727SOL    HW237644   0.928   0.602   7.408  0.2361  0.7019 -1.2230
 8728SOL     OW37645   3.266   3.810   5.397 -0.5045 -0.5173  0.2004
 8728SOL    HW137646   3.289   3.732   5.346  0.2738  0.0257 -0.2857
 8728SOL    HW237647   3.171   3.805   5.386 -1.0020  2.4361  3.3531
 8729SOL     OW37648   2.827   4.000   7.795  0.2179  0.2010 -0.5077
 8729SOL    HW137649   2.846   3.920   7.746  2.5809  0.8213 -0.6447
 8729SOL    HW237650   2.782   3.952   7.864 -0.1657 -0.1771 -1.0248
 8730SOL     OW37651   0.055   0.642  10.051 -0.0157 -0.2320 -0.3082
 8730SOL    HW137652   0.092   0.638   9.963 -0.0769 -3.1113 -0.1904
 8730SOL    HW237653   4.691   0.668  10.024  0.0770 -0.1676 -0.5484
 8731SOL     OW37654   0.334   3.507   6.955 -0.0039 -0.0969 -0.1155
 8731SOL    HW137655   0.376   3.488   7.038 -1.6468 -1.6891  0.3559
 8731SOL    HW237656   0.414   3.501   6.902 -0.5972 -0.3215 -1.0013
 8732SOL     OW37657   2.868   0.173  10.551 -0.0798  0.2178 -0.1406
 8732SOL    HW137658   2.787   0.174  10.602 -0.8315  1.2222 -1.3652
 8732SOL    HW237659   2.863   0.082  10.524  1.1443 -0.3465  1.4839
 8733SOL     OW37660   4.467   3.601   6.471 -0.1193 -0.0324  0.4503
 8733SOL    HW137661   4.424   3.650   6.400  0.8387  1.1176  0.6698
 8733SOL    HW237662   4.450   3.517   6.429  0.9997 -0.1533  0.2428
 8734SOL     OW37663   1.496   1.704  13.892 -0.4752  0.2346 -0.6504
 8734SOL    HW137664   1.452   1.750  13.821  0.4722  1.3976 -0.4779
 8734SOL    HW237665   1.426   1.663  13.942 -1.0424  1.8623 -0.1453
 8735SOL     OW37666   1.022   0.090   3.630  0.2328  0.4569  0.3629
 8735SOL    HW137667   1.095   0.109   3.689  0.2803 -0.3986  0.5840
 8735SOL    HW237668   1.057   0.022   3.573 -1.9933 -0.4767  0.1040
 8736SOL     OW37669   3.587   0.373  12.252  0.1722 -0.1510  0.3347
 8736SOL    HW137670   3.569   0.363  12.159 -2.6187  0.1972  0.8288
 8736SOL    HW237671   3.682   0.381  12.245  0.0869  1.7829  1.4476
 8737SOL     OW37672   1.653   3.412   7.275  0.7756  0.0981 -0.0246
 8737SOL    HW137673   1.683   3.470   7.346  1.2809  0.1646 -0.2915
 8737SOL    HW237674   1.558   3.421   7.281  0.7872 -1.3663  2.5929
 8738SOL     OW37675   2.270   1.993  13.734 -0.1950  0.2112 -0.2153
 8738SOL    HW137676   2.308   1.997  13.821 -0.3579  0.3624 -0.1522
 8738SOL    HW237677   2.305   2.074  13.697  0.1224 -0.4553 -1.4062
 8739SOL     OW37678   3.471   2.212   2.167  0.0369 -0.1116 -0.1997
 8739SOL    HW137679   3.481   2.249   2.080 -1.8462 -0.9671 -0.7814
 8739SOL    HW237680   3.545   2.152   2.165  2.1746  2.6247 -2.1745
 8740SOL     OW37681   2.592   1.729  17.483 -0.1465  0.1182 -0.0721
 8740SOL    HW137682   2.585   1.686  17.569  0.1588 -2.2305 -1.2019
 8740SOL    HW237683   2.649   1.804  17.494  0.5363 -0.5707  1.1358
 8741SOL     OW37684   3.705   0.898  12.200  0.2659  0.0101  0.5219
 8741SOL    HW137685   3.780   0.883  12.143  0.4749 -0.5666  0.9440
 8741SOL    HW237686   3.626   0.864  12.158  0.0757  0.6790  0.3388
 8742SOL     OW37687   4.590   0.708   5.442  0.2190  0.1830  0.0391
 8742SOL    HW137688   4.567   0.745   5.527 -0.6963  0.5016 -0.3525
 8742SOL    HW237689   4.624   0.785   5.397 -0.0100 -0.7387 -1.7179
 8743SOL     OW37690   2.878   2.869  15.889 -0.3994 -0.5612 -0.2058
 8743SOL    HW137691   2.882   2.965  15.885 -2.0825 -0.4232  1.1783
 8743SOL    HW237692   2.791   2.862  15.849 -0.7454  2.0689  0.0698
 8744SOL     OW37693   1.800   1.230   8.988  0.1785 -0.5392  1.5377
 8744SOL    HW137694   1.742   1.197   9.056 -0.7301  2.0692  2.0304
 8744SOL    HW237695   1.741   1.210   8.916 -0.2203 -1.5441  2.1416
 8745SOL     OW37696   2.705   3.799   6.119  0.5185  0.3344 -0.0096
 8745SOL    HW137697   2.672   3.881   6.083  0.5366  0.1221 -0.5126
 8745SOL    HW237698   2.773   3.830   6.179  0.6060  1.0668 -0.4945
 8746SOL     OW37699   0.334   0.291   6.583  0.2298  0.0619 -0.2632
 8746SOL    HW137700   0.269   0.293   6.653 -0.6975  0.3614 -1.1453
 8746SOL    HW237701   0.420   0.291   6.627  1.1029  1.2712 -1.9981
 8747SOL     OW37702   3.728   4.696  16.587  0.1867 -0.0565  0.2751
 8747SOL    HW137703   3.713   0.060  16.551  1.7989 -0.0563 -0.3535
 8747SOL    HW237704   3.823   4.696  16.598  0.7329 -1.4230 -4.7058
 8748SOL     OW37705   4.335   4.222   8.722 -0.5705 -0.0256  0.1566
 8748SOL    HW137706   4.267   4.160   8.696 -0.5147  0.2825 -0.7123
 8748SOL    HW237707   4.320   4.215   8.817  0.4099  0.9286  0.3778
 8749SOL     OW37708   4.340   3.057  17.401 -0.0629 -0.1105 -0.0958
 8749SOL    HW137709   4.276   3.128  17.407 -2.4075 -2.2845  0.7360
 8749SOL    HW237710   4.375   3.075  17.314  1.1125 -0.4451  0.3079
 8750SOL     OW37711   0.845   2.373   4.973 -0.2729  0.2070 -0.0901
 8750SOL    HW137712   0.850   2.294   5.027  0.6849  0.6833  0.5189
 8750SOL    HW237713   0.937   2.390   4.952 -0.8810  1.3329 -1.8741
 8751SOL     OW37714   4.345   2.130   2.896 -0.3763 -0.2582 -0.2507
 8751SOL    HW137715   4.419   2.071   2.880 -0.3605 -0.5215  0.7843
 8751SOL    HW237716   4.276   2.072   2.930  0.9950 -1.1680  0.9762
 8752SOL     OW37717   3.521   2.143   2.495 -0.0774 -0.3401  0.1972
 8752SOL    HW137718   3.553   2.157   2.406  0.8723  2.2407  0.9329
 8752SOL    HW237719   3.600   2.131   2.547 -0.4604 -0.3921  0.7637
 8753SOL     OW37720   1.866   3.313   0.959  0.3483 -0.4089  0.2193
 8753SOL    HW137721   1.774   3.288   0.952 -0.0323  0.4562  2.3420
 8753SOL    HW237722   1.911   3.295   0.877 -0.3792  0.6576 -0.4175
 8754SOL     OW37723   3.657   0.290  11.911  0.1819  0.0159  0.0780
 8754SOL    HW137724   3.602   0.316  11.837  0.7345 -0.6483 -0.5730
 8754SOL    HW237725   3.723   0.360  11.915 -0.9040  1.0246  0.2609
 8755SOL     OW37726   3.748   2.168   2.632 -0.8243 -0.3462  0.2026
 8755SOL    HW137727   3.839   2.181   2.605 -0.5311  0.6496  1.6656
 8755SOL    HW237728   3.744   2.223   2.710  1.5958  0.0468  0.0483
 8756SOL     OW37729   0.755   0.326   7.831  0.7838 -0.0907  0.0199
 8756SOL    HW137730   0.665   0.297   7.847 -0.3804  3.5675 -0.0589
 8756SOL    HW237731   0.806   0.302   7.909 -0.2256 -1.1225  0.3758
 8757SOL     OW37732   0.861   4.614  15.709  0.4592 -0.3122  0.1379
 8757SOL    HW137733   0.901   4.636  15.625 -0.8551 -0.1382 -0.4358
 8757SOL    HW237734   0.803   4.689  15.724  0.8520  0.3086 -1.4558
 8758SOL     OW37735   2.848   0.526   3.691 -0.1485 -0.0623  0.1563
 8758SOL    HW137736   2.811   0.535   3.604  1.3488 -2.1778 -0.6882
 8758SOL    HW237737   2.867   0.432   3.689  1.8767  0.3584 -0.3201
 8759SOL     OW37738   4.421   1.155   6.227 -0.0563  0.0767  0.1388
 8759SOL    HW137739   4.474   1.234   6.232  1.3311 -0.7100 -2.0014
 8759SOL    HW237740   4.338   1.190   6.193  0.0549  0.6954  0.4984
 8760SOL     OW37741   0.896   4.349   4.515 -0.1975  0.0996  0.0235
 8760SOL    HW137742   0.880   4.374   4.607 -1.4594  1.1967 -0.4867
 8760SOL    HW237743   0.955   4.276   4.529  0.7137  0.2119 -3.3191
 8761SOL     OW37744   1.443   3.326  11.292  0.2777 -0.2976  0.4239
 8761SOL    HW137745   1.468   3.376  11.370  0.0827 -0.5864  0.6744
 8761SOL    HW237746   1.349   3.345  11.294  0.8497  2.5342 -0.2883
 8762SOL     OW37747   2.037   4.530   6.846 -0.0064  0.2216  0.4260
 8762SOL    HW137748   2.050   4.610   6.795 -0.1493  0.2669  0.4603
 8762SOL    HW237749   2.059   4.561   6.933 -1.2022 -0.0280  0.8191
 8763SOL     OW37750   1.553   4.113   8.052 -0.5060  0.5299 -0.3989
 8763SOL    HW137751   1.620   4.181   8.045  2.4751 -2.5220 -1.3893
 8763SOL    HW237752   1.507   4.162   8.120  0.5919  0.5262  0.3352
 8764SOL     OW37753   3.300   3.725  15.678  0.3320 -0.1631  0.2530
 8764SOL    HW137754   3.272   3.737  15.587  0.5581 -2.3240 -0.1076
 8764SOL    HW237755   3.299   3.630  15.692 -1.9598 -0.4980 -2.1708
 8765SOL     OW37756   2.933   1.909   3.104 -0.5153  0.3075 -0.1607
 8765SOL    HW137757   2.986   1.854   3.162  0.7246  1.6392 -0.0605
 8765SOL    HW237758   2.997   1.967   3.063 -0.3631  0.3664  0.1690
 8766SOL     OW37759   0.128   4.082   5.052  0.0444 -0.5373  0.5407
 8766SOL    HW137760   0.101   4.160   5.101  0.0345 -0.5320  0.5266
 8766SOL    HW237761   0.072   4.090   4.975  3.0394  1.4378 -1.4124
 8767SOL     OW37762   2.008   1.975  16.712  0.0188  0.0056  0.0036
 8767SOL    HW137763   2.097   1.948  16.735 -0.6612 -1.3430  1.0627
 8767SOL    HW237764   1.965   1.897  16.678  2.4528 -0.4813 -1.9266
 8768SOL     OW37765   3.715   2.499  13.383 -0.1937  0.1267  0.1133
 8768SOL    HW137766   3.643   2.445  13.417 -0.9847 -1.0333 -3.4220
 8768SOL    HW237767   3.688   2.591  13.392 -1.4735 -0.0934 -1.4916
 8769SOL     OW37768   4.310   3.870   5.984 -0.2866  0.0600 -0.2237
 8769SOL    HW137769   4.326   3.838   6.073  0.3722  2.0766  0.3858
 8769SOL    HW237770   4.300   3.784   5.943 -0.8057  0.4871 -1.0032
 8770SOL     OW37771   1.332   0.744   7.998  0.0112  0.6867 -0.4694
 8770SOL    HW137772   1.347   0.692   7.919  0.9154 -0.1597  0.2460
 8770SOL    HW237773   1.237   0.752   7.989 -0.0291  1.2703  0.5590
 8771SOL     OW37774   3.450   2.191   7.270 -0.2316  0.3820 -0.0608
 8771SOL    HW137775   3.526   2.248   7.285  2.6775 -3.0039 -1.8348
 8771SOL    HW237776   3.426   2.226   7.185  0.0208  0.8539  0.0621
 8772SOL     OW37777   2.302   3.899   2.736 -0.5625 -0.8382  0.4293
 8772SOL    HW137778   2.358   3.855   2.672 -0.9862 -1.6957  0.6513
 8772SOL    HW237779   2.314   3.986   2.697  0.6796 -0.0448  2.5811
 8773SOL     OW37780   2.559   4.268   3.917 -0.0105  0.5411 -0.4050
 8773SOL    HW137781   2.629   4.333   3.918  0.8306 -0.3777  0.2223
 8773SOL    HW237782   2.606   4.198   3.962  0.5743 -0.6238 -2.8337
 8774SOL     OW37783   0.652   0.218  14.473 -0.1186 -0.0973 -0.7413
 8774SOL    HW137784   0.593   0.293  14.471 -0.4314 -0.3435 -0.7570
 8774SOL    HW237785   0.688   0.222  14.384  0.7242 -1.4737 -0.4741
 8775SOL     OW37786   3.854   1.829   2.639  0.4018  0.1190  0.0488
 8775SOL    HW137787   3.899   1.911   2.621  0.9717 -0.2651 -0.3141
 8775SOL    HW237788   3.829   1.838   2.731  0.9018 -1.7847  0.3852
 8776SOL     OW37789   0.590   2.299   3.364 -0.3284 -0.2889 -0.3438
 8776SOL    HW137790   0.561   2.234   3.300  2.6716 -0.4876 -1.5076
 8776SOL    HW237791   0.544   2.256   3.436 -0.0619  1.8218  1.0958
 8777SOL     OW37792   1.986   2.504   7.673  0.3137  0.1719  0.1500
 8777SOL    HW137793   1.965   2.598   7.677 -1.1600 -0.0545 -2.0224
 8777SOL    HW237794   1.902   2.465   7.697  1.3263 -2.4124 -0.5615
 8778SOL     OW37795   1.298   1.070  10.974  0.0363 -0.4181  0.1727
 8778SOL    HW137796   1.345   1.151  10.994 -0.7571 -0.3313  1.7048
 8778SOL    HW237797   1.283   1.037  11.062 -0.3113  1.3344  0.7760
 8779SOL     OW37798   4.599   0.495   5.224 -0.1725  0.1050  0.3088
 8779SOL    HW137799   4.694   0.483   5.214  0.1621  0.8648  2.6187
 8779SOL    HW237800   4.591   0.590   5.234  1.5753  0.4703 -1.7740
 8780SOL     OW37801   2.637   2.162   8.506 -0.0744 -0.2121  0.0424
 8780SOL    HW137802   2.605   2.211   8.430  0.8116  0.4179  0.0805
 8780SOL    HW237803   2.655   2.076   8.468 -0.8631  1.4200 -4.1228
 8781SOL     OW37804   4.282   4.350   1.071  0.9748 -0.0731 -0.1182
 8781SOL    HW137805   4.317   4.311   0.991  2.0411  0.6953 -0.0276
 8781SOL    HW237806   4.259   4.267   1.114  2.8400 -0.9938 -0.8821
 8782SOL     OW37807   3.264   2.541   8.128  0.2036  0.3229 -0.0784
 8782SOL    HW137808   3.291   2.614   8.183  1.3263 -0.0334 -0.1533
 8782SOL    HW237809   3.169   2.553   8.133 -0.0730 -1.2442 -1.5518
 8783SOL     OW37810   0.961   3.409   5.019 -0.1342  0.8080 -0.0670
 8783SOL    HW137811   1.034   3.418   5.080  1.3079  0.8282 -1.8309
 8783SOL    HW237812   0.944   3.498   4.989 -2.3098  0.1652 -0.7584
 8784SOL     OW37813   0.147   1.320   1.774 -0.2165 -0.4058  0.1178
 8784SOL    HW137814   0.127   1.285   1.687  0.4997  0.6677 -0.4880
 8784SOL    HW237815   0.061   1.337   1.810 -0.5708 -1.5932 -0.1753
 8785SOL     OW37816   0.305   0.413   4.478 -0.7224  0.3020  0.0036
 8785SOL    HW137817   0.383   0.392   4.426  0.3191  1.2441  1.1849
 8785SOL    HW237818   0.240   0.436   4.411  0.3992 -0.3419 -1.3280
 8786SOL     OW37819   3.959   4.107  15.581 -0.4253 -0.2242 -0.3601
 8786SOL    HW137820   3.895   4.039  15.560  0.0664 -1.3400  1.7929
 8786SOL    HW237821   3.921   4.145  15.660  0.9592  0.8682 -0.2267
 8787SOL     OW37822   0.998   0.723  10.763  0.1695  0.2161 -0.7379
 8787SOL    HW137823   1.067   0.789  10.765  0.4831 -0.1747  0.9148
 8787SOL    HW237824   0.988   0.701  10.855  3.4728  1.5969 -0.0310
 8788SOL     OW37825   4.719   0.387   4.591  0.8421 -0.5902 -0.1768
 8788SOL    HW137826   0.023   0.477   4.573 -2.4980  0.1946 -1.4433
 8788SOL    HW237827   4.653   0.403   4.658  0.2745 -0.2850 -0.8020
 8789SOL     OW37828   4.599   2.266  11.543  0.1156  0.1611 -0.2355
 8789SOL    HW137829   4.623   2.299  11.456  0.4953  0.8947  0.1407
 8789SOL    HW237830   4.506   2.256  11.524  0.5477 -0.3583 -2.0571
 8790SOL     OW37831   0.079   3.478  13.380  0.2657  0.6006 -0.3081
 8790SOL    HW137832   0.087   3.508  13.470 -1.1176  0.2619 -0.0721
 8790SOL    HW237833   0.016   3.540  13.344 -0.0512  0.2214 -0.4090
 8791SOL     OW37834   2.634   3.990   3.808 -0.1194  0.1758  0.0539
 8791SOL    HW137835   2.667   3.969   3.721 -3.0197  2.6024 -1.6667
 8791SOL    HW237836   2.553   3.939   3.806  0.0128  0.0440 -2.1932
 8792SOL     OW37837   0.097   1.939   5.550  0.3529  0.1608  0.3618
 8792SOL    HW137838   0.111   1.964   5.642  3.5905  1.3549 -0.4641
 8792SOL    HW237839   0.113   2.028   5.520 -2.1552  0.6061  0.4022
 8793SOL     OW37840   0.231   2.298  12.654 -0.3606  0.3110 -0.4779
 8793SOL    HW137841   0.237   2.389  12.685 -1.7238  0.1681  0.2057
 8793SOL    HW237842   0.166   2.263  12.715  1.0591  0.0169  0.8417
 8794SOL     OW37843   0.776   1.534  15.273 -0.3005 -0.2363  0.3020
 8794SOL    HW137844   0.740   1.591  15.205  1.0882 -1.4781 -1.4723
 8794SOL    HW237845   0.863   1.573  15.286  0.3317 -0.5240 -3.2037
 8795SOL     OW37846   0.111   3.095   4.694 -0.6567 -0.0407 -0.0092
 8795SOL    HW137847   0.140   3.171   4.643  0.6269 -1.1985 -0.9932
 8795SOL    HW237848   0.115   3.027   4.627  0.8386  2.2973 -2.3064
 8796SOL     OW37849   0.848   3.836   8.214 -0.0720 -0.7674 -0.5054
 8796SOL    HW137850   0.823   3.928   8.201  2.4007 -0.2906 -2.0375
 8796SOL    HW237851   0.820   3.802   8.129  0.4573 -0.8476 -0.6477
 8797SOL     OW37852   1.791   2.632  16.583 -0.1898 -0.3089  0.3958
 8797SOL    HW137853   1.795   2.650  16.677 -0.1095 -2.5904  0.8404
 8797SOL    HW237854   1.699   2.613  16.565 -0.4478  0.0023  1.3921
 8798SOL     OW37855   0.489   0.767   3.783  0.0360  0.1276 -0.2098
 8798SOL    HW137856   0.529   0.707   3.721  1.6379  1.4021 -0.4082
 8798SOL    HW237857   0.501   0.722   3.867  0.6954 -2.5874 -1.7613
 8799SOL     OW37858   2.464   2.322   3.054  1.0466 -0.0638 -0.2478
 8799SOL    HW137859   2.434   2.336   3.144  1.6411 -0.8997  0.0785
 8799SOL    HW237860   2.437   2.232   3.036 -0.2211  0.4629 -0.9257
 8800SOL     OW37861   4.402   0.854   9.053  0.3192 -0.0520  0.1593
 8800SOL    HW137862   4.397   0.924   8.989 -0.8168 -1.0264 -0.8230
 8800SOL    HW237863   4.495   0.862   9.073  0.2148  0.7630  0.2898
 8801SOL     OW37864   3.861   4.547   5.217  0.3448  0.2077  0.0527
 8801SOL    HW137865   3.796   4.615   5.200 -0.0276 -0.5499 -1.5004
 8801SOL    HW237866   3.887   4.519   5.130  1.3668 -0.7145  0.6448
 8802SOL     OW37867   0.024   1.337   6.592 -0.2320  0.2881  0.9663
 8802SOL    HW137868   4.673   1.395   6.602  0.5851  1.6501 -0.9571
 8802SOL    HW237869   0.092   1.391   6.550 -1.1030 -0.2651 -1.1484
 8803SOL     OW37870   3.682   2.967   3.772  0.2022  0.4452  0.2867
 8803SOL    HW137871   3.753   2.937   3.715  1.1856 -1.8849  2.7454
 8803SOL    HW237872   3.733   3.037   3.812  2.4422 -0.6855 -0.5782
 8804SOL     OW37873   3.864   0.380   6.533  0.2770 -0.0366 -0.4284
 8804SOL    HW137874   3.846   0.426   6.451 -0.3420  0.2664 -0.1188
 8804SOL    HW237875   3.829   0.294   6.510  2.2209 -0.7167 -0.8499
 8805SOL     OW37876   1.649   2.242   6.563 -0.3769 -0.5442  0.7838
 8805SOL    HW137877   1.596   2.250   6.642 -0.8595 -1.2669  0.5289
 8805SOL    HW237878   1.655   2.331   6.529  1.9260 -0.3833  1.6254
 8806SOL     OW37879   4.381   2.731   8.831 -0.0587 -0.0128  0.1222
 8806SOL    HW137880   4.321   2.734   8.905  0.9252 -0.5374  0.9560
 8806SOL    HW237881   4.390   2.824   8.814  0.3876  0.0376  0.6062
 8807SOL     OW37882   2.112   3.463  11.724  0.0907  0.2629 -0.7749
 8807SOL    HW137883   2.114   3.482  11.630  0.0443 -0.7057 -0.9657
 8807SOL    HW237884   2.083   3.549  11.754 -0.8366 -0.7908  1.3712
 8808SOL     OW37885   3.818   0.069  17.512  0.0128 -0.1450  0.8332
 8808SOL    HW137886   3.821   0.107  17.424  0.1965  1.4315  1.5148
 8808SOL    HW237887   3.903   0.028  17.526 -0.4527 -1.3402  0.1068
 8809SOL     OW37888   3.019   1.044  14.299  0.1923 -0.1877  0.0855
 8809SOL    HW137889   3.056   0.958  14.279 -1.2497 -1.0247  1.0362
 8809SOL    HW237890   3.010   1.028  14.393 -0.3880 -0.5943 -0.0395
 8810SOL     OW37891   4.101   0.813   6.912 -0.1529 -0.0529 -0.3031
 8810SOL    HW137892   4.097   0.764   6.994 -2.0368 -2.2810 -1.7324
 8810SOL    HW237893   4.037   0.766   6.859  0.4203 -1.2989  0.0920
 8811SOL     OW37894   2.404   4.587  16.744 -0.3188  0.2099  0.1936
 8811SOL    HW137895   2.384   4.603  16.837  2.0181  0.7619  0.5861
 8811SOL    HW237896   2.494   4.564  16.725 -1.3004 -2.7429 -0.8764
 8812SOL     OW37897   2.731   1.597   2.801 -0.2725  0.1232 -0.6099
 8812SOL    HW137898   2.823   1.589   2.775 -0.4491 -2.0495 -0.5655
 8812SOL    HW237899   2.689   1.530   2.748  0.3601 -1.6948  1.1769
 8813SOL     OW37900   1.457   0.671  14.272 -0.3560 -0.3050 -0.2378
 8813SOL    HW137901   1.416   0.586  14.288 -3.4361  1.6018  2.1908
 8813SOL    HW237902   1.462   0.676  14.177  0.3578  1.5084 -0.1126
 8814SOL     OW37903   3.866   0.199  14.548  0.1208 -0.7909  0.8605
 8814SOL    HW137904   3.844   0.201  14.641 -0.6620 -0.8809  0.6771
 8814SOL    HW237905   3.942   0.256  14.547 -0.7354  0.2673 -3.2783
 8815SOL     OW37906   0.935   0.397   4.776 -0.1983 -0.2102  0.1359
 8815SOL    HW137907   0.994   0.325   4.754  2.0772  2.0552 -1.3413
 8815SOL    HW237908   0.985   0.476   4.753 -1.3363  0.0635 -1.3663
 8816SOL     OW37909   4.032   2.540   2.770 -0.1124  0.0706 -0.3731
 8816SOL    HW137910   3.984   2.478   2.715  0.6085 -0.4339 -0.4471
 8816SOL    HW237911   4.070   2.480   2.834 -2.0731 -1.0757 -0.2902
 8817SOL     OW37912   4.563   1.814   4.555  0.5153  0.7152 -0.0803
 8817SOL    HW137913   4.587   1.780   4.641 -2.0086  1.1996  0.8016
 8817SOL    HW237914   4.576   1.736   4.501 -1.8570 -0.2227  0.7236
 8818SOL     OW37915   0.106   2.150   4.918  0.0115  0.1472  0.1311
 8818SOL    HW137916   0.031   2.130   4.862 -0.6231  1.2985  0.5707
 8818SOL    HW237917   0.174   2.137   4.851  0.6987  0.4567  0.7644
 8819SOL     OW37918   2.991   1.609   6.436  0.1705 -0.2303  0.2167
 8819SOL    HW137919   2.953   1.598   6.524 -2.9983  2.6127 -0.7892
 8819SOL    HW237920   2.913   1.615   6.382 -0.4270  2.3192  1.3638
 8820SOL     OW37921   2.878   2.059  14.367 -0.0818  0.4835 -0.2916
 8820SOL    HW137922   2.847   1.969  14.364 -2.2419  1.1076  2.9126
 8820SOL    HW237923   2.815   2.097  14.429 -0.1375 -0.4510  0.2293
 8821SOL     OW37924   0.543   4.438  17.632  0.1564 -0.5236 -0.5293
 8821SOL    HW137925   0.607   4.473  17.694 -0.0039 -0.1194 -0.5850
 8821SOL    HW237926   0.482   4.512  17.635 -1.2092 -1.7400  1.8207
 8822SOL     OW37927   1.642   0.201  15.354  0.6013 -0.0218  0.5456
 8822SOL    HW137928   1.661   0.184  15.262 -1.1712  0.6508  0.0421
 8822SOL    HW237929   1.547   0.192  15.362  0.2101  1.6517 -2.1394
 8823SOL     OW37930   0.620   3.705   0.585  0.9697 -0.3677  0.5562
 8823SOL    HW137931   0.530   3.672   0.587  0.7105  0.4346  2.2384
 8823SOL    HW237932   0.639   3.741   0.498 -1.3407 -0.0040  0.2001
 8824SOL     OW37933   3.530   0.454   0.187  0.3230 -0.0938  0.6611
 8824SOL    HW137934   3.511   0.511   0.113  0.3093 -1.8007 -0.6489
 8824SOL    HW237935   3.623   0.474   0.195  0.0253  2.1446 -1.4996
 8825SOL     OW37936   1.077   2.455   8.341  0.4075 -0.0435 -0.5101
 8825SOL    HW137937   1.053   2.430   8.430 -1.2160 -0.5313 -1.0942
 8825SOL    HW237938   1.050   2.546   8.343  1.0719  0.1861 -1.8669
 8826SOL     OW37939   4.342   3.011   7.866 -0.1184 -0.6468 -0.0980
 8826SOL    HW137940   4.300   3.096   7.860 -0.1694 -0.7734 -1.5120
 8826SOL    HW237941   4.378   3.003   7.777  1.3421  1.8829  0.2651
 8827SOL     OW37942   1.327   2.791   1.937 -0.4142 -0.1672 -0.0266
 8827SOL    HW137943   1.394   2.722   1.944  0.2807  0.5657  0.6170
 8827SOL    HW237944   1.239   2.757   1.925 -0.5433  0.8861 -2.0615
 8828SOL     OW37945   0.691   1.073   2.147  0.3996  0.3392  0.0534
 8828SOL    HW137946   0.710   0.980   2.164 -2.8646 -0.5786 -1.2801
 8828SOL    HW237947   0.619   1.073   2.084 -0.7675 -0.5037  1.3748
 8829SOL     OW37948   4.491   0.823   6.501  0.2260  0.6745  0.8265
 8829SOL    HW137949   4.439   0.750   6.536 -0.6627  1.2278  0.6669
 8829SOL    HW237950   4.550   0.831   6.576  0.0304  1.4378  0.8953
 8830SOL     OW37951   2.633   0.028   3.867  0.5460  0.0852 -0.1540
 8830SOL    HW137952   2.566   4.694   3.901  0.2597 -0.4107 -1.5599
 8830SOL    HW237953   2.696   4.684   3.842  0.7394  1.0013 -2.1598
 8831SOL     OW37954   2.703   4.188   0.643 -0.0258  0.6354 -0.2395
 8831SOL    HW137955   2.656   4.164   0.723 -0.5517 -0.2382 -0.8093
 8831SOL    HW237956   2.660   4.272   0.624 -0.8374  0.0801 -0.8617
 8832SOL     OW37957   4.430   3.453   8.237  0.1785  0.2740 -0.1219
 8832SOL    HW137958   4.341   3.417   8.231  0.2333  0.4297 -1.8190
 8832SOL    HW237959   4.455   3.469   8.146  1.5728 -0.6900  0.0814
 8833SOL     OW37960   3.263   0.695  11.923 -0.2499  0.2236 -0.3095
 8833SOL    HW137961   3.233   0.771  11.872  2.0024  1.3104 -0.0230
 8833SOL    HW237962   3.303   0.646  11.852  3.0832  2.7258 -0.1296
 8834SOL     OW37963   4.105   0.010   6.976 -0.7320  0.0708  0.3138
 8834SOL    HW137964   4.080   0.074   6.910  0.7630  0.9843  0.6338
 8834SOL    HW237965   4.030   0.016   7.035 -1.0922 -2.1137  0.0901
 8835SOL     OW37966   2.531   1.569   7.771 -0.6173 -0.7398  0.0447
 8835SOL    HW137967   2.468   1.609   7.830 -0.5632 -1.3430  0.5163
 8835SOL    HW237968   2.486   1.583   7.688 -0.4233 -0.0467  0.0518
 8836SOL     OW37969   4.027   2.911   0.077 -0.5592 -0.3105 -0.0381
 8836SOL    HW137970   3.958   2.903   0.142 -2.1758 -0.6496 -1.8061
 8836SOL    HW237971   4.081   2.981   0.114 -0.9994 -0.2268  0.4438
 8837SOL     OW37972   1.045   3.128  14.718  0.1481 -0.3224  0.1774
 8837SOL    HW137973   0.953   3.102  14.713  0.5922 -1.6667 -0.9118
 8837SOL    HW237974   1.093   3.075  14.654 -2.4010 -2.3056 -0.0644
 8838SOL     OW37975   2.119   3.559   6.435  0.7298  0.1283 -0.0216
 8838SOL    HW137976   2.136   3.465   6.429  0.1351 -0.0074  0.4076
 8838SOL    HW237977   2.182   3.592   6.499 -1.5638 -0.7263  2.6984
 8839SOL     OW37978   0.273   3.818   3.695  0.6409  0.2310 -0.3948
 8839SOL    HW137979   0.237   3.755   3.758  0.1480  2.0793  1.2083
 8839SOL    HW237980   0.368   3.822   3.707  0.5254 -2.4655  1.3782
 8840SOL     OW37981   2.448   0.158   1.329  0.4678  0.0864 -0.1593
 8840SOL    HW137982   2.466   0.197   1.243  0.0014 -2.2046 -1.3012
 8840SOL    HW237983   2.534   0.176   1.368 -0.7232  3.5531  0.8330
 8841SOL     OW37984   2.634   0.262  17.404 -0.4107  0.0470 -0.2379
 8841SOL    HW137985   2.701   0.211  17.358 -1.6571  0.0352 -2.0366
 8841SOL    HW237986   2.563   0.265  17.340 -0.6795 -0.8917  0.0132
 8842SOL     OW37987   0.341   3.261   0.856  0.9844  0.2751 -0.4806
 8842SOL    HW137988   0.245   3.261   0.847  0.9447  1.3681 -0.0940
 8842SOL    HW237989   0.349   3.339   0.911  1.3847  1.4861 -2.2558
 8843SOL     OW37990   0.394   3.951   1.878 -0.2136  0.3304 -0.3301
 8843SOL    HW137991   0.350   3.878   1.921  2.2482 -1.6264 -1.1144
 8843SOL    HW237992   0.431   3.899   1.806 -3.5355  0.0175 -1.8363
 8844SOL     OW37993   4.567   1.871   4.976 -0.3238 -0.3903 -0.2282
 8844SOL    HW137994   4.626   1.909   5.041  0.4629 -0.8319 -0.6734
 8844SOL    HW237995   4.503   1.823   5.028 -1.6912  2.5601  0.7912
 8845SOL     OW37996   1.640   1.789   0.059 -0.6536  0.1654  0.3570
 8845SOL    HW137997   1.570   1.840   0.102 -0.9434 -0.3200  0.4623
 8845SOL    HW237998   1.589   1.743  17.690  1.5062 -3.2731  1.0816
 8846SOL     OW37999   2.394   1.468   5.955 -0.2422  0.2992 -0.2362
 8846SOL    HW138000   2.447   1.463   6.035 -0.5914 -2.3493 -0.1795
 8846SOL    HW238001   2.317   1.468   6.013 -0.0417 -0.9077  0.0143
 8847SOL     OW38002   2.285   2.035   6.939 -0.5937 -1.0024 -0.0625
 8847SOL    HW138003   2.315   2.081   6.860 -1.4165  0.7595  0.6548
 8847SOL    HW238004   2.279   2.114   6.993 -0.0241 -0.7910 -0.3102
 8848SOL     OW38005   1.237   0.051   6.876 -0.0847  0.6987  0.3622
 8848SOL    HW138006   1.324   0.014   6.860 -1.8186 -2.3916 -1.8762
 8848SOL    HW238007   1.211   0.027   6.965 -2.5645  1.7366 -0.1059
 8849SOL     OW38008   2.935   0.826   6.831  0.5502  0.6580  0.6014
 8849SOL    HW138009   2.959   0.918   6.817 -0.0315  0.5785 -0.9844
 8849SOL    HW238010   2.921   0.819   6.925  1.3474  1.2119  0.7630
 8850SOL     OW38011   4.177   4.348   6.101  0.8509  0.1432  0.1313
 8850SOL    HW138012   4.184   4.253   6.107 -0.9061  0.1258  1.8429
 8850SOL    HW238013   4.110   4.357   6.033 -0.2448 -2.4170  0.8847
 8851SOL     OW38014   2.066   4.552  10.326  0.3260  0.2033 -0.3626
 8851SOL    HW138015   2.153   4.568  10.363  1.0397 -0.9535 -1.5647
 8851SOL    HW238016   2.006   4.576  10.397 -1.3742 -0.8844 -1.4303
 8852SOL     OW38017   0.427   2.371   9.800  0.0421 -0.1829  0.6265
 8852SOL    HW138018   0.379   2.339   9.876  0.0468 -0.3976  0.5396
 8852SOL    HW238019   0.505   2.321   9.824  0.8997  1.8118  1.9065
 8853SOL     OW38020   4.633   0.185   1.923  0.2160 -0.4986 -0.3779
 8853SOL    HW138021   4.647   0.213   2.014 -0.8287  1.0496 -0.6805
 8853SOL    HW238022   4.538   0.195   1.917  0.0233 -2.4562 -0.2859
 8854SOL     OW38023   3.779   2.423   3.828  0.4325 -0.2704 -0.4024
 8854SOL    HW138024   3.840   2.369   3.779  1.2787 -0.8454  1.2724
 8854SOL    HW238025   3.845   2.461   3.886  0.9761 -1.3565 -0.2978
 8855SOL     OW38026   2.949   4.661   5.458  0.0396 -0.0232 -0.4198
 8855SOL    HW138027   2.924   0.008   5.399 -0.1440 -0.9329 -1.4508
 8855SOL    HW238028   2.947   4.710   5.540  0.4971 -3.1413  1.4818
 8856SOL     OW38029   4.490   1.146   5.344 -0.2500 -0.3445 -0.0042
 8856SOL    HW138030   4.544   1.210   5.297 -2.1914  1.2308 -0.0995
 8856SOL    HW238031   4.419   1.210   5.352 -1.9587 -2.0755 -1.4086
 8857SOL     OW38032   1.450   1.214   2.095 -0.3396  0.4980  0.1631
 8857SOL    HW138033   1.499   1.132   2.104 -0.7801  0.0024 -1.7434
 8857SOL    HW238034   1.436   1.239   2.186 -0.9405  2.0193 -0.3495
 8858SOL     OW38035   2.000   2.506   5.257  0.5535  0.7159  0.0682
 8858SOL    HW138036   2.018   2.599   5.244  0.5293  0.7258  0.1042
 8858SOL    HW238037   1.960   2.505   5.344  0.6890  1.4624  0.1386
 8859SOL     OW38038   1.828   4.121  12.757  0.1830 -0.1914  0.4315
 8859SOL    HW138039   1.876   4.093  12.834  0.4893  0.3083  0.4202
 8859SOL    HW238040   1.883   4.082  12.689 -0.9720 -0.7628 -0.1743
 8860SOL     OW38041   3.024   3.190   4.080  0.0570 -0.2598 -0.1761
 8860SOL    HW138042   3.073   3.205   4.160  0.9051 -3.2775 -0.1340
 8860SOL    HW238043   2.989   3.279   4.070 -0.0537 -0.3195 -0.3278
 8861SOL     OW38044   4.348   2.367   8.149  0.1580  0.0285  0.4646
 8861SOL    HW138045   4.260   2.390   8.118  0.4992  1.3006  0.4474
 8861SOL    HW238046   4.366   2.437   8.211 -0.7480  1.3228 -0.7166
 8862SOL     OW38047   1.057   2.735   7.543 -0.4298 -0.2486  0.0317
 8862SOL    HW138048   1.119   2.729   7.471 -0.4298  1.2213 -0.1033
 8862SOL    HW238049   1.053   2.830   7.560  0.7732 -0.3862  1.0474
 8863SOL     OW38050   0.751   2.942  15.380 -0.2708 -0.0946  0.4521
 8863SOL    HW138051   0.812   2.972  15.447 -1.7040  1.5517  1.0277
 8863SOL    HW238052   0.681   3.006  15.395  0.1279  1.2561 -3.4340
 8864SOL     OW38053   2.838   0.414   6.024  0.4302 -0.4883 -0.2011
 8864SOL    HW138054   2.818   0.349   6.091 -0.8877 -0.2570 -0.3573
 8864SOL    HW238055   2.921   0.381   5.990  0.4753 -1.5820  1.0146
 8865SOL     OW38056   0.919   1.116   7.490 -0.0110  1.0282 -0.3145
 8865SOL    HW138057   0.899   1.031   7.530  0.7172 -0.2850 -2.7068
 8865SOL    HW238058   0.952   1.163   7.566 -0.2142  0.6502  0.0069
 8866SOL     OW38059   0.199   1.518   5.685 -0.1193  0.4689 -0.2963
 8866SOL    HW138060   0.241   1.439   5.650 -3.0751 -1.2658  0.1059
 8866SOL    HW238061   0.187   1.577   5.610  1.4206 -0.7104 -1.4813
 8867SOL     OW38062   1.331   3.715   2.925 -0.1255 -0.0082  0.1856
 8867SOL    HW138063   1.399   3.725   2.992 -0.2963 -3.9376  0.9243
 8867SOL    HW238064   1.340   3.800   2.883  0.6338  0.7868  1.9284
 8868SOL     OW38065   4.650   1.093   2.990  0.7406  0.2252 -0.2583
 8868SOL    HW138066   0.010   1.107   2.946  0.7732 -0.0898 -0.2928
 8868SOL    HW238067   4.638   0.998   2.987  2.5433 -0.0181  0.3486
 8869SOL     OW38068   3.876   2.036   7.590  0.4199 -0.0914  0.1826
 8869SOL    HW138069   3.795   2.028   7.541 -0.9347 -0.2316  2.4813
 8869SOL    HW238070   3.862   2.101   7.660  1.4743  1.0695 -0.6720
 8870SOL     OW38071   3.289   1.989   2.316 -0.4018 -0.0913 -0.1913
 8870SOL    HW138072   3.209   2.028   2.280  0.3374  0.5360 -1.1519
 8870SOL    HW238073   3.361   2.036   2.273 -0.4748 -1.0874 -1.4041
 8871SOL     OW38074   1.870   1.607   8.516 -0.1950  0.0184  0.0541
 8871SOL    HW138075   1.811   1.660   8.463  0.1970 -0.8044 -1.2122
 8871SOL    HW238076   1.817   1.538   8.556  0.1388 -1.1367 -1.4698
 8872SOL     OW38077   0.944   2.096   2.782  0.3941 -0.0433 -0.7503
 8872SOL    HW138078   0.873   2.107   2.720  0.4891 -2.3657 -1.2891
 8872SOL    HW238079   0.892   2.056   2.851 -0.1067  0.3197 -0.9206
 8873SOL     OW38080   0.121   1.881   6.545  0.2664 -0.3057  0.0883
 8873SOL    HW138081   0.051   1.860   6.606 -2.7181  0.6857 -3.0152
 8873SOL    HW238082   0.113   1.812   6.478 -1.4537 -1.5889  1.6281
 8874SOL     OW38083   4.386   0.510  16.713  0.0903  0.1429 -0.3448
 8874SOL    HW138084   4.414   0.419  16.706  2.3549  0.7617  0.5315
 8874SOL    HW238085   4.427   0.524  16.799  0.2267 -0.1705 -0.3617
 8875SOL     OW38086   2.925   1.371   4.582  0.2510  0.2012 -0.1713
 8875SOL    HW138087   2.985   1.314   4.534 -0.2043  0.2115 -0.7456
 8875SOL    HW238088   2.996   1.399   4.639 -0.7383  2.3071  0.0323
 8876SOL     OW38089   3.399   1.948  14.218  0.3606  0.2997 -0.0999
 8876SOL    HW138090   3.413   2.027  14.269  1.2717 -1.0204  1.6600
 8876SOL    HW238091   3.444   1.981  14.140  0.5026 -0.0114 -0.1523
 8877SOL     OW38092   2.237   0.324   7.295 -0.3186  0.2359 -0.0608
 8877SOL    HW138093   2.213   0.408   7.256  0.8878  0.0720 -1.1586
 8877SOL    HW238094   2.268   0.349   7.382 -1.9182  1.6785  0.1058
 8878SOL     OW38095   4.567   3.425   6.775  0.6924  0.1321  0.1604
 8878SOL    HW138096   4.583   3.431   6.870  1.2055 -0.6344  0.1255
 8878SOL    HW238097   4.611   3.504   6.742 -0.2888  0.5739 -0.0730
 8879SOL     OW38098   1.713   2.498   9.822 -0.2627  0.6917 -0.1294
 8879SOL    HW138099   1.717   2.405   9.847 -2.7767  1.4444  3.1046
 8879SOL    HW238100   1.804   2.512   9.847  0.5150 -3.3063 -0.7161
 8880SOL     OW38101   4.084   3.301   7.549 -0.1013  0.6183 -0.3560
 8880SOL    HW138102   4.043   3.215   7.557 -0.7925  1.0764  0.9932
 8880SOL    HW238103   4.008   3.359   7.548 -1.6367 -1.4528 -1.5805
 8881SOL     OW38104   3.290   3.372  12.227 -0.0636 -0.3705  0.3744
 8881SOL    HW138105   3.369   3.421  12.251 -0.3027 -0.5918  1.6160
 8881SOL    HW238106   3.256   3.445  12.175 -0.9076 -1.0485 -0.0085
 8882SOL     OW38107   2.376   0.929   1.373  0.6782 -0.3767  0.0225
 8882SOL    HW138108   2.338   1.007   1.334  2.4052 -0.0574 -1.0387
 8882SOL    HW238109   2.387   0.873   1.296  3.6770 -0.0370  0.2180
 8883SOL     OW38110   0.104   2.948   9.248 -0.0354 -0.0691 -0.2203
 8883SOL    HW138111   0.164   2.966   9.176 -0.0123 -2.5011 -0.8085
 8883SOL    HW238112   0.154   2.979   9.323  1.2168 -1.0315 -0.6606
 8884SOL     OW38113   2.741   1.165   1.993  0.1245  0.2505 -0.0910
 8884SOL    HW138114   2.787   1.240   1.956 -0.8008  0.8101 -0.0903
 8884SOL    HW238115   2.811   1.100   2.002 -0.7301 -0.5903  0.5531
 8885SOL     OW38116   0.438   3.778   1.681 -0.1100  0.0228 -0.1374
 8885SOL    HW138117   0.419   3.686   1.700  1.0209 -0.4702 -1.4311
 8885SOL    HW238118   0.354   3.794   1.638 -0.5394 -1.3358  0.1951
 8886SOL     OW38119   4.245   0.675   9.433  0.1115  0.6056  0.0573
 8886SOL    HW138120   4.201   0.604   9.479  0.1982 -0.1644 -1.0372
 8886SOL    HW238121   4.208   0.660   9.346 -1.9844  1.3168  0.8495
 8887SOL     OW38122   0.184   4.484  15.405  0.4878  0.0027 -0.0974
 8887SOL    HW138123   0.137   4.403  15.425  1.3464 -0.6234 -0.6392
 8887SOL    HW238124   0.270   4.448  15.385  1.4218  1.9510  0.4223
 8888SOL     OW38125   2.360   3.504   4.140 -0.0792 -0.1966 -0.0580
 8888SOL    HW138126   2.372   3.524   4.047  3.5030 -2.0216 -0.0285
 8888SOL    HW238127   2.446   3.468   4.165  0.5126 -0.3660 -2.3260
 8889SOL     OW38128   4.322   2.146   9.692  0.0520  0.2084  0.3585
 8889SOL    HW138129   4.340   2.168   9.783  2.0357  1.3963 -0.3230
 8889SOL    HW238130   4.248   2.085   9.695  0.6740 -0.5435  0.3220
 8890SOL     OW38131   1.020   0.834   1.260  0.0770 -0.8441  0.4146
 8890SOL    HW138132   0.941   0.836   1.206 -1.3148  2.1501  2.5284
 8890SOL    HW238133   1.051   0.925   1.264  0.5876 -0.9898 -0.2844
 8891SOL     OW38134   1.538   0.692   6.686 -0.5319 -0.4273 -0.6047
 8891SOL    HW138135   1.464   0.724   6.739  0.7915  2.9588 -0.7967
 8891SOL    HW238136   1.557   0.769   6.633 -2.8972 -0.4903 -1.5441
 8892SOL     OW38137   0.059   2.680   8.582 -0.1628  0.3908 -0.0699
 8892SOL    HW138138   4.689   2.684   8.602  0.1559  1.6031  1.1626
 8892SOL    HW238139   0.075   2.766   8.544 -0.8673  0.3465 -0.4745
 8893SOL     OW38140   4.015   3.275   5.165 -0.3152  0.1990  0.2448
 8893SOL    HW138141   4.002   3.277   5.260  0.9068 -1.7804  0.4542
 8893SOL    HW238142   4.102   3.239   5.149 -0.1961 -0.0918  1.5680
 8894SOL     OW38143   1.486   1.095   2.813  0.2167  0.6068  0.9704
 8894SOL    HW138144   1.498   1.145   2.732 -1.4211  1.4785  1.2708
 8894SOL    HW238145   1.497   1.007   2.778  1.7836  0.2425  2.3704
 8895SOL     OW38146   4.670   1.900   8.457  0.3231  0.2868 -0.2099
 8895SOL    HW138147   4.708   1.893   8.544 -0.2421 -0.2197 -0.0042
 8895SOL    HW238148   4.579   1.923   8.475  0.1805 -1.0765  0.7625
 8896SOL     OW38149   0.775   1.399   8.119  0.4398  0.4477 -0.4140
 8896SOL    HW138150   0.845   1.336   8.106 -0.4244 -0.6966  0.4605
 8896SOL    HW238151   0.813   1.470   8.171 -0.1903  0.3457  0.1859
 8897SOL     OW38152   1.044   4.046   5.457 -0.0157  0.1465  0.1301
 8897SOL    HW138153   1.001   4.047   5.371  0.6249  1.6065 -0.1703
 8897SOL    HW238154   1.113   4.112   5.450  0.6005 -0.5616 -0.4709
 8898SOL     OW38155   3.781   0.416   6.813  0.0564 -0.1184 -0.2162
 8898SOL    HW138156   3.762   0.364   6.735 -1.6028  0.3965 -0.1543
 8898SOL    HW238157   3.690   0.414   6.845 -0.4389  1.7424 -1.5250
 8899SOL     OW38158   4.568   2.830  17.383 -0.1801  0.2556 -0.3857
 8899SOL    HW138159   4.592   2.921  17.397  0.3970  0.2057 -1.0391
 8899SOL    HW238160   4.617   2.809  17.302  3.0375 -0.6546  1.7873
 8900SOL     OW38161   0.433   1.216   8.422 -0.0554 -0.9944 -0.8290
 8900SOL    HW138162   0.504   1.189   8.364 -0.0408 -2.2929 -0.2065
 8900SOL    HW238163   0.443   1.311   8.420  0.1369 -0.9772  1.9441
 8901SOL     OW38164   1.477   4.605  14.052  0.0515 -0.3338  0.3534
 8901SOL    HW138165   1.415   4.613  14.125  1.3703 -1.6785  1.6451
 8901SOL    HW238166   1.557   4.577  14.097  0.3931  0.5836  0.3084
 8902SOL     OW38167   4.442   3.271  16.131 -0.1734 -0.4594 -1.0045
 8902SOL    HW138168   4.506   3.332  16.094 -0.5955  0.6854  0.1767
 8902SOL    HW238169   4.487   3.220  16.198  0.4962  0.0169 -1.0875
 8903SOL     OW38170   3.103   0.651   1.833  0.2242  0.2735  0.0047
 8903SOL    HW138171   3.027   0.703   1.809 -0.4169 -0.4522  0.4523
 8903SOL    HW238172   3.064   0.599   1.904  1.1452  0.0359  0.3381
 8904SOL     OW38173   0.331   0.552  17.397 -1.1009  0.3782 -0.3095
 8904SOL    HW138174   0.332   0.624  17.334  2.4203  1.5254  1.0634
 8904SOL    HW238175   0.241   0.562  17.428 -0.4513  2.8859  0.7851
 8905SOL     OW38176   2.901   2.348   7.820 -0.5476  0.0683 -0.4073
 8905SOL    HW138177   2.850   2.428   7.812 -1.0428 -0.1717  0.2700
 8905SOL    HW238178   2.890   2.301   7.737  1.4145 -0.3222 -0.4311
 8906SOL     OW38179   4.130   0.996   9.352 -0.3719 -0.3302  0.5362
 8906SOL    HW138180   4.115   1.008   9.259 -3.0412  2.0078  1.2638
 8906SOL    HW238181   4.074   1.067   9.383  0.2688  0.7801 -0.8811
 8907SOL     OW38182   0.211   2.074   8.152 -0.2581 -0.1627  0.8150
 8907SOL    HW138183   0.297   2.035   8.136 -1.6265 -2.8104 -0.0388
 8907SOL    HW238184   0.223   2.112   8.239 -2.6462  1.7996  0.2753
 8908SOL     OW38185   2.973   2.210   5.975  0.9727 -0.0251  0.6061
 8908SOL    HW138186   3.055   2.167   5.998  1.8392  2.0781  1.4167
 8908SOL    HW238187   2.973   2.196   5.880  1.2654  2.0913  0.3049
 8909SOL     OW38188   2.254   0.830   1.913  0.1895 -0.1803  0.0689
 8909SOL    HW138189   2.280   0.829   2.005 -0.4257  0.2401  0.2487
 8909SOL    HW238190   2.328   0.870   1.867 -0.4358 -1.7054 -2.2941
 8910SOL     OW38191   1.396   4.220   8.292  0.2200 -0.2774 -0.2650
 8910SOL    HW138192   1.392   4.142   8.347  1.8041 -0.8419 -0.9354
 8910SOL    HW238193   1.356   4.285   8.349 -2.8480 -1.8634 -0.6439
 8911SOL     OW38194   1.997   2.335   8.041  0.0034 -0.7709 -0.3280
 8911SOL    HW138195   2.004   2.419   8.086  0.8807 -1.0768  0.1039
 8911SOL    HW238196   1.905   2.343   8.016  0.0303  0.7234  0.0697
 8912SOL     OW38197   3.413   4.109  10.349 -0.8071 -0.8993 -0.4017
 8912SOL    HW138198   3.441   4.187  10.397 -0.5789 -1.4184  0.3131
 8912SOL    HW238199   3.448   4.124  10.261 -0.8630 -0.9320 -0.4295
 8913SOL     OW38200   1.360   0.524  16.079 -0.3305  0.0354 -0.0410
 8913SOL    HW138201   1.277   0.537  16.031 -1.9970  3.1386  3.7215
 8913SOL    HW238202   1.415   0.490  16.008 -0.3532  1.5971 -0.7992
 8914SOL     OW38203   4.677   0.976   0.784 -0.2335 -0.0128 -0.6165
 8914SOL    HW138204   4.654   1.067   0.802  0.1685 -0.2525  1.0560
 8914SOL    HW238205   0.048   0.984   0.784 -0.0270 -2.4532 -1.6838
 8915SOL     OW38206   4.554   2.923   3.543 -0.2352 -0.4933  0.1833
 8915SOL    HW138207   4.463   2.941   3.520 -0.3413  0.7037  1.4832
 8915SOL    HW238208   4.542   2.852   3.607 -1.3939 -0.4888 -0.0320
 8916SOL     OW38209   2.444   2.342   7.281  0.5954  0.4399 -0.0736
 8916SOL    HW138210   2.426   2.298   7.364  0.5986 -1.4374 -1.0687
 8916SOL    HW238211   2.357   2.374   7.257  0.1421  0.5715  1.7635
 8917SOL     OW38212   4.200   0.618  15.660 -0.7882  0.2246  0.2482
 8917SOL    HW138213   4.223   0.525  15.664  3.4549  1.2515 -0.4205
 8917SOL    HW238214   4.112   0.608  15.695 -0.9663  3.2147  0.6775
 8918SOL     OW38215   4.066   2.113   1.244  0.1079 -0.0334  0.1670
 8918SOL    HW138216   4.070   2.208   1.247 -0.6720  0.0429 -1.0188
 8918SOL    HW238217   4.032   2.090   1.330 -1.8019  0.7106 -0.3824
 8919SOL     OW38218   2.039   1.039  13.373  0.2778  0.6307 -0.6986
 8919SOL    HW138219   2.036   1.097  13.297 -0.7087 -0.8052 -1.7804
 8919SOL    HW238220   2.038   0.959  13.319 -0.1845  0.3437 -0.2655
 8920SOL     OW38221   4.241   3.650  11.015  0.2449 -0.1494  0.0745
 8920SOL    HW138222   4.157   3.668  11.057 -1.5315  0.3029 -3.5897
 8920SOL    HW238223   4.225   3.704  10.937 -0.0310  0.5804  0.6374
 8921SOL     OW38224   0.257   0.596  14.916  0.1426 -0.1676  0.8872
 8921SOL    HW138225   0.230   0.507  14.894  2.4113 -0.2356 -1.6334
 8921SOL    HW238226   0.321   0.607  14.846 -0.7051  2.2451  0.4977
 8922SOL     OW38227   4.538   2.594   5.087 -0.2410 -0.4632  0.2586
 8922SOL    HW138228   4.595   2.668   5.105 -1.7331  0.2815  2.0171
 8922SOL    HW238229   4.603   2.525   5.071 -1.2010 -1.1806 -0.5396
 8923SOL     OW38230   3.517   3.417   3.578 -0.1060 -0.4321  0.0560
 8923SOL    HW138231   3.422   3.410   3.566 -0.1257  0.2103 -0.1881
 8923SOL    HW238232   3.525   3.389   3.669  0.1143  1.6229  0.6520
 8924SOL     OW38233   3.464   3.772   4.767 -0.1322  0.0690 -0.3214
 8924SOL    HW138234   3.495   3.701   4.823 -0.2159  1.1026  1.0386
 8924SOL    HW238235   3.408   3.809   4.835  1.1485  2.3357 -0.4824
 8925SOL     OW38236   0.102   1.419   4.180 -0.2082  0.3746 -0.1761
 8925SOL    HW138237   0.014   1.437   4.149 -0.7832 -0.0514  1.2362
 8925SOL    HW238238   0.145   1.400   4.097  0.2066 -0.8063  0.2981
 8926SOL     OW38239   3.044   0.928   6.192  0.0842 -0.3890  0.0787
 8926SOL    HW138240   2.971   0.871   6.167  0.9869 -0.3328 -2.6684
 8926SOL    HW238241   3.118   0.903   6.137 -1.1803 -0.5808 -1.5053
 8927SOL     OW38242   0.726   3.686   5.900 -0.2707  0.4741 -0.0231
 8927SOL    HW138243   0.789   3.633   5.851 -2.4959 -3.4804  1.3982
 8927SOL    HW238244   0.786   3.731   5.959  0.9496 -1.2392  0.0365
 8928SOL     OW38245   2.934   3.678  15.687 -0.0495 -0.0713  0.5881
 8928SOL    HW138246   3.000   3.656  15.753  1.1536  2.0874  0.1041
 8928SOL    HW238247   2.869   3.732  15.732 -0.4628 -1.0885  1.2318
 8929SOL     OW38248   3.740   1.023   3.108 -0.6285 -0.1551  0.0857
 8929SOL    HW138249   3.745   1.118   3.115 -1.6786 -0.2356  2.0103
 8929SOL    HW238250   3.646   1.019   3.089 -0.9489 -3.0632  2.2527
 8930SOL     OW38251   2.298   1.000   8.821  0.3494 -0.4132  0.2196
 8930SOL    HW138252   2.294   0.973   8.729  2.4491  0.6434 -0.1757
 8930SOL    HW238253   2.250   1.083   8.818  0.4659 -0.3582 -0.0799
 8931SOL     OW38254   3.522   2.960   3.521 -0.5040  0.3529 -0.1206
 8931SOL    HW138255   3.595   2.950   3.459  0.6442  1.3147  1.0974
 8931SOL    HW238256   3.561   3.012   3.591 -2.4204  0.7055  0.6591
 8932SOL     OW38257   2.392   3.933   1.844 -0.0840 -0.0839 -0.1486
 8932SOL    HW138258   2.381   3.987   1.922 -2.9843 -0.9815  0.0849
 8932SOL    HW238259   2.301   3.913   1.822 -0.5715  1.7205  0.2726
 8933SOL     OW38260   2.868   2.516   1.654 -0.0467 -0.0714 -0.1353
 8933SOL    HW138261   2.823   2.600   1.656 -1.6418 -0.9127 -0.4488
 8933SOL    HW238262   2.924   2.524   1.731 -0.5688 -2.1444  0.4871
 8934SOL     OW38263   1.390   2.695   8.449 -0.1846  0.2221  1.2569
 8934SOL    HW138264   1.304   2.732   8.465 -1.2810 -1.1536 -1.5028
 8934SOL    HW238265   1.394   2.631   8.520  1.9426 -0.8826  0.1499
 8935SOL     OW38266   3.433   4.518   5.353 -0.6374  0.2283  0.3146
 8935SOL    HW138267   3.402   4.441   5.305 -1.0193  1.2348 -1.0302
 8935SOL    HW238268   3.401   4.498   5.441 -0.4468  0.5515  0.4560
 8936SOL     OW38269   4.244   2.937   5.296 -0.3087  0.0419  0.2261
 8936SOL    HW138270   4.249   2.884   5.216 -1.3614 -1.1681  0.9637
 8936SOL    HW238271   4.272   3.023   5.264  0.0214 -0.6606 -1.3568
 8937SOL     OW38272   2.211   2.484   6.582  0.5342  0.5232  0.2736
 8937SOL    HW138273   2.275   2.552   6.564 -0.0360  0.7752 -0.7874
 8937SOL    HW238274   2.188   2.464   6.491 -0.3743 -1.2208  0.8821
 8938SOL     OW38275   2.586   1.627   7.365  0.1572  1.0121  0.0033
 8938SOL    HW138276   2.658   1.589   7.315  0.1193  0.4376  0.3891
 8938SOL    HW238277   2.636   1.672   7.434  1.5590  0.5806 -0.7262
 8939SOL     OW38278   2.778   4.222   3.717  0.2007 -0.0356 -0.1230
 8939SOL    HW138279   2.856   4.183   3.757 -1.1426  1.7382  4.2626
 8939SOL    HW238280   2.714   4.153   3.736  1.0986 -0.6130  0.8434
 8940SOL     OW38281   2.940   1.415   8.622  0.7543  0.1324  0.1048
 8940SOL    HW138282   2.897   1.498   8.601  0.5139  0.3132  1.2787
 8940SOL    HW238283   2.919   1.425   8.715  1.8216  0.4863  0.3072
 8941SOL     OW38284   1.807   4.110   6.423  0.2234  0.0993 -0.2465
 8941SOL    HW138285   1.852   4.119   6.507 -2.5963 -1.0343  1.4027
 8941SOL    HW238286   1.829   4.017   6.417  0.2278  0.0468  0.6203
 8942SOL     OW38287   3.427   0.996   4.609 -0.5851 -0.4457 -0.3195
 8942SOL    HW138288   3.375   0.932   4.656 -1.0125 -0.2653 -0.5511
 8942SOL    HW238289   3.508   0.966   4.652  1.0867  0.4512 -2.8151
 8943SOL     OW38290   2.080   3.238   8.737  0.2430 -0.1364  0.0401
 8943SOL    HW138291   2.149   3.238   8.804  1.3766  0.2953 -1.1253
 8943SOL    HW238292   2.006   3.265   8.790  0.8895 -0.3347  1.0431
 8944SOL     OW38293   4.663   0.930  13.376  0.1315  0.3801  0.5278
 8944SOL    HW138294   4.633   0.907  13.288 -0.1922  0.7101  0.5524
 8944SOL    HW238295   4.676   1.024  13.366 -0.3339  0.5799  1.7892
 8945SOL     OW38296   1.900   4.335  14.222  0.1542  0.3116 -0.9359
 8945SOL    HW138297   1.809   4.365  14.231 -0.0037 -0.6444  0.8346
 8945SOL    HW238298   1.932   4.408  14.170 -1.4484  1.1806 -0.7102
 8946SOL     OW38299   3.055   3.321  13.327  0.2249 -0.4058 -0.2090
 8946SOL    HW138300   3.010   3.337  13.410  1.8962 -0.3919  0.7054
 8946SOL    HW238301   3.146   3.294  13.342  0.7699  0.8129 -1.2932
 8947SOL     OW38302   0.864   1.871   7.854 -0.4138 -0.3164  0.2611
 8947SOL    HW138303   0.812   1.893   7.776  0.6673 -1.5079 -0.7938
 8947SOL    HW238304   0.886   1.781   7.831 -0.0003  0.7622 -3.6986
 8948SOL     OW38305   2.928   1.327   1.255  0.2315  0.6539  0.5024
 8948SOL    HW138306   2.964   1.400   1.306  1.5476  0.9420 -0.7998
 8948SOL    HW238307   2.955   1.257   1.313 -1.8547  0.0687  0.7467
 8949SOL     OW38308   1.864   4.038  17.515 -0.1668  0.2108  0.2436
 8949SOL    HW138309   1.933   4.010  17.455 -1.3052 -1.6710 -0.1840
 8949SOL    HW238310   1.908   4.028  17.599 -1.3340 -1.0508  0.7082
 8950SOL     OW38311   0.407   2.059   5.449 -0.5737  0.1312 -0.0964
 8950SOL    HW138312   0.432   1.966   5.452  2.2377  0.9564  1.7883
 8950SOL    HW238313   0.474   2.108   5.402 -1.4077  1.4230  0.0821
 8951SOL     OW38314   2.566   0.998   5.893  0.6751 -0.2422  0.2115
 8951SOL    HW138315   2.633   1.062   5.868 -0.3128  0.4577 -0.6681
 8951SOL    HW238316   2.581   0.994   5.987  0.7033 -1.0166  0.1712
 8952SOL     OW38317   4.597   4.543  11.227  0.6452  0.2362  0.3925
 8952SOL    HW138318   4.612   4.482  11.300 -0.2383 -0.5786 -0.1013
 8952SOL    HW238319   4.686   4.577  11.227  0.4601  0.7243 -1.4446
 8953SOL     OW38320   2.569   3.460   4.416  0.2057 -1.0648  0.9038
 8953SOL    HW138321   2.584   3.397   4.345 -0.8383 -0.3751  0.0587
 8953SOL    HW238322   2.632   3.527   4.391 -0.8343 -0.1060  0.8577
 8954SOL     OW38323   1.994   4.434   8.766  0.2467 -0.0145 -0.0399
 8954SOL    HW138324   2.073   4.446   8.819  0.3638  0.9598 -0.4394
 8954SOL    HW238325   2.038   4.417   8.683 -0.4856  0.8890 -0.6115
 8955SOL     OW38326   1.718   2.701   3.085  0.0984  0.3848  0.2456
 8955SOL    HW138327   1.681   2.691   2.998  0.6225  0.1541  0.0462
 8955SOL    HW238328   1.801   2.658   3.063  0.5968  1.2227  0.4723
 8956SOL     OW38329   4.038   3.276  17.427 -0.5555  0.2756  0.0915
 8956SOL    HW138330   3.951   3.278  17.389 -0.8686 -0.3211  0.7773
 8956SOL    HW238331   4.089   3.280  17.346  0.3878 -1.8181  0.5633
 8957SOL     OW38332   0.340   2.263   9.108 -0.1300 -0.2006  0.0835
 8957SOL    HW138333   0.421   2.309   9.088 -0.6925  0.6668 -0.1771
 8957SOL    HW238334   0.308   2.244   9.020 -2.7375  0.3451  0.9001
 8958SOL     OW38335   0.293   0.055   2.529 -0.3405  0.6041  0.7266
 8958SOL    HW138336   0.320   4.709   2.470 -1.2003  1.2959 -0.4822
 8958SOL    HW238337   0.296   0.008   2.613  1.1056 -1.0757 -0.2538
 8959SOL     OW38338   1.154   3.025  14.479  0.0015  0.0122  0.0300
 8959SOL    HW138339   1.139   2.943  14.433  1.5254 -0.5915  0.5990
 8959SOL    HW238340   1.228   3.065  14.434  1.1368 -0.3511  1.5491
 8960SOL     OW38341   1.621   1.827   6.454 -0.5693 -0.0254  0.5578
 8960SOL    HW138342   1.695   1.766   6.463 -1.4901 -1.3469 -0.7707
 8960SOL    HW238343   1.582   1.810   6.540 -0.2052 -0.0779  0.7136
 8961SOL     OW38344   1.792   4.079   5.077  0.1882  0.5462  0.0136
 8961SOL    HW138345   1.858   4.089   5.008 -0.7104  1.2898 -0.7355
 8961SOL    HW238346   1.815   3.997   5.120  0.0324  0.5897  0.1806
 8962SOL     OW38347   0.011   2.896   8.453 -0.0774  0.0171  0.0005
 8962SOL    HW138348   0.020   2.976   8.506  0.9082 -0.7259  0.9491
 8962SOL    HW238349   4.640   2.897   8.444 -0.1521 -0.8778  0.7422
 8963SOL     OW38350   3.860   1.533  16.090 -0.1672  0.2772 -0.4935
 8963SOL    HW138351   3.891   1.616  16.054  1.8629 -0.4147 -0.3131
 8963SOL    HW238352   3.869   1.474  16.015 -0.2735 -1.4626  0.8667
 8964SOL     OW38353   3.577   3.648   9.364  0.2781  0.6058 -0.1265
 8964SOL    HW138354   3.507   3.707   9.338 -0.9692 -1.1644 -0.7649
 8964SOL    HW238355   3.647   3.705   9.398  1.0427 -0.6806  0.4511
 8965SOL     OW38356   3.512   0.961  10.210 -0.4915 -0.1461  0.0433
 8965SOL    HW138357   3.523   1.008  10.292  0.7330  0.4695 -0.4666
 8965SOL    HW238358   3.574   0.889  10.212  0.3760  0.5485 -1.8739
 8966SOL     OW38359   1.670   0.320   7.803 -0.2816  0.2411 -0.6095
 8966SOL    HW138360   1.596   0.316   7.742 -0.1597  0.6624 -0.7825
 8966SOL    HW238361   1.742   0.325   7.740 -0.4802  0.3307 -0.8299
 8967SOL     OW38362   2.242   1.275   8.796 -0.5274  0.5598 -0.6505
 8967SOL    HW138363   2.243   1.305   8.886 -3.7205 -1.5985  0.1106
 8967SOL    HW238364   2.323   1.302   8.753  0.5545 -0.0337  1.0217
 8968SOL     OW38365   4.278   0.642   8.200 -0.7442  0.7221 -0.3842
 8968SOL    HW138366   4.191   0.601   8.200 -0.2778 -0.2804 -0.5640
 8968SOL    HW238367   4.333   0.576   8.156  0.6852  2.3572 -1.0599
 8969SOL     OW38368   3.593   1.903  10.236 -0.9203 -0.3585  0.2208
 8969SOL    HW138369   3.576   1.976  10.176 -1.4780 -1.5943 -1.1421
 8969SOL    HW238370   3.553   1.937  10.317  0.0377  2.4832 -0.4978
 8970SOL     OW38371   3.146   1.286   8.457 -0.2771  0.3139 -0.0067
 8970SOL    HW138372   3.152   1.202   8.501  1.3505 -0.2147 -1.2278
 8970SOL    HW238373   3.094   1.341   8.516  0.9325  0.0847  1.2948
 8971SOL     OW38374   2.842   2.656  17.549  0.3849  0.1152  0.1091
 8971SOL    HW138375   2.784   2.590  17.511 -0.6046  0.7828  0.4784
 8971SOL    HW238376   2.771   2.719  17.558  0.4415 -0.1115  2.0283
 8972SOL     OW38377   0.008   4.409   1.133 -0.4821  0.6891  0.3101
 8972SOL    HW138378   0.007   4.499   1.100  1.8540  1.6019  2.7006
 8972SOL    HW238379   0.091   4.420   1.179  0.7736 -0.2538 -1.7040
 8973SOL     OW38380   3.491   2.386  17.247  0.2400  0.4826  0.3320
 8973SOL    HW138381   3.450   2.448  17.308 -1.7563 -0.2798 -0.2415
 8973SOL    HW238382   3.512   2.319  17.313 -2.7972 -0.3315  0.4607
 8974SOL     OW38383   3.093   0.229   9.679 -0.2988  0.0630 -0.2630
 8974SOL    HW138384   3.075   0.243   9.772  0.7497  2.8514 -0.5019
 8974SOL    HW238385   3.021   0.179   9.639 -1.2599 -0.9893  2.7813
 8975SOL     OW38386   4.195   4.271   6.436 -0.1721  0.4228 -0.1874
 8975SOL    HW138387   4.206   4.198   6.496 -0.6786  0.5379  0.0490
 8975SOL    HW238388   4.190   4.227   6.351  1.7882  0.6543 -0.4192
 8976SOL     OW38389   2.120   1.562   2.331  0.2252 -0.5332 -0.2900
 8976SOL    HW138390   2.127   1.547   2.237  0.3700 -0.9039 -0.2197
 8976SOL    HW238391   2.074   1.646   2.337 -1.2194 -1.2880 -0.5901
 8977SOL     OW38392   1.066   3.875   3.435 -0.4662 -0.2818 -0.3972
 8977SOL    HW138393   1.111   3.858   3.352  0.4818 -1.9302  0.4672
 8977SOL    HW238394   1.134   3.902   3.495 -0.1828 -2.4349  0.2540
 8978SOL     OW38395   4.225   1.591   2.576  0.2386  0.1773  0.2603
 8978SOL    HW138396   4.243   1.532   2.503 -0.5674  0.4224 -0.1279
 8978SOL    HW238397   4.286   1.561   2.644 -2.1461 -1.7613  1.5291
 8979SOL     OW38398   0.686   0.343   7.338  0.9492 -0.2348  0.3274
 8979SOL    HW138399   0.614   0.402   7.360  0.7509  0.2879 -1.7393
 8979SOL    HW238400   0.758   0.402   7.316  0.3345  0.3443 -0.1372
 8980SOL     OW38401   1.889   2.820  11.705  0.3389  0.4168  0.5052
 8980SOL    HW138402   1.895   2.733  11.743  2.9534 -0.4129 -1.8179
 8980SOL    HW238403   1.826   2.865  11.761  1.6643  1.3164  1.2781
 8981SOL     OW38404   1.099   2.081   7.896  0.1248 -0.7059 -0.5491
 8981SOL    HW138405   1.060   2.005   7.939 -1.3332 -1.9443 -4.1383
 8981SOL    HW238406   1.081   2.060   7.805  3.7802 -1.4170 -1.1192
 8982SOL     OW38407   2.656   0.710   5.742  0.0416  0.4234 -0.3635
 8982SOL    HW138408   2.599   0.762   5.798  0.4188  1.6894 -1.1716
 8982SOL    HW238409   2.622   0.743   5.659  1.1934  0.7339 -0.7087
 8983SOL     OW38410   1.697   1.709   9.253 -0.5046  0.2193  0.2854
 8983SOL    HW138411   1.688   1.615   9.265 -0.7460  0.4683  2.0794
 8983SOL    HW238412   1.682   1.711   9.158  0.0137  0.5743  0.2106
 8984SOL     OW38413   4.659   3.267   6.009 -0.0812  0.7356  0.5131
 8984SOL    HW138414   4.669   3.186   5.960 -1.0541  0.5460  0.6298
 8984SOL    HW238415   4.570   3.258   6.042 -0.7309 -0.3829 -1.5455
 8985SOL     OW38416   0.542   3.684   7.436  0.5052 -0.5584 -0.5323
 8985SOL    HW138417   0.483   3.731   7.377 -1.0686 -1.4752  0.3018
 8985SOL    HW238418   0.486   3.614   7.472 -1.1173  1.1874  0.3382
 8986SOL     OW38419   2.521   0.619   0.322  0.1001 -0.3964  0.4859
 8986SOL    HW138420   2.483   0.623   0.410  2.2869 -1.7867  1.5027
 8986SOL    HW238421   2.534   0.524   0.330  2.9990 -0.0044  0.5396
 8987SOL     OW38422   2.779   3.813   5.821 -0.2118  0.0712  0.1805
 8987SOL    HW138423   2.697   3.775   5.852 -0.1752  0.8432  1.2129
 8987SOL    HW238424   2.836   3.816   5.898  0.7418  0.5370 -0.5477
 8988SOL     OW38425   0.594   0.339   2.473 -0.1540 -0.2205 -0.2559
 8988SOL    HW138426   0.560   0.296   2.394 -1.9243  1.9148 -0.6668
 8988SOL    HW238427   0.600   0.260   2.526 -1.6944 -0.6651 -0.7223
 8989SOL     OW38428   4.056   4.609   9.030  0.3431  0.0988  0.4467
 8989SOL    HW138429   4.054   4.556   8.949 -1.4025  1.1314 -0.1874
 8989SOL    HW238430   4.130   4.569   9.076  1.2260  1.6159  0.3515
 8990SOL     OW38431   1.221   1.602  13.754  0.0192  0.0063  0.7647
 8990SOL    HW138432   1.197   1.633  13.841 -1.6652 -0.6706  0.5485
 8990SOL    HW238433   1.167   1.523  13.757  0.5648 -0.4408 -1.0410
 8991SOL     OW38434   2.001   0.733  15.202 -0.3813 -0.7458  0.6790
 8991SOL    HW138435   2.085   0.705  15.239  0.3522  1.2621  0.5560
 8991SOL    HW238436   1.937   0.667  15.227  0.5954 -0.6462  3.5341
 8992SOL     OW38437   0.902   2.344  13.386  0.5112  0.0287 -0.0035
 8992SOL    HW138438   0.849   2.397  13.446 -0.5889  0.1014 -1.0370
 8992SOL    HW238439   0.912   2.413  13.320 -1.6090 -1.1687 -1.5799
 8993SOL     OW38440   2.123   2.748   5.206 -0.4273 -0.7464 -0.7782
 8993SOL    HW138441   2.137   2.733   5.112  3.3035 -0.7833 -0.2169
 8993SOL    HW238442   2.129   2.844   5.209  1.8734 -0.9154 -0.1740
 8994SOL     OW38443   1.248   1.702  12.358 -0.4452 -0.3699  0.1428
 8994SOL    HW138444   1.293   1.619  12.340  2.1140  0.8342  0.9439
 8994SOL    HW238445   1.264   1.756  12.280  0.5050 -1.0913 -0.1617
 8995SOL     OW38446   4.338   2.257   3.948 -0.2414 -0.4858 -0.0960
 8995SOL    HW138447   4.292   2.240   3.866 -0.2992 -1.7546  0.2040
 8995SOL    HW238448   4.310   2.348   3.953 -0.9289 -0.7163  0.1617
 8996SOL     OW38449   3.581   1.819  15.869 -0.3580  0.0579  0.4541
 8996SOL    HW138450   3.613   1.829  15.958 -2.7536  0.5818  1.2558
 8996SOL    HW238451   3.486   1.817  15.885 -0.1394 -0.1176  1.7081
 8997SOL     OW38452   2.993   0.756   2.337  0.6128  0.7545 -0.2680
 8997SOL    HW138453   3.030   0.705   2.265  3.0175  2.3536 -0.1719
 8997SOL    HW238454   2.932   0.813   2.290 -0.9761 -0.8547 -0.1394
 8998SOL     OW38455   0.076   4.427   8.807  0.0614 -0.0038  0.2346
 8998SOL    HW138456   0.113   4.457   8.890 -3.2571 -1.1922  2.1141
 8998SOL    HW238457   0.110   4.504   8.761 -1.1412  0.2377 -0.2458
 8999SOL     OW38458   4.063   0.868   3.191 -0.0121 -0.9279 -0.6841
 8999SOL    HW138459   4.157   0.858   3.173 -0.2233 -1.6768 -1.3807
 8999SOL    HW238460   4.033   0.889   3.103 -0.9313  1.0786  0.1151
 9000SOL     OW38461   0.175   2.594   1.679  0.2643 -0.7616  0.5607
 9000SOL    HW138462   0.238   2.652   1.637 -1.6863  0.0230 -1.3026
 9000SOL    HW238463   0.097   2.649   1.669 -0.1465 -1.5078 -0.4821
 9001SOL     OW38464   1.349   0.743   6.870 -0.0653  0.1018  0.0043
 9001SOL    HW138465   1.416   0.794   6.915 -1.1308  1.3163  0.2292
 9001SOL    HW238466   1.273   0.801   6.863 -0.9072 -0.8413  1.3681
 9002SOL     OW38467   2.763   0.272  13.117 -0.5068  0.4293  0.1842
 9002SOL    HW138468   2.736   0.268  13.209 -0.6787  0.6995  0.1435
 9002SOL    HW238469   2.677   0.266  13.075 -0.6016  1.6618  0.2002
 9003SOL     OW38470   0.925   2.709   4.892 -0.2601  0.0417  0.4421
 9003SOL    HW138471   0.953   2.799   4.913  3.2743 -0.8741 -0.3251
 9003SOL    HW238472   1.006   2.661   4.907  0.4853  1.8351  2.1890
 9004SOL     OW38473   2.490   3.431   0.743 -0.5664 -1.0145 -0.1972
 9004SOL    HW138474   2.510   3.343   0.712  0.1508 -1.9031  2.8211
 9004SOL    HW238475   2.567   3.449   0.797 -1.9668  0.1899  1.4214
 9005SOL     OW38476   1.160   2.162  10.785 -0.1847  0.0194  0.1780
 9005SOL    HW138477   1.162   2.112  10.867 -3.9586 -1.0643 -0.3960
 9005SOL    HW238478   1.067   2.167  10.763 -0.8787 -0.4864  3.0204
 9006SOL     OW38479   2.617   0.110   0.769  0.1149  0.0758 -0.6011
 9006SOL    HW138480   2.623   0.139   0.860  0.1173 -0.3477 -0.4660
 9006SOL    HW238481   2.529   0.074   0.764 -0.4419  1.1946  1.1423
 9007SOL     OW38482   1.555   3.187   2.884  0.0288  0.4251 -0.0410
 9007SOL    HW138483   1.606   3.108   2.903  0.9184  1.0164  0.0082
 9007SOL    HW238484   1.487   3.139   2.836 -0.5920 -0.1652  1.4175
 9008SOL     OW38485   1.708   3.590  14.720 -0.2430 -0.0947 -0.8027
 9008SOL    HW138486   1.633   3.604  14.777  0.7380  1.0502  0.2067
 9008SOL    HW238487   1.686   3.647  14.646 -0.6465 -1.9379 -2.1078
 9009SOL     OW38488   1.723   2.415   0.801 -0.5025 -0.1859  0.1491
 9009SOL    HW138489   1.659   2.350   0.830 -2.1891  1.8484  0.9806
 9009SOL    HW238490   1.793   2.354   0.776  0.1115 -0.4548  2.4206
 9010SOL     OW38491   3.487   0.973   5.243  0.1092 -0.8341  0.1189
 9010SOL    HW138492   3.572   0.965   5.287 -0.2495  1.0351  1.1567
 9010SOL    HW238493   3.484   1.068   5.227 -1.6700 -1.1361 -1.3136
 9011SOL     OW38494   4.613   2.789   0.191 -0.4350  0.4216  0.1870
 9011SOL    HW138495   4.660   2.763   0.112 -0.7057 -1.1846  0.5524
 9011SOL    HW238496   4.556   2.711   0.194 -0.5112  0.3974 -1.7099
 9012SOL     OW38497   0.233   1.178   7.718  0.4279  0.1186  0.4353
 9012SOL    HW138498   0.290   1.145   7.788  0.1674  1.0602  1.0956
 9012SOL    HW238499   0.197   1.250   7.770 -0.0423 -1.1485  1.8691
 9013SOL     OW38500   2.579   0.661   2.911  0.1463  0.2172 -0.2964
 9013SOL    HW138501   2.548   0.571   2.899  1.1675  0.1236 -2.2031
 9013SOL    HW238502   2.661   0.639   2.868 -0.2786  0.0532 -1.0285
 9014SOL     OW38503   3.254   2.639   1.355 -0.0561 -0.0146 -0.5941
 9014SOL    HW138504   3.172   2.642   1.404  0.5940 -0.7570  0.5313
 9014SOL    HW238505   3.266   2.732   1.334 -1.2090  0.3099  0.1863
 9015SOL     OW38506   2.750   4.358   2.650 -0.5643  0.3274  0.0778
 9015SOL    HW138507   2.713   4.431   2.701  0.1144  0.4262  0.4356
 9015SOL    HW238508   2.839   4.369   2.682 -0.1962  0.2325 -0.9432
 9016SOL     OW38509   2.502   3.297  10.896 -0.7473  0.4744 -0.4245
 9016SOL    HW138510   2.567   3.236  10.859 -0.3255  0.4802  0.2977
 9016SOL    HW238511   2.550   3.350  10.960  0.1117 -0.1171 -0.5632
 9017SOL     OW38512   2.183   3.000   6.883  0.2849 -0.2811 -0.1860
 9017SOL    HW138513   2.230   3.074   6.920  0.8304 -0.3612 -0.7175
 9017SOL    HW238514   2.200   2.935   6.950  0.0588  0.4041  0.5354
 9018SOL     OW38515   3.309   4.077  13.012 -0.2213  0.4367  0.4602
 9018SOL    HW138516   3.291   3.983  13.020 -0.0911  0.4369  0.7717
 9018SOL    HW238517   3.361   4.090  12.934  0.6676  1.5696  1.2333
 9019SOL     OW38518   0.489   2.079   4.480  0.5086 -0.5688  0.5169
 9019SOL    HW138519   0.501   2.011   4.414 -0.4738  1.5346 -1.8437
 9019SOL    HW238520   0.543   2.150   4.445  0.3078 -0.3364  0.6698
 9020SOL     OW38521   0.043   3.272  13.892 -0.3006 -0.0204  0.0518
 9020SOL    HW138522   0.046   3.299  13.984  2.4166  0.5810 -0.2156
 9020SOL    HW238523   0.097   3.346  13.863  0.1409 -0.5461 -0.4674
 9021SOL     OW38524   3.784   4.004   8.756  0.0958  0.5362  0.0491
 9021SOL    HW138525   3.738   3.956   8.688  0.5098  0.1473  0.0419
 9021SOL    HW238526   3.838   3.934   8.793  0.2013 -0.2772 -1.6877
 9022SOL     OW38527   0.579   1.010   7.610 -0.2517 -0.6539 -0.4917
 9022SOL    HW138528   0.586   1.069   7.685 -2.9490  0.2672 -0.9720
 9022SOL    HW238529   0.558   0.926   7.651 -0.1208 -0.2586  0.3854
 9023SOL     OW38530   4.086   1.004   9.040 -0.7719 -0.4142  0.1688
 9023SOL    HW138531   4.006   1.015   8.989 -2.0898 -0.6069  2.1679
 9023SOL    HW238532   4.129   0.935   8.989  0.2129 -0.3255  0.8767
 9024SOL     OW38533   4.180   2.328   7.105  0.0750 -0.1084 -0.1460
 9024SOL    HW138534   4.221   2.248   7.072 -1.3405 -0.4448 -1.1038
 9024SOL    HW238535   4.090   2.296   7.113 -0.5718  2.0493  1.1620
 9025SOL     OW38536   3.532   1.534   9.977  0.0544 -0.9402 -0.3812
 9025SOL    HW138537   3.588   1.500   9.907  1.9543 -0.5964  0.9874
 9025SOL    HW238538   3.589   1.581  10.037 -2.3442 -2.1474  2.8415
 9026SOL     OW38539   1.279   4.372   3.961 -0.2703  0.2210 -1.0002
 9026SOL    HW138540   1.299   4.278   3.957 -0.7264  0.0997 -0.5156
 9026SOL    HW238541   1.205   4.368   3.899 -1.1797  0.3666  0.0782
 9027SOL     OW38542   0.079   2.764  16.755  0.5732  0.2506  0.0310
 9027SOL    HW138543   4.711   2.780  16.774 -0.0847 -1.2363 -1.9786
 9027SOL    HW238544   0.112   2.821  16.825  2.5631 -1.1179  0.2027
 9028SOL     OW38545   2.850   0.847  14.832 -0.1515  1.1757 -0.2024
 9028SOL    HW138546   2.902   0.784  14.881 -0.9381 -0.9078 -2.0744
 9028SOL    HW238547   2.838   0.800  14.750  1.6628 -0.9001  0.7020
 9029SOL     OW38548   0.430   2.711   3.505  0.1280  0.0258 -0.4520
 9029SOL    HW138549   0.508   2.729   3.559 -1.2745  3.8777  0.2492
 9029SOL    HW238550   0.410   2.617   3.508 -1.3181  0.3738  0.5656
 9030SOL     OW38551   2.047   0.539   4.701  0.5974  0.2590  0.1186
 9030SOL    HW138552   2.031   0.596   4.777 -0.2184 -0.1949  0.2886
 9030SOL    HW238553   2.070   0.595   4.628 -1.0687 -0.5399 -1.0238
 9031SOL     OW38554   3.845   1.540  12.366 -0.3596  0.8511 -0.0767
 9031SOL    HW138555   3.881   1.459  12.403 -4.4021 -1.8877 -2.1322
 9031SOL    HW238556   3.784   1.566  12.435  1.9168 -1.5894  2.8695
 9032SOL     OW38557   2.085   0.058  13.381  0.1920  0.4080 -0.0970
 9032SOL    HW138558   2.060   4.700  13.425  0.6281 -0.0973 -0.7890
 9032SOL    HW238559   2.166   0.039  13.334  0.4041  2.4265 -0.5523
 9033SOL     OW38560   3.621   2.752  15.536  0.0576 -0.1976  0.2071
 9033SOL    HW138561   3.598   2.662  15.513 -1.4980 -0.4873  2.8361
 9033SOL    HW238562   3.547   2.783  15.588 -0.3480  0.5504 -0.8184
 9034SOL     OW38563   0.956   0.495   7.056 -0.3543  0.1304  0.3012
 9034SOL    HW138564   0.905   0.494   6.975  2.1859 -0.7747 -1.2904
 9034SOL    HW238565   0.900   0.553   7.107  2.1699  3.2535 -0.4696
 9035SOL     OW38566   2.307   3.818   8.391 -0.3473  0.0592  0.6216
 9035SOL    HW138567   2.361   3.781   8.321  0.7647  0.8954  1.0252
 9035SOL    HW238568   2.325   3.761   8.466  3.0252 -0.4119 -0.5292
 9036SOL     OW38569   1.492   0.133   3.248 -0.0456 -0.6248 -0.2127
 9036SOL    HW138570   1.492   0.226   3.270 -0.1878 -0.0698 -2.6616
 9036SOL    HW238571   1.483   0.139   3.153 -0.1313 -2.8762 -0.3571
 9037SOL     OW38572   4.267   1.987   0.783 -0.6727  0.5665 -0.4462
 9037SOL    HW138573   4.314   1.973   0.865 -3.3803 -3.1864  0.5009
 9037SOL    HW238574   4.328   1.933   0.732 -1.2819  1.5824 -2.2722
 9038SOL     OW38575   4.450   2.501  10.330 -0.0046  0.0606 -0.5877
 9038SOL    HW138576   4.508   2.450  10.387  0.6979  1.7633  0.2214
 9038SOL    HW238577   4.384   2.535  10.390 -0.9759 -1.5752 -0.7066
 9039SOL     OW38578   0.276   3.166   6.685 -0.1298  0.8864 -0.2807
 9039SOL    HW138579   0.214   3.225   6.726 -0.7111 -1.4637  2.2322
 9039SOL    HW238580   0.312   3.119   6.760 -1.8487 -0.1999 -0.1462
 9040SOL     OW38581   1.801   3.728   7.734  0.2788 -0.3831 -0.7560
 9040SOL    HW138582   1.825   3.697   7.822 -0.5528  0.1577 -0.3352
 9040SOL    HW238583   1.738   3.797   7.753  2.3912  1.2956  0.1334
 9041SOL     OW38584   4.375   3.796  16.478 -0.3265 -0.1158  0.0743
 9041SOL    HW138585   4.445   3.785  16.414 -0.2556 -1.5495  0.3878
 9041SOL    HW238586   4.307   3.750  16.429 -0.1084 -0.8310  0.4472
 9042SOL     OW38587   3.515   0.564   0.456  0.1311 -0.3606  0.3994
 9042SOL    HW138588   3.521   0.520   0.372  1.4189  1.2197 -0.3374
 9042SOL    HW238589   3.430   0.607   0.442 -1.6936 -2.7548  4.0025
 9043SOL     OW38590   1.951   3.532  12.252  0.1396  0.4783  0.3834
 9043SOL    HW138591   1.972   3.549  12.344 -1.7185  2.2305  0.4807
 9043SOL    HW238592   2.007   3.460  12.224 -1.2643  1.0984 -4.0621
 9044SOL     OW38593   0.315   2.992   2.902 -0.6343  0.0477 -0.1027
 9044SOL    HW138594   0.366   3.071   2.922 -2.0690  0.6207  1.2495
 9044SOL    HW238595   0.224   3.020   2.911  0.3062  2.9224  0.5566
 9045SOL     OW38596   3.805   0.789  11.749  0.4737  0.7271  0.0533
 9045SOL    HW138597   3.783   0.713  11.696 -0.1604  2.3236 -1.9601
 9045SOL    HW238598   3.826   0.849  11.677  0.1977  1.1894  0.3592
 9046SOL     OW38599   0.764   2.658   4.644  0.2783 -0.2435 -0.3522
 9046SOL    HW138600   0.812   2.577   4.627  1.6582  0.3181  0.9089
 9046SOL    HW238601   0.810   2.683   4.724  1.2316  1.2803 -1.3750
 9047SOL     OW38602   0.012   4.675   2.892 -1.0199 -0.7461 -0.1159
 9047SOL    HW138603   4.703   4.679   2.982  0.4903  0.4783  0.3791
 9047SOL    HW238604   4.700   0.022   2.839  1.1640  0.6827  0.3147
 9048SOL     OW38605   2.279   3.130   7.729  0.3050  0.3928 -0.3064
 9048SOL    HW138606   2.338   3.134   7.805 -0.0113  1.0155 -0.0887
 9048SOL    HW238607   2.201   3.092   7.769 -0.1420 -0.1434 -1.7121
 9049SOL     OW38608   0.609   1.784   1.966 -0.0767 -0.3833  0.9022
 9049SOL    HW138609   0.590   1.841   1.891 -0.4790 -0.0384  1.2711
 9049SOL    HW238610   0.522   1.771   2.004 -0.8091  0.3899 -0.4976
 9050SOL     OW38611   2.972   3.610   7.448  0.0130  0.2351 -0.2297
 9050SOL    HW138612   2.962   3.651   7.362 -0.3146 -2.2413 -1.3693
 9050SOL    HW238613   2.993   3.521   7.420  1.0367  0.7190 -1.0020
 9051SOL     OW38614   4.146   2.698  12.605  0.6381  0.3310  0.4385
 9051SOL    HW138615   4.173   2.766  12.667 -3.8061 -0.1175  2.8814
 9051SOL    HW238616   4.233   2.681  12.568  1.2131  2.3315  0.8973
 9052SOL     OW38617   1.362   0.593   2.502 -0.0350  0.1038  0.2183
 9052SOL    HW138618   1.367   0.634   2.416  3.0569 -2.6682 -0.9170
 9052SOL    HW238619   1.452   0.563   2.509 -0.6564 -1.7362  0.1995
 9053SOL     OW38620   1.944   2.915   3.922 -0.3614  0.6069 -0.4069
 9053SOL    HW138621   1.851   2.940   3.914 -0.4548  0.8191  1.3829
 9053SOL    HW238622   1.931   2.828   3.959  2.2712 -1.5855 -4.6270
 9054SOL     OW38623   3.041   2.331  16.774 -0.0160  0.3799  0.1094
 9054SOL    HW138624   3.043   2.419  16.736 -0.2124  0.6534  0.7376
 9054SOL    HW238625   3.028   2.351  16.867 -1.2376 -0.4116  0.1226
 9055SOL     OW38626   1.985   0.738   6.663 -1.4284 -0.0956 -0.5861
 9055SOL    HW138627   1.974   0.719   6.570  2.0192 -1.1122 -0.7717
 9055SOL    HW238628   2.020   0.826   6.663  0.7587 -0.9775 -1.8609
 9056SOL     OW38629   1.989   4.071   4.169 -0.0587 -0.0741  0.5792
 9056SOL    HW138630   2.051   4.066   4.242  0.7463  0.8482 -0.0334
 9056SOL    HW238631   2.036   4.019   4.104  0.0864  0.9774 -0.1650
 9057SOL     OW38632   1.402   3.459   7.225  0.2045 -0.5783  0.2421
 9057SOL    HW138633   1.310   3.475   7.205  0.3045  0.9074  0.9544
 9057SOL    HW238634   1.394   3.376   7.271 -3.0232 -1.1280 -1.2880
 9058SOL     OW38635   4.275   0.625   5.310 -0.3091 -0.1282  0.2049
 9058SOL    HW138636   4.329   0.557   5.349  1.9984  2.8783  2.1692
 9058SOL    HW238637   4.337   0.695   5.293 -0.2996 -0.0337  0.6384
 9059SOL     OW38638   0.150   1.188   2.346  0.1616 -0.3802 -0.0947
 9059SOL    HW138639   0.237   1.208   2.309 -0.7237 -0.8197 -2.4301
 9059SOL    HW238640   0.168   1.215   2.436  0.0471 -2.7902  0.6554
 9060SOL     OW38641   0.747   3.621   5.365 -0.1219  0.3243 -0.2604
 9060SOL    HW138642   0.682   3.620   5.435  1.3806  3.0819  1.1632
 9060SOL    HW238643   0.754   3.526   5.354 -1.0210  0.1150  0.9722
 9061SOL     OW38644   2.368   4.600  13.529  0.2888  0.2982 -0.2967
 9061SOL    HW138645   2.434   4.613  13.597  0.2806  0.3474 -0.2985
 9061SOL    HW238646   2.358   4.506  13.542  0.9067  0.2001 -0.5397
 9062SOL     OW38647   2.919   2.916  16.164  0.5360 -0.4141  0.2980
 9062SOL    HW138648   2.854   2.851  16.191  0.4620 -0.9662 -1.1893
 9062SOL    HW238649   2.898   2.917  16.070 -0.2351 -0.8603  0.4571
 9063SOL     OW38650   1.664   1.133  15.701 -0.3668  0.3419 -0.3400
 9063SOL    HW138651   1.589   1.189  15.719  0.7291  1.6464  0.1703
 9063SOL    HW238652   1.727   1.183  15.649  2.1045 -1.3880  0.9929
 9064SOL     OW38653   2.601   1.789   5.686  0.3628 -0.2651  0.5127
 9064SOL    HW138654   2.626   1.745   5.604  1.0309  1.1194 -0.0243
 9064SOL    HW238655   2.519   1.743   5.703 -0.3164 -0.0172 -2.0622
 9065SOL     OW38656   4.699   2.283   5.676 -0.1433  0.1593  0.1733
 9065SOL    HW138657   0.009   2.333   5.602  0.8478  2.6413  2.3085
 9065SOL    HW238658   4.619   2.242   5.643 -1.6582  3.0087  0.2704
 9066SOL     OW38659   4.293   2.786  10.264  0.0801  0.3837 -0.4375
 9066SOL    HW138660   4.292   2.867  10.314  0.5178 -0.3838  0.8167
 9066SOL    HW238661   4.379   2.791  10.222 -0.2345 -1.4130 -1.3139
 9067SOL     OW38662   2.987   0.969   7.442 -0.3138  0.2369  0.1396
 9067SOL    HW138663   3.040   0.936   7.514  1.9907  1.8446 -0.8176
 9067SOL    HW238664   2.934   0.892   7.422  0.3725 -0.0165 -0.7232
 9068SOL     OW38665   1.566   1.784   2.440 -0.2638  0.4003  0.5330
 9068SOL    HW138666   1.496   1.719   2.434 -0.1104  0.1971  0.9566
 9068SOL    HW238667   1.528   1.858   2.392 -1.7357  0.0767  1.2175
 9069SOL     OW38668   3.137   4.238  17.575  0.2550 -0.5133 -0.4642
 9069SOL    HW138669   3.121   4.313  17.631 -1.0519  0.3573 -1.9930
 9069SOL    HW238670   3.213   4.204  17.622  0.1444  0.1560  0.1897
 9070SOL     OW38671   3.152   0.910  16.351  0.5242  0.2860  0.2573
 9070SOL    HW138672   3.245   0.917  16.373  0.4351  0.2855  0.6263
 9070SOL    HW238673   3.124   0.996  16.382 -1.5104  0.1280 -1.1735
 9071SOL     OW38674   0.355   1.318  12.417 -0.3150  0.4611  0.1084
 9071SOL    HW138675   0.348   1.265  12.496 -1.0203  0.1395 -0.1706
 9071SOL    HW238676   0.446   1.309  12.387  0.0665  0.0379  1.3785
 9072SOL     OW38677   3.388   4.094   8.107  0.0192  0.4580  0.6639
 9072SOL    HW138678   3.481   4.075   8.095 -0.0867  0.0774  0.4222
 9072SOL    HW238679   3.393   4.189   8.098  0.5308  0.4914  1.3192
 9073SOL     OW38680   3.411   0.783  12.165 -0.0462  0.1614  0.4385
 9073SOL    HW138681   3.357   0.710  12.195  1.5781 -1.1860  0.0870
 9073SOL    HW238682   3.385   0.779  12.073  1.0224  2.0444  0.0541
 9074SOL     OW38683   3.310   3.679   8.139 -0.0937  0.2574 -0.0284
 9074SOL    HW138684   3.246   3.748   8.120  1.0797  0.5510 -2.8700
 9074SOL    HW238685   3.384   3.697   8.082  0.6429  1.1773  1.2301
 9075SOL     OW38686   4.468   0.492   8.625 -0.1373 -0.3471 -0.6112
 9075SOL    HW138687   4.559   0.474   8.645  0.2836 -0.1723 -2.4532
 9075SOL    HW238688   4.420   0.430   8.680 -0.2955  0.8062  0.5808
 9076SOL     OW38689   3.209   2.364  14.570  0.8080  0.3052  0.1452
 9076SOL    HW138690   3.193   2.427  14.640 -1.9510  2.6134 -2.6012
 9076SOL    HW238691   3.288   2.402  14.531  0.9650  1.2201  1.3398
 9077SOL     OW38692   1.643   3.568   6.621 -0.2475 -0.1066  0.0910
 9077SOL    HW138693   1.735   3.592   6.621 -0.3109  0.0920 -2.2677
 9077SOL    HW238694   1.610   3.654   6.595 -0.7688  0.1167  1.5045
 9078SOL     OW38695   1.011   3.864  17.455 -0.2697 -0.0792  0.7445
 9078SOL    HW138696   0.940   3.891  17.514 -0.2619  3.5494 -0.9272
 9078SOL    HW238697   0.977   3.910  17.379 -4.6478 -1.6131  1.7064
 9079SOL     OW38698   4.224   2.610  14.029  0.0275  0.2055 -0.0310
 9079SOL    HW138699   4.228   2.636  13.937  2.5843  0.0545  0.0218
 9079SOL    HW238700   4.133   2.625  14.055  0.2532  1.2033  0.1870
 9080SOL     OW38701   3.789   2.281   4.217  0.4177 -0.0759  0.7052
 9080SOL    HW138702   3.773   2.353   4.156  0.3215 -0.3948  0.3485
 9080SOL    HW238703   3.797   2.336   4.294  1.1570  0.0246  0.5578
 9081SOL     OW38704   2.659   2.664   1.930  0.6969  0.8071 -0.0845
 9081SOL    HW138705   2.742   2.704   1.958  0.7438 -0.6163  1.7720
 9081SOL    HW238706   2.640   2.726   1.859  2.2641 -0.5939 -1.7421
 9082SOL     OW38707   1.438   2.824  16.737  0.3177  0.0320 -0.0943
 9082SOL    HW138708   1.360   2.768  16.737  0.6620 -0.4496  0.2692
 9082SOL    HW238709   1.462   2.821  16.830  2.9331  2.5987 -0.6931
 9083SOL     OW38710   4.182   2.524   8.707 -0.2107 -0.0079  0.2832
 9083SOL    HW138711   4.091   2.505   8.728 -0.5266  1.5541  0.3501
 9083SOL    HW238712   4.196   2.607   8.752 -0.8670 -0.4508  1.2993
 9084SOL     OW38713   3.374   2.129   7.774 -0.0031  0.0598 -0.1267
 9084SOL    HW138714   3.422   2.145   7.693 -2.1901  1.3376 -1.1758
 9084SOL    HW238715   3.420   2.053   7.810 -0.7012 -1.9055 -3.4328
 9085SOL     OW38716   0.179   2.080   2.157 -0.3817  0.2303  0.2914
 9085SOL    HW138717   0.190   2.163   2.204  0.7551 -0.1130  0.6231
 9085SOL    HW238718   0.199   2.091   2.064  0.8674  1.2660  0.6940
 9086SOL     OW38719   1.981   2.666   7.047  0.0949 -0.2081  0.4276
 9086SOL    HW138720   2.042   2.648   6.975 -1.5681 -1.6696 -0.6144
 9086SOL    HW238721   1.964   2.759   7.029 -2.1718 -0.9880 -1.5171
 9087SOL     OW38722   0.007   3.413   8.670 -0.1164  0.1859  0.3784
 9087SOL    HW138723   0.074   3.464   8.624 -0.1287 -2.1565 -2.2715
 9087SOL    HW238724   4.664   3.435   8.605 -0.2232  0.1949  0.4925
 9088SOL     OW38725   1.718   4.152   4.701 -0.4077  0.4065  0.3267
 9088SOL    HW138726   1.649   4.218   4.693  0.4440  1.2649  0.1018
 9088SOL    HW238727   1.788   4.194   4.750  0.8685 -1.0116 -0.2923
 9089SOL     OW38728   0.280   0.468   8.294 -0.0019 -0.0667  0.5541
 9089SOL    HW138729   0.365   0.424   8.298  0.4241  0.7881  0.9342
 9089SOL    HW238730   0.299   0.550   8.339  1.9296 -1.1102  1.6571
 9090SOL     OW38731   2.959   0.771   6.555  0.1672  0.0602  0.1439
 9090SOL    HW138732   3.036   0.821   6.529  0.1205 -0.6705 -1.3693
 9090SOL    HW238733   2.955   0.808   6.644  0.5157 -1.1549  0.6716
 9091SOL     OW38734   0.749   1.893   0.710  0.4049  0.1214 -0.0283
 9091SOL    HW138735   0.765   1.856   0.624 -0.5332  0.0704 -0.1834
 9091SOL    HW238736   0.757   1.815   0.766  3.8425 -0.8083 -1.8146
 9092SOL     OW38737   0.395   0.956   5.437  0.5700  0.4350  0.3089
 9092SOL    HW138738   0.395   0.988   5.347  0.6894 -0.4231  0.0002
 9092SOL    HW238739   0.344   0.876   5.428 -0.0620  1.0272 -1.4837
 9093SOL     OW38740   3.871   2.601   4.914 -0.8857 -0.1501  0.3973
 9093SOL    HW138741   3.902   2.628   4.827  0.5539 -2.5096  0.1787
 9093SOL    HW238742   3.938   2.634   4.974 -1.5887  2.0807 -0.0335
 9094SOL     OW38743   0.868   0.910  12.130  0.3610  0.7180  0.1186
 9094SOL    HW138744   0.868   1.002  12.153 -1.6681  0.5174  0.8837
 9094SOL    HW238745   0.959   0.912  12.100 -0.6576  0.9633 -2.9576
 9095SOL     OW38746   3.378   4.249   0.967  0.0120 -0.7951  0.2374
 9095SOL    HW138747   3.472   4.266   0.967  0.3313 -2.6020 -0.7100
 9095SOL    HW238748   3.375   4.187   1.039 -0.5813  0.0889  0.9685
 9096SOL     OW38749   3.806   0.027   2.994  0.4158 -0.0088  0.3836
 9096SOL    HW138750   3.832   4.678   3.050 -1.9984  0.7756  2.5160
 9096SOL    HW238751   3.746   0.078   3.047  2.1978  2.5662 -0.0674
 9097SOL     OW38752   0.092   2.604   7.472 -0.1917  0.4141  0.2938
 9097SOL    HW138753   0.124   2.649   7.550  0.9609 -1.1379  0.7192
 9097SOL    HW238754   0.174   2.584   7.427 -0.5203  0.1517 -0.1944
 9098SOL     OW38755   0.066   2.876   2.125  0.0440 -0.1103 -0.3103
 9098SOL    HW138756   0.136   2.940   2.139 -1.5543  1.7543 -0.8375
 9098SOL    HW238757   0.063   2.848   2.216  0.9138  0.0901 -0.2194
 9099SOL     OW38758   0.776   2.330   8.080  0.1215 -0.1798 -0.3669
 9099SOL    HW138759   0.854   2.349   8.027 -0.1725 -0.5197 -0.9206
 9099SOL    HW238760   0.792   2.236   8.073 -2.5917 -0.6726  0.3260
 9100SOL     OW38761   2.153   4.165   9.043  0.3774  0.2012 -0.1586
 9100SOL    HW138762   2.059   4.179   9.046  0.6059  1.7305  0.1327
 9100SOL    HW238763   2.157   4.087   8.988  1.1659 -2.3161  3.4710
 9101SOL     OW38764   0.836   1.512  15.678 -0.5404  0.0520 -0.5070
 9101SOL    HW138765   0.799   1.443  15.621 -1.2054  0.3129 -0.3934
 9101SOL    HW238766   0.821   1.588  15.622  0.2877 -0.2386 -1.1232
 9102SOL     OW38767   1.292   3.916  16.000 -0.0040 -0.0419 -0.3474
 9102SOL    HW138768   1.342   3.872  16.068 -0.4489  1.5088  0.9614
 9102SOL    HW238769   1.355   3.987  15.993 -0.1629  0.1788  0.5233
 9103SOL     OW38770   3.984   1.936   1.037 -0.1232 -0.4703 -0.4149
 9103SOL    HW138771   4.052   1.970   0.978  1.5302  0.1182  1.8490
 9103SOL    HW238772   4.005   1.980   1.119  0.0079 -1.3384  0.0136
 9104SOL     OW38773   1.327   0.661   2.775 -0.3426  0.1431 -0.3469
 9104SOL    HW138774   1.280   0.612   2.708  0.5805 -1.3900  0.1325
 9104SOL    HW238775   1.260   0.729   2.784  1.1876  1.6344 -0.1616
 9105SOL     OW38776   3.858   4.557   3.922  0.1996 -0.2960 -0.5949
 9105SOL    HW138777   3.911   4.487   3.960 -0.0749 -0.8233 -1.1681
 9105SOL    HW238778   3.879   4.617   3.993 -2.4448  0.7290 -0.6929
 9106SOL     OW38779   4.577   1.179   1.946  0.7142 -0.8766  0.6353
 9106SOL    HW138780   4.501   1.171   2.004 -1.1070 -0.2683 -1.6851
 9106SOL    HW238781   4.622   1.244   2.000  1.2264 -1.2165  0.6166
 9107SOL     OW38782   0.601   0.715   5.973  0.0014 -0.1024  0.2852
 9107SOL    HW138783   0.593   0.621   5.956  1.7587 -0.3227  0.6727
 9107SOL    HW238784   0.693   0.728   5.947  0.1510 -0.1362  0.8133
 9108SOL     OW38785   0.589   4.687  16.036  0.2689  0.0338 -0.5042
 9108SOL    HW138786   0.508   4.666  16.082  1.5485 -0.3267  1.5826
 9108SOL    HW238787   0.641   4.714  16.112  1.7295 -1.7594 -0.8706
 9109SOL     OW38788   0.257   1.934   2.607  0.1243 -0.0211 -0.2419
 9109SOL    HW138789   0.334   1.991   2.607  0.0438  0.0892 -1.2318
 9109SOL    HW238790   0.262   1.909   2.699  1.5592 -1.7052 -0.7718
 9110SOL     OW38791   2.468   2.606  10.810  0.5808 -0.0253 -0.1965
 9110SOL    HW138792   2.500   2.528  10.764  2.4721  1.0651 -0.7316
 9110SOL    HW238793   2.546   2.650  10.844 -0.8108  0.5114  2.3267
 9111SOL     OW38794   1.262   2.892   5.050 -0.5163 -0.2451 -0.0475
 9111SOL    HW138795   1.311   2.886   5.132 -0.5903  2.0881  0.1637
 9111SOL    HW238796   1.309   2.961   5.004 -0.8529  1.2785  1.8679
 9112SOL     OW38797   1.373   3.824  15.300  0.0651 -0.3480  0.0211
 9112SOL    HW138798   1.440   3.758  15.289 -0.4522 -0.6131 -1.5173
 9112SOL    HW238799   1.308   3.769  15.343  2.2035 -0.9079  2.5219
 9113SOL     OW38800   4.709   3.482   0.872  0.2077  0.4689  0.1513
 9113SOL    HW138801   4.619   3.500   0.846  0.1423  1.7854  1.3018
 9113SOL    HW238802   4.694   3.489   0.966  1.4463 -1.8491  0.5288
 9114SOL     OW38803   3.646   0.206   8.613 -0.4002  0.5708  0.0409
 9114SOL    HW138804   3.725   0.229   8.564 -2.1403 -0.8554 -3.4438
 9114SOL    HW238805   3.629   0.121   8.571 -2.7440  0.7186  0.7111
 9115SOL     OW38806   0.669   0.414  12.908 -0.4663  0.1929 -0.6104
 9115SOL    HW138807   0.616   0.431  12.830 -1.3554 -0.4284 -0.1406
 9115SOL    HW238808   0.757   0.414  12.870 -0.2000  1.6611  0.0064
 9116SOL     OW38809   4.218   0.303  15.561 -0.4597 -0.4142  0.1057
 9116SOL    HW138810   4.160   0.244  15.608  1.2737 -1.6100  0.7332
 9116SOL    HW238811   4.206   0.267  15.473  0.5503 -0.7105  0.0907
 9117SOL     OW38812   3.636   0.061   7.782  0.8725 -0.1244 -0.2113
 9117SOL    HW138813   3.658   0.127   7.847  1.9033 -0.1839 -0.5020
 9117SOL    HW238814   3.544   0.046   7.805  1.0741 -1.0900 -0.0071
 9118SOL     OW38815   1.326   2.537   1.811 -0.1460  0.5517  0.4678
 9118SOL    HW138816   1.398   2.543   1.749  0.5246  0.1160  1.2105
 9118SOL    HW238817   1.264   2.501   1.748  2.2621  0.2829 -1.7171
 9119SOL     OW38818   3.971   0.940   4.371  0.0500  0.0085  0.1328
 9119SOL    HW138819   3.948   0.849   4.389  0.6560 -0.5261 -1.8408
 9119SOL    HW238820   3.975   0.981   4.458  0.1092 -0.5400  0.3923
 9120SOL     OW38821   0.235   1.272   2.589  0.2374  0.3318 -0.1038
 9120SOL    HW138822   0.318   1.225   2.582  0.2798  0.3930 -0.0107
 9120SOL    HW238823   0.205   1.245   2.677 -0.5767  0.5343 -0.3189
 9121SOL     OW38824   1.482   2.846  12.639 -0.2796  0.0112 -0.8815
 9121SOL    HW138825   1.553   2.826  12.578  0.2095 -1.2162  0.0643
 9121SOL    HW238826   1.441   2.759  12.641  3.7189 -1.8268  2.5077
 9122SOL     OW38827   2.378   3.652   8.607  0.2081 -0.3685 -0.2937
 9122SOL    HW138828   2.452   3.708   8.634 -0.5568 -0.8861  2.8610
 9122SOL    HW238829   2.433   3.576   8.591 -0.1410 -1.1014  2.0476
 9123SOL     OW38830   4.241   3.558   5.583 -0.5190 -0.3811 -0.3110
 9123SOL    HW138831   4.267   3.614   5.510 -2.8517  0.0674 -0.7993
 9123SOL    HW238832   4.195   3.487   5.538 -1.2290 -0.0974 -0.0510
 9124SOL     OW38833   4.706   3.847   0.724  0.6840 -0.4976 -0.4492
 9124SOL    HW138834   0.013   3.882   0.808 -1.0869  0.6731 -0.2772
 9124SOL    HW238835   4.672   3.924   0.678  3.4748  0.1892 -1.3734
 9125SOL     OW38836   0.773   4.123  15.911  0.3274  0.1228 -0.1290
 9125SOL    HW138837   0.782   4.216  15.929  0.6620  0.2853 -1.1154
 9125SOL    HW238838   0.856   4.091  15.947 -0.0231  0.3001  0.8280
 9126SOL     OW38839   1.508   0.389  13.421 -0.3491 -0.4311  0.6642
 9126SOL    HW138840   1.539   0.334  13.492  0.3064 -0.5038  0.3212
 9126SOL    HW238841   1.414   0.383  13.441 -0.6384 -0.1764 -0.6130
 9127SOL     OW38842   2.571   2.276   1.542  0.2505 -0.2566  0.7676
 9127SOL    HW138843   2.600   2.299   1.454 -0.5132  0.0835  0.6018
 9127SOL    HW238844   2.476   2.273   1.537  0.4391 -0.3957 -2.2893
 9128SOL     OW38845   3.548   1.399   1.109 -0.1106 -0.1216 -0.3976
 9128SOL    HW138846   3.626   1.356   1.073 -1.5452 -1.2872 -2.1114
 9128SOL    HW238847   3.520   1.457   1.039 -1.0505  0.4846  0.4814
 9129SOL     OW38848   0.813   0.497  10.718  0.3403 -0.0686  0.4111
 9129SOL    HW138849   0.873   0.571  10.719  0.3962 -0.0823 -3.7712
 9129SOL    HW238850   0.873   0.422  10.714  1.8280  1.0839  1.4854
 9130SOL     OW38851   2.380   3.923   1.113  0.2049  0.3957 -0.5672
 9130SOL    HW138852   2.422   3.913   1.028  2.7195  3.7191  0.2938
 9130SOL    HW238853   2.456   3.901   1.167  0.3187  0.0807 -0.8535
 9131SOL     OW38854   4.199   2.096   7.753 -0.1311  0.4662 -0.1987
 9131SOL    HW138855   4.191   2.019   7.697  2.9555 -1.3615  1.8253
 9131SOL    HW238856   4.271   2.078   7.814 -1.9622 -0.3964  1.7028
 9132SOL     OW38857   0.696   0.527   4.973 -0.0083  0.1106 -0.1340
 9132SOL    HW138858   0.715   0.471   5.048 -2.5792  0.1279  0.5274
 9132SOL    HW238859   0.727   0.478   4.896  0.6185 -0.4141  0.4507
 9133SOL     OW38860   1.424   4.642  12.683 -0.2077  0.3081 -0.6208
 9133SOL    HW138861   1.487   4.675  12.619  0.6074 -1.5704 -0.7704
 9133SOL    HW238862   1.478   4.579  12.730 -1.5793 -0.6641 -0.3478
 9134SOL     OW38863   1.186   3.718   4.223 -0.3336  0.3052  0.0886
 9134SOL    HW138864   1.250   3.789   4.230 -0.6457  0.5037  0.8120
 9134SOL    HW238865   1.157   3.712   4.314 -1.2329 -2.9010 -0.3870
 9135SOL     OW38866   3.862   0.678   3.191 -0.3959 -0.0846 -0.5709
 9135SOL    HW138867   3.870   0.669   3.096 -1.0838  2.6307 -0.8842
 9135SOL    HW238868   3.935   0.738   3.206  0.8814 -2.2060  1.7455
 9136SOL     OW38869   4.215   1.272  15.327  0.2510  0.1051  0.5037
 9136SOL    HW138870   4.271   1.293  15.401 -1.0112 -1.1275  1.8122
 9136SOL    HW238871   4.136   1.248  15.375 -0.1944  0.6152  0.0341
 9137SOL     OW38872   3.040   2.453  11.700  0.0626 -0.3675 -0.0127
 9137SOL    HW138873   3.057   2.365  11.664  0.3630  0.0224 -0.8348
 9137SOL    HW238874   3.126   2.485  11.728 -0.5040 -0.8431  2.2140
 9138SOL     OW38875   3.244   4.171   4.767 -0.1716 -0.5470  0.4020
 9138SOL    HW138876   3.314   4.157   4.831  0.0238 -0.4651  0.2070
 9138SOL    HW238877   3.182   4.110   4.809  1.0694 -0.7074  2.0068
 9139SOL     OW38878   2.099   0.691   3.514  0.3908  0.3747 -0.0858
 9139SOL    HW138879   2.174   0.727   3.467  0.8070 -0.8275 -0.3341
 9139SOL    HW238880   2.080   0.759   3.578  3.7830  0.5317  0.7098
 9140SOL     OW38881   0.137   3.788   3.922  0.3068  0.4416  0.0062
 9140SOL    HW138882   0.129   3.883   3.930 -0.0247  0.1593  3.2670
 9140SOL    HW238883   0.173   3.763   4.007 -1.5558  0.4925  0.8326
 9141SOL     OW38884   4.120   4.453   7.466  0.1592  0.6138  0.0081
 9141SOL    HW138885   4.152   4.540   7.443  0.7871  0.2287 -0.5518
 9141SOL    HW238886   4.188   4.396   7.430  1.9373  2.3612  0.6226
 9142SOL     OW38887   0.148   1.719   7.898  0.3492  0.3925  0.0160
 9142SOL    HW138888   0.139   1.658   7.971  2.5656 -1.9681 -1.6782
 9142SOL    HW238889   0.223   1.774   7.919  0.5677  0.3083 -0.5457
 9143SOL     OW38890   0.369   4.251   4.159  0.4168  0.9549  0.3294
 9143SOL    HW138891   0.312   4.284   4.090  0.2796 -0.8019 -0.4114
 9143SOL    HW238892   0.320   4.261   4.240  1.1655  2.2526  0.6137
 9144SOL     OW38893   2.437   1.493   5.522  0.3087 -0.5627 -0.3047
 9144SOL    HW138894   2.349   1.466   5.498 -0.1942 -0.9332  1.9931
 9144SOL    HW238895   2.408   1.532   5.604  0.5121 -1.2702  0.1004
 9145SOL     OW38896   2.579   4.085   8.064 -0.2843  0.4532 -0.1334
 9145SOL    HW138897   2.608   3.995   8.050  0.7030  0.8442 -0.5467
 9145SOL    HW238898   2.623   4.109   8.146 -1.2835  1.4902  0.0998
 9146SOL     OW38899   2.170   3.010   1.881 -0.4225  0.5626  0.2751
 9146SOL    HW138900   2.221   2.963   1.815 -1.2701  1.6221 -1.1245
 9146SOL    HW238901   2.231   3.084   1.890 -0.7200  1.0679 -1.7840
 9147SOL     OW38902   1.342   0.526   9.098  0.1418  0.1361 -0.3581
 9147SOL    HW138903   1.324   0.618   9.113 -2.6107 -0.1951 -1.5605
 9147SOL    HW238904   1.433   0.535   9.069  0.5940 -0.3948  0.9220
 9148SOL     OW38905   1.537   1.135   9.670  0.1563 -0.4456 -0.1819
 9148SOL    HW138906   1.467   1.186   9.629  0.4556 -0.9243 -1.2868
 9148SOL    HW238907   1.546   1.176   9.756  2.3991  0.4031 -0.8365
 9149SOL     OW38908   0.013   3.099  14.230 -0.2089  0.1737  0.0325
 9149SOL    HW138909   0.026   3.182  14.185  0.1218 -0.4191 -0.9641
 9149SOL    HW238910   4.662   3.061  14.186 -0.5855 -0.3261  1.1017
 9150SOL     OW38911   4.200   0.521   5.065 -0.4829  0.0444 -0.2180
 9150SOL    HW138912   4.190   0.559   5.153 -1.2545  0.6735 -0.5746
 9150SOL    HW238913   4.251   0.443   5.087 -1.0740 -0.5861 -1.1090
 9151SOL     OW38914   3.844   4.143   4.529 -0.5655 -0.0527  0.2315
 9151SOL    HW138915   3.893   4.129   4.448  0.9189 -1.4479  1.3637
 9151SOL    HW238916   3.762   4.105   4.497 -1.9914  3.2316  0.0104
 9152SOL     OW38917   3.981   1.854   1.523 -0.1662  0.1437 -0.4722
 9152SOL    HW138918   3.952   1.943   1.542  1.5742  0.4084  0.9313
 9152SOL    HW238919   3.929   1.823   1.449 -0.0219  0.7667 -0.8349
 9153SOL     OW38920   1.107   1.025   3.976 -0.2298  0.1789 -0.0483
 9153SOL    HW138921   1.042   1.077   3.928 -0.3562 -0.5989 -0.7295
 9153SOL    HW238922   1.133   0.951   3.921 -2.4576  0.9016 -2.0911
 9154SOL     OW38923   3.085   0.528   6.404  0.3250  0.9963 -0.0046
 9154SOL    HW138924   3.164   0.561   6.361  1.1694  0.2757  0.9770
 9154SOL    HW238925   3.028   0.605   6.396  0.9634  1.5136  0.3928
 9155SOL     OW38926   0.060   2.214  10.567 -0.2392 -0.3816 -0.2414
 9155SOL    HW138927   0.100   2.170  10.492 -1.8940 -0.3983 -1.1251
 9155SOL    HW238928   4.716   2.149  10.583  1.9442 -2.9420 -1.3112
 9156SOL     OW38929   2.115   2.915  10.763  0.4045  0.0733 -0.2616
 9156SOL    HW138930   2.143   2.998  10.724 -0.1694 -0.7975 -2.5056
 9156SOL    HW238931   2.042   2.950  10.814 -0.7477  0.7957 -2.4010
 9157SOL     OW38932   2.371   3.040  17.634 -0.3136  0.6040 -0.0131
 9157SOL    HW138933   2.419   2.986   0.000 -0.6407  0.2690 -0.0533
 9157SOL    HW238934   2.333   2.977  17.573 -2.1277  2.3885 -0.7098
 9158SOL     OW38935   1.387   1.929  13.644 -0.2303 -0.1192 -0.6961
 9158SOL    HW138936   1.348   1.970  13.566 -2.2150 -2.0319 -0.6843
 9158SOL    HW238937   1.387   2.005  13.703 -0.0680  0.1848 -1.0856
 9159SOL     OW38938   3.881   1.470   1.060 -0.8962 -0.1507  0.3032
 9159SOL    HW138939   3.885   1.546   1.003  1.5291 -1.9668 -1.9373
 9159SOL    HW238940   3.856   1.522   1.136  0.4888  1.6351 -0.4594
 9160SOL     OW38941   3.174   2.326  10.171  0.4302  0.5905 -0.0765
 9160SOL    HW138942   3.255   2.275  10.180 -0.3291 -0.2429  2.2587
 9160SOL    HW238943   3.150   2.333  10.264  0.6650 -1.5468  0.1436
 9161SOL     OW38944   2.839   1.968   8.833 -0.3226  0.0605  0.4110
 9161SOL    HW138945   2.837   1.894   8.893  2.3546 -0.7796 -0.5460
 9161SOL    HW238946   2.877   1.939   8.750 -0.8552  0.2590  0.0963
 9162SOL     OW38947   1.039   2.865   9.094  0.5514  0.0521  0.0871
 9162SOL    HW138948   1.020   2.939   9.152  3.1024  1.1372 -0.4138
 9162SOL    HW238949   0.953   2.826   9.108  0.3197  0.4401 -0.2401
 9163SOL     OW38950   1.758   1.583   6.406 -0.2156  0.2185  0.2247
 9163SOL    HW138951   1.673   1.567   6.365  0.4936 -0.3984 -1.0132
 9163SOL    HW238952   1.755   1.550   6.496 -4.1192  0.0260  0.0202
 9164SOL     OW38953   3.059   0.594  12.439 -0.1716 -0.3930  0.8254
 9164SOL    HW138954   3.000   0.655  12.484 -1.6632 -0.4554 -1.0633
 9164SOL    HW238955   3.115   0.579  12.516 -0.7268  0.0573  1.3188
 9165SOL     OW38956   3.888   0.352   5.628  0.1650 -0.3634  0.0880
 9165SOL    HW138957   3.832   0.289   5.583 -2.8729  1.3327  1.4858
 9165SOL    HW238958   3.868   0.325   5.718 -2.0119  0.9538 -0.0212
 9166SOL     OW38959   3.193   4.500   7.652 -0.9117  0.0180  0.0589
 9166SOL    HW138960   3.126   4.564   7.630 -0.8545 -0.5651 -1.7963
 9166SOL    HW238961   3.187   4.446   7.574 -1.2282 -0.6500  0.5495
 9167SOL     OW38962   0.722   4.711  14.607 -0.2069  0.6154 -0.5079
 9167SOL    HW138963   0.674   4.648  14.553 -1.3389 -0.7259  2.0865
 9167SOL    HW238964   0.685   0.065  14.566  0.8450  2.4879  2.1070
 9168SOL     OW38965   1.013   3.447   8.451 -1.2774  0.0328 -0.1586
 9168SOL    HW138966   0.977   3.525   8.494  1.8653  1.7681 -0.6197
 9168SOL    HW238967   1.104   3.464   8.474 -1.0432 -1.2633 -0.1339
 9169SOL     OW38968   0.609   1.719  13.693  0.7256 -0.3174  0.2265
 9169SOL    HW138969   0.521   1.753  13.707 -0.0677 -1.8956 -0.8711
 9169SOL    HW238970   0.591   1.625  13.687  3.2016 -0.8594  1.5388
 9170SOL     OW38971   3.129   2.387   4.996 -0.2064  0.0244 -0.1670
 9170SOL    HW138972   3.215   2.417   4.964  0.8823 -2.8081  0.0520
 9170SOL    HW238973   3.153   2.334   5.072  0.9031  0.1830 -0.3983
 9171SOL     OW38974   3.570   2.434   9.688  0.1110 -0.1582  0.9167
 9171SOL    HW138975   3.567   2.521   9.728  1.3406  0.7672 -1.0132
 9171SOL    HW238976   3.577   2.379   9.765 -0.3749  1.0142  1.8025
 9172SOL     OW38977   3.126   2.012   7.654  0.4928  0.0586 -0.3280
 9172SOL    HW138978   3.205   2.038   7.606  0.6164  0.6612  0.2014
 9172SOL    HW238979   3.166   1.950   7.716  0.1620 -1.0333 -1.2005
 9173SOL     OW38980   4.544   3.477   8.477 -0.0782 -0.5771  0.0295
 9173SOL    HW138981   4.473   3.441   8.529  0.8294 -1.5097  0.6131
 9173SOL    HW238982   4.500   3.455   8.395  0.6134  0.7268 -0.6916
 9174SOL     OW38983   4.228   3.564   2.834 -0.0135  0.7769  0.1786
 9174SOL    HW138984   4.318   3.593   2.822  0.3333  0.3591  1.7235
 9174SOL    HW238985   4.235   3.483   2.783 -0.9649  0.9177 -0.1729
 9175SOL     OW38986   0.692   2.794   5.666 -0.1086 -0.0043 -0.2774
 9175SOL    HW138987   0.742   2.860   5.618 -1.2918  0.2605 -1.1233
 9175SOL    HW238988   0.675   2.729   5.598  1.1428 -0.3578 -0.2567
 9176SOL     OW38989   3.153   3.082  11.058  0.3661  0.0343  0.4731
 9176SOL    HW138990   3.236   3.035  11.064 -0.4630 -1.2304  2.0426
 9176SOL    HW238991   3.165   3.124  10.973 -2.6105  2.1358  1.0955
 9177SOL     OW38992   3.011   1.130   9.575 -0.2756 -0.2998  0.2283
 9177SOL    HW138993   2.979   1.119   9.664  0.6126 -1.6828  0.3867
 9177SOL    HW238994   2.990   1.047   9.532  0.1043 -0.1890 -0.1778
 9178SOL     OW38995   4.074   2.280   9.197  0.0793  0.6050 -0.3438
 9178SOL    HW138996   4.121   2.325   9.267 -2.0784 -1.1779  2.2621
 9178SOL    HW238997   4.118   2.195   9.192 -3.3609 -1.4029  3.0044
 9179SOL     OW38998   0.550   3.863   6.162  0.0855 -0.4577 -0.0504
 9179SOL    HW138999   0.603   3.919   6.219 -1.3014  1.3225 -0.5250
 9179SOL    HW239000   0.557   3.903   6.075 -0.4270 -0.3846 -0.0563
 9180SOL     OW39001   1.869   3.963   3.290  0.1850  0.3315  0.6975
 9180SOL    HW139002   1.808   4.034   3.311  1.2981  1.0944  1.3318
 9180SOL    HW239003   1.827   3.936   3.208  0.0321  4.4229 -0.6083
 9181SOL     OW39004   0.871   1.860   7.274 -0.1683 -0.3966  0.2741
 9181SOL    HW139005   0.829   1.793   7.328  2.2470 -1.7940  0.3897
 9181SOL    HW239006   0.941   1.883   7.336  0.3791  0.6677 -0.7442
 9182SOL     OW39007   3.036   4.567   0.646  0.0417 -0.2801 -0.0176
 9182SOL    HW139008   2.943   4.575   0.670  0.1331 -0.1297  0.2855
 9182SOL    HW239009   3.055   4.476   0.668  0.2829  0.1129  1.4093
 9183SOL     OW39010   2.512   0.670   6.175  0.2681  0.6822  0.2464
 9183SOL    HW139011   2.532   0.754   6.133  1.9941  0.1190 -0.0442
 9183SOL    HW239012   2.555   0.623   6.103 -0.5613  0.5308 -0.1464
 9184SOL     OW39013   3.402   3.217   5.154  0.2546  0.7668  1.0989
 9184SOL    HW139014   3.451   3.135   5.150  1.2723  1.4065  0.4970
 9184SOL    HW239015   3.433   3.251   5.070  0.8702 -0.7014  0.7293
 9185SOL     OW39016   0.671   0.600   8.225  0.6372 -0.0023  0.2839
 9185SOL    HW139017   0.658   0.599   8.130  1.4416  0.9121  0.1546
 9185SOL    HW239018   0.627   0.521   8.256 -0.1133 -0.3782 -1.7374
 9186SOL     OW39019   4.400   0.448   8.094 -0.4552 -0.1721 -0.1113
 9186SOL    HW139020   4.482   0.406   8.120 -0.2704  0.5493  0.4538
 9186SOL    HW239021   4.351   0.372   8.062  3.3143 -2.7754  0.2872
 9187SOL     OW39022   1.701   2.296   8.210  0.1430 -0.0399 -0.0244
 9187SOL    HW139023   1.694   2.292   8.115  2.1115  1.3265 -0.2253
 9187SOL    HW239024   1.636   2.361   8.236 -1.3687 -1.1522 -0.9637
 9188SOL     OW39025   2.324   1.193   7.001 -0.4301 -0.1729  0.1117
 9188SOL    HW139026   2.354   1.112   7.042 -0.7784  0.2625  1.2251
 9188SOL    HW239027   2.398   1.252   7.012 -0.9417 -0.0836  2.9676
 9189SOL     OW39028   3.447   0.926  16.410  0.2350 -0.0229 -0.4471
 9189SOL    HW139029   3.467   0.891  16.497  0.9345  0.0069 -0.5914
 9189SOL    HW239030   3.475   0.854  16.354 -0.7719 -1.4543  0.8890
 9190SOL     OW39031   1.283   1.596   7.665  0.4683 -0.4316  0.8675
 9190SOL    HW139032   1.288   1.644   7.748 -2.9206 -1.2573  1.5271
 9190SOL    HW239033   1.356   1.643   7.623  0.0322 -0.8085 -0.2939
 9191SOL     OW39034   0.719   3.922   6.745 -0.5796  0.6798 -1.2295
 9191SOL    HW139035   0.701   3.840   6.699 -1.6019  0.7571 -0.9815
 9191SOL    HW239036   0.813   3.940   6.747 -0.1867 -1.3187 -2.4048
 9192SOL     OW39037   2.235   4.582  16.176 -0.4586 -0.2471 -0.1014
 9192SOL    HW139038   2.315   4.577  16.229 -0.7712 -0.3918  0.3625
 9192SOL    HW239039   2.179   4.531  16.235 -0.0311 -0.1175  0.4155
 9193SOL     OW39040   0.220   0.195  10.178  0.3687 -0.1216 -0.4025
 9193SOL    HW139041   0.266   0.117  10.146 -0.9813 -1.0752 -0.0219
 9193SOL    HW239042   0.166   0.152  10.244  0.0158 -0.1574 -0.7160
 9194SOL     OW39043   1.253   3.960  15.734  0.0579  0.1051  0.0438
 9194SOL    HW139044   1.334   4.011  15.731  0.0809  0.0321 -0.5702
 9194SOL    HW239045   1.258   3.929  15.824 -2.5501  3.9047  1.4770
 9195SOL     OW39046   0.311   2.559  14.076  0.3446 -0.0255 -0.4381
 9195SOL    HW139047   0.315   2.648  14.111 -1.7198  0.5970 -1.8031
 9195SOL    HW239048   0.393   2.562  14.026  1.6469  0.1783  1.6825
 9196SOL     OW39049   2.410   0.164  13.281 -0.3857  0.8151 -0.4544
 9196SOL    HW139050   2.435   0.169  13.189 -0.6617  1.8990 -0.4700
 9196SOL    HW239051   2.453   0.086  13.316  0.4143  1.5753  0.2374
 9197SOL     OW39052   4.720   1.741   3.012  0.1774  0.0189 -0.3898
 9197SOL    HW139053   4.670   1.693   3.078 -0.0915 -0.5577 -1.0145
 9197SOL    HW239054   0.030   1.820   3.055  1.0227 -0.3462 -0.3839
 9198SOL     OW39055   1.167   2.627   4.965 -0.1340 -0.4368 -0.1131
 9198SOL    HW139056   1.234   2.578   5.013  0.3152  0.1539 -0.1326
 9198SOL    HW239057   1.208   2.712   4.983 -3.6449  0.8361  1.7837
 9199SOL     OW39058   2.192   1.767   0.649  0.7130 -0.1200  0.5400
 9199SOL    HW139059   2.217   1.814   0.728 -0.3359 -1.2724  1.5437
 9199SOL    HW239060   2.189   1.674   0.670  0.8814 -0.2381  0.0483
 9200SOL     OW39061   2.528   0.880  12.593  0.0333  0.1087 -0.1478
 9200SOL    HW139062   2.490   0.912  12.512  0.8595  0.8886 -0.2246
 9200SOL    HW239063   2.502   0.948  12.656  0.5639  0.6932 -0.5591
 9201SOL     OW39064   1.317   4.238   3.439  0.6645  0.0237 -0.0845
 9201SOL    HW139065   1.253   4.302   3.471 -0.8117 -1.9902  0.9974
 9201SOL    HW239066   1.365   4.296   3.381  0.7640 -1.5570 -1.5712
 9202SOL     OW39067   2.102   3.214   1.051 -0.0148  0.0148  0.3074
 9202SOL    HW139068   2.166   3.281   1.027 -0.8041  1.0587  1.1525
 9202SOL    HW239069   2.020   3.243   1.012 -0.1929  1.5124  1.8100
 9203SOL     OW39070   3.748   2.248   8.859 -0.1888 -0.2005  0.5994
 9203SOL    HW139071   3.761   2.221   8.950 -1.1541 -1.5040  0.3580
 9203SOL    HW239072   3.821   2.309   8.851 -1.5196  1.4091  0.7715
 9204SOL     OW39073   4.630   4.274   3.981 -0.5192 -0.1353 -0.0946
 9204SOL    HW139074   4.644   4.346   3.920  0.2142  0.5201  0.8425
 9204SOL    HW239075   4.544   4.303   4.011 -0.3266 -2.7224  3.0114
 9205SOL     OW39076   3.481   0.964   2.582 -0.2123  0.5723 -0.3225
 9205SOL    HW139077   3.529   0.903   2.526 -1.9926 -2.3402  1.2788
 9205SOL    HW239078   3.421   1.014   2.527  0.6667  0.7617 -1.1075
 9206SOL     OW39079   0.309   4.333   9.041  0.7663  0.0459  0.5568
 9206SOL    HW139080   0.345   4.365   9.124 -0.2569 -0.0186  1.0257
 9206SOL    HW239081   0.244   4.401   9.023 -0.0181 -0.1023  2.8536
 9207SOL     OW39082   2.443   0.309   6.892 -0.0121 -0.2481 -0.2073
 9207SOL    HW139083   2.470   0.383   6.838  1.4222 -0.8303 -0.2745
 9207SOL    HW239084   2.524   0.266   6.919  1.6753  0.7406 -3.6943
 9208SOL     OW39085   1.641   2.255   4.172  0.0576  0.3165  0.0541
 9208SOL    HW139086   1.657   2.194   4.100 -2.1042  0.0911 -0.2258
 9208SOL    HW239087   1.638   2.332   4.116  1.8715  0.8511  0.6632
 9209SOL     OW39088   0.130   2.473   3.229 -0.3568  0.1527 -0.0349
 9209SOL    HW139089   0.147   2.498   3.320 -0.9926  0.7153 -0.0725
 9209SOL    HW239090   0.140   2.555   3.181  0.5966  1.2772  2.0915
 9210SOL     OW39091   3.482   3.038   8.102  0.1577  0.2083 -0.2375
 9210SOL    HW139092   3.555   3.096   8.122 -0.3465  0.3828  1.1251
 9210SOL    HW239093   3.527   2.955   8.119  1.5092  0.7332 -1.2385
 9211SOL     OW39094   2.044   2.034   9.654 -0.0304 -0.0757 -0.1021
 9211SOL    HW139095   2.040   1.993   9.740  0.1168  1.1674  0.4898
 9211SOL    HW239096   2.132   2.071   9.644 -0.5909  1.9039  2.3184
 9212SOL     OW39097   1.361   1.893   3.954 -0.7763  0.5747  0.0674
 9212SOL    HW139098   1.314   1.935   4.025  1.9952  1.5139  1.3733
 9212SOL    HW239099   1.317   1.808   3.954 -0.5437  0.4531 -0.6317
 9213SOL     OW39100   0.729   0.818   3.973 -0.2960 -0.2909 -0.1790
 9213SOL    HW139101   0.663   0.749   3.977 -0.4790 -0.0821  0.4171
 9213SOL    HW239102   0.809   0.765   3.977  0.8914  1.4019 -1.8468
 9214SOL     OW39103   0.214   4.364   3.974  0.0114 -0.0606 -0.5075
 9214SOL    HW139104   0.127   4.323   3.984 -1.5739  3.1201 -1.2444
 9214SOL    HW239105   0.254   4.350   3.889  0.8011  0.2040 -0.1765
 9215SOL     OW39106   0.507   3.120   1.060 -0.2932  0.3592 -0.6310
 9215SOL    HW139107   0.465   3.145   0.978 -0.6907  2.3382  0.1746
 9215SOL    HW239108   0.592   3.162   1.048 -0.7558  1.0267 -1.5563
 9216SOL     OW39109   0.920   2.137   5.413 -0.4563  0.0176  0.5695
 9216SOL    HW139110   0.896   2.088   5.491 -0.4154 -0.1266  0.4908
 9216SOL    HW239111   0.978   2.202   5.453  0.6427 -1.0996  0.7841
 9217SOL     OW39112   4.171   0.074   4.694  0.3140  0.2281  0.0981
 9217SOL    HW139113   4.123   0.157   4.696 -2.2629 -1.2463 -0.0105
 9217SOL    HW239114   4.117   0.009   4.740 -0.3994  1.7966  1.4674
 9218SOL     OW39115   4.447   2.546   0.112 -0.4494  0.5124  0.5292
 9218SOL    HW139116   4.439   2.453   0.136  0.5368  0.6804  1.5029
 9218SOL    HW239117   4.405   2.599   0.180 -1.1583 -0.0710  0.5476
 9219SOL     OW39118   1.084   4.126   4.491 -0.5951 -0.3476  0.5370
 9219SOL    HW139119   1.011   4.108   4.433  1.2764 -0.2301 -1.8403
 9219SOL    HW239120   1.137   4.186   4.440 -3.4598  0.7315 -1.1531
 9220SOL     OW39121   3.395   4.023   6.902 -0.4950  0.0803  0.5412
 9220SOL    HW139122   3.303   4.020   6.875  0.4372 -0.9935 -2.4941
 9220SOL    HW239123   3.430   3.965   6.835 -0.1102 -0.4365  1.1919
 9221SOL     OW39124   1.894   0.157  15.496  0.1175 -0.3800 -0.2392
 9221SOL    HW139125   1.817   0.186  15.447 -0.1042  0.6328  0.7103
 9221SOL    HW239126   1.850   0.096  15.556  1.5604  1.3555  2.5789
 9222SOL     OW39127   0.401   3.992   4.319 -0.1626  0.3431 -0.3134
 9222SOL    HW139128   0.312   4.009   4.349  0.3210  1.6722  0.3844
 9222SOL    HW239129   0.392   4.030   4.232 -0.8617  2.7401  0.8002
 9223SOL     OW39130   2.912   1.033   9.102 -0.1763  0.0715 -0.1153
 9223SOL    HW139131   2.894   1.055   9.010 -0.5841 -0.8795 -0.2588
 9223SOL    HW239132   2.861   0.952   9.100  2.6261 -1.6818 -1.0140
 9224SOL     OW39133   2.357   4.398   5.202 -0.0754  0.7489  0.3137
 9224SOL    HW139134   2.344   4.340   5.277  1.5473 -1.2460 -0.9420
 9224SOL    HW239135   2.269   4.408   5.167 -0.3705 -1.7086  0.3907
 9225SOL     OW39136   0.420   4.362  15.348  0.1999  0.2334 -0.1129
 9225SOL    HW139137   0.400   4.367  15.255  0.4786  1.4985 -0.1075
 9225SOL    HW239138   0.435   4.269  15.368  0.3759  0.7136  2.0245
 9226SOL     OW39139   2.621   3.225   2.868 -0.0569  0.0345 -0.3963
 9226SOL    HW139140   2.576   3.166   2.927  0.4887 -0.5831 -0.6021
 9226SOL    HW239141   2.659   3.287   2.930  1.9406 -2.4444  0.8442
 9227SOL     OW39142   2.511   0.129   6.099  0.4714  0.0203  0.1125
 9227SOL    HW139143   2.542   0.048   6.139  1.1619  0.4570  0.4585
 9227SOL    HW239144   2.516   0.106   6.006  2.2033  0.0659  0.1874
 9228SOL     OW39145   2.733   3.763   9.383 -0.4220 -0.0136 -0.5865
 9228SOL    HW139146   2.796   3.758   9.311  0.3742 -2.7251  0.2921
 9228SOL    HW239147   2.724   3.857   9.395  2.7361  0.1616  0.5247
 9229SOL     OW39148   4.042   3.283  13.142 -0.1832 -0.3803  0.2963
 9229SOL    HW139149   3.960   3.307  13.098  0.1402 -1.6930 -1.0090
 9229SOL    HW239150   4.050   3.188  13.132  0.3556 -0.2862 -0.1931
 9230SOL     OW39151   3.919   1.372  15.877 -0.2759  0.7267  0.0555
 9230SOL    HW139152   3.866   1.297  15.850  1.5668 -0.9276  1.0915
 9230SOL    HW239153   3.976   1.376  15.800  1.4957 -1.4133  1.2652
 9231SOL     OW39154   2.217   2.747  11.018  0.4131  0.1044  0.8175
 9231SOL    HW139155   2.203   2.836  11.050  0.2535  1.0581 -1.8373
 9231SOL    HW239156   2.221   2.695  11.097 -1.3158 -0.2950  0.6277
 9232SOL     OW39157   1.264   2.051  12.204  0.4822  0.4321 -0.5128
 9232SOL    HW139158   1.283   2.079  12.115  1.7953 -1.9986 -1.0086
 9232SOL    HW239159   1.304   2.124  12.250  1.0953  0.7926 -1.6219
 9233SOL     OW39160   2.433   1.212   6.287  0.9829  0.6557 -0.2657
 9233SOL    HW139161   2.398   1.292   6.325 -1.4244  0.2557 -1.6445
 9233SOL    HW239162   2.524   1.240   6.286  1.9578 -2.5075 -0.3521
 9234SOL     OW39163   1.789   0.799  11.361 -0.0416  0.2538  0.0986
 9234SOL    HW139164   1.776   0.850  11.441 -0.5810  0.3893 -0.0755
 9234SOL    HW239165   1.764   0.858  11.290 -2.4818  1.4057  1.9225
 9235SOL     OW39166   1.348   4.485  16.868 -0.0486  0.4647  0.0243
 9235SOL    HW139167   1.398   4.466  16.789  0.2004 -0.1342  0.3223
 9235SOL    HW239168   1.412   4.489  16.939 -0.7633 -0.6552  0.7249
 9236SOL     OW39169   0.913   0.867  14.007  0.5208  0.0277  0.0248
 9236SOL    HW139170   0.903   0.772  14.016 -0.9128  0.0718 -0.9295
 9236SOL    HW239171   0.834   0.901  14.049  0.7493  1.5363 -0.7741
 9237SOL     OW39172   1.536   0.925   0.325 -0.1903  0.1287  0.1743
 9237SOL    HW139173   1.512   0.907   0.416  1.1346 -2.9051 -0.0546
 9237SOL    HW239174   1.628   0.946   0.337 -0.1434 -0.9466  1.6869
 9238SOL     OW39175   3.112   4.647   9.851  0.6307 -0.1385 -0.1160
 9238SOL    HW139176   3.107   4.658   9.946 -1.0376  1.3117 -0.3562
 9238SOL    HW239177   3.185   4.705   9.828 -0.8425  1.1502 -1.5715
 9239SOL     OW39178   2.655   2.689   6.382  0.4076 -0.8774  0.6357
 9239SOL    HW139179   2.605   2.720   6.306 -1.1067 -1.4602  1.3981
 9239SOL    HW239180   2.653   2.594   6.373  1.3193 -0.6413 -2.1443
 9240SOL     OW39181   1.482   2.245   2.066 -0.2846  0.3740 -0.0157
 9240SOL    HW139182   1.446   2.213   1.983  1.9631  1.2747 -1.3180
 9240SOL    HW239183   1.427   2.322   2.078 -0.4441  0.4201 -1.0090
 9241SOL     OW39184   0.554   2.476   4.015  0.0656  0.1816 -0.1663
 9241SOL    HW139185   0.543   2.563   3.976 -1.1257 -0.7134 -1.8166
 9241SOL    HW239186   0.625   2.443   3.960  0.9955  1.0656  0.4945
 9242SOL     OW39187   2.152   2.429   5.714  0.0005  0.2927 -0.0220
 9242SOL    HW139188   2.191   2.362   5.657  1.9914  1.5410 -0.1141
 9242SOL    HW239189   2.228   2.468   5.758 -1.2590  2.5965  0.1037
 9243SOL     OW39190   4.690   0.597  16.664  0.0511 -0.0717  0.7708
 9243SOL    HW139191   4.688   0.552  16.749 -2.1701  0.5649  1.0633
 9243SOL    HW239192   4.598   0.620  16.648  1.0649 -0.0952 -5.0738
 9244SOL     OW39193   0.531   1.269   3.933  0.4606  0.2725 -0.0421
 9244SOL    HW139194   0.447   1.254   3.889  1.5753 -0.6502 -1.8607
 9244SOL    HW239195   0.560   1.179   3.918 -0.1520  0.3884 -1.9016
 9245SOL     OW39196   2.172   0.500   9.645  1.0582 -0.2818 -0.1312
 9245SOL    HW139197   2.136   0.516   9.558  0.1270 -0.8993  0.1441
 9245SOL    HW239198   2.192   0.591   9.667  1.1698 -0.6225  1.1934
 9246SOL     OW39199   3.887   0.607   2.936 -0.0689 -0.2529 -0.3660
 9246SOL    HW139200   3.841   0.613   2.852  2.0740 -0.2015 -1.5317
 9246SOL    HW239201   3.977   0.584   2.913 -0.1943 -0.9865 -0.1183
 9247SOL     OW39202   0.335   3.118  16.728  0.0329 -0.0333  0.1847
 9247SOL    HW139203   0.291   3.098  16.810  1.5354  3.0763  1.7460
 9247SOL    HW239204   0.417   3.163  16.750 -0.3508  0.6870  0.1020
 9248SOL     OW39205   2.992   4.716  10.818 -0.3117 -0.5397 -0.0594
 9248SOL    HW139206   2.921   4.658  10.789  0.2925 -0.8460 -0.9147
 9248SOL    HW239207   2.981   4.698  10.911 -0.3935  0.1145  0.0584
 9249SOL     OW39208   2.663   2.289   5.921  0.9991 -0.1149  0.1522
 9249SOL    HW139209   2.568   2.279   5.928  0.8795  2.1074  1.7750
 9249SOL    HW239210   2.692   2.286   6.013  2.4006  1.3431 -0.2424
 9250SOL     OW39211   0.874   1.488   6.423  0.5575 -0.1633 -0.4787
 9250SOL    HW139212   0.876   1.546   6.347 -2.5972  0.5230 -0.0189
 9250SOL    HW239213   0.907   1.413   6.373  0.0628 -0.4773 -0.3334
 9251SOL     OW39214   0.391   0.362  14.185  0.2427 -0.1196  0.1507
 9251SOL    HW139215   0.400   0.448  14.145 -1.2531  0.3841  0.9062
 9251SOL    HW239216   0.463   0.305  14.156 -0.2227 -1.7416  2.1184
 9252SOL     OW39217   4.366   4.448   3.688  0.1997 -0.3001  0.3326
 9252SOL    HW139218   4.299   4.516   3.699  0.5495 -0.0141  0.6993
 9252SOL    HW239219   4.443   4.478   3.736 -0.2398  1.2012  0.0964
 9253SOL     OW39220   2.096   1.422  13.516 -0.5687  0.4584 -0.4845
 9253SOL    HW139221   2.068   1.493  13.574 -0.0093  0.6029 -0.3859
 9253SOL    HW239222   2.017   1.421  13.462 -1.1395 -1.8791  0.4018
 9254SOL     OW39223   1.210   1.625   2.157 -0.2488 -0.2054  0.7576
 9254SOL    HW139224   1.168   1.543   2.185  2.0579 -0.0767  4.5578
 9254SOL    HW239225   1.226   1.614   2.063 -0.6933  1.4424  0.4918
 9255SOL     OW39226   4.487   1.136  10.556  0.0785  0.4094 -0.1978
 9255SOL    HW139227   4.454   1.098  10.637 -0.5163  0.2849 -0.4979
 9255SOL    HW239228   4.408   1.169  10.513 -0.6370 -1.5316 -0.3719
 9256SOL     OW39229   3.440   0.437   2.662 -0.2927 -0.3040 -0.0018
 9256SOL    HW139230   3.507   0.471   2.603 -1.2333  1.4461 -0.0735
 9256SOL    HW239231   3.480   0.461   2.746 -3.7544  2.2785  0.9188
 9257SOL     OW39232   2.495   0.514  16.801  0.0281  0.3153  0.0285
 9257SOL    HW139233   2.400   0.527  16.795  0.2825  1.6652 -0.9866
 9257SOL    HW239234   2.526   0.598  16.766 -0.6867  1.0228  1.0628
 9258SOL     OW39235   4.709   1.160   9.624  1.2144 -0.1762 -0.5007
 9258SOL    HW139236   4.658   1.213   9.562 -2.0821  0.8606  3.1023
 9258SOL    HW239237   4.669   1.074   9.611 -1.1608  0.8488 -0.0694
 9259SOL     OW39238   0.010   1.958   9.370 -0.2579  0.2917 -0.3066
 9259SOL    HW139239   4.667   1.934   9.434  0.9310  1.8541  1.5069
 9259SOL    HW239240   0.005   2.053   9.383  1.6155  0.3334 -0.0064
 9260SOL     OW39241   2.520   4.668   5.880  0.3382  0.0064  0.1403
 9260SOL    HW139242   2.458   4.693   5.812 -0.6535 -0.3332  0.9123
 9260SOL    HW239243   2.509   4.573   5.882 -0.3083  0.0765 -0.0347
 9261SOL     OW39244   0.043   1.823   5.941 -0.3549  0.0832 -0.2349
 9261SOL    HW139245   0.123   1.780   5.908 -0.0130 -2.4971  3.9399
 9261SOL    HW239246   0.006   1.839   5.855 -0.5233 -3.1169 -0.7739
 9262SOL     OW39247   3.841   0.512   8.844 -0.2171 -0.0938 -0.2596
 9262SOL    HW139248   3.885   0.568   8.780 -0.0046 -0.6349 -0.5822
 9262SOL    HW239249   3.832   0.578   8.914 -0.5666 -0.0235 -0.3707
 9263SOL     OW39250   1.461   0.787   8.812  0.3322 -0.2013  0.1987
 9263SOL    HW139251   1.498   0.756   8.895 -1.1682  0.3475  1.0798
 9263SOL    HW239252   1.539   0.799   8.759 -0.2842 -1.4057 -0.9723
 9264SOL     OW39253   4.168   2.891   0.536  0.0108  0.3325 -0.0356
 9264SOL    HW139254   4.094   2.841   0.569  0.7735 -0.7656  0.0027
 9264SOL    HW239255   4.137   2.980   0.553  0.6338  0.0851  2.2941
 9265SOL     OW39256   3.362   3.936   1.790  0.0865  0.3706  0.2012
 9265SOL    HW139257   3.307   3.897   1.722  1.3099 -0.5896 -0.2500
 9265SOL    HW239258   3.437   3.878   1.773 -0.7978 -0.5490 -0.5209
 9266SOL     OW39259   0.435   1.344   5.807  0.3493 -0.3542 -0.3400
 9266SOL    HW139260   0.414   1.305   5.892  1.3891 -0.7714 -0.2700
 9266SOL    HW239261   0.446   1.260   5.761 -2.9104 -0.4612 -0.9130
 9267SOL     OW39262   1.240   2.661   7.313  0.1695 -0.3529 -0.1510
 9267SOL    HW139263   1.182   2.615   7.253  1.0082 -0.6131 -0.7664
 9267SOL    HW239264   1.319   2.610   7.292  1.8957  1.6302  1.5370
 9268SOL     OW39265   4.269   0.832  11.603 -0.9302  0.1766 -0.2284
 9268SOL    HW139266   4.189   0.797  11.561 -0.5035 -2.0085  0.7787
 9268SOL    HW239267   4.331   0.759  11.599 -0.7147  0.2010  2.9300
 9269SOL     OW39268   0.837   3.639  10.459 -0.5074 -0.5133 -0.1898
 9269SOL    HW139269   0.818   3.730  10.438  0.4063 -0.6532 -1.5900
 9269SOL    HW239270   0.819   3.635  10.553 -0.0788  0.8793 -0.0559
 9270SOL     OW39271   0.871   3.823  14.764  0.2079 -0.3781  0.3540
 9270SOL    HW139272   0.962   3.833  14.790  0.6788 -2.6574 -0.3938
 9270SOL    HW239273   0.862   3.898  14.705 -0.0997 -0.2938  0.5056
 9271SOL     OW39274   3.319   0.698  17.476 -0.9565 -0.2490 -0.1566
 9271SOL    HW139275   3.338   0.790  17.456  0.5858 -0.0217  2.4471
 9271SOL    HW239276   3.227   0.705  17.501 -0.8982  1.1747 -0.3371
 9272SOL     OW39277   3.087   2.325  14.188 -0.0354 -0.6216  0.6547
 9272SOL    HW139278   3.072   2.415  14.158 -0.3446 -1.2016 -0.9428
 9272SOL    HW239279   3.052   2.322  14.277 -1.0097  2.2022  0.3583
 9273SOL     OW39280   2.684   1.118   4.290 -0.1496 -0.1850  0.4646
 9273SOL    HW139281   2.660   1.030   4.320 -0.4251 -0.5885 -0.9491
 9273SOL    HW239282   2.671   1.168   4.371  0.5150 -0.1429  0.5414
 9274SOL     OW39283   2.687   4.195  12.126  0.0204  0.1844  0.4761
 9274SOL    HW139284   2.777   4.170  12.145 -1.0434 -3.0394  1.4355
 9274SOL    HW239285   2.700   4.262  12.059 -0.1540  0.9584  1.2145
 9275SOL     OW39286   0.485   4.105   7.044  0.3944 -0.1557 -0.5554
 9275SOL    HW139287   0.465   4.016   7.013 -2.5284  0.0018  0.8651
 9275SOL    HW239288   0.580   4.109   7.050  0.4787 -2.5182 -0.0973
 9276SOL     OW39289   3.510   3.657   7.875 -0.1903 -0.5198  0.1606
 9276SOL    HW139290   3.575   3.589   7.895 -1.2691 -1.1818  1.3754
 9276SOL    HW239291   3.516   3.670   7.780  0.2367 -3.3280 -0.1762
 9277SOL     OW39292   0.690   2.854  16.579 -0.1473 -0.0135 -0.1774
 9277SOL    HW139293   0.718   2.910  16.651 -1.1830  1.0441 -0.5981
 9277SOL    HW239294   0.596   2.853  16.596 -0.2198 -0.7461 -0.6060
 9278SOL     OW39295   1.511   1.960   4.489 -0.1927  0.0717 -0.7347
 9278SOL    HW139296   1.497   2.050   4.457 -0.8790  1.3980  3.2875
 9278SOL    HW239297   1.582   1.982   4.549 -0.7457 -0.0267 -0.0467
 9279SOL     OW39298   3.030   4.251   3.366  0.4800 -0.1797  0.2803
 9279SOL    HW139299   2.942   4.289   3.358 -0.7378 -2.8369  0.9708
 9279SOL    HW239300   3.007   4.201   3.444  0.2892  2.6654  2.0791
 9280SOL     OW39301   0.649   3.800  17.154  0.3258 -0.2279 -0.1636
 9280SOL    HW139302   0.650   3.708  17.181  1.0773 -0.2886 -0.4215
 9280SOL    HW239303   0.710   3.793  17.081  0.4128 -2.2456  0.0975
 9281SOL     OW39304   0.902   0.533  10.089 -0.5649  0.0695 -0.0169
 9281SOL    HW139305   0.929   0.605  10.146  0.1884  1.2868 -1.9282
 9281SOL    HW239306   0.882   0.462  10.150 -2.2453  0.0204 -0.6288
 9282SOL     OW39307   4.698   0.018   9.172  0.3408 -0.3183 -0.5100
 9282SOL    HW139308   4.605   0.003   9.191  0.4934 -0.7690 -0.1269
 9282SOL    HW239309   4.683   0.080   9.101 -1.5683 -0.6424 -0.3930
 9283SOL     OW39310   3.730   2.912   1.053  0.2575 -0.4016 -0.1748
 9283SOL    HW139311   3.743   2.944   1.142 -3.6400  2.0087 -0.4554
 9283SOL    HW239312   3.654   2.855   1.068  1.4505 -2.2577 -1.1724
 9284SOL     OW39313   4.303   4.240   8.437 -0.4236 -0.6218 -0.4774
 9284SOL    HW139314   4.255   4.158   8.447 -1.9750 -0.0408 -3.0675
 9284SOL    HW239315   4.383   4.230   8.487 -1.0010  1.0459  0.7927
 9285SOL     OW39316   3.036   4.182  13.089 -0.4237  0.2531 -0.1536
 9285SOL    HW139317   3.057   4.153  13.178  1.4741 -1.0469 -1.0220
 9285SOL    HW239318   3.114   4.154  13.041  1.2796  2.8068  1.1485
 9286SOL     OW39319   1.314   0.960   8.567 -0.0491 -0.3916  0.0432
 9286SOL    HW139320   1.311   0.864   8.572  0.1952 -0.4252 -0.4326
 9286SOL    HW239321   1.360   0.963   8.483  0.2082 -1.7624  0.1243
 9287SOL     OW39322   3.970   4.248   7.313 -0.5924  0.1080  0.0326
 9287SOL    HW139323   4.022   4.295   7.377  0.6286  0.1839 -1.0147
 9287SOL    HW239324   4.013   4.163   7.317  0.7398  0.7123 -1.8679
 9288SOL     OW39325   4.544   3.867   2.920 -0.1087 -0.0548  0.2995
 9288SOL    HW139326   4.506   3.937   2.974 -1.3939 -0.2848 -0.3062
 9288SOL    HW239327   4.548   3.912   2.835  1.4906 -2.2390 -0.7544
 9289SOL     OW39328   2.440   2.497  10.400 -0.0152 -0.5713 -0.1542
 9289SOL    HW139329   2.531   2.525  10.412  0.3047 -2.8263  2.7987
 9289SOL    HW239330   2.404   2.504  10.488 -1.3653  2.3164 -0.9366
 9290SOL     OW39331   2.157   2.526   7.470  0.1531  0.2442  0.4276
 9290SOL    HW139332   2.144   2.621   7.477  1.2948  0.4087  0.2317
 9290SOL    HW239333   2.093   2.490   7.532 -0.7693 -0.6355 -1.0530
 9291SOL     OW39334   1.614   1.992   6.048 -0.3956 -0.1872 -0.1784
 9291SOL    HW139335   1.583   2.062   6.105 -0.5635 -1.5136  1.3357
 9291SOL    HW239336   1.651   2.040   5.973  0.5287 -0.3203  0.1936
 9292SOL     OW39337   2.568   1.891   2.859 -0.4571 -0.2013 -0.3365
 9292SOL    HW139338   2.609   1.855   2.938  0.2142 -2.8623 -1.9205
 9292SOL    HW239339   2.625   1.968   2.856  0.8102 -1.1893 -1.2491
 9293SOL     OW39340   1.880   2.229   5.257 -0.1611 -0.3135 -0.1784
 9293SOL    HW139341   1.919   2.313   5.279  0.2145 -0.7989  1.0452
 9293SOL    HW239342   1.957   2.182   5.224  1.4828  2.0724  0.2361
 9294SOL     OW39343   0.598   2.990   1.679  0.2953 -0.0506 -0.1197
 9294SOL    HW139344   0.603   2.968   1.772  0.0496  1.1338  0.1721
 9294SOL    HW239345   0.662   2.927   1.646 -1.6272 -2.3236  0.4604
 9295SOL     OW39346   2.005   4.045   4.878 -0.5442  0.4748 -0.2702
 9295SOL    HW139347   2.037   4.037   4.788  1.7697 -1.4988  0.7284
 9295SOL    HW239348   2.047   3.969   4.918  1.3706  2.0521  0.6810
 9296SOL     OW39349   4.387   0.829  17.554 -0.2518  0.3802  0.2150
 9296SOL    HW139350   4.460   0.823  17.615 -1.2459 -3.2718  1.0881
 9296SOL    HW239351   4.347   0.914  17.576  0.7526  1.4200 -2.0195
 9297SOL     OW39352   0.510   4.176   5.634 -0.2785  0.2746  0.0075
 9297SOL    HW139353   0.432   4.167   5.688 -0.4401 -2.5927 -0.7015
 9297SOL    HW239354   0.568   4.218   5.697 -0.3182  0.5604 -0.1457
 9298SOL     OW39355   3.059   2.680   0.001  0.0656 -0.6279  0.1634
 9298SOL    HW139356   3.043   2.773   0.020 -3.3393 -0.5040 -3.2642
 9298SOL    HW239357   2.988   2.654  17.640  0.0736  1.4959 -0.8182
 9299SOL     OW39358   0.846   1.672   1.782  0.1095  0.0601 -0.2927
 9299SOL    HW139359   0.818   1.586   1.813  0.9807  0.4665  1.6054
 9299SOL    HW239360   0.776   1.730   1.812 -1.3798 -0.6100 -2.4550
 9300SOL     OW39361   0.564   2.408   5.294  0.8448 -0.4553 -0.1659
 9300SOL    HW139362   0.592   2.319   5.316  0.2062 -0.0475  2.2861
 9300SOL    HW239363   0.565   2.402   5.198  0.3429 -2.8152 -0.0062
 9301SOL     OW39364   3.255   3.525   5.250  0.3784  0.4250  0.0295
 9301SOL    HW139365   3.227   3.435   5.269  0.1567  0.0499 -2.0634
 9301SOL    HW239366   3.348   3.515   5.231  0.1823 -0.5056 -0.4272
 9302SOL     OW39367   2.686   1.942   3.546 -0.0982 -0.1337 -0.1665
 9302SOL    HW139368   2.757   2.000   3.574  0.3202 -1.2949  1.1634
 9302SOL    HW239369   2.728   1.894   3.475  1.0119  1.2772 -0.4776
 9303SOL     OW39370   0.545   2.832  16.121 -0.3580  0.1858  0.3935
 9303SOL    HW139371   0.606   2.888  16.169  1.7257 -0.0288 -2.0632
 9303SOL    HW239372   0.516   2.769  16.187  0.6281 -0.1992  0.4422
 9304SOL     OW39373   3.749   3.726   2.512 -0.5070 -0.1988  0.2865
 9304SOL    HW139374   3.831   3.708   2.467 -1.2406 -2.1575 -0.2661
 9304SOL    HW239375   3.782   3.782   2.582 -1.9183  0.4283  0.4574
 9305SOL     OW39376   1.609   4.474  16.323  0.3691 -0.3725  0.3938
 9305SOL    HW139377   1.583   4.545  16.383  1.4793 -0.2030  0.6878
 9305SOL    HW239378   1.531   4.472  16.268  1.0640 -0.1263 -0.5900
 9306SOL     OW39379   4.698   1.942   6.199 -0.0148  0.6431 -0.0336
 9306SOL    HW139380   4.702   1.903   6.112 -1.2714 -0.2823  0.3318
 9306SOL    HW239381   0.009   2.030   6.186 -2.2627  1.5905  0.3854
 9307SOL     OW39382   2.716   2.770   5.402  0.2760 -0.5596  0.3283
 9307SOL    HW139383   2.805   2.784   5.368 -0.4762  2.3852 -0.3870
 9307SOL    HW239384   2.686   2.689   5.360  1.7606 -2.1768  2.3911
 9308SOL     OW39385   1.632   2.020   8.220  0.2238 -0.1626  0.3870
 9308SOL    HW139386   1.677   2.102   8.200  0.9769 -0.9849 -1.2712
 9308SOL    HW239387   1.581   2.010   8.140 -0.1736  1.5064  0.4315
 9309SOL     OW39388   0.192   1.175  13.846 -0.3202 -0.3393 -0.1229
 9309SOL    HW139389   0.275   1.224  13.842  1.5885 -3.2543  4.0219
 9309SOL    HW239390   0.205   1.107  13.913  2.1248 -0.2378 -0.4983
 9310SOL     OW39391   3.313   4.274   7.031 -0.1969 -0.3553  0.2419
 9310SOL    HW139392   3.367   4.353   7.036 -1.5152  0.3473  3.0178
 9310SOL    HW239393   3.286   4.266   6.939 -2.9530  0.0621  1.0178
 9311SOL     OW39394   3.206   3.719  15.432 -0.5755  0.3474  0.0903
 9311SOL    HW139395   3.187   3.628  15.410 -1.2059  0.1797  1.3007
 9311SOL    HW239396   3.132   3.754  15.384 -1.1221  1.4769  1.7663
 9312SOL     OW39397   1.303   2.543   9.043  0.1325 -0.2735  0.7457
 9312SOL    HW139398   1.239   2.472   9.038 -0.1918  0.0139  0.7951
 9312SOL    HW239399   1.383   2.499   9.017  0.7393  1.4870 -0.3321
 9313SOL     OW39400   2.275   2.209   4.346  0.2106 -0.3227 -0.5108
 9313SOL    HW139401   2.231   2.138   4.299 -0.5752 -0.8826  1.0705
 9313SOL    HW239402   2.356   2.213   4.294 -0.5499 -3.5700 -1.9258
 9314SOL     OW39403   3.971   2.588   8.404  0.1939 -0.3806  0.4444
 9314SOL    HW139404   3.946   2.650   8.335 -0.6626  0.3116  1.3832
 9314SOL    HW239405   3.897   2.529   8.414  0.1459 -0.4602 -0.3556
 9315SOL     OW39406   1.193   2.645  14.976  0.1386 -0.0377 -0.1676
 9315SOL    HW139407   1.223   2.709  14.911 -0.4828  0.1541 -0.2730
 9315SOL    HW239408   1.278   2.614  15.006  0.0323 -1.7572 -1.6294
 9316SOL     OW39409   4.641   1.194   3.720 -0.3797  0.2490 -0.3362
 9316SOL    HW139410   4.660   1.103   3.742  0.2914  0.4813  0.0384
 9316SOL    HW239411   4.716   1.218   3.665  0.9794 -0.4957  1.1702
 9317SOL     OW39412   2.914   3.736   9.172 -0.3441  0.1165 -0.0495
 9317SOL    HW139413   2.898   3.829   9.157 -1.8061  0.0263  0.9445
 9317SOL    HW239414   3.009   3.730   9.179 -0.2278  2.3303  0.3404
 9318SOL     OW39415   3.413   3.561  12.675 -0.3397 -0.6427  0.0415
 9318SOL    HW139416   3.407   3.655  12.697 -0.3558 -0.6147 -0.0816
 9318SOL    HW239417   3.498   3.531  12.706  0.4561  3.1104  1.5983
 9319SOL     OW39418   3.540   2.738   2.326 -0.0504 -0.0446 -0.3159
 9319SOL    HW139419   3.622   2.707   2.363 -0.0350  1.4004  0.8749
 9319SOL    HW239420   3.553   2.832   2.310 -3.0337  0.3655 -0.3287
 9320SOL     OW39421   1.723   1.900   3.546  0.1700  0.2150 -0.0016
 9320SOL    HW139422   1.806   1.927   3.586  0.1607  2.1331 -1.2595
 9320SOL    HW239423   1.723   1.957   3.470  0.2376 -1.3934 -1.1978
 9321SOL     OW39424   0.353   0.037   5.842  0.2896 -0.4105 -0.7832
 9321SOL    HW139425   0.321   0.123   5.870  1.6142  0.2243 -1.2182
 9321SOL    HW239426   0.281   4.712   5.881 -0.0668  0.2900 -0.5570
 9322SOL     OW39427   4.293   3.535   3.977 -0.1846  0.1649  0.7992
 9322SOL    HW139428   4.272   3.463   3.918 -0.1043 -1.0924  2.3153
 9322SOL    HW239429   4.330   3.598   3.914 -1.6722  0.9746  0.7287
 9323SOL     OW39430   4.721   3.498   3.829 -0.0228  0.2598  0.4200
 9323SOL    HW139431   0.043   3.414   3.825  1.3260  0.9637  1.1359
 9323SOL    HW239432   0.067   3.555   3.861 -0.7484  1.2728  0.2131
 9324SOL     OW39433   2.426   3.108   7.957  0.0425 -0.4220 -0.3532
 9324SOL    HW139434   2.415   3.168   8.030  3.8326  0.3470 -0.4328
 9324SOL    HW239435   2.511   3.143   7.928  0.4314 -1.6603 -0.7036
 9325SOL     OW39436   3.488   3.903   8.413  0.4880 -0.3416 -0.3753
 9325SOL    HW139437   3.487   3.975   8.351 -2.2451  0.7254  0.9141
 9325SOL    HW239438   3.399   3.904   8.447 -0.6776  1.2426 -3.5673
 9326SOL     OW39439   4.006   4.114   4.307 -0.1449 -0.2648 -0.2582
 9326SOL    HW139440   4.076   4.171   4.339  1.3007 -1.2075 -1.7109
 9326SOL    HW239441   3.965   4.167   4.238  0.7003 -0.5167 -0.9542
 9327SOL     OW39442   1.520   4.506   5.170 -0.1615  0.8171 -0.2543
 9327SOL    HW139443   1.426   4.523   5.172 -0.5067 -0.9349 -1.7445
 9327SOL    HW239444   1.532   4.439   5.238  0.6496  0.7294 -0.4827
 9328SOL     OW39445   0.160   2.916   5.296 -0.1727 -0.3109  0.0963
 9328SOL    HW139446   0.225   2.864   5.248 -0.6590 -0.7581 -0.0718
 9328SOL    HW239447   0.149   2.869   5.379 -0.4685  1.1073  0.8613
 9329SOL     OW39448   1.013   0.331   6.344  0.2867 -0.2743 -0.6965
 9329SOL    HW139449   1.021   0.414   6.391  2.3201 -2.2453  2.4556
 9329SOL    HW239450   1.106   0.307   6.350  0.2586 -0.4704 -1.0742
 9330SOL     OW39451   1.455   4.349   7.396  0.3127 -0.3684  0.8774
 9330SOL    HW139452   1.426   4.395   7.318  4.2828 -1.2181 -1.0966
 9330SOL    HW239453   1.548   4.366   7.387  0.1788  0.9028  1.8809
 9331SOL     OW39454   4.412   0.446  15.428 -0.4608  0.0850  0.1614
 9331SOL    HW139455   4.345   0.392  15.470  0.5140 -1.2894 -0.0146
 9331SOL    HW239456   4.353   0.490  15.367 -1.1796  1.2875  1.7293
 9332SOL     OW39457   4.335   2.292   6.771  0.9897 -0.1739 -0.7122
 9332SOL    HW139458   4.322   2.210   6.723 -0.1063 -1.7364  2.2241
 9332SOL    HW239459   4.266   2.344   6.732  1.5743  0.1348 -1.3296
 9333SOL     OW39460   1.701   4.551  14.193 -0.2216  0.7098  0.2567
 9333SOL    HW139461   1.751   4.576  14.271 -1.4230 -1.0286  1.6009
 9333SOL    HW239462   1.621   4.520  14.236  1.3060  1.2256  3.4720
 9334SOL     OW39463   3.889   0.301  15.823 -0.2657  0.0419 -0.0726
 9334SOL    HW139464   3.965   0.357  15.838  0.1949 -0.6753  0.3076
 9334SOL    HW239465   3.884   0.302  15.727  2.7234  3.7110 -0.2199
 9335SOL     OW39466   4.200   2.692  17.650  0.2718  0.4782  0.2325
 9335SOL    HW139467   4.169   2.762   0.010  1.5150  1.7939 -0.7166
 9335SOL    HW239468   4.206   2.618   0.013 -2.4392  0.2615  0.2220
 9336SOL     OW39469   2.394   4.418   4.292 -0.3209  0.0791  0.2150
 9336SOL    HW139470   2.482   4.385   4.307  0.0562 -0.2314 -2.7396
 9336SOL    HW239471   2.362   4.353   4.230  2.0443  1.0158 -1.9748
 9337SOL     OW39472   2.959   0.920   8.693 -0.1357  0.7341  0.4580
 9337SOL    HW139473   3.046   0.950   8.669 -0.1730 -0.1857 -0.7751
 9337SOL    HW239474   2.984   0.828   8.699 -0.4941  0.6508  0.7142
 9338SOL     OW39475   3.148   0.988  13.001  0.3168 -0.7378 -0.0799
 9338SOL    HW139476   3.244   0.981  13.002  0.5107  2.2501  0.3207
 9338SOL    HW239477   3.130   1.049  13.072  0.6009 -1.3148  0.4960
 9339SOL     OW39478   0.020   3.965   6.950  0.4704 -0.1895 -0.2643
 9339SOL    HW139479   0.050   3.918   6.873  0.5165  1.2861 -1.1409
 9339SOL    HW239480   4.663   4.001   6.915  2.2423  2.9497 -1.1599
 9340SOL     OW39481   3.406   4.439   4.520 -0.0909 -0.8131  1.1112
 9340SOL    HW139482   3.312   4.435   4.539 -0.1884  0.1234  0.8528
 9340SOL    HW239483   3.444   4.460   4.606 -0.6017 -0.2963  1.2182
 9341SOL     OW39484   1.247   0.280   7.746  0.3161 -0.5041 -0.0315
 9341SOL    HW139485   1.206   0.249   7.665  1.1328 -0.6857 -0.3756
 9341SOL    HW239486   1.335   0.261   7.715 -0.1171  0.7184 -2.0221
 9342SOL     OW39487   1.794   2.679   5.089  0.0347 -0.7426 -0.0904
 9342SOL    HW139488   1.780   2.763   5.044 -0.1039 -1.8849 -2.1380
 9342SOL    HW239489   1.814   2.713   5.176 -0.2069  0.1718 -0.3906
 9343SOL     OW39490   1.286   3.874   3.845  0.1020 -0.0568 -0.2193
 9343SOL    HW139491   1.244   3.914   3.769 -1.4897 -1.1026  0.0969
 9343SOL    HW239492   1.266   3.781   3.839 -1.5342  0.2558  0.3791
 9344SOL     OW39493   3.976   4.616   8.575 -0.2118 -0.3055  0.0257
 9344SOL    HW139494   4.002   4.574   8.493  0.6650 -1.1142  0.7275
 9344SOL    HW239495   4.045   4.577   8.629 -1.0650  0.0243  1.3719
 9345SOL     OW39496   4.560   0.653   9.314 -0.1987  0.3275 -0.1639
 9345SOL    HW139497   4.473   0.621   9.338  0.7772 -1.2383  1.3003
 9345SOL    HW239498   4.612   0.618   9.387 -1.2361  0.6585  0.7158
 9346SOL     OW39499   0.692   2.275   3.065  0.0334  0.4494  0.1480
 9346SOL    HW139500   0.781   2.304   3.086  1.1001 -2.2507 -0.7282
 9346SOL    HW239501   0.681   2.307   2.975  3.0085 -0.5576 -0.5733
 9347SOL     OW39502   2.357   1.140   3.783 -0.1415  0.0851 -0.2866
 9347SOL    HW139503   2.313   1.225   3.784 -0.2229  0.0560 -1.5054
 9347SOL    HW239504   2.443   1.172   3.757  2.1840 -2.8477  3.7226
 9348SOL     OW39505   2.442   4.256  10.201  0.3434  0.4099 -0.2470
 9348SOL    HW139506   2.454   4.176  10.149  0.0490  2.0934 -2.8971
 9348SOL    HW239507   2.528   4.269  10.240  0.1895  0.0340  0.2106
 9349SOL     OW39508   3.937   2.660   2.440  0.2669 -0.6837  0.5251
 9349SOL    HW139509   3.867   2.605   2.405 -0.2379 -0.5890  1.3945
 9349SOL    HW239510   3.891   2.699   2.514  1.3870 -3.0627  2.4527
 9350SOL     OW39511   4.083   4.040  11.070 -0.5657 -0.5784  0.4132
 9350SOL    HW139512   4.043   3.976  11.129 -3.5595  0.7547 -0.1915
 9350SOL    HW239513   4.174   4.046  11.098 -0.9750  0.7804  1.4401
 9351SOL     OW39514   1.629   1.800   0.663 -0.2342  0.0227  0.4683
 9351SOL    HW139515   1.673   1.754   0.591 -2.4748 -1.2353 -0.1226
 9351SOL    HW239516   1.666   1.888   0.656 -0.1957 -0.0845 -0.7515
 9352SOL     OW39517   2.953   3.237   3.113  0.1495 -0.6559  0.5165
 9352SOL    HW139518   3.031   3.264   3.065 -0.4472 -2.5017 -1.5162
 9352SOL    HW239519   2.899   3.308   3.079  0.2681 -1.4855 -1.4064
 9353SOL     OW39520   3.403   2.452  10.008  0.2583  0.0394 -0.6250
 9353SOL    HW139521   3.464   2.387   9.975 -0.1391 -0.2598 -0.7791
 9353SOL    HW239522   3.421   2.530   9.956 -0.2923  0.9133  0.4834
 9354SOL     OW39523   3.317   3.786   9.000 -0.0660  0.0707  0.0580
 9354SOL    HW139524   3.384   3.831   9.050 -1.3628  2.2796 -0.2078
 9354SOL    HW239525   3.361   3.745   8.925 -0.2947 -0.1665  0.0486
 9355SOL     OW39526   3.080   3.020   8.026  0.7845 -0.3743  0.1978
 9355SOL    HW139527   3.133   2.941   8.035 -0.7060 -1.5596 -1.5521
 9355SOL    HW239528   3.101   3.067   8.107  0.9696 -0.6154  0.2872
 9356SOL     OW39529   3.083   2.894   7.073  0.6364 -0.0508  0.2277
 9356SOL    HW139530   3.062   2.964   7.135  1.2244  1.1608 -0.9518
 9356SOL    HW239531   3.007   2.835   7.076  0.5652 -0.1442 -3.2210
 9357SOL     OW39532   1.155   1.337  17.103 -0.5167  0.5265  0.6796
 9357SOL    HW139533   1.110   1.314  17.022  1.9547 -1.1598 -0.2085
 9357SOL    HW239534   1.161   1.253  17.148 -0.5157  1.2239  1.9826
 9358SOL     OW39535   1.481   1.779   7.072 -0.2900 -0.1439  0.3190
 9358SOL    HW139536   1.502   1.829   6.993  0.5798 -0.3855  0.3993
 9358SOL    HW239537   1.561   1.785   7.122  0.6477  1.2081 -1.3512
 9359SOL     OW39538   1.249   4.288  11.757 -0.4133 -0.0836  0.2125
 9359SOL    HW139539   1.304   4.210  11.743  1.1366  0.5643  2.8481
 9359SOL    HW239540   1.306   4.362  11.739  0.0003 -0.4132  0.1519
 9360SOL     OW39541   4.558   1.569  14.223 -0.1682 -0.2780 -0.4755
 9360SOL    HW139542   4.548   1.620  14.304  0.1127 -0.1101 -0.5473
 9360SOL    HW239543   4.483   1.510  14.222 -0.8115  0.5172  1.3007
 9361SOL     OW39544   4.706   0.415  10.265  0.0217  0.0831 -0.1150
 9361SOL    HW139545   4.682   0.360  10.190  0.8798 -1.2607  0.5961
 9361SOL    HW239546   0.042   0.357  10.312  0.4920 -0.2028 -1.0733
 9362SOL     OW39547   3.530   0.271   1.845  0.1480  0.2120  0.4417
 9362SOL    HW139548   3.439   0.300   1.854 -0.2140 -0.8469  0.1312
 9362SOL    HW239549   3.546   0.288   1.753  0.6888 -0.7392  0.3583
 9363SOL     OW39550   1.426   2.154   6.430 -0.3234 -0.0721  0.5234
 9363SOL    HW139551   1.369   2.111   6.494  0.5512  1.0708  2.0832
 9363SOL    HW239552   1.507   2.178   6.476 -0.2718 -2.3738  1.6058
 9364SOL     OW39553   1.128   2.718   5.915  0.4255  0.2000  0.3806
 9364SOL    HW139554   1.071   2.795   5.923  0.2401  0.0368  0.6240
 9364SOL    HW239555   1.151   2.703   6.006  1.0594  0.7607  0.3120
 9365SOL     OW39556   0.548   3.554  16.932 -0.4805  0.5375  0.2158
 9365SOL    HW139557   0.631   3.523  16.895 -1.8419 -1.5519 -1.0072
 9365SOL    HW239558   0.522   3.622  16.871 -2.0898  0.2589  0.6097
 9366SOL     OW39559   4.190   3.374  11.947 -0.0730 -0.2160  0.1127
 9366SOL    HW139560   4.140   3.450  11.979 -1.2960 -1.1766  0.4948
 9366SOL    HW239561   4.140   3.355  11.868 -0.1646  0.7340 -0.0663
 9367SOL     OW39562   1.195   0.494   2.005 -0.1128  0.6730 -0.4074
 9367SOL    HW139563   1.194   0.399   2.008  1.5083  0.6171 -1.3604
 9367SOL    HW239564   1.279   0.518   1.965  0.7211 -1.2684  0.1653
 9368SOL     OW39565   1.627   0.966   4.053  0.3278 -0.8456  0.0041
 9368SOL    HW139566   1.723   0.962   4.054  0.4016  0.7555 -0.0691
 9368SOL    HW239567   1.613   1.057   4.026 -1.1954 -1.3152 -0.7759
 9369SOL     OW39568   4.272   1.794  12.764  0.1199  0.4939 -0.4945
 9369SOL    HW139569   4.251   1.871  12.816 -1.0018  0.1855 -0.4990
 9369SOL    HW239570   4.216   1.730  12.808  0.6836  0.5299  0.2876
 9370SOL     OW39571   2.398   2.241   5.278  0.7767  0.6517  0.0020
 9370SOL    HW139572   2.340   2.281   5.213 -0.5046 -0.6384  0.3676
 9370SOL    HW239573   2.332   2.216   5.342 -0.4400  2.5107 -0.5271
 9371SOL     OW39574   3.522   1.739  12.492  0.2502  0.3234  0.0955
 9371SOL    HW139575   3.609   1.776  12.479  1.2704 -1.1492  2.7016
 9371SOL    HW239576   3.467   1.809  12.456  0.4209 -0.1641 -1.1342
 9372SOL     OW39577   4.164   0.111   4.982 -0.0068 -0.0287 -0.0846
 9372SOL    HW139578   4.101   0.059   4.932 -1.1322 -0.0563  1.3543
 9372SOL    HW239579   4.138   0.082   5.069  0.0216 -0.2852 -0.1609
 9373SOL     OW39580   3.627   2.485   7.274 -0.1152  0.0167  0.5174
 9373SOL    HW139581   3.661   2.486   7.364 -0.2943 -0.3726  0.5923
 9373SOL    HW239582   3.559   2.552   7.279 -2.2996 -2.1275 -0.3174
 9374SOL     OW39583   1.463   4.280  15.847  0.1006  0.1237 -0.1623
 9374SOL    HW139584   1.482   4.233  15.766  1.8393  1.9017 -0.7607
 9374SOL    HW239585   1.459   4.210  15.913  1.3184  0.8778  0.7058
 9375SOL     OW39586   0.064   0.512   4.933  0.3503 -0.4426  0.0907
 9375SOL    HW139587   0.142   0.457   4.923  1.1000  0.5410  0.6107
 9375SOL    HW239588   0.104   0.576   4.991 -1.1119 -0.8589  1.5701
 9376SOL     OW39589   2.251   2.014  17.184 -0.5221  0.1343 -0.3251
 9376SOL    HW139590   2.344   2.037  17.194 -0.5570 -0.3212  1.1128
 9376SOL    HW239591   2.256   1.957  17.108 -0.6778 -1.5518  0.9197
 9377SOL     OW39592   1.257   0.264  16.197  0.4397  0.2205  0.1516
 9377SOL    HW139593   1.312   0.317  16.256 -1.9210 -0.3179  2.8763
 9377SOL    HW239594   1.250   0.326  16.125 -0.5751 -2.2460 -1.8372
 9378SOL     OW39595   3.227   4.668   5.494  0.5294 -0.3135  0.1008
 9378SOL    HW139596   3.132   4.684   5.489  0.4717 -0.6067  0.2576
 9378SOL    HW239597   3.235   4.589   5.441  0.7522  0.5030 -1.0998
 9379SOL     OW39598   1.978   3.038   8.537 -0.2337  0.1650  0.3176
 9379SOL    HW139599   2.029   3.084   8.604 -1.6858  1.2303  0.6775
 9379SOL    HW239600   1.951   2.958   8.582 -0.9144  0.8787  1.1819
 9380SOL     OW39601   1.565   1.106  13.291 -0.5428  0.0994 -0.5723
 9380SOL    HW139602   1.478   1.067  13.301  0.0093 -0.4641  2.0598
 9380SOL    HW239603   1.622   1.031  13.275 -0.1467  0.1408  0.6551
 9381SOL     OW39604   3.280   2.956   2.425 -0.3736  0.4044 -0.5408
 9381SOL    HW139605   3.358   3.011   2.418  0.5166 -0.8902 -0.9368
 9381SOL    HW239606   3.283   2.922   2.335  0.8190 -0.3518 -0.2242
 9382SOL     OW39607   0.183   2.599  11.815 -0.3296 -0.6216  0.2771
 9382SOL    HW139608   0.253   2.584  11.878  0.7924  0.3251 -0.7444
 9382SOL    HW239609   0.204   2.527  11.756 -0.8813 -1.9934  1.7404
 9383SOL     OW39610   3.583   0.406   1.353 -0.3483  0.3282 -0.4909
 9383SOL    HW139611   3.650   0.430   1.288  0.1500 -3.6210 -1.4178
 9383SOL    HW239612   3.574   0.490   1.398 -0.4676  1.3432 -2.4059
 9384SOL     OW39613   3.109   0.363  14.045  0.1685  0.5016  0.4249
 9384SOL    HW139614   3.035   0.401  14.091  0.1578  0.0114  0.8150
 9384SOL    HW239615   3.156   0.440  14.013  1.0190 -0.3845 -0.4622
 9385SOL     OW39616   3.105   4.079  13.326 -0.4975 -1.0065 -0.4471
 9385SOL    HW139617   3.200   4.092  13.323 -0.9195  2.2372  0.2988
 9385SOL    HW239618   3.077   4.121  13.407  1.3658 -0.2516 -0.2074
 9386SOL     OW39619   4.364   1.349   7.575  0.1923  0.3931 -0.6533
 9386SOL    HW139620   4.368   1.304   7.659 -0.0691  1.6883  0.0595
 9386SOL    HW239621   4.448   1.324   7.537  0.3008 -0.8048  0.3965
 9387SOL     OW39622   0.718   3.434   3.030 -0.0380  0.4380  0.6978
 9387SOL    HW139623   0.626   3.456   3.042 -0.5031 -1.2690  0.2950
 9387SOL    HW239624   0.765   3.515   3.048 -0.3199  0.3853  1.6610
 9388SOL     OW39625   1.074   4.309  11.215 -0.4377  0.6550 -0.2960
 9388SOL    HW139626   1.134   4.355  11.273  0.2245  0.5717 -0.9138
 9388SOL    HW239627   1.081   4.222  11.255 -1.1450  1.2388  1.0802
 9389SOL     OW39628   4.381   1.470  13.603  0.3139  0.2308  0.3146
 9389SOL    HW139629   4.424   1.555  13.611  0.2300  0.2085  1.0479
 9389SOL    HW239630   4.453   1.408  13.612  1.0767  0.9911 -0.5526
 9390SOL     OW39631   0.899   2.594  11.746 -0.4253 -0.3176 -0.4203
 9390SOL    HW139632   0.820   2.551  11.779  0.4788 -1.4725  0.2007
 9390SOL    HW239633   0.886   2.571  11.654 -2.2160 -1.1241  0.0378
 9391SOL     OW39634   4.701   4.362   8.021 -0.2734  0.3901 -0.3056
 9391SOL    HW139635   0.040   4.293   8.040 -1.7165 -0.8111  0.1829
 9391SOL    HW239636   4.627   4.301   8.024  1.1302 -1.1618  2.5908
 9392SOL     OW39637   3.653   3.879  13.002  0.2951  0.2801 -0.4310
 9392SOL    HW139638   3.680   3.967  13.026  2.4421 -0.1879 -1.1353
 9392SOL    HW239639   3.733   3.834  13.031  1.2433  0.5535 -2.5877
 9393SOL     OW39640   0.627   3.141   4.091 -0.1528 -0.4132  0.9618
 9393SOL    HW139641   0.712   3.097   4.088 -0.8898 -1.8460  0.7527
 9393SOL    HW239642   0.591   3.149   4.003  2.4671 -0.0518 -0.0871
 9394SOL     OW39643   0.548   3.054   7.896 -0.9561  0.3950 -0.2306
 9394SOL    HW139644   0.476   3.009   7.851 -1.1600  0.1242  0.3709
 9394SOL    HW239645   0.615   3.066   7.828 -0.0610  0.1029  0.6110
 9395SOL     OW39646   2.141   0.514  15.949  0.0008 -0.7161  0.3790
 9395SOL    HW139647   2.173   0.575  15.882 -3.0070 -0.3366 -0.7439
 9395SOL    HW239648   2.213   0.452  15.958  0.2611 -0.4339  0.2423
 9396SOL     OW39649   1.597   2.128  10.111  0.4406 -0.3830 -0.0978
 9396SOL    HW139650   1.599   2.140  10.206 -1.1919  1.3076 -0.2653
 9396SOL    HW239651   1.564   2.038  10.104  1.1037 -0.4625 -2.3660
 9397SOL     OW39652   1.412   1.595   8.144 -0.4992 -0.6886 -0.2220
 9397SOL    HW139653   1.380   1.680   8.175  0.1260 -1.6283  3.0378
 9397SOL    HW239654   1.492   1.602   8.196 -0.1354  0.6193 -0.9548
 9398SOL     OW39655   4.577   0.841  13.140 -0.0962  0.0420 -0.4489
 9398SOL    HW139656   4.543   0.886  13.063 -0.5805  0.6898  0.1316
 9398SOL    HW239657   4.561   0.752  13.111 -0.6575 -0.3746  1.1356
 9399SOL     OW39658   4.287   0.328   8.744  0.3843  0.4938  0.3532
 9399SOL    HW139659   4.196   0.329   8.715  0.0376  0.3902  1.4504
 9399SOL    HW239660   4.286   0.232   8.748  0.8022  0.5336  1.2682
 9400SOL     OW39661   0.755   2.193   7.115 -0.1190 -0.0108  1.1458
 9400SOL    HW139662   0.663   2.211   7.135 -0.9615 -2.9714 -0.0758
 9400SOL    HW239663   0.739   2.102   7.142 -1.1161  0.1511  1.1004
 9401SOL     OW39664   3.162   4.171   2.891 -0.7720 -0.1161 -0.3388
 9401SOL    HW139665   3.068   4.186   2.897 -0.4499  1.0329  2.1424
 9401SOL    HW239666   3.185   4.245   2.836  0.4011 -0.3641 -0.1854
 9402SOL     OW39667   4.584   0.201   5.296  0.3275 -0.4393 -0.4108
 9402SOL    HW139668   4.547   0.286   5.269 -0.8935 -1.2700 -1.3884
 9402SOL    HW239669   4.608   0.159   5.213 -1.1628  0.4335 -1.3008
 9403SOL     OW39670   3.667   1.824   5.671 -1.0503  0.0187 -0.6440
 9403SOL    HW139671   3.754   1.852   5.703 -1.5136  0.7596 -0.0093
 9403SOL    HW239672   3.692   1.733   5.658  0.4307  0.1804  0.9783
 9404SOL     OW39673   4.134   1.795   8.901  0.0788  0.1616 -0.1365
 9404SOL    HW139674   4.125   1.807   8.806 -2.1094  1.0280  0.1835
 9404SOL    HW239675   4.069   1.725   8.911  1.3579 -0.5642  2.8533
 9405SOL     OW39676   0.038   2.479   4.979  0.3388  0.6624  0.0505
 9405SOL    HW139677   0.121   2.525   4.979 -1.0649  3.1745  0.1524
 9405SOL    HW239678   0.057   2.399   5.029 -0.3170 -1.8853 -3.7800
 9406SOL     OW39679   3.051   3.181  14.317  0.0912  0.2504  0.2517
 9406SOL    HW139680   3.121   3.239  14.286  1.4445 -0.7880  1.3598
 9406SOL    HW239681   2.979   3.242  14.334 -0.8160 -0.7396 -0.0436
 9407SOL     OW39682   2.621   0.986   7.156 -0.6271  0.0660 -0.2599
 9407SOL    HW139683   2.629   0.995   7.251  0.9895 -0.7500 -0.3113
 9407SOL    HW239684   2.709   0.992   7.119 -0.5527  1.8542  0.2212
 9408SOL     OW39685   4.548   3.311   7.975 -0.2911  0.7364 -0.0153
 9408SOL    HW139686   4.578   3.239   7.919  0.2348  0.6849  0.3301
 9408SOL    HW239687   4.634   3.328   8.014 -1.0097  0.2146  1.8257
 9409SOL     OW39688   2.816   1.478   3.369  0.7611 -0.3213  0.0716
 9409SOL    HW139689   2.850   1.480   3.280  0.0620  1.5872 -0.1475
 9409SOL    HW239690   2.828   1.571   3.385  1.4650 -0.3905 -0.0702
 9410SOL     OW39691   1.584   3.995   3.571 -0.1597  0.4095 -0.1881
 9410SOL    HW139692   1.636   4.050   3.513  0.0529  0.1664 -0.2270
 9410SOL    HW239693   1.525   3.955   3.506  0.3566  0.0072 -0.4053
 9411SOL     OW39694   1.873   2.513   1.671 -0.2203 -0.5152  0.1635
 9411SOL    HW139695   1.880   2.436   1.727 -0.3316 -1.0773 -0.5963
 9411SOL    HW239696   1.952   2.565   1.685 -0.4942  0.4769 -2.0708
 9412SOL     OW39697   0.416   0.653  15.806  0.1150  0.1298 -0.1223
 9412SOL    HW139698   0.343   0.686  15.754  0.4722  0.9110 -0.1233
 9412SOL    HW239699   0.384   0.607  15.884 -0.1038  1.8721  0.8253
 9413SOL     OW39700   3.868   3.735   2.906  0.0863 -0.0788  0.1323
 9413SOL    HW139701   3.802   3.789   2.949 -0.0330 -0.3477  0.2874
 9413SOL    HW239702   3.805   3.664   2.889  1.3430 -1.6799  2.0985
 9414SOL     OW39703   0.241   1.057   3.184  0.2811  0.3557 -0.0235
 9414SOL    HW139704   0.303   1.082   3.116 -0.2335  0.9236 -0.2824
 9414SOL    HW239705   0.275   0.969   3.204  0.1347  0.7956  2.1857
 9415SOL     OW39706   1.270   1.241  13.585  0.0065  0.3849 -0.2279
 9415SOL    HW139707   1.364   1.224  13.572  0.4953  1.5332  1.7151
 9415SOL    HW239708   1.250   1.177  13.653 -3.3636  1.8732  0.1771
 9416SOL     OW39709   2.906   3.277   7.073  0.1593  0.4929 -0.0879
 9416SOL    HW139710   2.998   3.276   7.046  0.4441 -2.4199  1.0336
 9416SOL    HW239711   2.907   3.198   7.127  0.9561  0.9117  0.5086
 9417SOL     OW39712   4.667   2.527   2.644 -0.5241  0.4913  0.1993
 9417SOL    HW139713   4.673   2.432   2.636  1.0329  0.8784 -3.4303
 9417SOL    HW239714   4.708   2.542   2.729  1.2326  1.3375 -0.7758
 9418SOL     OW39715   2.286   4.213   1.620 -0.2694  0.0600  0.4219
 9418SOL    HW139716   2.247   4.206   1.708  0.9993  1.0470  1.0571
 9418SOL    HW239717   2.260   4.133   1.573 -2.4394 -0.3715  2.3200
 9419SOL     OW39718   2.724   4.241   8.975  0.3662  0.0554  0.0323
 9419SOL    HW139719   2.799   4.213   9.027 -2.2244 -2.4802  2.4026
 9419SOL    HW239720   2.744   4.329   8.943  0.3881 -0.4407 -1.3455
 9420SOL     OW39721   4.297   3.532   7.853  0.0743 -0.6962 -0.3732
 9420SOL    HW139722   4.318   3.514   7.762 -2.3875 -0.4583 -0.9690
 9420SOL    HW239723   4.385   3.540   7.891 -0.4040  0.6448  0.4903
 9421SOL     OW39724   2.488   1.398  16.107 -0.0332 -0.0842  0.3038
 9421SOL    HW139725   2.533   1.379  16.189 -0.8658 -2.0433  0.3136
 9421SOL    HW239726   2.485   1.493  16.097 -0.0214  0.1350  2.4857
 9422SOL     OW39727   3.620   2.759  12.779  0.3596  0.0462 -0.4693
 9422SOL    HW139728   3.648   2.842  12.818  0.8595 -0.9628  1.3252
 9422SOL    HW239729   3.685   2.753  12.709 -0.4823  2.2281 -1.4493
 9423SOL     OW39730   3.944   2.306   0.270  0.0895  0.2449 -0.2757
 9423SOL    HW139731   3.875   2.241   0.275  1.5488 -1.4690 -2.3422
 9423SOL    HW239732   4.015   2.260   0.315 -1.2171 -2.1052 -0.6298
 9424SOL     OW39733   4.155   3.628  14.397  0.5312 -0.2588  0.0288
 9424SOL    HW139734   4.136   3.550  14.449  1.2760  0.0354  0.7501
 9424SOL    HW239735   4.067   3.656  14.376  0.3903 -1.1426 -0.5329
 9425SOL     OW39736   3.195   1.546   8.815  0.2878  0.4525  0.1888
 9425SOL    HW139737   3.161   1.623   8.861 -1.1353 -1.5629  2.4640
 9425SOL    HW239738   3.157   1.465   8.848  0.2321  0.1242 -0.6953
 9426SOL     OW39739   2.873   4.364   8.324 -0.4735  0.3896  0.4718
 9426SOL    HW139740   2.918   4.378   8.407  0.9347  0.4105 -0.2967
 9426SOL    HW239741   2.924   4.428   8.275  1.2674 -0.0385  1.7343
 9427SOL     OW39742   1.750   2.691   0.707  0.0958  0.1471  0.1197
 9427SOL    HW139743   1.832   2.690   0.756  0.1468 -0.6304  0.0170
 9427SOL    HW239744   1.712   2.607   0.732  2.5308 -1.5292 -1.8253
 9428SOL     OW39745   0.972   2.995   4.512  0.1693 -0.7580  0.0835
 9428SOL    HW139746   1.057   2.984   4.556 -0.1689 -1.3417  0.5818
 9428SOL    HW239747   1.000   2.990   4.421 -3.6908  3.7122 -1.3618
 9429SOL     OW39748   4.202   1.494  10.273 -0.1615 -0.3019  0.4107
 9429SOL    HW139749   4.225   1.499  10.366  0.6053  0.7123  0.1521
 9429SOL    HW239750   4.293   1.482  10.249 -0.0278  0.3450  0.5967
 9430SOL     OW39751   1.684   3.734   0.932  0.3621 -0.3006 -0.2595
 9430SOL    HW139752   1.624   3.710   1.002  0.2095  0.1242 -0.2420
 9430SOL    HW239753   1.654   3.818   0.897 -2.0445 -1.2593 -0.5033
 9431SOL     OW39754   4.470   2.769   6.377 -0.1921 -0.1870  0.2866
 9431SOL    HW139755   4.445   2.677   6.382  0.3520 -0.2476  2.2712
 9431SOL    HW239756   4.455   2.802   6.466  0.2929  0.3422  0.1737
 9432SOL     OW39757   2.434   3.527  12.924 -0.0179  0.1577 -0.5200
 9432SOL    HW139758   2.445   3.437  12.955 -0.5463  0.2550 -0.0427
 9432SOL    HW239759   2.522   3.559  12.942  0.4526 -0.7340 -1.2590
 9433SOL     OW39760   4.094   3.009   8.100 -0.6524  0.2633 -0.5320
 9433SOL    HW139761   4.173   3.062   8.108  0.4439 -1.1593 -1.9144
 9433SOL    HW239762   4.027   3.078   8.094 -0.0897  0.9146  0.7347
 9434SOL     OW39763   0.715   3.829  13.562  0.8198  0.4409  0.2182
 9434SOL    HW139764   0.784   3.819  13.628 -0.6330 -2.3876  1.3098
 9434SOL    HW239765   0.697   3.737  13.542 -1.6294  0.4887  2.0798
 9435SOL     OW39766   0.721   0.208   7.085  0.5178  0.3104 -0.2112
 9435SOL    HW139767   0.709   0.222   7.179 -0.3999  0.9424 -0.4184
 9435SOL    HW239768   0.637   0.243   7.056  0.2498 -0.4213 -0.2975
 9436SOL     OW39769   1.226   4.188   5.070 -0.7564  0.1665  0.1042
 9436SOL    HW139770   1.267   4.204   4.985  0.4537 -0.2449  0.6130
 9436SOL    HW239771   1.286   4.124   5.108  0.0969  0.9122  0.0201
 9437SOL     OW39772   3.133   0.721   3.632  0.1012  0.4810 -0.3787
 9437SOL    HW139773   3.169   0.753   3.549  2.0591  2.0886  1.0532
 9437SOL    HW239774   3.083   0.797   3.663 -0.7777  0.6866 -2.2856
 9438SOL     OW39775   1.036   2.958  10.423  0.2579  0.1673 -0.7831
 9438SOL    HW139776   1.077   2.989  10.504 -0.6945 -2.8305  0.8284
 9438SOL    HW239777   0.943   2.965  10.442  0.4852  0.7795  0.0796
 9439SOL     OW39778   3.676   1.347   3.820  0.1423 -0.1156 -0.3846
 9439SOL    HW139779   3.609   1.282   3.798  0.4347 -0.1029 -1.3038
 9439SOL    HW239780   3.723   1.335   3.738  1.3387  1.6778  0.0371
 9440SOL     OW39781   3.562   3.451   2.429 -0.4338  0.0749  0.1442
 9440SOL    HW139782   3.533   3.522   2.372  0.3864 -0.9250 -1.5108
 9440SOL    HW239783   3.557   3.512   2.503  0.1375  0.1205  0.1435
 9441SOL     OW39784   0.197   2.221  11.537 -0.4767 -0.1783 -0.2373
 9441SOL    HW139785   0.230   2.308  11.560 -0.8037  0.5508 -2.5433
 9441SOL    HW239786   0.102   2.233  11.537 -0.1633  2.2305 -2.2123
 9442SOL     OW39787   1.976   1.992   3.644  0.4222  0.1464 -0.3624
 9442SOL    HW139788   2.013   1.971   3.730 -1.1475 -0.0940  0.2584
 9442SOL    HW239789   2.031   2.062   3.608 -0.5606  1.3902  0.5338
 9443SOL     OW39790   2.672   0.887   6.687  0.2354 -0.0747 -0.0006
 9443SOL    HW139791   2.688   0.920   6.599 -1.8875 -1.1156 -0.7845
 9443SOL    HW239792   2.756   0.863   6.726  1.0043  1.2799 -0.8456
 9444SOL     OW39793   3.059   1.064   1.834 -0.2227  0.5207 -0.2744
 9444SOL    HW139794   3.070   1.038   1.743 -0.7582  0.3076 -0.2754
 9444SOL    HW239795   3.102   1.150   1.831  1.6304 -0.3410  1.2909
 9445SOL     OW39796   2.945   0.075   5.675  0.3238 -0.1804 -0.1332
 9445SOL    HW139797   3.016   0.101   5.735 -0.0876 -0.5556  0.5215
 9445SOL    HW239798   2.869   0.127   5.702 -1.4440 -2.4321 -0.8342
 9446SOL     OW39799   4.619   3.503  11.515  0.2369 -0.7442  0.0329
 9446SOL    HW139800   4.710   3.525  11.532  0.5161 -0.9814 -1.1545
 9446SOL    HW239801   4.615   3.484  11.421 -1.3858  2.2886 -0.5055
 9447SOL     OW39802   3.789   0.661   2.648 -0.4323  0.1642  0.4656
 9447SOL    HW139803   3.705   0.685   2.686 -0.2196  1.2851  0.2140
 9447SOL    HW239804   3.783   0.565   2.648 -1.0095  0.1965  1.4197
 9448SOL     OW39805   0.846   3.576  16.829 -0.1579 -0.2682  0.3358
 9448SOL    HW139806   0.836   3.663  16.789 -0.6201 -1.1228 -1.4116
 9448SOL    HW239807   0.939   3.559  16.813  0.1456  1.3318  0.3155
 9449SOL     OW39808   4.275   1.824   7.372  0.1591  0.2177  0.4341
 9449SOL    HW139809   4.208   1.822   7.440 -0.7562  0.8532 -0.4536
 9449SOL    HW239810   4.348   1.784   7.419 -0.2159  0.6756  1.4162
 9450SOL     OW39811   3.907   0.989   3.391  0.2722  0.1215  0.0827
 9450SOL    HW139812   3.914   0.945   3.307 -1.4279 -0.2884  0.1517
 9450SOL    HW239813   3.997   0.995   3.422 -0.1137  0.4879  1.1592
 9451SOL     OW39814   1.419   4.694  15.648 -0.2448  0.1550  0.6288
 9451SOL    HW139815   1.447   0.018  15.726 -0.2940  1.1386  0.0514
 9451SOL    HW239816   1.433   0.031  15.576 -0.5432  1.5498  1.7460
 9452SOL     OW39817   1.770   0.375   8.538 -0.4741 -0.0076 -0.2636
 9452SOL    HW139818   1.801   0.391   8.449 -1.8148  1.0603 -0.5488
 9452SOL    HW239819   1.698   0.438   8.550 -1.4958 -1.5005  1.4385
 9453SOL     OW39820   3.022   1.428   2.433  0.1020  0.5142  0.2856
 9453SOL    HW139821   3.002   1.521   2.419 -1.4572  0.1773  0.2870
 9453SOL    HW239822   3.078   1.412   2.357 -1.4367  0.5883 -0.8532
 9454SOL     OW39823   4.652   0.909   6.281 -0.3498  0.0923  0.6659
 9454SOL    HW139824   4.577   0.897   6.338 -0.2681 -0.2385  0.7041
 9454SOL    HW239825   4.674   1.002   6.287  1.2333 -0.3683  1.9785
 9455SOL     OW39826   3.354   0.619   3.809  0.0733 -0.8251  0.5385
 9455SOL    HW139827   3.271   0.632   3.763 -0.1489  1.7803  1.6859
 9455SOL    HW239828   3.422   0.638   3.745 -0.1445 -1.2708  0.1709
 9456SOL     OW39829   0.822   2.187   6.440  0.2364 -0.1158 -0.6505
 9456SOL    HW139830   0.830   2.219   6.350  1.6536  1.9440  0.2100
 9456SOL    HW239831   0.774   2.104   6.438 -2.0473  1.1833  0.4054
 9457SOL     OW39832   0.174   3.836   8.064  0.3329  0.1117  0.0751
 9457SOL    HW139833   0.114   3.779   8.111  1.3643  0.0155  1.2670
 9457SOL    HW239834   0.182   3.796   7.978  0.4816 -2.1314  1.1451
 9458SOL     OW39835   2.067   1.858   0.318  0.6117  0.1168 -0.4215
 9458SOL    HW139836   1.983   1.833   0.279  0.2255  1.0991 -0.2099
 9458SOL    HW239837   2.111   1.890   0.239 -0.5783 -0.3960 -1.2928
 9459SOL     OW39838   3.399   1.731   3.782  0.0549  0.1403  0.2320
 9459SOL    HW139839   3.466   1.799   3.780  2.6688 -2.4401  0.2460
 9459SOL    HW239840   3.448   1.654   3.753 -1.0486 -1.0128  1.4336
 9460SOL     OW39841   0.944   1.545   7.523 -0.3098 -0.4351 -0.3627
 9460SOL    HW139842   0.992   1.548   7.441  0.6504  1.2086  0.2479
 9460SOL    HW239843   0.865   1.593   7.498 -0.0989 -0.5587 -1.2533
 9461SOL     OW39844   1.432   4.037   5.715  0.0716  0.0265 -0.0219
 9461SOL    HW139845   1.510   4.064   5.762  0.0530 -0.0246  0.0379
 9461SOL    HW239846   1.432   4.092   5.636 -1.5379 -0.4212 -0.3475
 9462SOL     OW39847   3.829   1.731   8.260  0.5191 -0.1411 -0.1245
 9462SOL    HW139848   3.810   1.813   8.305  0.7870 -1.0432  1.6435
 9462SOL    HW239849   3.759   1.714   8.197  1.7827 -0.7536 -1.3579
 9463SOL     OW39850   3.072   3.627  13.153 -0.4908 -0.3678  0.3231
 9463SOL    HW139851   3.013   3.635  13.078  0.0912 -0.1094 -0.1051
 9463SOL    HW239852   3.017   3.585  13.219  0.9617  1.1485  2.5009
 9464SOL     OW39853   0.723   0.022   4.686 -0.4483 -0.6776 -0.7696
 9464SOL    HW139854   0.689   4.701   4.764 -1.3809  0.6652 -0.3941
 9464SOL    HW239855   0.814   0.041   4.708 -0.5135 -1.1024 -0.1222
 9465SOL     OW39856   3.344   3.583   8.406  0.4214  0.4646  0.0367
 9465SOL    HW139857   3.352   3.632   8.324 -0.3157 -2.0210 -1.5331
 9465SOL    HW239858   3.250   3.574   8.419  0.6677 -1.5131  0.4026
 9466SOL     OW39859   1.204   1.214   2.853 -0.1116  0.6022 -0.0573
 9466SOL    HW139860   1.194   1.169   2.769  0.5133  1.2465 -0.4726
 9466SOL    HW239861   1.296   1.194   2.872 -0.3309 -1.3731 -1.0346
 9467SOL     OW39862   1.295   3.062   5.804  0.4462 -0.2362 -0.0513
 9467SOL    HW139863   1.265   3.148   5.832 -1.2966 -1.2387  1.1384
 9467SOL    HW239864   1.388   3.081   5.813  0.4966 -1.8428  2.7347
 9468SOL     OW39865   2.857   3.031   4.700  0.2699 -0.4124 -0.4265
 9468SOL    HW139866   2.896   3.070   4.622  0.6144 -2.3139 -1.2009
 9468SOL    HW239867   2.917   2.957   4.715  0.1377 -0.5098 -0.3793
 9469SOL     OW39868   3.072   2.615   0.340  0.4267 -0.1941  0.7771
 9469SOL    HW139869   3.115   2.675   0.279 -1.0798 -1.8820 -1.9340
 9469SOL    HW239870   3.092   2.661   0.421  1.8248 -1.1474  0.9670
 9470SOL     OW39871   2.595   0.774   8.282 -0.2181 -0.5653 -0.1604
 9470SOL    HW139872   2.519   0.746   8.332  0.0901 -1.0267  0.0547
 9470SOL    HW239873   2.651   0.814   8.350 -0.5878 -1.5140  0.6983
 9471SOL     OW39874   1.938   1.005   1.045  0.3597 -0.3237 -0.0015
 9471SOL    HW139875   1.909   0.946   0.975  0.4179 -1.1060  0.6272
 9471SOL    HW239876   1.875   0.979   1.113 -1.2335  2.8977 -0.2834
 9472SOL     OW39877   3.551   1.518   3.164  0.2352  0.0345  0.4727
 9472SOL    HW139878   3.474   1.490   3.115  0.6078 -1.9221  1.0214
 9472SOL    HW239879   3.589   1.432   3.182 -2.2488 -1.1290  0.0950
 9473SOL     OW39880   1.082   2.372   4.779  0.3861  0.5150 -0.0078
 9473SOL    HW139881   1.098   2.281   4.754 -1.5493  0.0207  0.5553
 9473SOL    HW239882   1.175   2.394   4.787  1.1749 -2.8268  0.1409
 9474SOL     OW39883   2.411   2.827   9.046  0.0421  0.3213  0.2027
 9474SOL    HW139884   2.347   2.892   9.018 -1.0978 -1.3703 -1.1344
 9474SOL    HW239885   2.372   2.741   9.028  1.4733 -0.2847 -0.0566
 9475SOL     OW39886   0.891   2.026   4.306 -0.6821 -0.1176 -0.4896
 9475SOL    HW139887   0.842   2.102   4.273 -2.0366  0.5752  3.0424
 9475SOL    HW239888   0.816   1.982   4.347 -0.1282 -0.0264  0.6101
 9476SOL     OW39889   0.281   2.595   8.135  0.5196  0.5817  0.0987
 9476SOL    HW139890   0.208   2.655   8.119  0.2559 -0.1069 -1.2715
 9476SOL    HW239891   0.247   2.510   8.107  0.2301  0.7266  0.0128
 9477SOL     OW39892   2.272   4.540   8.805  0.4143 -0.4643  0.5581
 9477SOL    HW139893   2.258   4.635   8.808  1.2994 -0.2987 -0.5633
 9477SOL    HW239894   2.363   4.556   8.780 -0.0421 -0.4703 -1.0674
 9478SOL     OW39895   0.186   2.111   6.421 -0.1961  0.9563  0.1759
 9478SOL    HW139896   0.172   2.042   6.486 -3.5390  0.8228 -0.6800
 9478SOL    HW239897   0.219   2.055   6.351  0.5379  0.5918  0.8082
 9479SOL     OW39898   1.065   3.231   3.968 -0.3013 -0.4065  0.4743
 9479SOL    HW139899   1.036   3.288   3.897 -1.0419  2.2537  2.8947
 9479SOL    HW239900   1.122   3.287   4.021  0.4449 -0.1197 -0.6359
 9480SOL     OW39901   0.823   0.594  14.008  0.0626  0.1284 -0.2669
 9480SOL    HW139902   0.874   0.524  13.968 -2.8099 -2.7888  1.1903
 9480SOL    HW239903   0.835   0.589  14.103  0.0751  1.0025 -0.2196
 9481SOL     OW39904   1.959   4.006   8.150 -0.9475 -0.4051  0.0841
 9481SOL    HW139905   2.035   4.024   8.206 -0.5652 -2.0629  0.1068
 9481SOL    HW239906   1.890   4.029   8.212 -0.5117 -0.8805  0.7533
 9482SOL     OW39907   2.349   0.107   4.931 -0.0599 -0.6879  0.1374
 9482SOL    HW139908   2.283   0.060   4.881  0.5324 -1.8064  0.3919
 9482SOL    HW239909   2.304   0.185   4.963 -0.4625 -1.2416  0.9165
 9483SOL     OW39910   0.506   0.337   6.047  0.5663 -0.6159 -0.5488
 9483SOL    HW139911   0.592   0.367   6.077 -0.0831  0.1446  0.5268
 9483SOL    HW239912   0.471   0.330   6.136  1.4065  0.9118 -0.1080
 9484SOL     OW39913   3.436   0.816  12.508 -0.6543  0.2830  0.0662
 9484SOL    HW139914   3.391   0.827  12.424  0.5218 -0.0518 -0.6043
 9484SOL    HW239915   3.525   0.848  12.495  0.4517 -2.8773  0.0260
 9485SOL     OW39916   3.122   0.376  12.952  0.0704 -0.0732 -0.1874
 9485SOL    HW139917   3.070   0.449  12.919 -0.4501 -0.1032  0.5673
 9485SOL    HW239918   3.198   0.426  12.982  0.1949 -0.3727 -0.0018
 9486SOL     OW39919   4.332   2.437   7.724  0.0935 -0.0215  0.2767
 9486SOL    HW139920   4.427   2.450   7.721 -0.1733  1.5978 -1.8259
 9486SOL    HW239921   4.335   2.394   7.809 -0.0555 -0.8937 -0.1621
 9487SOL     OW39922   2.446   4.015   4.279 -0.2277  0.2146  0.1181
 9487SOL    HW139923   2.503   4.084   4.313  2.0573 -0.8537 -1.5284
 9487SOL    HW239924   2.513   3.958   4.240 -1.0552 -0.9501  0.3709
 9488SOL     OW39925   1.536   3.336   3.136  0.1850 -0.1973  0.2441
 9488SOL    HW139926   1.442   3.323   3.154  0.4243  0.2506  1.8356
 9488SOL    HW239927   1.543   3.330   3.041  3.8255 -0.6626  0.5415
 9489SOL     OW39928   0.463   1.804   5.490 -0.2643 -0.0169 -0.8085
 9489SOL    HW139929   0.518   1.752   5.549  2.2677  2.3515 -1.0601
 9489SOL    HW239930   0.383   1.757   5.468 -1.2371  1.6875 -0.9699
 9490SOL     OW39931   0.631   1.531   3.164  0.1428 -0.3318 -0.8974
 9490SOL    HW139932   0.668   1.496   3.084  1.6076 -0.9803  0.0748
 9490SOL    HW239933   0.568   1.598   3.136 -1.4772 -1.6761 -0.5177
 9491SOL     OW39934   2.709   4.370  11.905  0.6504  0.0193  0.1113
 9491SOL    HW139935   2.637   4.428  11.878  1.6772  1.0019 -0.4762
 9491SOL    HW239936   2.774   4.436  11.929  0.3420  0.9169 -1.5418
 9492SOL     OW39937   0.643   3.163   5.939 -0.4529  0.0523  0.4854
 9492SOL    HW139938   0.685   3.163   5.853 -1.0189  1.0868  0.2050
 9492SOL    HW239939   0.564   3.115   5.914  1.1273 -1.6989 -1.1833
 9493SOL     OW39940   1.377   2.591   2.300 -0.4560  0.0968 -0.2053
 9493SOL    HW139941   1.329   2.512   2.324  0.2550 -0.4318 -0.5033
 9493SOL    HW239942   1.460   2.552   2.272  0.8776  1.7017  1.5156
 9494SOL     OW39943   3.184   0.952   6.468  0.1692  0.4899  1.2607
 9494SOL    HW139944   3.191   0.971   6.375  0.2149 -1.8108  0.8025
 9494SOL    HW239945   3.271   0.916   6.484  0.1108 -0.4890 -0.6066
 9495SOL     OW39946   4.246   1.878   6.638 -0.0116  0.0676  0.3261
 9495SOL    HW139947   4.155   1.894   6.614  0.3328  1.3160 -0.1472
 9495SOL    HW239948   4.242   1.918   6.725  2.0247  3.1506 -1.0041
 9496SOL     OW39949   2.172   2.412   1.508 -0.3488 -0.7893  0.1651
 9496SOL    HW139950   2.164   2.437   1.416  1.9023  1.8835  0.7022
 9496SOL    HW239951   2.164   2.496   1.553 -0.5740 -0.0652 -1.2168
 9497SOL     OW39952   4.602   0.920   3.614 -0.6930 -0.3591  0.1940
 9497SOL    HW139953   4.514   0.924   3.650 -0.2592  1.4913  1.0458
 9497SOL    HW239954   4.598   0.949   3.523  1.4831  0.8869  0.4846
 9498SOL     OW39955   3.229   2.772   2.144  0.3018  0.2751 -0.1648
 9498SOL    HW139956   3.271   2.690   2.115  2.9950  1.4399  0.4232
 9498SOL    HW239957   3.268   2.834   2.083  0.5749  1.4323  1.1743
 9499SOL     OW39958   1.938   2.205   8.781  0.2459  0.3023 -0.4735
 9499SOL    HW139959   1.988   2.207   8.699 -1.1898 -1.8259 -1.4210
 9499SOL    HW239960   1.900   2.117   8.776  0.8013  0.1691 -2.2636
 9500SOL     OW39961   3.179   4.408  13.769 -0.0345  0.1270 -0.0547
 9500SOL    HW139962   3.137   4.493  13.779  1.4658  0.8499  0.1139
 9500SOL    HW239963   3.267   4.415  13.806 -0.0664  0.0163  0.0405
 9501SOL     OW39964   3.976   3.133  14.955  0.1892 -0.5483 -0.1272
 9501SOL    HW139965   3.989   3.074  15.029  0.5093  0.2243  0.4396
 9501SOL    HW239966   4.005   3.216  14.994  0.4049 -0.8971  0.4537
 9502SOL     OW39967   2.507   3.121   5.589  0.4814  0.4895  0.1474
 9502SOL    HW139968   2.477   3.095   5.676 -0.4881  0.6529 -0.1294
 9502SOL    HW239969   2.596   3.086   5.592  0.4591  0.4159 -0.0449
 9503SOL     OW39970   3.497   1.541   7.069 -0.1227 -0.2444  0.5949
 9503SOL    HW139971   3.483   1.510   6.980  0.7935 -1.6956  0.9453
 9503SOL    HW239972   3.411   1.572   7.096  0.0035  1.0279 -0.4823
 9504SOL     OW39973   3.817   3.071  12.923 -0.3462 -0.1048  0.1289
 9504SOL    HW139974   3.799   3.163  12.944  2.1122  0.3401  0.2953
 9504SOL    HW239975   3.907   3.070  12.891  0.3099 -0.6440  1.9534
 9505SOL     OW39976   2.581   0.975  13.618 -0.0888  0.9455  0.1144
 9505SOL    HW139977   2.654   0.960  13.558  0.7119  2.1858  0.7858
 9505SOL    HW239978   2.529   1.006  13.544  0.5725  1.0936 -0.2921
 9506SOL     OW39979   1.178   0.636   5.123  0.6875 -0.2750 -0.4902
 9506SOL    HW139980   1.187   0.604   5.213  0.4043 -0.0085 -0.3689
 9506SOL    HW239981   1.150   0.559   5.074  2.0691 -1.1177  0.0299
 9507SOL     OW39982   0.064   2.352   7.577 -0.2809 -0.4234 -0.4703
 9507SOL    HW139983   4.712   2.374   7.629  0.7475 -1.8511  1.6266
 9507SOL    HW239984   0.079   2.443   7.549  2.8047 -0.8165 -0.1834
 9508SOL     OW39985   2.132   3.000   4.326 -0.3569 -0.2822  0.0328
 9508SOL    HW139986   2.222   2.978   4.303 -0.0525  2.9796 -1.8963
 9508SOL    HW239987   2.071   2.941   4.283 -1.3136 -0.2018  1.2780
 9509SOL     OW39988   2.708   3.405   2.234 -0.1113  0.1019  0.8881
 9509SOL    HW139989   2.737   3.372   2.319  3.3020  1.5568  0.2701
 9509SOL    HW239990   2.684   3.325   2.188 -0.5897 -0.6475  2.4449
 9510SOL     OW39991   2.875   4.533   5.790  0.0371 -0.4224 -0.2847
 9510SOL    HW139992   2.863   4.605   5.852 -0.3160 -0.0530 -0.7869
 9510SOL    HW239993   2.845   4.576   5.710  2.5959 -0.2101 -1.1621
 9511SOL     OW39994   4.228   2.711   3.618  0.3414 -0.2271  0.4459
 9511SOL    HW139995   4.249   2.731   3.709  1.0360 -0.7680  0.4037
 9511SOL    HW239996   4.304   2.668   3.578  1.1986  2.4026 -0.6920
 9512SOL     OW39997   0.055   0.475   4.009 -0.0266  0.4345  0.2419
 9512SOL    HW139998   4.691   0.459   4.044 -0.2924  1.4971  0.0734
 9512SOL    HW239999   0.071   0.424   3.931  0.3144  0.9212 -0.0096
 9513SOL     OW40000   1.819   4.080   5.784  0.5280 -0.4280 -0.5713
 9513SOL    HW140001   1.867   4.016   5.732  0.5344 -1.5330  0.8029
 9513SOL    HW240002   1.740   4.031   5.805 -0.8138  2.1863  0.5249
 9514SOL     OW40003   2.307   3.934   0.570 -0.1962  0.3177 -0.3075
 9514SOL    HW140004   2.269   3.888   0.645  3.5528 -0.4029  1.1285
 9514SOL    HW240005   2.327   4.022   0.601  0.2854 -0.5728  1.8822
 9515SOL     OW40006   1.101   1.072  16.691 -0.7642  0.3513  0.4922
 9515SOL    HW140007   1.155   1.138  16.647  1.4171 -2.6442 -1.3603
 9515SOL    HW240008   1.046   1.041  16.619 -0.5057  0.7066  0.1412
 9516SOL     OW40009   0.941   1.755   4.222 -0.1514  0.7990  0.2640
 9516SOL    HW140010   0.988   1.713   4.295 -2.4342  0.5650  1.5987
 9516SOL    HW240011   0.891   1.822   4.270 -0.3405  0.0146  1.1721
 9517SOL     OW40012   0.355   2.839  16.698 -0.0845 -0.1560 -0.1858
 9517SOL    HW140013   0.339   2.930  16.675  0.5386 -0.0834 -0.3282
 9517SOL    HW240014   0.265   2.806  16.697 -1.0577  2.5075  1.0912
 9518SOL     OW40015   0.849   0.989   5.150 -0.0948  0.2572 -0.1397
 9518SOL    HW140016   0.808   0.923   5.094  1.6020 -1.6238  0.8652
 9518SOL    HW240017   0.875   0.931   5.221  1.3125 -1.2560 -1.8857
 9519SOL     OW40018   2.318   1.793   4.919  0.3490 -0.0623  0.2143
 9519SOL    HW140019   2.227   1.818   4.929  0.1178 -1.6003  1.9723
 9519SOL    HW240020   2.310   1.698   4.906  1.5038  0.0314 -1.3461
 9520SOL     OW40021   3.385   4.373   0.081  0.3068  0.1191 -0.4753
 9520SOL    HW140022   3.376   4.278   0.092  1.3625  0.1127  0.2872
 9520SOL    HW240023   3.362   4.396   0.171  1.3648 -0.8988  0.0482
 9521SOL     OW40024   3.263   3.343  12.500  0.1230  0.0797  0.5937
 9521SOL    HW140025   3.253   3.335  12.406 -1.0439  0.7162  0.6602
 9521SOL    HW240026   3.349   3.302  12.513  0.0982 -1.6689 -4.8903
 9522SOL     OW40027   0.115   4.669  11.206  0.3286 -0.2527  0.4142
 9522SOL    HW140028   0.057   0.021  11.218 -0.1365 -0.3021 -1.5404
 9522SOL    HW240029   0.198   4.707  11.236  0.1441 -0.4627  1.1946
 9523SOL     OW40030   1.056   3.245   5.834 -0.1984 -0.3982 -0.2294
 9523SOL    HW140031   1.037   3.324   5.784  0.8854  0.5440  0.8683
 9523SOL    HW240032   1.011   3.174   5.788  1.6682 -0.6914 -1.5831
 9524SOL     OW40033   3.559   1.108   6.295  0.5755 -0.1966  0.0952
 9524SOL    HW140034   3.540   1.025   6.339 -0.0311 -1.1522 -1.9322
 9524SOL    HW240035   3.627   1.083   6.232  1.4103  1.8299  0.2140
 9525SOL     OW40036   2.241   1.834   1.888 -0.1595 -0.0273 -0.6567
 9525SOL    HW140037   2.200   1.817   1.803  1.6990  0.5987 -1.6602
 9525SOL    HW240038   2.182   1.903   1.919  0.5758 -0.6706  2.1612
 9526SOL     OW40039   0.424   4.713   7.498  0.3006 -0.2891  0.3542
 9526SOL    HW140040   0.509   0.001   7.454  0.2664  1.3711  0.7284
 9526SOL    HW240041   0.359   0.020   7.435  0.3374  0.2405  0.5712
 9527SOL     OW40042   1.648   2.678  14.457 -0.0559  0.4016 -0.4228
 9527SOL    HW140043   1.605   2.711  14.378 -0.3557  0.8438 -0.0768
 9527SOL    HW240044   1.722   2.628  14.423  1.5851  0.8533  2.5332
 9528SOL     OW40045   0.537   1.279   3.325 -0.3398  0.0823 -0.2494
 9528SOL    HW140046   0.483   1.275   3.246  2.6746 -0.3966 -2.2859
 9528SOL    HW240047   0.567   1.368   3.306 -1.4887  0.1552 -1.6965
 9529SOL     OW40048   3.665   0.024   0.607 -0.1665 -0.0390  0.5404
 9529SOL    HW140049   3.702   0.088   0.546  2.1496 -1.2511  0.6756
 9529SOL    HW240050   3.604   4.701   0.551 -0.8698 -0.6419  1.8156
 9530SOL     OW40051   3.970   1.722   9.231  0.0840 -0.5548  0.2273
 9530SOL    HW140052   3.885   1.763   9.215  1.1043  0.9586 -1.2764
 9530SOL    HW240053   3.999   1.705   9.142  0.6424 -2.0504  0.6944
 9531SOL     OW40054   1.146   4.537   8.577  0.1693 -0.1011  0.2730
 9531SOL    HW140055   1.208   4.497   8.516 -2.0694 -0.2146 -1.9256
 9531SOL    HW240056   1.126   4.618   8.530  4.5339 -0.4944 -2.3444
 9532SOL     OW40057   2.845   1.757   5.231  0.4926  0.1777  0.2157
 9532SOL    HW140058   2.897   1.837   5.228  1.0568 -0.1800  0.4281
 9532SOL    HW240059   2.914   1.694   5.252  0.7583  1.0081  1.8572
 9533SOL     OW40060   3.142   0.097   6.755 -0.6772 -0.1169 -0.5891
 9533SOL    HW140061   3.126   0.191   6.746  0.3974  0.2922  1.6739
 9533SOL    HW240062   3.193   0.083   6.675 -0.4698 -1.2460 -0.2612
 9534SOL     OW40063   1.265   2.876  13.357 -0.1372 -0.1646  0.1452
 9534SOL    HW140064   1.203   2.810  13.327 -1.6949  1.6942 -0.7493
 9534SOL    HW240065   1.276   2.937  13.284  1.6108  1.5579  1.8332
 9535SOL     OW40066   1.406   3.455   0.418  0.2533 -0.4588  0.0608
 9535SOL    HW140067   1.496   3.455   0.450 -0.8213 -0.3025  3.1303
 9535SOL    HW240068   1.354   3.467   0.498 -2.0732  1.1359 -1.6757
 9536SOL     OW40069   3.810   4.352  11.539 -0.9522  0.4068 -0.3284
 9536SOL    HW140070   3.824   4.315  11.452  1.0065  1.5295 -0.4844
 9536SOL    HW240071   3.765   4.282  11.586 -1.9699  2.5244  1.8749
 9537SOL     OW40072   3.716   0.333   2.835  0.6349 -0.2449  0.1556
 9537SOL    HW140073   3.680   0.400   2.893  4.1191  0.9557  0.8913
 9537SOL    HW240074   3.787   0.289   2.881  1.6936  1.6563  0.3279
 9538SOL     OW40075   3.266   4.024   9.331  0.4266 -0.3110  0.2811
 9538SOL    HW140076   3.298   4.108   9.298 -1.9277  0.6265  0.3199
 9538SOL    HW240077   3.174   4.049   9.344  0.2106 -0.4831 -0.9325
 9539SOL     OW40078   3.398   3.538   4.581  0.6648  0.0790 -0.2266
 9539SOL    HW140079   3.478   3.528   4.529  0.0973 -0.0556 -1.0706
 9539SOL    HW240080   3.414   3.606   4.646 -0.8253 -0.4651  0.7153
 9540SOL     OW40081   1.132   4.017   6.423 -0.3073  0.7812 -0.4831
 9540SOL    HW140082   1.053   4.067   6.443 -0.4931  0.4199 -0.3112
 9540SOL    HW240083   1.105   3.926   6.426 -0.1610  0.6813 -2.0729
 9541SOL     OW40084   2.752   0.620   0.583  0.1009 -0.0296  0.2694
 9541SOL    HW140085   2.725   0.529   0.590  0.0521  0.0466  1.0626
 9541SOL    HW240086   2.813   0.619   0.510 -1.2769 -3.7635 -0.8452
 9542SOL     OW40087   3.924   1.264   3.387 -0.1398  0.1479  0.4622
 9542SOL    HW140088   4.017   1.287   3.387 -0.1276  0.1099  0.0004
 9542SOL    HW240089   3.930   1.173   3.415  0.8844  0.1776  0.3236
 9543SOL     OW40090   0.420   4.294   0.138 -0.0609  0.5387  0.3519
 9543SOL    HW140091   0.489   4.317   0.075 -0.6325 -0.4695 -0.6515
 9543SOL    HW240092   0.368   4.231   0.087 -2.4131  1.6927  1.3524
 9544SOL     OW40093   2.088   0.780   5.762  0.9174  0.1176 -0.4699
 9544SOL    HW140094   2.150   0.806   5.829 -0.5445  1.0545  0.5123
 9544SOL    HW240095   2.123   0.843   5.699 -1.0571  0.0803 -1.6050
 9545SOL     OW40096   2.391   4.373   7.174 -0.0455  0.1962 -0.2618
 9545SOL    HW140097   2.462   4.326   7.219 -2.5243 -1.0922  2.3296
 9545SOL    HW240098   2.426   4.461   7.177 -2.2233  0.9999  1.6409
 9546SOL     OW40099   2.105   2.845  12.044 -0.3743 -0.5329 -0.1636
 9546SOL    HW140100   2.142   2.933  12.035  0.2439 -1.0923 -3.1871
 9546SOL    HW240101   2.084   2.840  12.137 -1.4560  0.4201 -0.3546
 9547SOL     OW40102   0.110   3.765   1.406 -0.3465  0.2194 -0.1968
 9547SOL    HW140103   0.056   3.834   1.368 -0.7450 -0.4562 -0.8546
 9547SOL    HW240104   0.140   3.807   1.486 -0.5862  2.5751 -1.3378
 9548SOL     OW40105   0.768   2.913   8.582 -0.0061  0.3788 -0.2093
 9548SOL    HW140106   0.726   2.843   8.633  0.6667  0.9978  1.2003
 9548SOL    HW240107   0.829   2.946   8.648 -0.8547 -2.2054  1.8581
 9549SOL     OW40108   0.280   2.381   6.374 -0.5907  0.1584 -0.2099
 9549SOL    HW140109   0.260   2.301   6.423  1.4601  0.6372  1.3868
 9549SOL    HW240110   0.279   2.340   6.287  0.0148 -1.1203  0.3835
 9550SOL     OW40111   1.750   2.103   2.814  0.4736 -0.3051 -0.2561
 9550SOL    HW140112   1.776   2.194   2.827 -0.3646 -0.0728 -0.2246
 9550SOL    HW240113   1.699   2.086   2.893 -0.4273  1.6343 -0.4189
 9551SOL     OW40114   1.939   0.878   3.163 -0.8930  0.1847  0.0989
 9551SOL    HW140115   1.921   0.803   3.107 -1.6614  0.2272  0.2884
 9551SOL    HW240116   1.908   0.857   3.251 -0.7817 -0.4745 -0.0186
 9552SOL     OW40117   0.233   1.897  13.034  0.2359  0.5963  0.0634
 9552SOL    HW140118   0.159   1.839  13.054  0.5650  0.3445  0.5383
 9552SOL    HW240119   0.264   1.870  12.947 -1.3721 -2.0890  0.3158
 9553SOL     OW40120   1.003   0.190   2.789  0.5191 -0.1519 -0.2767
 9553SOL    HW140121   0.981   0.278   2.819  1.0859  0.2307 -0.9939
 9553SOL    HW240122   0.971   0.191   2.698  1.7422 -2.9339 -0.7463
 9554SOL     OW40123   1.560   1.545  10.695  0.0795  0.0272  0.4967
 9554SOL    HW140124   1.654   1.557  10.713 -0.6370  2.9265  2.3062
 9554SOL    HW240125   1.550   1.450  10.695  0.1910  0.0222  1.3190
 9555SOL     OW40126   3.905   0.769  16.009  0.1150 -0.1535  0.2137
 9555SOL    HW140127   3.833   0.773  16.071 -2.4877  1.4521 -2.9047
 9555SOL    HW240128   3.977   0.796  16.066 -1.8551  1.3516  1.9831
 9556SOL     OW40129   3.665   1.780  10.831 -0.2974 -0.1686 -0.3784
 9556SOL    HW140130   3.641   1.837  10.905 -1.8816  0.5252 -1.4456
 9556SOL    HW240131   3.644   1.838  10.759  0.5890 -0.4590 -0.8749
 9557SOL     OW40132   0.646   3.366  11.481 -0.0404 -0.4529  0.2125
 9557SOL    HW140133   0.710   3.356  11.410 -2.5745  1.2841 -2.2872
 9557SOL    HW240134   0.607   3.445  11.444 -4.1613 -2.3687  0.4232
 9558SOL     OW40135   0.189   4.684   7.299 -0.0134 -0.1488 -0.0216
 9558SOL    HW140136   0.136   4.633   7.360  0.9333 -0.6493  0.3777
 9558SOL    HW240137   0.136   0.036   7.273 -0.1422 -0.4382 -0.5998
 9559SOL     OW40138   1.244   3.539   5.459 -0.0210  0.5602  0.5196
 9559SOL    HW140139   1.188   3.610   5.492 -1.3963  1.1054 -2.9430
 9559SOL    HW240140   1.284   3.492   5.533  1.9477 -0.8306 -1.4461
 9560SOL     OW40141   3.410   1.649   7.797 -0.0579 -0.1921 -0.4856
 9560SOL    HW140142   3.455   1.705   7.733  0.4071  0.7612  0.6601
 9560SOL    HW240143   3.441   1.564   7.766 -1.2846 -0.6188 -0.5056
 9561SOL     OW40144   3.459   3.856  10.482  0.3440 -0.6732  0.1067
 9561SOL    HW140145   3.386   3.808  10.442 -1.6330  0.4448  2.3796
 9561SOL    HW240146   3.484   3.914  10.410  0.8263  1.1513  1.7462
 9562SOL     OW40147   2.429   2.087  13.240  0.3524  0.0949  0.5636
 9562SOL    HW140148   2.518   2.091  13.276  0.0339 -2.2551  1.5686
 9562SOL    HW240149   2.432   2.163  13.182 -0.5345  0.0095  0.4121
 9563SOL     OW40150   1.207   4.570   4.199 -0.5495  0.9769 -0.4759
 9563SOL    HW140151   1.222   4.503   4.133  2.0642  2.4580 -1.4001
 9563SOL    HW240152   1.196   4.514   4.275 -0.9573  1.9641  0.2017
 9564SOL     OW40153   3.280   0.965   4.202  0.5006  0.3178 -0.3469
 9564SOL    HW140154   3.194   0.961   4.161  0.9566  0.0811 -1.2646
 9564SOL    HW240155   3.320   0.885   4.169  2.0596  0.0131  2.2170
 9565SOL     OW40156   0.510   2.068   6.384  0.8160  0.2171 -0.2114
 9565SOL    HW140157   0.478   2.076   6.294  2.5095  0.8307 -0.7585
 9565SOL    HW240158   0.594   2.025   6.375  1.1953  1.0311 -0.5431
 9566SOL     OW40159   1.033   0.594   8.698  0.0264  0.1297  0.1921
 9566SOL    HW140160   1.070   0.514   8.735  0.6438  1.4428  2.4345
 9566SOL    HW240161   0.943   0.585   8.729 -0.2423 -0.2387 -0.7021
 9567SOL     OW40162   2.153   4.624   5.112  0.1588  0.2819  0.7162
 9567SOL    HW140163   2.244   4.651   5.101  0.1914  0.5889  1.7599
 9567SOL    HW240164   2.138   4.651   5.203  0.5156  0.8314  0.6101
 9568SOL     OW40165   1.707   1.580  17.507  0.1392 -0.4812 -0.4841
 9568SOL    HW140166   1.684   1.493  17.541 -0.1266  0.6374  2.2087
 9568SOL    HW240167   1.622   1.624  17.516 -0.3022 -1.4570  0.1633
   4.72402   4.72402  17.69773
