Membrane in water
40167
    1TCq1    O1    1   2.059   4.277  12.211 -0.1270 -0.0741  0.4542
    1TCq1    C1    2   1.991   4.390  12.182  0.6684  0.1189 -0.6957
    1TCq1    O2    3   1.879   4.409  12.131  0.1859 -0.2483 -0.0172
    1TCq1    C2    4   2.067   4.503  12.238  0.5758 -0.7321 -0.3452
    1TCq1    C3    5   2.150   4.485  12.343 -0.4415 -0.0622 -0.3406
    1TCq1    C4    6   2.234   4.589  12.373  0.5193  0.5666  0.2809
    1TCq1    C5    7   2.242   4.703  12.304 -0.5818  0.5731  0.0110
    1TCq1    C6    8   2.145   4.718  12.208  0.1396 -0.3114 -0.2433
    1TCq1    C7    9   2.058   4.623  12.171 -0.1559  0.2963  0.0257
    1TCq1    C8   10   2.152   0.106  12.116  0.0013 -0.4610  0.5276
    1TCq1    O4   11   2.062   0.117  12.034 -0.2559  0.0510 -0.8448
    1TCq1    C9   12   2.321   4.565  12.487  0.8633  0.3548  0.8172
    1TCq1    O5   13   2.285   4.476  12.567 -0.1411  0.6741 -0.0431
    1TCq1    O6   14   2.423   4.639  12.498  0.1748 -1.0346  0.1605
    1TCq1    H1   15   2.157   4.288  12.215 -0.0392 -1.4360  1.7559
    1TCq1    H2   16   2.127   4.403  12.410  3.1923 -1.6905 -1.1118
    1TCq1    H3   17   2.318   0.048  12.337 -1.5197  0.0850  3.1644
    1TCq1    H4   18   1.983   4.629  12.093  0.2761  0.8241 -0.3522
    2MPD2     C   19   2.357   0.494  11.868  0.3167  0.1396 -0.2965
    2MPD2    C1   20   2.227   0.479  11.911 -0.5947 -0.5972  0.5467
    2MPD2    C2   21   2.199   0.376  11.998 -0.2284  0.0834 -0.4774
    2MPD2    C3   22   2.298   0.283  12.041  0.8698  0.5254 -0.8472
    2MPD2    C4   23   2.427   0.313  12.016  1.0318 -0.4892  0.2181
    2MPD2    C5   24   2.458   0.422  11.928 -0.3388  0.3198 -0.2798
    2MPD2     H   25   2.096   0.354  12.024 -0.3911  0.7038 -0.6015
    2MPD2    H1   26   2.504   0.250  12.061  0.7047  0.3723  1.9803
    2MPD2    H2   27   2.384   0.579  11.807 -1.5299 -0.2736 -1.6819
    2MPD2    H3   28   2.557   0.444  11.892 -0.7608  0.2075 -1.4871
    2MPD2     N   29   2.271   0.170  12.119 -0.1224  0.1178 -0.2269
    2MPD2    H5   30   2.349   0.131  12.170  0.6489  0.9039 -0.8059
    2MPD2    N1   31   2.122   0.566  11.862 -0.0929  0.0835  0.1954
    2MPD2    H7   32   2.039   0.553  11.918 -1.5578  1.6242 -1.6250
    3TCq1    O1   33   1.752   2.913  10.640  0.0044  0.2030  0.0666
    3TCq1    C1   34   1.832   2.960  10.539 -0.5546  0.5520 -0.6431
    3TCq1    O2   35   1.869   2.905  10.438  0.6902 -0.6198  0.6290
    3TCq1    C2   36   1.834   3.109  10.552 -0.0838 -0.1789  0.5622
    3TCq1    C3   37   1.714   3.166  10.520 -0.0268 -0.2481 -0.8188
    3TCq1    C4   38   1.664   3.273  10.584 -0.4491 -0.5784  0.0648
    3TCq1    C5   39   1.727   3.328  10.694  0.5100 -0.8240  0.5034
    3TCq1    C6   40   1.844   3.267  10.722  0.1248  0.5244  0.0766
    3TCq1    C7   41   1.905   3.161  10.653 -0.5936 -0.3200  0.2468
    3TCq1    C8   42   1.904   3.293  10.845  0.2210 -0.5281  0.9426
    3TCq1    O4   43   2.006   3.230  10.872 -0.1497 -0.6018  0.0455
    3TCq1    C9   44   1.533   3.321  10.548  0.6687 -0.8684  0.3987
    3TCq1    O5   45   1.491   3.285  10.432  0.4489 -0.3477 -0.3226
    3TCq1    O6   46   1.473   3.414  10.610  0.9166 -0.9925  0.4005
    3TCq1    H1   47   1.736   2.966  10.721 -1.5014  0.9131 -0.6861
    3TCq1    H2   48   1.666   3.120  10.434 -0.6881  1.9971 -1.6436
    3TCq1    H3   49   1.691   3.417  10.745 -0.4865 -0.6001 -0.5732
    3TCq1    H4   50   1.995   3.110  10.684  0.4160  1.1887 -0.2141
    4MPD2     C   51   1.807   3.262  11.349  0.3267  0.0157 -0.2937
    4MPD2    C1   52   1.698   3.228  11.274  0.1102  0.8579  0.5880
    4MPD2    C2   53   1.698   3.263  11.141 -0.0585  0.0270  0.9193
    4MPD2    C3   54   1.811   3.299  11.075  0.5783 -0.2809  0.3083
    4MPD2    C4   55   1.926   3.305  11.148 -0.6050  0.9335 -0.7740
    4MPD2    C5   56   1.921   3.303  11.285  0.0111 -0.0376 -0.1770
    4MPD2     H   57   1.607   3.258  11.082 -0.0593 -0.1121  0.9306
    4MPD2    H1   58   2.015   3.345  11.102 -0.6100  0.4400 -1.2177
    4MPD2    H2   59   1.809   3.249  11.457  0.2231 -2.0420 -0.5478
    4MPD2    H3   60   2.010   3.324  11.344 -0.4251 -1.1161  0.8416
    4MPD2     N   61   1.811   3.336  10.937  0.3649 -0.6744 -0.0161
    4MPD2    H5   62   1.721   3.375  10.912 -0.2145 -1.2373  1.1750
    4MPD2    N1   63   1.593   3.160  11.331  0.2928  0.9738 -0.1697
    4MPD2    H7   64   1.607   3.151  11.431  2.3581  2.2264 -0.3442
    5TCq1    O1   65   3.117   3.472  10.995 -0.2461 -0.1306  0.1668
    5TCq1    C1   66   3.069   3.595  11.031 -0.0803  0.2201  0.2119
    5TCq1    O2   67   3.140   3.682  11.072  0.3496  0.0528  0.3598
    5TCq1    C2   68   2.942   3.624  10.967  0.4892 -0.2785  0.0585
    5TCq1    C3   69   2.902   3.753  10.952  0.2125 -0.2389 -0.3521
    5TCq1    C4   70   2.796   3.788  10.873  0.4238 -0.6349  0.1646
    5TCq1    C5   71   2.708   3.691  10.824  0.1070  0.0842  0.4420
    5TCq1    C6   72   2.746   3.562  10.843  0.1189  0.3136  0.8436
    5TCq1    C7   73   2.861   3.525  10.904  0.0147 -0.7780 -0.1143
    5TCq1    C8   74   2.649   3.453  10.802  0.3863 -0.1214 -0.3382
    5TCq1    O4   75   2.653   3.346  10.857  0.2144 -0.1768 -0.3030
    5TCq1    C9   76   2.747   3.923  10.873 -0.8762  0.4687 -0.2875
    5TCq1    O5   77   2.662   3.953  10.783 -0.2850 -0.2338 -0.5264
    5TCq1    O6   78   2.822   4.009  10.925  0.3368 -0.0634 -0.2059
    5TCq1    H1   79   3.045   3.406  10.990  0.5658 -0.9184 -1.0514
    5TCq1    H2   80   2.956   3.830  11.006  1.4624 -1.3297 -0.0465
    5TCq1    H3   81   2.611   3.720  10.785 -0.0012 -0.8830  0.0002
    5TCq1    H4   82   2.868   3.420  10.931  0.9076 -0.4155  1.0578
    6MPD2     C   83   2.410   3.487  10.531  0.0816  0.3521 -0.5842
    6MPD2    C1   84   2.475   3.421  10.627  0.5289 -0.4388 -0.0532
    6MPD2    C2   85   2.446   3.293  10.654  0.0423  0.6262  0.7088
    6MPD2    C3   86   2.341   3.226  10.592  0.5743  0.0565 -0.3000
    6MPD2    C4   87   2.270   3.302  10.500  0.9533 -0.1706  0.3606
    6MPD2    C5   88   2.309   3.423  10.465  0.2063 -0.2068 -0.4020
    6MPD2     H   89   2.505   3.239  10.728  1.0054 -0.3445 -0.7523
    6MPD2    H1   90   2.188   3.273  10.435  1.8479 -0.1191 -0.7884
    6MPD2    H2   91   2.423   3.593  10.510  0.2364  0.6130  0.7848
    6MPD2    H3   92   2.257   3.476  10.386  1.1882  0.3463 -0.6735
    6MPD2     N   93   2.324   3.088  10.613 -0.2303  0.2264  0.0846
    6MPD2    H5   94   2.403   3.035  10.649 -0.4616 -0.4824 -0.4410
    6MPD2    N1   95   2.588   3.488  10.680  0.5210 -0.3139 -1.0498
    6MPD2    H7   96   2.612   3.571  10.627  1.4903  0.8858  1.2849
    7TCq1    O1   97   4.175   3.454  12.691  0.0125 -0.2770  0.0055
    7TCq1    C1   98   4.187   3.422  12.561 -0.0072 -0.7626  0.4332
    7TCq1    O2   99   4.215   3.503  12.471  0.0761 -0.2452 -0.1131
    7TCq1    C2  100   4.173   3.277  12.549 -0.7420  0.3325  0.5146
    7TCq1    C3  101   4.131   3.249  12.425 -0.2649 -0.1333 -0.3498
    7TCq1    C4  102   4.135   3.116  12.383 -0.6298  0.0564  0.0004
    7TCq1    C5  103   4.202   3.023  12.462 -0.0340 -0.9214 -0.3506
    7TCq1    C6  104   4.232   3.056  12.593 -0.2654 -1.0044 -0.2927
    7TCq1    C7  105   4.221   3.187  12.640  0.2101  0.5642  0.9534
    7TCq1    C8  106   4.280   2.939  12.674 -0.0565 -0.2793  0.6464
    7TCq1    O4  107   4.300   2.838  12.612 -0.0915 -0.1709  0.2497
    7TCq1    C9  108   4.104   3.089  12.250 -0.2564  0.1439  0.2671
    7TCq1    O5  109   4.156   2.989  12.198  0.4217 -0.5311 -0.4581
    7TCq1    O6  110   4.012   3.162  12.212 -0.1522  0.0085 -0.1974
    7TCq1    H1  111   4.133   3.384  12.745 -0.2235  0.3409  0.6313
    7TCq1    H2  112   4.094   3.329  12.361  0.4940 -0.0153 -0.6477
    7TCq1    H3  113   4.211   2.924  12.417  1.0340 -0.8118 -0.3802
    7TCq1    H4  114   4.244   3.211  12.743  0.3499  0.6685  0.8982
    8MPD2     C  115   4.445   2.718  13.108 -0.7827 -0.5942 -0.4346
    8MPD2    C1  116   4.478   2.694  12.970 -0.2776 -0.3015 -0.2611
    8MPD2    C2  117   4.424   2.772  12.872  0.3580 -0.1044 -0.2154
    8MPD2    C3  118   4.339   2.872  12.903 -0.0434 -0.0580  0.1462
    8MPD2    C4  119   4.307   2.903  13.036  0.6568  0.2741 -0.0655
    8MPD2    C5  120   4.364   2.827  13.135 -0.4507 -0.0188 -0.6097
    8MPD2     H  121   4.449   2.747  12.769  0.0161 -1.3088 -0.0139
    8MPD2    H1  122   4.233   2.974  13.070  1.9092  1.1478  0.8553
    8MPD2    H2  123   4.493   2.671  13.193 -0.1055  0.9193  0.0024
    8MPD2    H3  124   4.333   2.852  13.236  3.3496 -0.5942  0.7222
    8MPD2     N  125   4.283   2.962  12.813  0.9673 -0.5862 -0.5866
    8MPD2    H5  126   4.244   3.046  12.855 -0.9878 -3.2876  3.0171
    8MPD2    N1  127   4.576   2.592  12.943  0.1772  0.1166  0.7773
    8MPD2    H7  128   4.620   2.548  13.023  2.7725  1.9645  0.3770
    9TCq1    O1  129   2.926   1.047  10.681 -0.5162  0.4746 -0.8563
    9TCq1    C1  130   2.945   1.169  10.735 -0.0121 -0.6581 -0.1644
    9TCq1    O2  131   3.034   1.250  10.702  0.2817  0.2364 -0.1229
    9TCq1    C2  132   2.816   1.200  10.800 -0.1978 -0.1524  0.2896
    9TCq1    C3  133   2.765   1.100  10.872  0.2071  0.2662  0.2548
    9TCq1    C4  134   2.656   1.128  10.947 -0.5902  0.4716 -0.1540
    9TCq1    C5  135   2.597   1.252  10.950  1.0642  0.0789  0.3734
    9TCq1    C6  136   2.663   1.354  10.887 -0.8724 -0.0003  0.4119
    9TCq1    C7  137   2.779   1.329  10.819  0.4518 -0.0371 -0.0646
    9TCq1    C8  138   2.615   1.487  10.863  0.3639  0.2136  0.1966
    9TCq1    O4  139   2.663   1.562  10.778 -0.6411 -0.2232  0.1712
    9TCq1    C9  140   2.606   1.033  11.040 -0.5021 -0.2948  0.2564
    9TCq1    O5  141   2.528   1.077  11.127 -0.8326 -0.1501  0.0889
    9TCq1    O6  142   2.624   0.910  11.017 -0.3130  0.1058 -0.5538
    9TCq1    H1  143   2.835   1.020  10.704  0.1297 -0.1476  1.0632
    9TCq1    H2  144   2.812   1.003  10.883  0.2580  0.4661  1.7778
    9TCq1    H3  145   2.511   1.269  11.015  0.8079 -1.5943  0.4735
    9TCq1    H4  146   2.825   1.406  10.758 -0.2232  0.6789  0.3315
   10MPD2     C  147   2.465   1.761  10.872 -0.4021  0.0355 -0.1025
   10MPD2    C1  148   2.452   1.656  10.960  0.3411  0.5079  0.0739
   10MPD2    C2  149   2.372   1.676  11.069 -0.7024 -0.2358  0.1474
   10MPD2    C3  150   2.294   1.790  11.083  0.1166 -0.0812  0.2696
   10MPD2    C4  151   2.300   1.895  10.995  0.5158 -0.0898  0.0357
   10MPD2    C5  152   2.387   1.878  10.888  0.4568 -0.8054 -0.4758
   10MPD2     H  153   2.368   1.594  11.140  2.5097 -0.3909  0.1667
   10MPD2    H1  154   2.235   1.980  11.010  1.8019  0.6251  1.5415
   10MPD2    H2  155   2.532   1.749  10.787  0.2313 -1.6606  0.6435
   10MPD2    H3  156   2.379   1.953  10.811  0.1332  0.3826  0.7076
   10MPD2     N  157   2.211   1.811  11.199 -0.4202  0.4238  0.1291
   10MPD2    H5  158   2.166   1.902  11.208 -0.4185  0.2674  1.6643
   10MPD2    N1  159   2.520   1.530  10.951  0.9353  0.6343  0.7608
   10MPD2    H7  160   2.496   1.453  11.012  1.4563  0.0345  0.2188
   11TCq1    O1  161   3.856   0.724  13.227 -0.4497  0.0379  0.0141
   11TCq1    C1  162   3.751   0.689  13.303  0.5217  0.1050  0.3548
   11TCq1    O2  163   3.673   0.602  13.270 -0.0114 -0.1077 -0.4883
   11TCq1    C2  164   3.704   0.803  13.383  0.6733 -0.7611 -0.1196
   11TCq1    C3  165   3.798   0.887  13.434  0.2883  0.2767  0.3637
   11TCq1    C4  166   3.750   0.981  13.520  0.1512 -0.6455  0.3751
   11TCq1    C5  167   3.615   0.996  13.548  0.3366 -0.4502  0.8265
   11TCq1    C6  168   3.527   0.907  13.499  0.0034 -0.3073 -0.0213
   11TCq1    C7  169   3.570   0.810  13.417 -0.2252 -0.3820  0.4371
   11TCq1    C8  170   3.388   0.932  13.524 -0.9920  0.7763  0.0749
   11TCq1    O4  171   3.348   1.035  13.578  0.5679  0.6587  0.4188
   11TCq1    C9  172   3.839   1.070  13.579 -0.2764 -0.3202 -0.5520
   11TCq1    O5  173   3.956   1.025  13.574 -0.6460  0.1213  0.1616
   11TCq1    O6  174   3.796   1.140  13.677 -0.6486 -0.0529 -0.1127
   11TCq1    H1  175   3.883   0.816  13.246  2.5569 -0.6700 -0.8227
   11TCq1    H2  176   3.903   0.877  13.408  0.0008  0.3960 -0.8355
   11TCq1    H3  177   3.579   1.070  13.619  1.4414  1.1208 -0.2585
   11TCq1    H4  178   3.504   0.736  13.373 -0.2183  1.2843 -2.4095
   12MPD2     C  179   3.083   0.926  13.516 -0.0175 -0.2167  0.4344
   12MPD2    C1  180   3.167   0.816  13.498 -0.0372 -0.1833 -0.0229
   12MPD2    C2  181   3.107   0.689  13.484  0.2841 -0.2743  0.0563
   12MPD2    C3  182   2.972   0.673  13.484 -0.1072  0.3156  0.1505
   12MPD2    C4  183   2.892   0.780  13.511  0.6983  0.0881  0.4737
   12MPD2    C5  184   2.949   0.901  13.529  0.0203  0.2526  0.3116
   12MPD2     H  185   3.165   0.602  13.458  0.2896 -0.3164  0.2109
   12MPD2    H1  186   2.785   0.760  13.509  0.9228 -1.2693  1.3594
   12MPD2    H2  187   3.117   1.029  13.512  1.1324 -0.5864  0.6922
   12MPD2    H3  188   2.889   0.991  13.534  1.4502  1.2081  0.2087
   12MPD2     N  189   2.926   0.540  13.462  0.0056 -0.2994 -0.2545
   12MPD2    H5  190   2.995   0.466  13.456  1.4908  0.8246  3.6156
   12MPD2    N1  191   3.305   0.827  13.489 -0.0982  0.6253 -0.3791
   12MPD2    H7  192   3.344   0.741  13.452 -3.2590 -0.9103 -0.0969
   13TCq1    O1  193   2.320   1.177  10.280  0.0543 -0.8365 -0.0335
   13TCq1    C1  194   2.327   1.304  10.318  0.0254 -0.3946  0.1749
   13TCq1    O2  195   2.396   1.383  10.258 -0.9374  0.5629  0.7694
   13TCq1    C2  196   2.190   1.337  10.357  0.4371 -0.2092 -0.2673
   13TCq1    C3  197   2.148   1.466  10.330 -0.9145  0.3435  0.0844
   13TCq1    C4  198   2.030   1.511  10.376  0.3769  0.0411  0.7519
   13TCq1    C5  199   1.955   1.431  10.461  0.3639  0.1577  0.0251
   13TCq1    C6  200   1.996   1.305  10.486  0.6396  0.0100 -0.7960
   13TCq1    C7  201   2.117   1.258  10.440 -0.1723  0.5396 -0.1473
   13TCq1    C8  202   1.920   1.231  10.584 -0.3656 -0.7133  0.2801
   13TCq1    O4  203   1.851   1.295  10.659  0.5188  0.4157  0.2063
   13TCq1    C9  204   1.994   1.648  10.355 -0.0442  0.3871 -0.3200
   13TCq1    O5  205   1.891   1.688  10.407  0.2661  0.2873  0.3492
   13TCq1    O6  206   2.077   1.721  10.294 -1.0045  0.5070  0.2767
   13TCq1    H1  207   2.260   1.106  10.312 -0.9718 -0.3455 -0.8907
   13TCq1    H2  208   2.213   1.530  10.271  0.6504  0.2556  1.7074
   13TCq1    H3  209   1.858   1.458  10.500 -0.1528  0.0242 -1.1612
   13TCq1    H4  210   2.150   1.161  10.475 -2.3700 -0.2910 -0.4110
   14MPD2     C  211   1.791   0.890  10.561 -0.3177  0.0775  0.0001
   14MPD2    C1  212   1.826   1.011  10.621 -0.0964 -0.0656  0.0217
   14MPD2    C2  213   1.777   1.038  10.744 -0.1847 -0.0104  0.0826
   14MPD2    C3  214   1.702   0.951  10.818  0.0828  0.9472 -0.7502
   14MPD2    C4  215   1.672   0.832  10.760  0.1028 -0.5758 -0.0639
   14MPD2    C5  216   1.710   0.799  10.632  0.0614 -0.8025 -0.0420
   14MPD2     H  217   1.803   1.129  10.798 -0.0118  0.0833 -0.1581
   14MPD2    H1  218   1.595   0.766  10.799  2.2798 -2.4909  0.9728
   14MPD2    H2  219   1.822   0.854  10.463  0.9735  0.0148  0.4417
   14MPD2    H3  220   1.691   0.699  10.595 -2.5079 -0.5286  0.5546
   14MPD2     N  221   1.657   0.990  10.941 -0.5311  0.8620 -0.1624
   14MPD2    H5  222   1.698   1.077  10.974 -0.0832  0.7607 -0.4459
   14MPD2    N1  223   1.915   1.101  10.556  0.5243  0.3533  0.0933
   14MPD2    H7  224   1.962   1.069  10.472 -0.2709  2.9182 -1.3388
   15TCq1    O1  225   3.802   0.209   1.859  0.1130 -0.5426 -0.0435
   15TCq1    C1  226   3.771   0.340   1.825  0.7421  0.3951  0.5325
   15TCq1    O2  227   3.837   0.441   1.854 -0.5200 -0.7854  0.1998
   15TCq1    C2  228   3.664   0.329   1.728 -0.4175  0.2207  0.4695
   15TCq1    C3  229   3.592   0.445   1.707 -0.4208 -0.8203 -0.6368
   15TCq1    C4  230   3.527   0.469   1.591  0.6076  0.1990  0.6927
   15TCq1    C5  231   3.538   0.372   1.494 -0.4600  0.9713 -0.7307
   15TCq1    C6  232   3.605   0.259   1.508 -0.3181 -0.0361 -0.0760
   15TCq1    C7  233   3.667   0.233   1.626  0.4799  0.2463 -0.2567
   15TCq1    C8  234   3.631   0.173   1.390 -0.3547  0.6929 -0.0746
   15TCq1    O4  235   3.708   0.082   1.408 -0.1326 -0.1528  0.3861
   15TCq1    C9  236   3.465   0.597   1.560  0.2394 -0.0220 -0.5290
   15TCq1    O5  237   3.406   0.613   1.449  0.9179 -0.3414  0.3114
   15TCq1    O6  238   3.485   0.682   1.650  0.2776  0.5134 -0.5404
   15TCq1    H1  239   3.728   0.151   1.834  1.6720 -1.5928 -2.1912
   15TCq1    H2  240   3.580   0.525   1.779 -0.1800 -0.6367 -0.7991
   15TCq1    H3  241   3.462   0.377   1.417 -0.7277 -0.9555 -0.6161
   15TCq1    H4  242   3.716   0.136   1.635 -0.4456 -0.2249 -0.2637
   16MPD2     C  243   3.485   0.181   1.058  0.5577 -0.2241  0.0775
   16MPD2    C1  244   3.559   0.126   1.160  0.0636 -0.3146  1.2066
   16MPD2    C2  245   3.617   0.003   1.137  0.7487  0.2641  0.3304
   16MPD2    C3  246   3.608   4.662   1.014  0.0181  0.1767  0.6356
   16MPD2    C4  247   3.542   0.003   0.914  0.0187  0.0971  0.9514
   16MPD2    C5  248   3.478   0.119   0.939 -0.0457 -0.5872  0.1180
   16MPD2     H  249   3.675   4.683   1.217 -1.3041 -0.1329  1.6018
   16MPD2    H1  250   3.527   4.687   0.814  4.0638 -1.1238  0.8071
   16MPD2    H2  251   3.432   0.274   1.075  0.4971 -0.3613  0.6304
   16MPD2    H3  252   3.418   0.144   0.853 -0.5066 -0.6471  0.4223
   16MPD2     N  253   3.677   4.540   0.989 -0.0184  0.2777  0.6687
   16MPD2    H5  254   3.750   4.516   1.055  0.0516 -0.3307  0.3664
   16MPD2    N1  255   3.566   0.208   1.278 -0.0952 -0.5412  0.7050
   16MPD2    H7  256   3.528   0.302   1.279 -1.1052 -0.9504  0.9622
   17TCq1    O1  257   1.474   4.322  10.466 -0.2882 -0.2752 -0.5166
   17TCq1    C1  258   1.418   4.227  10.547  0.1224  0.3575 -0.5968
   17TCq1    O2  259   1.330   4.239  10.629 -0.1766  0.9194 -1.0632
   17TCq1    C2  260   1.482   4.102  10.499 -0.4693 -0.2088 -0.5783
   17TCq1    C3  261   1.404   3.990  10.507  0.7617  0.3449  0.2260
   17TCq1    C4  262   1.441   3.882  10.432 -0.8471  0.4418 -0.0378
   17TCq1    C5  263   1.555   3.875  10.366  0.5462  0.1847 -2.2470
   17TCq1    C6  264   1.634   3.985  10.360 -0.1007 -0.0370  0.1478
   17TCq1    C7  265   1.595   4.104  10.423 -0.1549  0.3882  0.1209
   17TCq1    C8  266   1.735   3.980  10.252 -0.3726 -0.4131 -0.1034
   17TCq1    O4  267   1.755   3.880  10.183 -0.4412  0.2537  0.2869
   17TCq1    C9  268   1.351   3.768  10.430 -1.0961 -0.0820  0.0282
   17TCq1    O5  269   1.402   3.654  10.399  0.0452 -0.1276  0.0468
   17TCq1    O6  270   1.235   3.788  10.472 -0.0118 -0.1284 -0.2576
   17TCq1    H1  271   1.529   4.285  10.392 -0.8417  1.8730 -1.9999
   17TCq1    H2  272   1.306   3.999  10.553  1.2338  1.3128  1.0654
   17TCq1    H3  273   1.577   3.787  10.306  1.0480  0.1288 -1.9787
   17TCq1    H4  274   1.665   4.186  10.428  0.4894 -0.0717 -1.4803
   18MPD2     C  275   1.976   4.042  10.096  0.1753  0.2889 -0.2957
   18MPD2    C1  276   1.910   4.134  10.177  0.2111 -1.1865 -0.1791
   18MPD2    C2  277   1.961   4.258  10.196  0.6885  0.0171 -0.2573
   18MPD2    C3  278   2.056   4.304  10.106 -0.3186 -0.0444 -0.0194
   18MPD2    C4  279   2.110   4.216  10.014  0.1881 -0.2193 -0.2655
   18MPD2    C5  280   2.077   4.088  10.014 -0.1705  0.2354  0.3212
   18MPD2     H  281   1.910   4.318  10.270 -1.6278  0.5384 -2.2853
   18MPD2    H1  282   2.185   4.240   9.940  1.6297 -0.5630  1.0794
   18MPD2    H2  283   1.948   3.937  10.095 -0.3002  0.3957  1.2847
   18MPD2    H3  284   2.120   4.019   9.942 -1.0431  0.7029 -0.6466
   18MPD2     N  285   2.088   4.440  10.101  0.4582 -0.5845  0.1374
   18MPD2    H5  286   2.143   4.467  10.020 -0.7298 -0.1635 -0.5342
   18MPD2    N1  287   1.794   4.100  10.250 -0.0497 -0.1807  0.3882
   18MPD2    H7  288   1.754   4.175  10.306  1.4970 -0.3164  1.7003
   19TMC2    C1  289   4.247   0.539  13.518  0.4746 -0.2880  0.3115
   19TMC2    C2  290   4.297   0.551  13.392 -0.0270 -0.3865 -0.7270
   19TMC2    C3  291   4.217   0.531  13.279  0.5700  0.7918  0.1265
   19TMC2    C4  292   4.120   0.494  13.528 -0.7104 -0.2056  0.5020
   19TMC2    C5  293   4.046   0.454  13.422 -0.1656 -0.1947  0.1584
   19TMC2    C6  294   4.089   0.470  13.290  0.0471  0.2627  0.5084
   19TMC2     C  295   4.323   0.596  13.631  0.6338 -0.3339  0.4525
   19TMC2     O  296   4.428   0.655  13.611 -0.4945  0.0746 -0.2850
   19TMC2     H  297   4.400   0.584  13.384 -0.2112 -0.1771 -2.1580
   19TMC2    H1  298   4.073   0.498  13.625 -1.4615 -0.3097  0.1389
   19TMC2    H2  299   4.025   0.463  13.203  0.8348 -0.4757 -0.0142
   19TMC2    C7  300   3.939   0.364  13.451 -0.0931  0.0508  0.1285
   19TMC2    C8  301   4.273   0.548  13.143 -0.2507 -0.6878 -0.2714
   19TMC2    O1  302   3.888   0.372  13.562  0.5174  0.0988 -0.6567
   19TMC2    O2  303   4.227   0.484  13.050 -0.8381 -0.0476  0.3170
   19TMC2    O5  304   4.322   0.673  13.146  0.2347 -0.2264  0.4598
   19TMC2    H5  305   4.329   0.726  13.228  1.5327  2.1263 -1.1703
   20MPD2     C  306   4.417   0.695  13.907 -0.2991 -0.4373 -0.9271
   20MPD2    C1  307   4.298   0.627  13.881 -0.2844  0.3525  0.3524
   20MPD2    C2  308   4.208   0.604  13.986  0.2775  0.6576 -0.3028
   20MPD2    C3  309   4.238   0.644  14.119  0.0174 -0.9189  0.3554
   20MPD2    C4  310   4.360   0.711  14.129  0.1050 -0.8030 -0.0722
   20MPD2    C5  311   4.448   0.739  14.031  0.0512  0.1543 -0.2217
   20MPD2     H  312   4.123   0.541  13.964  0.6039  0.2868 -0.4974
   20MPD2    H1  313   4.392   0.751  14.224  3.0459 -0.3467 -1.2690
   20MPD2    H2  314   4.485   0.702  13.824  0.1458  1.9555 -0.3731
   20MPD2    H3  315   4.545   0.785  14.046  0.0526 -0.2393  0.9513
   20MPD2     N  316   4.158   0.636  14.238 -0.8213  0.5496  0.2755
   20MPD2    H5  317   4.204   0.679  14.317  0.3770 -0.6115  0.2101
   20MPD2    N1  318   4.263   0.565  13.754  0.8612  0.3128 -0.2220
   20MPD2    H7  319   4.174   0.518  13.764  1.5524 -1.1092 -0.7618
   21MPD2     C  320   1.256   1.878  14.304  0.4323 -0.4904 -0.1263
   21MPD2    C1  321   1.267   1.801  14.418  0.1722  0.2830 -0.4169
   21MPD2    C2  322   1.177   1.819  14.524  0.5513  0.7436  0.2276
   21MPD2    C3  323   1.088   1.926  14.529  0.0919  0.4979 -0.2648
   21MPD2    C4  324   1.084   1.996  14.413  0.0748  0.8826 -0.0006
   21MPD2    C5  325   1.159   1.977  14.302  0.2438 -0.1762 -0.5531
   21MPD2     H  326   1.186   1.762  14.615 -0.3643 -1.0561 -0.8252
   21MPD2    H1  327   1.010   2.074  14.424 -2.3384 -1.4658  0.5511
   21MPD2    H2  328   1.308   1.858  14.211 -1.7751 -1.3812 -1.1877
   21MPD2    H3  329   1.132   2.025  14.209 -0.8156  1.2523  0.4822
   21MPD2     N  330   0.989   1.943  14.628  0.6361  0.8381  0.5564
   21MPD2    H5  331   0.931   2.024  14.607 -2.0608 -0.6174  2.4373
   21MPD2    N1  332   1.370   1.702  14.434  0.0086 -0.1343  0.6521
   21MPD2    H7  333   1.361   1.637  14.511  0.0780 -0.0532  0.7281
   22TCq2    C1  334   0.967   1.863  14.742  0.0446  0.5937 -0.0662
   22TCq2    O2  335   1.026   1.768  14.782  0.7439 -0.1956 -0.3602
   22TCq2    C2  336   0.854   1.911  14.817 -0.1062 -0.5231  1.1358
   22TCq2    C3  337   0.821   1.827  14.921  0.2885 -0.0553 -0.3255
   22TCq2    C4  338   0.688   1.812  14.958 -0.6984  0.0595  0.3467
   22TCq2    C5  339   0.593   1.883  14.893  0.1632 -0.4507  0.2956
   22TCq2    C6  340   0.637   1.954  14.779 -0.1029 -0.5110  0.1424
   22TCq2    C7  341   0.767   1.972  14.737  0.2427  0.5684  0.3735
   22TCq2    C8  342   0.541   2.025  14.710  0.1163  0.1924  0.0690
   22TCq2    O4  343   0.433   2.054  14.757  0.1198 -0.2215 -0.3986
   22TCq2    C9  344   0.646   1.725  15.060 -0.2989 -0.6416  0.0916
   22TCq2    O5  345   0.731   1.662  15.131  0.2732 -0.9974 -0.3452
   22TCq2    O6  346   0.519   1.721  15.078 -0.0278  0.0671 -0.0880
   22TCq2    H2  347   0.900   1.781  14.979 -2.1083 -1.2422  1.9826
   22TCq2    H3  348   0.488   1.864  14.916  0.3056 -2.2806 -0.6171
   22TCq2    H4  349   0.799   2.061  14.685  0.3666  1.4789  1.9890
   23MPD2     C  350   3.171   2.570  14.751  0.4094  0.3700  0.4820
   23MPD2    C1  351   3.078   2.468  14.773 -0.3064  0.6907 -0.2528
   23MPD2    C2  352   2.987   2.433  14.677 -0.1540  0.5987 -0.0419
   23MPD2    C3  353   2.999   2.491  14.552  0.2676  0.6546  0.3511
   23MPD2    C4  354   3.099   2.586  14.531 -0.6994 -0.3097 -0.7053
   23MPD2    C5  355   3.177   2.626  14.633 -0.2468 -1.1653 -0.5360
   23MPD2     H  356   2.910   2.357  14.689 -0.6191  0.7863 -1.7546
   23MPD2    H1  357   3.119   2.639  14.438 -1.7807  1.0936 -0.1302
   23MPD2    H2  358   3.252   2.595  14.819  0.7070 -0.1221  0.2981
   23MPD2    H3  359   3.257   2.693  14.605 -0.7795 -0.7546 -1.0912
   23MPD2     N  360   2.915   2.476  14.444 -0.5947 -0.1768 -0.0500
   23MPD2    H5  361   2.944   2.515  14.355 -0.3293 -2.7985 -1.1104
   23MPD2    N1  362   3.050   2.417  14.902  0.1174  0.0281  0.0181
   23MPD2    H7  363   2.982   2.342  14.912 -0.4295  0.4711 -0.3995
   24TCq2    C1  364   2.789   2.420  14.448  0.0258  0.1809 -1.1702
   24TCq2    O2  365   2.735   2.340  14.528  0.6570  0.2188  0.6132
   24TCq2    C2  366   2.717   2.432  14.319  0.7206 -0.2615 -0.5734
   24TCq2    C3  367   2.741   2.540  14.230  0.6067 -1.0561 -0.2415
   24TCq2    C4  368   2.662   2.546  14.122 -0.3044 -0.5472  0.1443
   24TCq2    C5  369   2.566   2.452  14.093  0.4462  0.4486 -0.4575
   24TCq2    C6  370   2.548   2.343  14.177 -0.0750 -0.2391  0.2045
   24TCq2    C7  371   2.628   2.332  14.288 -1.2686 -0.4190 -0.2572
   24TCq2    C8  372   2.452   2.235  14.153  0.5407 -0.5134  0.0665
   24TCq2    O4  373   2.473   2.132  14.214 -0.9529 -0.2101  0.2692
   24TCq2    C9  374   2.678   2.660  14.033 -0.0518 -0.1245 -0.2660
   24TCq2    O5  375   2.769   2.742  14.051  0.2271  0.2122  0.2867
   24TCq2    O6  376   2.594   2.681  13.942 -0.1248  0.2246  0.4590
   24TCq2    H2  377   2.812   2.621  14.245 -1.7229  0.2875  3.3786
   24TCq2    H3  378   2.495   2.466  14.013 -2.4960 -1.2137  1.8566
   24TCq2    H4  379   2.617   2.248  14.356 -0.0971 -0.6487 -0.3419
   25TMC2    C1  380   2.096   4.314  11.518  0.0855  0.6240 -0.2699
   25TMC2    C2  381   2.198   4.293  11.604 -0.2040  1.0956 -0.3627
   25TMC2    C3  382   2.174   4.322  11.739  0.2593 -0.1222  0.6288
   25TMC2    C4  383   1.976   4.377  11.549 -0.6299 -0.2493  1.0631
   25TMC2    C5  384   1.960   4.420  11.687  0.3742 -0.0872  0.8345
   25TMC2    C6  385   2.059   4.387  11.775  0.6238  0.0194  0.0761
   25TMC2     C  386   2.121   4.269  11.379 -0.5935  0.7241  0.0478
   25TMC2     O  387   2.240   4.278  11.343 -0.4886 -0.5641 -0.4335
   25TMC2     H  388   2.294   4.257  11.571 -0.5004 -0.0880  0.0649
   25TMC2    H1  389   1.904   4.410  11.475  1.0155  0.4478 -0.2295
   25TMC2    H2  390   2.053   4.418  11.879 -1.3458 -0.9734  0.2488
   25TMC2    C7  391   1.841   4.479  11.740  0.5918  0.2250 -0.7302
   25TMC2    C8  392   2.277   4.318  11.837  0.7953  0.1072 -0.5079
   25TMC2    O1  393   1.847   4.541  11.842 -0.2093 -0.3253  0.6265
   25TMC2    O2  394   2.278   4.388  11.938 -0.1774 -0.5577 -0.3037
   25TMC2    O5  395   2.361   4.218  11.823  0.2411  0.1697 -0.6901
   25TMC2    H5  396   2.343   4.149  11.755  2.3935 -2.0412  1.0010
   26MPD2     C  397   1.971   4.149  10.908 -0.0899  0.4144  0.0257
   26MPD2    C1  398   1.865   4.123  10.993  1.1605  0.1674  0.6661
   26MPD2    C2  399   1.875   4.158  11.128  0.4230 -0.2451  0.0002
   26MPD2    C3  400   1.996   4.211  11.181 -0.3678 -0.9211  1.1142
   26MPD2    C4  401   2.105   4.224  11.090  0.7220  0.5799  0.0779
   26MPD2    C5  402   2.086   4.209  10.956 -0.0539 -0.5581 -0.0729
   26MPD2     H  403   1.789   4.147  11.193 -0.2566  1.3023 -0.6397
   26MPD2    H1  404   2.199   4.260  11.129  1.2223  0.1000 -0.6658
   26MPD2    H2  405   1.946   4.154  10.803 -0.2735  2.4304  0.1725
   26MPD2    H3  406   2.159   4.227  10.878 -2.4547 -0.4825 -2.3069
   26MPD2     N  407   2.004   4.230  11.320 -0.4604  0.0060  0.5709
   26MPD2    H5  408   1.919   4.223  11.375 -1.3346  0.0666 -0.7620
   26MPD2    N1  409   1.754   4.064  10.933 -0.2821  0.3837 -0.9223
   26MPD2    H7  410   1.756   4.058  10.831 -0.5408  0.5219 -0.9372
   27TMC2    C1  411   0.607   2.107  11.798 -0.3013  0.1324 -0.4882
   27TMC2    C2  412   0.575   2.205  11.711  0.4968 -0.6933 -0.1914
   27TMC2    C3  413   0.623   2.331  11.732  0.5188 -0.4759  0.1003
   27TMC2    C4  414   0.702   2.137  11.903  0.3735 -0.6053  0.3152
   27TMC2    C5  415   0.755   2.264  11.924 -0.7114 -0.1141 -0.0004
   27TMC2    C6  416   0.712   2.362  11.834  0.3130 -0.0378 -0.4944
   27TMC2     C  417   0.491   2.029  11.836 -0.3265 -0.8301  0.5150
   27TMC2     O  418   0.384   2.084  11.813 -0.5084 -0.3825 -0.0021
   27TMC2     H  419   0.507   2.184  11.629 -0.4046  1.1229  0.0809
   27TMC2    H1  420   0.726   2.062  11.976  0.5381 -0.5369  0.3307
   27TMC2    H2  421   0.758   2.460  11.836  0.0074  0.0719  1.3277
   27TMC2    C7  422   0.790   2.300  12.065  0.0072 -0.3849  0.5478
   27TMC2    C8  423   0.605   2.414  11.619 -0.6689 -0.0393 -0.3598
   27TMC2    O1  424   0.787   2.219  12.157  0.2159  0.1588 -0.1780
   27TMC2    O2  425   0.585   2.368  11.506 -0.3390  0.5472  0.1528
   27TMC2    O5  426   0.662   2.533  11.645 -0.3618 -0.0777 -0.2822
   27TMC2    H5  427   0.614   2.568  11.724 -0.7144  0.0523 -0.5558
   28MPD2     C  428   0.271   1.623  12.054 -0.2328 -0.0935  0.0414
   28MPD2    C1  429   0.215   1.752  12.039  0.0056 -0.1548  0.8103
   28MPD2    C2  430   0.296   1.839  11.957  0.4848 -0.2090  0.0511
   28MPD2    C3  431   0.426   1.806  11.914 -0.4695  0.8441  0.7021
   28MPD2    C4  432   0.466   1.677  11.928 -1.2355  0.3863 -0.2588
   28MPD2    C5  433   0.387   1.592  11.997  0.1817  0.0979  0.1039
   28MPD2     H  434   0.260   1.940  11.942  1.0989  0.2039  1.3987
   28MPD2    H1  435   0.560   1.644  11.885 -0.9257  1.2735 -0.2539
   28MPD2    H2  436   0.226   1.551  12.122  0.4809 -1.2639 -0.7342
   28MPD2    H3  437   0.424   1.491  12.011 -0.3501 -0.3712 -1.7651
   28MPD2     N  438   0.519   1.898  11.868  0.9072  0.8129 -0.2251
   28MPD2    H5  439   0.619   1.883  11.878  1.1633  1.7756 -1.4782
   28MPD2    N1  440   0.113   1.793  12.123 -0.2653  0.2412 -0.6035
   28MPD2    H7  441   0.078   1.729  12.194 -2.2022  0.4794 -1.3358
   29MPD2     C  442   4.508   4.103  13.952  0.0498 -0.6352  0.1173
   29MPD2    C1  443   4.643   4.121  13.943  0.4493 -0.4025 -0.6576
   29MPD2    C2  444   4.701   4.244  13.994 -0.3853 -0.8451 -0.7025
   29MPD2    C3  445   4.613   4.349  14.037  0.3243  0.2567 -0.0155
   29MPD2    C4  446   4.480   4.332  14.029 -0.3204  0.0535 -0.2855
   29MPD2    C5  447   4.433   4.209  13.996 -0.0495 -0.9302  0.2722
   29MPD2     H  448   0.084   4.259  13.991 -0.3416 -1.1798 -0.8979
   29MPD2    H1  449   4.415   4.409  14.070 -2.2067 -0.8873 -1.5589
   29MPD2    H2  450   4.457   4.012  13.922 -3.0232  1.4717 -1.0911
   29MPD2    H3  451   4.326   4.190  13.997  0.0780 -1.7148 -1.1822
   29MPD2     N  452   4.654   4.469  14.094  0.3328 -0.0661 -0.1524
   29MPD2    H5  453   4.590   4.546  14.110  3.4111  2.2840  0.8203
   29MPD2    N1  454   0.006   4.025  13.893  0.0670 -0.4804  0.2015
   29MPD2    H7  455   0.104   4.046  13.908  0.4919 -3.1766  1.2524
   30TCq2    C1  456   0.059   4.511  14.118 -0.2379 -0.5355  0.7313
   30TCq2    O2  457   0.159   4.468  14.066 -0.1849  0.3487 -0.2834
   30TCq2    C2  458   0.061   4.647  14.175  0.3598  0.6608  0.3792
   30TCq2    C3  459   4.690   4.694  14.268 -0.1652  0.8189  0.1735
   30TCq2    C4  460   4.707   0.094  14.325  0.2558 -0.8588 -0.5532
   30TCq2    C5  461   0.078   0.179  14.276  0.4559  0.3401  0.4718
   30TCq2    C6  462   0.163   0.132  14.177 -0.5510 -0.1341 -0.1333
   30TCq2    C7  463   0.167   4.723  14.137  0.1909 -0.9637 -0.8199
   30TCq2    C8  464   0.270   0.218  14.123  0.2564 -0.5340 -0.2401
   30TCq2    O4  465   0.314   0.188  14.013  0.2025  0.7314 -0.1184
   30TCq2    C9  466   4.629   0.134  14.439  0.3448 -0.7397 -0.2194
   30TCq2    O5  467   4.672   0.228  14.508  0.1147  0.9155  0.1879
   30TCq2    O6  468   4.534   0.056  14.479  0.2519  0.2838 -0.3506
   30TCq2    H2  469   4.595   4.646  14.286 -0.5322  1.7729  0.8200
   30TCq2    H3  470   0.074   0.286  14.293 -1.3446  0.2151  0.8175
   30TCq2    H4  471   0.245   4.692  14.069 -1.9381 -2.7307 -2.4741
   31MPD2     C  472   2.512   3.034  14.663 -1.0028  0.6124 -1.2415
   31MPD2    C1  473   2.391   3.015  14.607 -0.1134  1.1723 -0.1605
   31MPD2    C2  474   2.310   2.921  14.672 -0.1355 -0.6466  0.0330
   31MPD2    C3  475   2.355   2.845  14.777 -0.4030  0.3071  0.4797
   31MPD2    C4  476   2.467   2.883  14.841  0.4650 -0.1541 -0.0636
   31MPD2    C5  477   2.546   2.982  14.783  0.0278  0.1237  0.5731
   31MPD2     H  478   2.209   2.905  14.636 -0.2405  0.2403 -0.0680
   31MPD2    H1  479   2.516   2.836  14.925  0.0380  0.0954  0.3268
   31MPD2    H2  480   2.592   3.095  14.621 -0.0843  0.9728  1.0550
   31MPD2    H3  481   2.642   3.000  14.830  0.9183  0.6881 -1.4707
   31MPD2     N  482   2.286   2.746  14.846  0.2997 -0.7973 -0.2549
   31MPD2    H5  483   2.322   2.728  14.939 -1.5930  2.0064  1.0237
   31MPD2    N1  484   2.357   3.082  14.489 -0.7876 -0.1963 -0.0722
   31MPD2    H7  485   2.429   3.147  14.456 -0.6827  0.0973  0.7387
   32TCq2    C1  486   2.174   2.683  14.806 -0.2146  0.3269 -0.1921
   32TCq2    O2  487   2.111   2.691  14.698  0.2427 -0.1645  0.0977
   32TCq2    C2  488   2.126   2.591  14.912 -1.0436  0.3100  0.3668
   32TCq2    C3  489   2.006   2.527  14.883  0.0342  0.2148  0.2962
   32TCq2    C4  490   1.954   2.447  14.984  0.4326  0.0538  0.6841
   32TCq2    C5  491   2.012   2.428  15.106 -0.2437  0.0880  0.0860
   32TCq2    C6  492   2.132   2.489  15.126  0.0679 -0.0726 -0.0256
   32TCq2    C7  493   2.188   2.576  15.033  0.3326  0.1962 -0.6135
   32TCq2    C8  494   2.195   2.489  15.260  0.3111 -0.3483  0.4142
   32TCq2    O4  495   2.189   2.384  15.320  0.1385 -0.2949  0.4915
   32TCq2    C9  496   1.830   2.379  14.947 -0.2392  0.2581  0.2146
   32TCq2    O5  497   1.772   2.305  15.036  0.7575  0.0577 -0.4977
   32TCq2    O6  498   1.778   2.389  14.829  0.1100 -0.4947  0.7321
   32TCq2    H2  499   1.953   2.538  14.790  1.6185  0.4775 -0.5780
   32TCq2    H3  500   1.968   2.371  15.187  0.9371 -1.9689 -0.7303
   32TCq2    H4  501   2.277   2.626  15.067  0.6330 -1.3732  0.9305
   33MPD2     C  502   1.889   0.098   9.646 -1.0068 -0.9012 -0.3119
   33MPD2    C1  503   2.011   0.152   9.683  0.1143 -0.5014 -0.0009
   33MPD2    C2  504   2.074   0.255   9.614  0.1744 -0.7106  0.1291
   33MPD2    C3  505   2.018   0.299   9.501 -0.3805 -0.6501  0.2642
   33MPD2    C4  506   1.899   0.242   9.459  0.2373 -0.2863  0.6401
   33MPD2    C5  507   1.834   0.147   9.531 -0.2163 -0.8464  0.1717
   33MPD2     H  508   2.174   0.285   9.643 -0.4804  1.8729 -0.2683
   33MPD2    H1  509   1.842   0.281   9.376  0.9811 -0.2601  0.1408
   33MPD2    H2  510   1.854   0.012   9.703 -3.0767 -0.4467 -0.9140
   33MPD2    H3  511   1.733   0.115   9.510 -0.9707  1.7669 -0.2294
   33MPD2     N  512   2.071   0.404   9.418  0.2860 -0.6663 -0.4214
   33MPD2    H5  513   2.016   0.442   9.341 -2.1657 -2.7119  0.3019
   33MPD2    N1  514   2.065   0.098   9.803 -0.1175  0.5072  0.9517
   33MPD2    H7  515   2.010   0.025   9.848 -0.2232  0.3310  0.5292
   34TCq2    C1  516   2.191   0.464   9.430  0.4535 -0.0693  0.2226
   34TCq2    O2  517   2.283   0.442   9.503  0.3436  0.0109  0.3540
   34TCq2    C2  518   2.197   0.573   9.339 -0.2788 -0.3241 -0.6099
   34TCq2    C3  519   2.091   0.611   9.263 -0.1191  0.6900  0.3990
   34TCq2    C4  520   2.104   0.718   9.178  0.3127  0.4547 -0.5110
   34TCq2    C5  521   2.225   0.789   9.159 -0.6389  0.5278 -0.6678
   34TCq2    C6  522   2.327   0.748   9.249  0.1684 -0.1645  0.1891
   34TCq2    C7  523   2.313   0.645   9.336 -0.2288 -0.1061 -0.3912
   34TCq2    C8  524   2.446   0.835   9.251 -0.9899  0.1712  0.6738
   34TCq2    O4  525   2.462   0.914   9.153 -0.5943  0.2620 -0.3485
   34TCq2    C9  526   1.989   0.748   9.096  0.1869 -0.7180 -0.2904
   34TCq2    O5  527   2.020   0.783   8.981 -0.0304 -0.3179  0.3424
   34TCq2    O6  528   1.874   0.730   9.147  0.5601 -0.1466 -0.6399
   34TCq2    H2  529   1.994   0.563   9.257  0.0747  0.1228  1.8050
   34TCq2    H3  530   2.249   0.864   9.083 -0.5109  1.9059  0.7242
   34TCq2    H4  531   2.401   0.600   9.382  0.8706  2.1974 -0.2435
   35MPD2     C  532   4.510   2.480  11.773  0.0765 -0.6033 -0.6390
   35MPD2    C1  533   4.387   2.412  11.759  1.2548 -0.7174 -0.3647
   35MPD2    C2  534   4.302   2.459  11.664 -0.2653  0.0520 -0.2385
   35MPD2    C3  535   4.333   2.571  11.586  0.5750  0.1943 -0.2856
   35MPD2    C4  536   4.450   2.635  11.603 -0.0374  0.3062  0.7864
   35MPD2    C5  537   4.529   2.595  11.703  0.2089 -0.1626  0.3444
   35MPD2     H  538   4.205   2.409  11.657 -1.4110  2.5636 -2.3049
   35MPD2    H1  539   4.483   2.729  11.559 -0.6900 -0.5487 -1.5295
   35MPD2    H2  540   4.593   2.444  11.831 -0.5357 -1.9229 -0.5860
   35MPD2    H3  541   4.617   2.651  11.733 -0.6535  1.9186 -0.9648
   35MPD2     N  542   4.250   2.595  11.473  0.0587  0.2598  0.5792
   35MPD2    H5  543   4.176   2.528  11.454 -0.0709  0.3684  0.7030
   35MPD2    N1  544   4.357   2.285  11.818  0.5585 -0.6761  0.6338
   35MPD2    H7  545   4.278   2.233  11.782 -0.4297 -0.7475  2.8897
   36TCq2    C1  546   4.272   2.689  11.371  0.1122  0.0657  0.5683
   36TCq2    O2  547   4.360   2.772  11.351  0.2087  0.4274 -0.5428
   36TCq2    C2  548   4.189   2.653  11.251 -0.5613  0.5779 -0.6997
   36TCq2    C3  549   4.215   2.711  11.127 -0.3573  0.5020 -0.5437
   36TCq2    C4  550   4.144   2.663  11.012  0.5055 -0.0605  0.6855
   36TCq2    C5  551   4.033   2.590  11.033  0.1818 -0.5521  0.1786
   36TCq2    C6  552   4.010   2.523  11.154 -0.2588 -0.3690  0.2547
   36TCq2    C7  553   4.089   2.553  11.262 -0.1783  0.0200  0.0548
   36TCq2    C8  554   3.910   2.411  11.163  0.1413 -0.3726  0.0038
   36TCq2    O4  555   3.910   2.341  11.264  0.2956 -0.4653  0.6181
   36TCq2    C9  556   4.169   2.725  10.884 -0.7322  0.5337 -0.7044
   36TCq2    O5  557   4.098   2.697  10.784 -0.3529  0.2395  0.0515
   36TCq2    O6  558   4.233   2.834  10.886  0.6572  0.3405 -0.8010
   36TCq2    H2  559   4.296   2.782  11.113  0.9071 -0.5724  1.2552
   36TCq2    H3  560   3.971   2.572  10.945 -0.7251 -0.0246  0.7198
   36TCq2    H4  561   4.048   2.518  11.356 -0.1362  2.5082  1.0060
   37TMC2    C1  562   0.980   2.385  11.465  0.0921  0.6254 -0.7186
   37TMC2    C2  563   0.860   2.384  11.402 -0.8547  0.3322 -0.1692
   37TMC2    C3  564   0.842   2.480  11.313 -0.0942 -0.1933  0.5217
   37TMC2    C4  565   1.081   2.470  11.433 -0.3546  0.2463 -0.2027
   37TMC2    C5  566   1.061   2.559  11.333  0.3201 -0.0859  0.1322
   37TMC2    C6  567   0.936   2.571  11.274  0.1556 -0.3349 -0.2113
   37TMC2     C  568   0.996   2.286  11.573  0.3338 -0.0153  0.3933
   37TMC2     O  569   0.940   2.177  11.551 -0.0646  0.6029 -0.2459
   37TMC2     H  570   0.792   2.300  11.407  0.3420 -0.5209  1.8694
   37TMC2    H1  571   1.181   2.449  11.467 -0.0896  0.1162 -1.0538
   37TMC2    H2  572   0.900   2.641  11.199  1.3638  0.0817 -0.4169
   37TMC2    C7  573   1.183   2.628  11.284  0.1686 -0.7720  0.1180
   37TMC2    C8  574   0.750   2.447  11.208 -0.5381 -0.5534 -0.5775
   37TMC2    O1  575   1.289   2.612  11.345 -0.6250 -0.1078  0.5073
   37TMC2    O2  576   0.770   2.483  11.091 -0.0610 -0.0936 -0.1390
   37TMC2    O5  577   0.628   2.424  11.261  0.4193 -1.3492  0.0150
   37TMC2    H5  578   0.636   2.420  11.359 -0.4385  0.1164  0.1451
   38MPD2     C  579   1.153   2.142  12.035  0.3847  1.0341 -0.6989
   38MPD2    C1  580   1.159   2.276  12.032  0.7617 -0.1072  0.9475
   38MPD2    C2  581   1.141   2.332  11.909 -1.0778 -0.0787  0.1111
   38MPD2    C3  582   1.089   2.257  11.803  0.0997  0.1269 -0.0132
   38MPD2    C4  583   1.060   2.128  11.821 -0.0838  0.3197  0.4169
   38MPD2    C5  584   1.101   2.069  11.930 -0.1422 -0.6255  0.4091
   38MPD2     H  585   1.166   2.435  11.886 -0.8575 -0.3425 -0.8363
   38MPD2    H1  586   1.013   2.074  11.739 -1.3486  0.5318  0.9983
   38MPD2    H2  587   1.167   2.081  12.123  2.5184  1.0791 -1.0199
   38MPD2    H3  588   1.093   1.961  11.939  1.1496 -0.7183  0.4357
   38MPD2     N  589   1.075   2.326  11.677  0.2907  0.1531  0.6806
   38MPD2    H5  590   1.109   2.421  11.678 -0.1509  0.3157 -0.1303
   38MPD2    N1  591   1.185   2.350  12.146 -0.9654 -0.3577  0.1352
   38MPD2    H7  592   1.188   2.451  12.141  1.1696 -0.4475 -0.5434
   39MPD2     C  593   4.212   3.671   0.926 -0.5747 -0.2057 -1.0349
   39MPD2    C1  594   4.110   3.655   1.019  0.1666 -0.4783  0.6598
   39MPD2    C2  595   3.992   3.728   1.019 -0.5212 -0.3859 -0.5823
   39MPD2    C3  596   3.966   3.807   0.913 -0.3048 -0.5688 -0.9970
   39MPD2    C4  597   4.062   3.809   0.815 -0.4591 -0.0011 -0.0761
   39MPD2    C5  598   4.189   3.751   0.822 -0.1237 -0.7729 -0.0285
   39MPD2     H  599   3.925   3.729   1.104 -0.6216 -3.5327 -0.6280
   39MPD2    H1  600   4.051   3.871   0.727  0.6661  1.2295  0.6583
   39MPD2    H2  601   4.306   3.617   0.929 -0.6541 -0.2660  0.2099
   39MPD2    H3  602   4.258   3.764   0.740 -0.0656  0.7197  0.2598
   39MPD2     N  603   3.850   3.888   0.903  0.6977  0.1348  0.0878
   39MPD2    H5  604   3.849   3.935   0.813 -1.2662 -0.8209 -0.3961
   39MPD2    N1  605   4.141   3.558   1.126 -0.3094 -0.4522  0.4619
   39MPD2    H7  606   4.222   3.499   1.108  0.5961  0.4963  1.3593
   40TCq2    C1  607   4.059   3.535   1.234 -0.6190  0.6367  0.2899
   40TCq2    O2  608   3.937   3.548   1.241  0.3066  0.0130 -0.1717
   40TCq2    C2  609   4.126   3.471   1.342 -0.3433 -0.6077 -0.2334
   40TCq2    C3  610   4.051   3.405   1.434  0.0772 -0.2582 -0.2265
   40TCq2    C4  611   4.114   3.327   1.529 -1.1172 -0.4045 -0.3396
   40TCq2    C5  612   4.246   3.314   1.538 -0.6294  0.6354  0.0476
   40TCq2    C6  613   4.322   3.374   1.440  0.3604  0.2352 -0.0728
   40TCq2    C7  614   4.265   3.444   1.338  0.4546 -0.4890  0.3772
   40TCq2    C8  615   4.463   3.340   1.438  0.7351  0.0181  0.0117
   40TCq2    O4  616   4.498   3.227   1.473  0.6025 -0.1785 -0.4462
   40TCq2    C9  617   4.030   3.260   1.623  0.5023 -0.6236 -0.7062
   40TCq2    O5  618   3.909   3.287   1.628 -0.4406 -0.2615  0.0407
   40TCq2    O6  619   4.080   3.158   1.681  0.0190  0.3924 -0.0556
   40TCq2    H2  620   3.942   3.406   1.438  0.0041  2.5224 -3.1464
   40TCq2    H3  621   4.303   3.252   1.606 -0.5646  0.5828 -0.0534
   40TCq2    H4  622   4.335   3.487   1.268 -1.1619  0.6514 -0.5392
   41TMC2    C1  623   3.885   2.740  13.305 -0.3107 -0.2216  0.1383
   41TMC2    C2  624   3.801   2.834  13.354 -0.6190  0.2460 -0.1767
   41TMC2    C3  625   3.774   2.942  13.283 -0.2650  0.1684  0.0708
   41TMC2    C4  626   3.928   2.743  13.172 -0.0882  0.6277 -0.6359
   41TMC2    C5  627   3.895   2.860  13.101 -0.3895 -0.9976  0.3266
   41TMC2    C6  628   3.819   2.961  13.157 -0.0328 -0.3224  0.6024
   41TMC2     C  629   3.919   2.621  13.390 -0.1033  0.1873  0.1209
   41TMC2     O  630   4.026   2.565  13.363 -0.5303 -0.1153  0.6081
   41TMC2     H  631   3.751   2.831  13.450 -0.8631 -0.6761 -0.3324
   41TMC2    H1  632   4.001   2.669  13.139 -0.0694  0.1484  0.4649
   41TMC2    H2  633   3.787   3.044  13.094 -0.8327 -0.4513  0.8425
   41TMC2    C7  634   3.935   2.879  12.960 -0.5173  0.2586  0.7975
   41TMC2    C8  635   3.675   3.031  13.343  0.1693 -0.3890  0.6194
   41TMC2    O1  636   3.898   2.993  12.925 -0.1081  0.3863  0.5299
   41TMC2    O2  637   3.609   3.008  13.447 -0.4769 -0.1081 -0.4393
   41TMC2    O5  638   3.712   3.153  13.303  0.3179  0.4550  0.2099
   41TMC2    H5  639   3.670   3.209  13.371  1.2555  2.3021 -0.7296
   42MPD2     C  640   3.950   2.430  13.605  0.7067  0.2815 -0.1473
   42MPD2    C1  641   3.841   2.513  13.595 -0.1998 -0.6176  0.0816
   42MPD2    C2  642   3.748   2.520  13.691  0.2456  0.3763 -0.5559
   42MPD2    C3  643   3.751   2.440  13.804  1.1002 -0.2581 -0.2301
   42MPD2    C4  644   3.853   2.353  13.822  0.0063  0.4433 -0.2667
   42MPD2    C5  645   3.951   2.353  13.720 -0.1777 -0.3481 -0.1996
   42MPD2     H  646   3.675   2.601  13.686  0.5617  0.8187  2.3097
   42MPD2    H1  647   3.865   2.296  13.913  0.1499  0.5559 -0.2158
   42MPD2    H2  648   4.018   2.410  13.524  1.1760  3.2592 -0.4717
   42MPD2    H3  649   4.034   2.285  13.737  2.8609  3.4175 -0.0323
   42MPD2     N  650   3.647   2.463  13.900  0.3992  0.1145 -0.2080
   42MPD2    H5  651   3.584   2.539  13.877  0.6619  1.4777  3.5622
   42MPD2    N1  652   3.826   2.604  13.493  0.1157  0.3585  1.1408
   42MPD2    H7  653   3.743   2.663  13.488 -0.4780 -0.7048 -1.2774
   43MPD2     C  654   4.145   0.170   0.508 -0.3113 -0.8403  0.1677
   43MPD2    C1  655   4.262   0.155   0.577 -0.4871 -0.5748  0.4411
   43MPD2    C2  656   4.275   0.219   0.702 -0.3441 -0.1403  0.1833
   43MPD2    C3  657   4.174   0.305   0.745 -0.3557 -0.0492 -0.1080
   43MPD2    C4  658   4.060   0.316   0.668 -0.2587 -0.5338  0.0185
   43MPD2    C5  659   4.050   0.250   0.551  0.2049  0.2006  0.3276
   43MPD2     H  660   4.369   0.208   0.754 -0.1948 -0.7935 -0.2292
   43MPD2    H1  661   3.973   0.365   0.709 -0.0012  0.0558 -0.1456
   43MPD2    H2  662   4.129   0.134   0.407  3.3731  1.6707 -1.3059
   43MPD2    H3  663   3.965   0.282   0.492 -0.6045 -0.2945  1.2285
   43MPD2     N  664   4.172   0.364   0.874 -0.0502  0.4290 -0.0320
   43MPD2    H5  665   4.100   0.432   0.896 -0.4738 -0.3669  1.0648
   43MPD2    N1  666   4.369   0.082   0.528 -0.6129 -0.3471  0.6987
   43MPD2    H7  667   4.461   0.100   0.566  0.9422 -0.8424 -2.8213
   44TCq2    C1  668   4.356   0.437   1.439  0.0541  0.0441 -0.5886
   44TCq2    O2  669   4.407   0.327   1.436  0.3604 -0.1569 -0.1064
   44TCq2    C2  670   4.274   0.465   1.323 -0.5254 -0.0803 -0.6876
   44TCq2    C3  671   4.219   0.590   1.299  0.0126  0.6719 -0.2670
   44TCq2    C4  672   4.185   0.627   1.167 -0.3219 -1.5605  0.8797
   44TCq2    C5  673   4.209   0.540   1.067 -0.8798 -0.5207 -1.5001
   44TCq2    C6  674   4.239   0.412   1.094 -0.3764  0.6808 -0.5270
   44TCq2    C7  675   4.277   0.378   1.222  0.8316 -0.0438  0.3060
   44TCq2    C8  676   4.244   0.320   0.982 -0.0147 -0.3235  0.5263
   44TCq2    O4  677   4.320   0.224   0.989  0.4996 -0.0444 -0.1523
   44TCq2    C9  678   4.140   0.767   1.141  0.1991 -0.7053 -0.4432
   44TCq2    O5  679   4.137   0.843   1.244 -0.2586 -0.4265  0.3669
   44TCq2    O6  680   4.102   0.789   1.022  0.1278 -0.6698 -0.4287
   44TCq2    H2  681   4.200   0.662   1.377  1.0892 -0.0603  0.6810
   44TCq2    H3  682   4.186   0.571   0.965 -2.6525  0.7515 -0.7206
   44TCq2    H4  683   4.304   0.275   1.243  0.4957 -0.8382 -3.0454
   45TMC2    C1  684   0.931   3.015   8.886 -0.0299 -0.2452 -0.0267
   45TMC2    C2  685   0.886   3.138   8.835 -0.0172  0.0978 -0.2384
   45TMC2    C3  686   0.973   3.241   8.815 -0.1199 -0.3474  1.2784
   45TMC2    C4  687   1.069   2.998   8.906  0.2584  0.2630  0.1862
   45TMC2    C5  688   1.156   3.095   8.887  0.0857  1.0421  0.1573
   45TMC2    C6  689   1.107   3.218   8.835  0.2546  0.1732 -0.2779
   45TMC2     C  690   0.837   2.906   8.924  0.0425  0.1439  0.1840
   45TMC2     O  691   0.722   2.947   8.934  0.1474 -0.1605  0.2049
   45TMC2     H  692   0.780   3.155   8.820  0.3401  2.6295  0.1554
   45TMC2    H1  693   1.108   2.908   8.953 -0.4898  0.7667  1.7606
   45TMC2    H2  694   1.172   3.305   8.833 -0.6178  0.8483  0.3062
   45TMC2    C7  695   1.243   3.106   9.003  0.1379  1.0209  0.7074
   45TMC2    C8  696   0.921   3.374   8.787  0.2786  0.4110 -0.2688
   45TMC2    O1  697   1.203   3.053   9.107  0.4477  0.3279  0.0042
   45TMC2    O2  698   0.892   3.447   8.878 -0.1363  0.4158  0.2834
   45TMC2    O5  699   0.853   3.364   8.667 -0.0958  0.0556 -0.1226
   45TMC2    H5  700   0.897   3.302   8.605 -0.4165 -0.3137  0.0269
   46MPD2     C  701   0.924   2.557   8.969 -0.1684  0.4484 -0.2099
   46MPD2    C1  702   0.842   2.665   8.976  0.6919 -0.2544  0.6994
   46MPD2    C2  703   0.714   2.655   9.025 -0.3497  0.8490 -0.2657
   46MPD2    C3  704   0.669   2.532   9.077 -0.4105  0.0386 -0.8256
   46MPD2    C4  705   0.759   2.423   9.083  0.0729  0.3174 -0.5386
   46MPD2    C5  706   0.875   2.442   9.019 -0.7944  0.1608  0.0160
   46MPD2     H  707   0.659   2.744   9.054 -0.6215  0.4161  0.5549
   46MPD2    H1  708   0.742   2.321   9.116  0.5262 -0.5708 -3.0483
   46MPD2    H2  709   1.027   2.560   8.934  0.8670 -0.3018  2.7967
   46MPD2    H3  710   0.942   2.358   9.014  0.4269  1.2248 -1.5928
   46MPD2     N  711   0.543   2.521   9.136 -0.4258  0.3581 -0.4589
   46MPD2    H5  712   0.479   2.599   9.121  1.5261  1.8932 -0.8264
   46MPD2    N1  713   0.903   2.785   8.941 -0.0087  0.4742 -0.3795
   46MPD2    H7  714   1.002   2.794   8.923  0.2700  0.5969  1.1868
   47TMC2    C1  715   3.964   3.076   9.253  0.2543 -0.5554  0.3571
   47TMC2    C2  716   3.976   3.004   9.147 -0.0989 -0.5718  0.7127
   47TMC2    C3  717   3.938   3.057   9.021 -1.0512 -0.7447  0.4188
   47TMC2    C4  718   3.926   3.206   9.248 -0.0725 -0.8979 -0.3897
   47TMC2    C5  719   3.883   3.251   9.126  0.7891 -0.3002 -0.2273
   47TMC2    C6  720   3.887   3.179   9.013  0.4051 -0.6596  0.1639
   47TMC2     C  721   4.006   3.022   9.376 -0.0501  0.7191  0.1660
   47TMC2     O  722   4.050   3.109   9.454 -0.1786  0.4657  0.3910
   47TMC2     H  723   4.022   2.907   9.161 -0.3652 -0.8578 -0.3752
   47TMC2    H1  724   3.909   3.271   9.332  0.0147  1.4421 -2.1912
   47TMC2    H2  725   3.852   3.214   8.916 -0.4041 -0.4495  0.5254
   47TMC2    C7  726   3.796   3.361   9.133 -0.5225 -0.4203 -0.0146
   47TMC2    C8  727   3.895   2.958   8.919 -0.0222  0.5595 -0.3659
   47TMC2    O1  728   3.735   3.369   9.239 -0.3280 -0.1361 -0.1404
   47TMC2    O2  729   3.797   2.970   8.847 -0.0777 -0.0534  0.4117
   47TMC2    O5  730   3.966   2.845   8.922 -0.4320  0.4290 -0.1131
   47TMC2    H5  731   4.054   2.856   8.964 -1.5846  2.9552  1.6553
   48MPD2     C  732   4.016   2.872   9.651 -0.2314  0.1965 -0.0478
   48MPD2    C1  733   3.969   2.824   9.531  0.0996  1.2899  0.0419
   48MPD2    C2  734   3.916   2.696   9.529 -0.0680 -0.5955  0.4524
   48MPD2    C3  735   3.888   2.635   9.652 -0.5381  0.6294 -0.5454
   48MPD2    C4  736   3.922   2.695   9.772 -0.1224  0.7457  0.3149
   48MPD2    C5  737   4.002   2.809   9.770  0.5192  0.4741  0.0986
   48MPD2     H  738   3.886   2.652   9.435  0.3976  2.8051 -1.3037
   48MPD2    H1  739   3.910   2.654   9.872  0.4289 -2.7984 -1.0781
   48MPD2    H2  740   4.049   2.975   9.651 -0.4081  0.2557 -3.2331
   48MPD2    H3  741   4.048   2.844   9.862  1.9375 -1.2367  0.0351
   48MPD2     N  742   3.824   2.504   9.658  0.1079 -0.0761  0.4377
   48MPD2    H5  743   3.824   2.458   9.567 -1.0050  0.7741 -0.0045
   48MPD2    N1  744   3.970   2.892   9.407  0.3469 -0.4167  0.4407
   48MPD2    H7  745   3.927   2.839   9.331  0.8088 -1.9454  1.2318
   49MPD2     C  746   1.859   1.650   9.441 -0.1419 -0.2560 -0.3119
   49MPD2    C1  747   1.776   1.559   9.502 -0.4900  0.1997  0.7021
   49MPD2    C2  748   1.793   1.523   9.635  0.1908 -0.6043  0.9310
   49MPD2    C3  749   1.894   1.577   9.709  0.2817  0.0641 -0.4481
   49MPD2    C4  750   1.991   1.655   9.640  0.6416 -0.2671  0.2630
   49MPD2    C5  751   1.964   1.690   9.509 -0.2231  0.2710 -0.7683
   49MPD2     H  752   1.722   1.450   9.673  1.0346 -2.2936 -0.7773
   49MPD2    H1  753   2.086   1.681   9.686  1.4014 -1.0016 -0.9074
   49MPD2    H2  754   1.858   1.684   9.338 -0.1660  1.1626  0.1571
   49MPD2    H3  755   2.035   1.761   9.468 -0.5539  1.3621  0.5425
   49MPD2     N  756   1.920   1.543   9.843  0.8582 -0.2834 -0.7680
   49MPD2    H5  757   2.013   1.562   9.879  0.4523 -0.8219  0.5836
   49MPD2    N1  758   1.672   1.489   9.437  0.0019 -0.0401  0.3017
   49MPD2    H7  759   1.620   1.419   9.489 -1.4273  0.6199 -0.2369
   50TCq2    C1  760   1.633   1.510   9.306 -0.4120  0.6165 -0.6095
   50TCq2    O2  761   1.675   1.601   9.233 -0.0136  0.6368  0.0917
   50TCq2    C2  762   1.511   1.451   9.268  0.1756  0.0380  0.2893
   50TCq2    C3  763   1.469   1.341   9.333 -0.1199  0.5465  0.9557
   50TCq2    C4  764   1.337   1.307   9.310 -0.1223 -0.1250 -0.2101
   50TCq2    C5  765   1.252   1.368   9.222  0.1043 -0.2573 -0.0147
   50TCq2    C6  766   1.308   1.455   9.140  0.0721  0.0543 -0.5227
   50TCq2    C7  767   1.431   1.510   9.173  0.4004  0.4437  0.4648
   50TCq2    C8  768   1.230   1.505   9.025  0.2212 -0.7720  0.0020
   50TCq2    O4  769   1.276   1.604   8.981  0.7156  0.0389 -0.2977
   50TCq2    C9  770   1.281   1.191   9.380  0.8596  0.4402 -0.4726
   50TCq2    O5  771   1.357   1.125   9.456  0.2566 -0.3981  0.3095
   50TCq2    O6  772   1.159   1.180   9.365  0.5308 -0.8464 -0.4096
   50TCq2    H2  773   1.532   1.278   9.394 -0.0649  0.3853  0.7307
   50TCq2    H3  774   1.147   1.341   9.228 -0.4764  2.5857  2.6693
   50TCq2    H4  775   1.464   1.595   9.114 -2.2326 -0.5371 -2.4390
   51MPD2     C  776   1.781   3.307   1.291  0.0302  0.1420  0.6121
   51MPD2    C1  777   1.873   3.222   1.227  0.5142  0.8024 -0.6600
   51MPD2    C2  778   2.006   3.220   1.271  0.1373  0.5293 -0.6037
   51MPD2    C3  779   2.046   3.288   1.384  0.9354  0.5272  0.8934
   51MPD2    C4  780   1.953   3.373   1.453 -0.2839  0.1763  0.4849
   51MPD2    C5  781   1.823   3.375   1.411  0.0648  0.1809 -0.4631
   51MPD2     H  782   2.081   3.154   1.229 -1.8817 -1.6671 -0.7570
   51MPD2    H1  783   1.987   3.429   1.539 -0.3993 -0.3817  0.8923
   51MPD2    H2  784   1.674   3.304   1.276 -0.1199 -2.2031  2.0190
   51MPD2    H3  785   1.755   3.429   1.476  0.7870  0.7283 -0.1596
   51MPD2     N  786   2.176   3.286   1.439  0.2278  0.0205 -0.3981
   51MPD2    H5  787   2.180   3.349   1.519  0.9253  1.1932 -1.3613
   51MPD2    N1  788   1.842   3.147   1.106  0.0700 -0.5598  0.0417
   51MPD2    H7  789   1.904   3.078   1.065 -1.2718 -0.9051 -1.4077
   52TCq2    C1  790   2.288   3.232   1.375  0.1871 -0.1903 -0.0939
   52TCq2    O2  791   2.297   3.145   1.286 -0.6928  0.2267  0.9511
   52TCq2    C2  792   2.411   3.276   1.425  1.0423 -0.2715  0.0143
   52TCq2    C3  793   2.511   3.192   1.395 -0.0058 -0.2683 -0.1161
   52TCq2    C4  794   2.635   3.222   1.443 -0.2957 -0.5093 -0.1272
   52TCq2    C5  795   2.660   3.336   1.502  0.5379  0.6409 -0.1687
   52TCq2    C6  796   2.555   3.421   1.521  0.6392  0.2870 -0.1652
   52TCq2    C7  797   2.426   3.400   1.480  0.0132 -0.5733  0.3032
   52TCq2    C8  798   2.580   3.551   1.576  0.0416 -0.1429 -0.3506
   52TCq2    O4  799   2.497   3.605   1.649  0.1531 -0.0584  0.5654
   52TCq2    C9  800   2.743   3.123   1.430  0.6070  0.1289  0.0270
   52TCq2    O5  801   2.848   3.143   1.494 -0.1756 -0.6426  0.1417
   52TCq2    O6  802   2.713   3.022   1.361  0.2046 -0.2297  0.1737
   52TCq2    H2  803   2.503   3.102   1.336 -1.8850 -0.6492  0.7234
   52TCq2    H3  804   2.753   3.354   1.555 -0.1578  0.3380  1.1527
   52TCq2    H4  805   2.346   3.472   1.492 -0.0394 -0.5718 -0.0642
   53TMC2    C1  806   1.821   2.935  11.087 -0.6142  0.3222 -0.4907
   53TMC2    C2  807   1.944   2.929  11.034  0.3999  0.1840 -0.4620
   53TMC2    C3  808   2.041   2.910  11.123 -0.7181  0.2194 -0.1041
   53TMC2    C4  809   1.812   2.935  11.219 -0.7607  0.1122 -0.4569
   53TMC2    C5  810   1.914   2.922  11.308  0.3844  0.2530 -0.4803
   53TMC2    C6  811   2.037   2.911  11.258 -0.3342 -0.0745  0.3342
   53TMC2     C  812   1.702   2.922  11.007  0.7108 -0.0706 -0.2115
   53TMC2     O  813   1.705   2.965  10.892  0.3221 -0.1152  0.0838
   53TMC2     H  814   1.959   2.919  10.927 -1.2849  1.2720 -0.8090
   53TMC2    H1  815   1.714   2.939  11.265  0.1668  0.4887  1.4706
   53TMC2    H2  816   2.129   2.886  11.309  0.5224 -0.9711 -1.6261
   53TMC2    C7  817   1.884   2.899  11.449 -0.1005  0.6246 -0.0387
   53TMC2    C8  818   2.163   2.877  11.055 -0.0667 -0.3300  0.9589
   53TMC2    O1  819   1.766   2.879  11.465 -0.4779 -0.4565  0.0798
   53TMC2    O2  820   2.219   2.947  10.971  0.7204 -0.4609 -0.3512
   53TMC2    O5  821   2.130   2.748  11.033 -0.3316  0.0788  0.2725
   53TMC2    H5  822   2.092   2.704  11.112 -2.2077  1.3223  0.0539
   54MPD2     C  823   1.454   2.798  10.882 -0.3022 -0.6462 -0.4515
   54MPD2    C1  824   1.477   2.812  11.021  0.1100 -0.0498 -0.0945
   54MPD2    C2  825   1.386   2.765  11.116  0.1857  0.1596 -0.2072
   54MPD2    C3  826   1.257   2.726  11.071 -0.0002  0.1763  0.0022
   54MPD2    C4  827   1.227   2.736  10.933 -0.3051  0.1972 -0.5789
   54MPD2    C5  828   1.331   2.760  10.841  0.2268  0.6632  0.2370
   54MPD2     H  829   1.414   2.759  11.221  1.3129  3.0102 -0.3406
   54MPD2    H1  830   1.132   2.697  10.899  0.0898 -0.3322 -1.0892
   54MPD2    H2  831   1.534   2.812  10.809  0.0741  2.7090  0.6036
   54MPD2    H3  832   1.314   2.757  10.734  1.7184 -0.8523  0.0360
   54MPD2     N  833   1.155   2.671  11.154  0.0825 -0.0666  0.0552
   54MPD2    H5  834   1.064   2.650  11.115  0.7137  2.4042 -2.7746
   54MPD2    N1  835   1.603   2.855  11.072 -0.3336  0.3952  0.4868
   54MPD2    H7  836   1.625   2.827  11.167 -1.8315  1.5648  1.1816
   55MPD2     C  837   2.409   0.592  17.038 -0.3413  0.4788  0.3886
   55MPD2    C1  838   2.439   0.515  17.150 -0.2073  0.2470 -0.5092
   55MPD2    C2  839   2.388   0.540  17.276  0.9771 -0.9376  0.3792
   55MPD2    C3  840   2.302   0.650  17.295 -1.0896 -0.0032  0.1602
   55MPD2    C4  841   2.287   0.737  17.184  0.7560 -0.0409 -0.2880
   55MPD2    C5  842   2.332   0.707  17.057 -0.3013 -0.5907  0.9741
   55MPD2     H  843   2.403   0.471  17.358 -2.4211 -1.3735  0.6366
   55MPD2    H1  844   2.222   0.823  17.195 -2.2167 -1.9592 -2.8402
   55MPD2    H2  845   2.431   0.566  16.936 -0.7996  0.0165  0.4065
   55MPD2    H3  846   2.303   0.781  16.983 -1.2898 -1.2965  0.6510
   55MPD2     N  847   2.240   0.682  17.423 -0.1160 -0.0024 -0.5528
   55MPD2    H5  848   2.234   0.611  17.495  2.0890  0.5259  0.1581
   55MPD2    N1  849   2.505   0.397  17.125  0.1485 -0.1677  0.2953
   55MPD2    H7  850   2.532   0.387  17.027 -1.7279  0.2239 -0.2661
   56TCq2    C1  851   2.535   0.295  17.215 -0.5167 -0.2587  0.0176
   56TCq2    O2  852   2.501   0.287  17.332 -0.0641 -0.3619  0.3119
   56TCq2    C2  853   2.623   0.184  17.162  0.5242  0.0353  0.0402
   56TCq2    C3  854   2.668   0.189  17.037 -0.1595 -0.5110  0.5425
   56TCq2    C4  855   2.744   0.084  16.995 -0.3812 -0.2915 -0.0557
   56TCq2    C5  856   2.772   4.712  17.088 -0.2670 -0.2032  0.5173
   56TCq2    C6  857   2.723   4.716  17.218 -0.3142 -0.3543  0.8376
   56TCq2    C7  858   2.635   0.085  17.251  0.2967  0.0332 -0.9158
   56TCq2    C8  859   2.726   4.590  17.286 -0.3557 -0.3903  0.1056
   56TCq2    O4  860   2.743   4.489  17.215  0.7633  0.0141  0.7457
   56TCq2    C9  861   2.783   0.071  16.862 -0.7002  0.6311 -0.2873
   56TCq2    O5  862   2.876   4.719  16.836  0.6010  0.0133 -0.2866
   56TCq2    O6  863   2.717   0.131  16.770  0.1983 -0.1321 -0.5079
   56TCq2    H2  864   2.643   0.269  16.967 -0.8731 -2.9556 -1.9855
   56TCq2    H3  865   2.825   4.621  17.060 -1.9563  0.0506 -3.4061
   56TCq2    H4  866   2.562   0.077  17.331  0.5411  0.4691 -0.6482
   57TMC2    C1  867   1.800   0.758  13.952 -0.3880  0.0389  0.3879
   57TMC2    C2  868   1.848   0.662  14.037 -0.2285 -0.1467 -0.2727
   57TMC2    C3  869   1.960   0.590  14.001  0.5235 -0.5558  0.4613
   57TMC2    C4  870   1.861   0.792  13.835 -0.1886 -0.1832 -0.3956
   57TMC2    C5  871   1.977   0.729  13.810 -0.2579 -0.0405 -0.5831
   57TMC2    C6  872   2.031   0.627  13.888  1.1272  0.2167  0.0108
   57TMC2     C  873   1.692   0.844  13.994  0.7877 -0.4388 -0.2308
   57TMC2     O  874   1.643   0.921  13.908  0.1023  0.1874  0.8650
   57TMC2     H  875   1.784   0.613  14.110  0.6750 -1.1283 -0.1325
   57TMC2    H1  876   1.817   0.863  13.767 -1.0090  0.9659  1.3537
   57TMC2    H2  877   2.127   0.586  13.860  1.3881  1.0600 -0.3137
   57TMC2    C7  878   2.056   0.772  13.703  0.1890  0.7910 -0.6594
   57TMC2    C8  879   1.999   0.485  14.087  0.2661 -0.4371  0.4368
   57TMC2    O1  880   2.171   0.734  13.699 -0.0930  0.0867 -0.4589
   57TMC2    O2  881   1.917   0.412  14.137  0.7979 -0.6577  0.1418
   57TMC2    O5  882   2.124   0.505  14.127  0.6996  0.0620 -0.4858
   57TMC2    H5  883   2.160   0.586  14.085 -0.5409  0.6581 -0.3981
   58MPD2     C  884   1.456   1.088  14.366  0.4447  0.0532  0.0627
   58MPD2    C1  885   1.466   1.119  14.233  0.3081  0.0075 -0.2778
   58MPD2    C2  886   1.532   1.032  14.148 -0.0400  0.1141  0.4598
   58MPD2    C3  887   1.593   0.922  14.197 -0.3770 -0.3762 -0.3849
   58MPD2    C4  888   1.585   0.894  14.331  0.5145 -0.6512 -0.2522
   58MPD2    C5  889   1.523   0.983  14.413  0.8773 -0.1749  0.4013
   58MPD2     H  890   1.534   1.061  14.044 -1.3387 -0.5676  0.2455
   58MPD2    H1  891   1.627   0.808  14.381  0.0370 -0.1593  1.0145
   58MPD2    H2  892   1.395   1.145  14.435  2.1693  0.5650  1.1673
   58MPD2    H3  893   1.517   0.968  14.520 -0.7063 -2.3447  0.0144
   58MPD2     N  894   1.672   0.834  14.124 -0.4266 -0.2415 -0.2463
   58MPD2    H5  895   1.736   0.773  14.174 -0.2705 -0.0124 -0.1671
   58MPD2    N1  896   1.410   1.234  14.176 -0.0233 -0.6766 -0.3238
   58MPD2    H7  897   1.407   1.230  14.075  0.6179  0.3838 -0.3770
   59MPD2     C  898   4.428   1.212  13.039 -0.3481  0.2100  0.1644
   59MPD2    C1  899   4.505   1.246  12.935  0.5117  0.3610 -0.0767
   59MPD2    C2  900   4.634   1.290  12.954  0.8245 -0.1978  0.3404
   59MPD2    C3  901   4.701   1.297  13.075 -0.7055 -0.0842 -0.8291
   59MPD2    C4  902   4.620   1.265  13.181  0.2865 -0.0659  0.1536
   59MPD2    C5  903   4.489   1.221  13.165  0.2905 -0.4724  0.4419
   59MPD2     H  904   4.694   1.306  12.865 -1.9113  1.3812 -1.2358
   59MPD2    H1  905   4.670   1.260  13.277  0.6304  0.9161  0.0309
   59MPD2    H2  906   4.327   1.171  13.042  0.1638 -1.1346 -0.7885
   59MPD2    H3  907   4.433   1.198  13.255  1.9242 -3.2584  0.7516
   59MPD2     N  908   0.115   1.328  13.091 -0.2731  0.1324  0.2432
   59MPD2    H5  909   0.146   1.326  13.187  2.3444 -0.4175 -0.6113
   59MPD2    N1  910   4.462   1.232  12.801  0.2284  0.0610  0.1782
   59MPD2    H7  911   4.534   1.241  12.730 -0.4968  2.0398 -0.3097
   60TCq2    C1  912   4.337   1.191  12.752  0.4848  0.2473  0.2614
   60TCq2    O2  913   4.233   1.187  12.815 -0.3944  0.2025  0.3712
   60TCq2    C2  914   4.328   1.157  12.613 -0.0896 -0.5850  0.2182
   60TCq2    C3  915   4.256   1.046  12.599 -0.0066  0.0871 -0.5650
   60TCq2    C4  916   4.284   0.954  12.508 -0.1151 -0.7892 -0.4858
   60TCq2    C5  917   4.392   0.965  12.427  0.4462  1.3933  0.0751
   60TCq2    C6  918   4.465   1.082  12.440  0.3003  0.8509  0.2323
   60TCq2    C7  919   4.426   1.183  12.525 -0.5148 -0.6796 -0.8475
   60TCq2    C8  920   4.539   1.124  12.329 -1.1312  0.7307  0.0725
   60TCq2    O4  921   4.621   1.048  12.282 -0.4397 -0.0038 -0.4488
   60TCq2    C9  922   4.198   0.843  12.493 -0.0755 -0.2355  0.1711
   60TCq2    O5  923   4.150   0.803  12.601  0.4890  0.1009  0.0126
   60TCq2    O6  924   4.169   0.804  12.378 -0.4359  0.9937 -0.4698
   60TCq2    H2  925   4.181   1.031  12.676 -0.1319  1.4687 -0.4279
   60TCq2    H3  926   4.410   0.889  12.352 -1.6059  0.1613  0.8299
   60TCq2    H4  927   4.497   1.264  12.539 -0.3709 -0.6818 -1.5817
   61MPD2     C  928   3.835   2.511  14.436  0.1519  0.3910  0.3080
   61MPD2    C1  929   3.938   2.582  14.504  0.4305  0.4606  0.1714
   61MPD2    C2  930   4.016   2.672  14.435 -0.1703  0.2505  0.2956
   61MPD2    C3  931   4.001   2.678  14.300  0.4479  0.1654  0.3104
   61MPD2    C4  932   3.911   2.596  14.234 -0.2036  0.0345 -0.2177
   61MPD2    C5  933   3.822   2.518  14.305  0.1171 -0.5256  0.5061
   61MPD2     H  934   4.096   2.717  14.493 -0.7812  1.0154  0.5401
   61MPD2    H1  935   3.913   2.596  14.126  0.2005 -1.8820 -0.2009
   61MPD2    H2  936   3.758   2.461  14.493 -0.8943  2.1685  0.4507
   61MPD2    H3  937   3.737   2.471  14.256  1.6986 -0.4277 -2.3750
   61MPD2     N  938   4.085   2.753  14.214  0.2155  0.0483  0.0832
   61MPD2    H5  939   4.064   2.761  14.115  1.2926 -3.2113 -0.4175
   61MPD2    N1  940   3.959   2.572  14.639  0.0643  0.1048 -0.0515
   61MPD2    H7  941   4.028   2.630  14.686 -0.8768 -1.0170  2.6785
   62TCq2    C1  942   3.903   2.471  14.716 -0.4702 -0.0132  0.6541
   62TCq2    O2  943   3.831   2.376  14.678  0.1441 -0.0100 -0.1807
   62TCq2    C2  944   3.901   2.497  14.863  0.3495  0.0259  0.0255
   62TCq2    C3  945   3.862   2.392  14.945 -0.9296  0.3921 -0.5352
   62TCq2    C4  946   3.851   2.418  15.077  0.4183  0.5372  0.3672
   62TCq2    C5  947   3.869   2.535  15.138  0.1128  1.0120 -0.9353
   62TCq2    C6  948   3.910   2.636  15.053 -0.0934 -0.6018  0.0561
   62TCq2    C7  949   3.931   2.618  14.919  1.1626 -0.7468 -0.0337
   62TCq2    C8  950   3.877   2.770  15.084  0.7933  0.3942  0.1279
   62TCq2    O4  951   3.828   2.837  14.995 -0.0547 -0.5531 -0.5596
   62TCq2    C9  952   3.782   2.316  15.155 -0.3653  0.4422 -0.8000
   62TCq2    O5  953   3.756   2.209  15.094  0.1348  0.1745 -0.6393
   62TCq2    O6  954   3.765   2.333  15.281 -0.7432 -0.0661 -0.1765
   62TCq2    H2  955   3.839   2.294  14.906  0.8293 -0.0540 -0.4671
   62TCq2    H3  956   3.830   2.554  15.237  2.2107  2.2169 -0.3191
   62TCq2    H4  957   3.954   2.707  14.861 -1.1911 -0.1312 -0.0602
   63TMC2    C1  958   3.040   2.742  10.836 -0.1249  0.0174 -0.6389
   63TMC2    C2  959   3.040   2.744  10.976 -1.0830 -0.6677  0.1248
   63TMC2    C3  960   3.160   2.782  11.037  0.0396  0.0724 -0.4153
   63TMC2    C4  961   3.140   2.803  10.761 -0.0844 -0.0527 -0.4078
   63TMC2    C5  962   3.246   2.840  10.830 -0.2949  0.7189  0.4508
   63TMC2    C6  963   3.261   2.840  10.969 -0.2213 -0.3738 -0.4361
   63TMC2     C  964   2.937   2.664  10.778  0.3603 -0.0789  0.9904
   63TMC2     O  965   2.831   2.634  10.831 -0.2503  0.1078 -0.2799
   63TMC2     H  966   2.955   2.706  11.032 -1.2493 -0.5824 -0.0686
   63TMC2    H1  967   3.141   2.797  10.653  0.7939  0.5027 -0.4268
   63TMC2    H2  968   3.347   2.885  11.015 -0.4365  1.7085 -2.0755
   63TMC2    C7  969   3.351   2.908  10.749 -1.0308  0.5312 -0.4200
   63TMC2    C8  970   3.173   2.784  11.186  0.2366 -0.1532 -0.2433
   63TMC2    O1  971   3.338   2.927  10.629  0.7521  0.4561  0.5696
   63TMC2    O2  972   3.272   2.741  11.241 -0.0336 -0.0303  0.1715
   63TMC2    O5  973   3.080   2.867  11.233  0.1590 -0.2348 -0.0922
   63TMC2    H5  974   3.037   2.926  11.168  2.4276  0.6697 -0.7915
   64MPD2     C  975   2.800   2.324  10.412  0.6223  0.2722  0.1194
   64MPD2    C1  976   2.940   2.350  10.406 -0.3738 -0.6764  0.1417
   64MPD2    C2  977   2.998   2.439  10.490 -0.2495 -0.1855 -0.7677
   64MPD2    C3  978   2.923   2.498  10.589  0.3827  0.0262 -0.5404
   64MPD2    C4  979   2.792   2.472  10.597  0.9826  0.2453 -0.1076
   64MPD2    C5  980   2.731   2.394  10.506  0.8444 -0.5236  0.8332
   64MPD2     H  981   3.104   2.458  10.485  0.2563 -2.8509 -0.4863
   64MPD2    H1  982   2.723   2.528  10.661  1.4495  0.3308  0.3198
   64MPD2    H2  983   2.741   2.251  10.359  0.4797  1.1700 -0.9460
   64MPD2    H3  984   2.625   2.374  10.515  0.4466  0.1808 -2.2974
   64MPD2     N  985   2.993   2.594  10.671 -0.0198  0.1660  0.2063
   64MPD2    H5  986   3.088   2.618  10.646  0.5616 -0.1121  2.1801
   64MPD2    N1  987   3.026   2.273  10.329  0.2840 -0.7208  0.0323
   64MPD2    H7  988   3.122   2.306  10.330  0.6321 -1.7418  0.2762
   65MPD2     C  989   4.366   2.677  15.188  0.1029  0.3140  0.0511
   65MPD2    C1  990   4.303   2.706  15.069  0.5905 -0.8620  0.2142
   65MPD2    C2  991   4.286   2.596  14.983 -0.0922  0.2921 -0.4143
   65MPD2    C3  992   4.336   2.471  15.015 -0.8904 -0.3125  0.1596
   65MPD2    C4  993   4.412   2.444  15.131  0.1940 -0.4073  0.0890
   65MPD2    C5  994   4.417   2.550  15.219  0.5015  0.2298 -0.8017
   65MPD2     H  995   4.241   2.621  14.888  1.7171  1.5547 -0.9248
   65MPD2    H1  996   4.468   2.355  15.156  0.3893 -0.1096  0.7204
   65MPD2    H2  997   4.384   2.754  15.262 -0.5329  1.6141 -1.1359
   65MPD2    H3  998   4.455   2.540  15.320  0.8663 -0.7699 -1.0310
   65MPD2     N  999   4.312   2.365  14.926  0.1900  0.0557 -0.8001
   65MPD2    H5 1000   4.345   2.272  14.949 -1.6100 -0.3683  0.0587
   65MPD2    N1 1001   4.249   2.830  15.035  0.6070 -0.5771 -0.5068
   65MPD2    H7 1002   4.205   2.828  14.943  2.0867 -0.4422 -1.2181
   66TCq2    C1 1003   4.251   2.939  15.113 -0.2454  0.0037 -0.3588
   66TCq2    O2 1004   4.279   2.951  15.232  0.1912 -0.0163  0.0067
   66TCq2    C2 1005   4.169   3.045  15.056 -0.1659  0.1542 -0.3425
   66TCq2    C3 1006   4.137   3.037  14.926 -0.2912  0.2332 -1.3331
   66TCq2    C4 1007   4.050   3.124  14.877  0.0994  0.0931  0.2680
   66TCq2    C5 1008   3.996   3.219  14.952  0.1379  0.5437  0.4222
   66TCq2    C6 1009   4.024   3.228  15.083  0.0896  0.0806  0.1833
   66TCq2    C7 1010   4.109   3.135  15.142 -0.0684 -0.1820 -0.2086
   66TCq2    C8 1011   4.003   3.351  15.154  0.0363  0.9341  0.1239
   66TCq2    O4 1012   3.980   3.441  15.075 -0.1350  0.6995 -0.3243
   66TCq2    C9 1013   4.020   3.123  14.735  0.9989 -0.7367 -0.1957
   66TCq2    O5 1014   3.940   3.201  14.679 -0.0921 -0.0795 -0.1095
   66TCq2    O6 1015   4.048   3.016  14.673 -0.6746 -0.2051 -0.4926
   66TCq2    H2 1016   4.200   2.982  14.857 -2.2719 -1.4365 -1.8020
   66TCq2    H3 1017   3.931   3.294  14.909 -0.5188  0.1145  0.6642
   66TCq2    H4 1018   4.149   3.149  15.241  0.9860  0.3592 -0.7183
   67MPD2     C 1019   4.688   2.178  13.782 -0.4358  0.3688  0.1446
   67MPD2    C1 1020   4.662   2.070  13.860 -0.5259  0.7582 -0.2897
   67MPD2    C2 1021   4.579   1.965  13.818 -0.1841 -0.2314  0.1981
   67MPD2    C3 1022   4.531   1.964  13.690  0.1179 -0.5363 -0.4097
   67MPD2    C4 1023   4.562   2.070  13.604 -0.2696 -0.0283  0.0120
   67MPD2    C5 1024   4.637   2.172  13.653  0.4956 -0.4785  0.4634
   67MPD2     H 1025   4.551   1.882  13.882 -0.9558  1.2021  1.7439
   67MPD2    H1 1026   4.524   2.075  13.503 -0.7798  0.4722  0.2261
   67MPD2    H2 1027   0.025   2.264  13.803 -4.8793  2.6155  3.9839
   67MPD2    H3 1028   4.657   2.257  13.587  2.6089 -0.4642  1.1290
   67MPD2     N 1029   4.439   1.864  13.646  0.3927 -0.0681 -0.1252
   67MPD2    H5 1030   4.395   1.880  13.555 -1.6062  0.9607  1.0293
   67MPD2    N1 1031   4.694   2.057  13.997 -0.0688 -0.4020  0.5647
   67MPD2    H7 1032   4.670   1.970  14.043  2.3090 -1.8179 -0.8682
   68TCq2    C1 1033   0.033   2.159  14.069 -0.3185  0.3503 -0.4914
   68TCq2    O2 1034   0.095   2.254  14.031 -0.0900  0.2727  0.2056
   68TCq2    C2 1035   0.028   2.142  14.216  0.4011 -1.1233  0.1830
   68TCq2    C3 1036   0.007   2.246  14.288 -0.0194 -0.0243 -0.8351
   68TCq2    C4 1037   4.696   2.224  14.421  0.8452 -0.5686 -0.6115
   68TCq2    C5 1038   4.679   2.101  14.465  0.2611  0.0765 -0.1108
   68TCq2    C6 1039   4.689   1.992  14.388  0.5256  0.1677  0.2653
   68TCq2    C7 1040   4.723   2.015  14.257  0.1633  0.1050 -0.8176
   68TCq2    C8 1041   4.646   1.859  14.430  0.8623  0.2276 -0.3677
   68TCq2    O4 1042   4.630   1.768  14.346 -0.5322 -0.7409 -0.6243
   68TCq2    C9 1043   4.688   2.334  14.513 -0.0821  0.0293  0.2574
   68TCq2    O5 1044   4.693   2.299  14.634  0.0803 -0.0135  0.1753
   68TCq2    O6 1045   4.632   2.440  14.471 -0.2043 -0.3416 -0.2705
   68TCq2    H2 1046   0.040   2.344  14.256  0.8055 -0.2684 -0.7061
   68TCq2    H3 1047   4.639   2.094  14.565 -1.6860 -5.2436 -1.2398
   68TCq2    H4 1048   0.015   1.930  14.192  0.0306 -0.3953 -0.2000
   69TMC2    C1 1049   2.043   3.180  12.143 -0.4668 -0.4770 -0.5328
   69TMC2    C2 1050   1.903   3.199  12.135  0.0619  0.4867  0.0011
   69TMC2    C3 1051   1.865   3.278  12.027 -0.1172  0.9611 -0.8047
   69TMC2    C4 1052   2.135   3.235  12.059 -0.2315 -0.3177 -0.1024
   69TMC2    C5 1053   2.087   3.316  11.957  0.3317  0.0184  0.6603
   69TMC2    C6 1054   1.954   3.327  11.931 -1.0892 -0.9189 -0.3801
   69TMC2     C 1055   2.082   3.093  12.253  0.1214 -0.3461 -0.4394
   69TMC2     O 1056   2.017   3.101  12.355  0.1079  0.7336  1.1672
   69TMC2     H 1057   1.833   3.160  12.208 -0.6212  2.0785  0.1969
   69TMC2    H1 1058   2.241   3.219  12.076 -0.6304 -2.8140  0.0776
   69TMC2    H2 1059   1.924   3.378  11.841  1.0188  0.9458 -0.0489
   69TMC2    C7 1060   2.190   3.373  11.866  0.0590 -0.5406 -0.1565
   69TMC2    C8 1061   1.720   3.280  11.991 -0.2715  0.0686 -0.3379
   69TMC2    O1 1062   2.303   3.335  11.892  0.0545 -0.5799 -0.4603
   69TMC2    O2 1063   1.674   3.282  11.873 -0.3067 -0.2309  0.1137
   69TMC2    O5 1064   1.657   3.290  12.108 -0.8423 -0.5326  0.1513
   69TMC2    H5 1065   1.713   3.312  12.186 -1.5989 -1.9350  1.0950
   70MPD2     C 1066   2.365   2.850  12.263  0.0048  0.2287  0.5786
   70MPD2    C1 1067   2.250   2.917  12.301 -0.0290  0.1636 -0.2419
   70MPD2    C2 1068   2.199   2.886  12.426 -0.0935  0.8710  0.2746
   70MPD2    C3 1069   2.271   2.794  12.502 -0.5070 -0.3127 -0.7336
   70MPD2    C4 1070   2.386   2.731  12.460 -0.0302 -0.5228 -0.8573
   70MPD2    C5 1071   2.429   2.753  12.337  0.7870  0.1286  0.1229
   70MPD2     H 1072   2.111   2.941  12.459  1.1776  2.6480  0.7418
   70MPD2    H1 1073   2.446   2.664  12.520 -1.7443  1.0150  2.5663
   70MPD2    H2 1074   2.397   2.864  12.160 -0.1177  0.1232  0.5250
   70MPD2    H3 1075   2.512   2.703  12.289  0.5276  0.5830 -0.8051
   70MPD2     N 1076   2.230   2.755  12.631  0.2825 -0.1951  0.1029
   70MPD2    H5 1077   2.288   2.693  12.687  0.0312 -1.4402 -1.0119
   70MPD2    N1 1078   2.191   3.018  12.218  0.0810 -0.2805  0.1506
   70MPD2    H7 1079   2.236   3.038  12.130 -0.6115  0.4650 -0.0296
   71TMC2    C1 1080   3.831   2.916   1.347  0.6437  0.6346 -0.3353
   71TMC2    C2 1081   3.908   2.828   1.428  0.1822  0.5364  0.0582
   71TMC2    C3 1082   3.836   2.740   1.502  0.0207  0.1090  0.4922
   71TMC2    C4 1083   3.698   2.911   1.355  0.0490 -0.6240  0.6216
   71TMC2    C5 1084   3.629   2.821   1.437  0.1429  0.3484 -0.3808
   71TMC2    C6 1085   3.700   2.733   1.516 -0.2505 -0.2903 -0.7471
   71TMC2     C 1086   3.887   3.010   1.254  0.1981 -0.8108 -0.5453
   71TMC2     O 1087   3.826   3.014   1.149 -0.1179  0.4585  0.1150
   71TMC2     H 1088   4.015   2.827   1.443  0.3475 -4.1487 -1.3229
   71TMC2    H1 1089   3.635   2.975   1.294 -0.2011 -2.0530 -0.6115
   71TMC2    H2 1090   3.642   2.659   1.571  1.2937 -0.0732  1.1635
   71TMC2    C7 1091   3.504   2.769   1.389  0.3774 -0.2824 -0.6183
   71TMC2    C8 1092   3.909   2.647   1.579 -0.5871 -0.1277  0.2551
   71TMC2    O1 1093   3.485   2.650   1.421  0.0333 -0.1269  0.6811
   71TMC2    O2 1094   3.980   2.554   1.547  0.6551  0.3628 -0.0182
   71TMC2    O5 1095   3.857   2.668   1.696 -0.0797 -0.3674 -0.2394
   71TMC2    H5 1096   3.817   2.754   1.721  0.6506 -0.0104 -0.3154
   72MPD2     C 1097   4.278   3.255   1.017  0.2339 -0.5398 -1.2623
   72MPD2    C1 1098   4.151   3.225   0.972 -0.5774 -0.3781  0.3708
   72MPD2    C2 1099   4.059   3.158   1.057  0.0309 -0.2067  0.1070
   72MPD2    C3 1100   4.099   3.120   1.188  0.1995 -0.0596  0.2831
   72MPD2    C4 1101   4.234   3.143   1.226  0.2502 -0.0420 -0.3997
   72MPD2    C5 1102   4.315   3.217   1.142 -0.0677 -0.4619  0.5874
   72MPD2     H 1103   3.955   3.148   1.030 -0.3866  0.5723  1.4517
   72MPD2    H1 1104   4.269   3.110   1.323  0.6426  2.0880  0.1827
   72MPD2    H2 1105   4.352   3.310   0.961  0.5239  0.6412  0.2931
   72MPD2    H3 1106   4.415   3.232   1.181 -0.2309 -0.1880  0.9006
   72MPD2     N 1107   4.014   3.049   1.281 -0.1415 -0.0380  0.0230
   72MPD2    H5 1108   4.067   3.020   1.363  0.0834 -0.3777 -0.2428
   72MPD2    N1 1109   4.109   3.264   0.845  0.1510 -0.2609  0.2695
   72MPD2    H7 1110   4.009   3.257   0.835 -0.0240  1.5025  0.7522
   73TMC2    C1 1111   4.151   0.163  14.060  0.9345 -0.6780  0.2195
   73TMC2    C2 1112   4.117   0.053  14.138 -0.2028 -0.0616 -1.2271
   73TMC2    C3 1113   4.153   0.060  14.271  0.4534  0.0960  0.3408
   73TMC2    C4 1114   4.196   0.273  14.116  0.1856  0.5501  0.0383
   73TMC2    C5 1115   4.225   0.272  14.254  0.0346  0.0005 -0.2376
   73TMC2    C6 1116   4.209   0.165  14.335 -0.7415 -0.2306 -0.3987
   73TMC2     C 1117   4.221   0.138  13.938  0.0944 -0.4098 -0.9999
   73TMC2     O 1118   4.343   0.137  13.953  0.0144  0.4019 -0.7353
   73TMC2     H 1119   4.070   4.688  14.097 -0.0988  0.6174 -2.8179
   73TMC2    H1 1120   4.199   0.366  14.061  1.5318  0.8794  0.6775
   73TMC2    H2 1121   4.261   0.160  14.430 -0.4144 -0.0264 -0.5673
   73TMC2    C7 1122   4.344   0.347  14.283 -0.4585 -0.3512 -0.1310
   73TMC2    C8 1123   4.137   4.668  14.343  0.0586  0.4223  0.4554
   73TMC2    O1 1124   4.341   0.419  14.384  0.0094 -0.0617 -0.0432
   73TMC2    O2 1125   4.158   4.680  14.462 -0.0799  0.3459 -0.3212
   73TMC2    O5 1126   4.195   4.575  14.272  0.4610 -1.0305  0.3092
   73TMC2    H5 1127   4.194   4.564  14.175  1.3993 -0.6874  0.2656
   74MPD2     C 1128   4.252   0.144  13.421 -0.4233 -0.2025 -0.2164
   74MPD2    C1 1129   4.335   0.184  13.525 -0.1126 -0.0926  0.3743
   74MPD2    C2 1130   4.302   0.168  13.653  0.0051  0.3314  0.2684
   74MPD2    C3 1131   4.182   0.116  13.689 -0.5480 -0.3361  0.1371
   74MPD2    C4 1132   4.109   0.060  13.588  0.0583  0.7743  0.0928
   74MPD2    C5 1133   4.134   0.081  13.453  0.1059 -0.6075  0.0649
   74MPD2     H 1134   4.365   0.210  13.731 -0.0249 -1.0544  1.0348
   74MPD2    H1 1135   4.010   0.019  13.608  1.5567 -2.7504  0.3217
   74MPD2    H2 1136   4.294   0.148  13.322  1.6037  1.1612  0.7031
   74MPD2    H3 1137   4.080   0.051  13.364  0.3114 -0.7760 -0.0033
   74MPD2     N 1138   4.137   0.118  13.825 -0.6369 -0.5652 -0.0957
   74MPD2    H5 1139   4.038   0.099  13.836 -1.1994  1.6188 -1.4731
   74MPD2    N1 1140   4.458   0.249  13.490  0.3361  0.5700  0.1629
   74MPD2    H7 1141   4.479   0.272  13.394  0.4178 -2.3520 -0.5339
   75TCq2    C1 1142   4.395   1.758  13.723 -0.0805  0.1454 -1.0675
   75TCq2    O2 1143   4.431   1.698  13.821  0.3271 -0.0932 -0.4024
   75TCq2    C2 1144   4.283   1.696  13.663  0.5881 -0.0744  0.3220
   75TCq2    C3 1145   4.238   1.576  13.718  0.4633 -0.2396 -0.4819
   75TCq2    C4 1146   4.120   1.523  13.688 -0.0726  0.2398  0.3050
   75TCq2    C5 1147   4.031   1.594  13.609 -0.4008 -0.1340  0.0363
   75TCq2    C6 1148   4.066   1.726  13.573 -0.0503  0.1664 -0.1010
   75TCq2    C7 1149   4.193   1.773  13.600  0.1686  0.0420  0.1493
   75TCq2    C8 1150   3.971   1.789  13.477  0.3371 -0.5061 -0.1250
   75TCq2    O4 1151   3.892   1.706  13.424 -0.7828 -0.5377  0.0781
   75TCq2    C9 1152   4.096   1.391  13.743 -0.5458 -0.2364 -0.3691
   75TCq2    O5 1153   4.194   1.313  13.767  0.1180  0.2013  0.4680
   75TCq2    O6 1154   3.978   1.352  13.729 -0.1126  0.1904  0.2568
   75TCq2    H2 1155   4.312   1.519  13.772  0.5637 -0.5811 -0.9825
   75TCq2    H3 1156   3.938   1.546  13.581  0.2472 -0.6802 -1.1631
   75TCq2    H4 1157   4.214   1.876  13.577 -1.6777  0.6441  1.1929
   76MPD2     C 1158   3.155   2.862  11.818 -0.0404 -0.8672  0.6138
   76MPD2    C1 1159   3.035   2.821  11.754  0.5112 -0.3327 -0.4194
   76MPD2    C2 1160   3.001   2.687  11.774 -0.1605  0.4218  0.1197
   76MPD2    C3 1161   3.081   2.605  11.842  0.2884 -0.0001  0.3032
   76MPD2    C4 1162   3.193   2.651  11.912  0.1540 -0.0056  0.7684
   76MPD2    C5 1163   3.234   2.775  11.888  0.1148 -0.2042  0.5464
   76MPD2     H 1164   2.910   2.650  11.727  1.5887 -0.8613 -2.2279
   76MPD2    H1 1165   3.260   2.586  11.967 -0.7314 -0.1863  1.6338
   76MPD2    H2 1166   3.192   2.963  11.817 -0.5571 -0.6608  2.8360
   76MPD2    H3 1167   3.314   2.816  11.947  1.5389  2.4391 -3.1782
   76MPD2     N 1168   3.050   2.468  11.861  0.3088 -0.0469  0.0359
   76MPD2    H5 1169   3.107   2.414  11.925  0.8071 -3.0465 -2.9482
   76MPD2    N1 1170   2.946   2.905  11.687  0.3449 -0.3073 -0.1073
   76MPD2    H7 1171   2.859   2.858  11.663 -1.8184  3.0843  1.0375
   77TCq2    C1 1172   2.957   2.403  11.782  0.2733  0.0529  0.0143
   77TCq2    O2 1173   2.878   2.450  11.702  0.0212 -0.7160 -0.0272
   77TCq2    C2 1174   2.944   2.257  11.793 -0.1995 -0.0791  0.4502
   77TCq2    C3 1175   2.818   2.211  11.764 -0.1815  0.4800 -0.1677
   77TCq2    C4 1176   2.804   2.072  11.758  0.6490 -0.4831 -0.5256
   77TCq2    C5 1177   2.907   1.996  11.787 -0.0051 -0.2610 -0.5325
   77TCq2    C6 1178   3.037   2.047  11.804 -0.0369 -0.3890 -0.1509
   77TCq2    C7 1179   3.051   2.181  11.826  0.5742  0.4914 -0.3233
   77TCq2    C8 1180   3.144   1.961  11.849 -0.2329  0.6164 -0.3942
   77TCq2    O4 1181   3.123   1.843  11.840  0.1870  0.0285 -0.1321
   77TCq2    C9 1182   2.688   2.008  11.709  1.0929  0.5130  0.1554
   77TCq2    O5 1183   2.610   2.091  11.650 -0.2321  0.4154  0.2435
   77TCq2    O6 1184   2.690   1.880  11.713  0.0380  0.4895 -0.0192
   77TCq2    H2 1185   2.736   2.271  11.726  1.0336  0.0729 -3.3406
   77TCq2    H3 1186   2.907   1.888  11.779  0.9768 -0.2604 -0.5293
   77TCq2    H4 1187   3.147   2.231  11.827 -0.1824  1.9254  0.8337
   78MPD1     C 1188   0.793   0.873   1.727  0.2017 -0.0307 -0.4675
   78MPD1    C1 1189   0.764   1.006   1.756 -0.2720  0.3425  0.0395
   78MPD1    C2 1190   0.633   1.062   1.752  0.3522 -0.2030 -0.6011
   78MPD1    C3 1191   0.530   0.992   1.695 -0.2761 -0.3269 -0.4382
   78MPD1    C4 1192   0.564   0.861   1.651  0.0554 -0.6604 -0.8985
   78MPD1    C5 1193   0.688   0.803   1.672  0.3281  0.3519 -0.1074
   78MPD1     H 1194   0.617   1.166   1.779 -0.5377 -0.5454  0.1848
   78MPD1    H1 1195   0.493   0.808   1.590 -1.5974 -0.3042  0.7196
   78MPD1    H2 1196   0.890   0.826   1.744  0.9150  2.0414  1.2785
   78MPD1    H3 1197   0.700   0.699   1.643 -1.6875 -0.9392  3.6639
   78MPD1     N 1198   0.405   1.046   1.678 -0.0705 -0.0836 -0.1319
   78MPD1    H5 1199   0.335   0.985   1.637  2.5257 -2.3740 -1.1852
   78MPD1    N1 1200   0.851   1.078   1.834 -0.2599 -0.4716 -0.0001
   78MPD1    H6 1201   0.948   1.063   1.808  0.7902 -1.6369  4.6612
   78MPD1    H7 1202   0.839   1.179   1.821 -0.4474 -0.3040  1.4911
   79TCq2    C1 1203   0.358   1.164   1.727  0.4054 -0.4940  0.0780
   79TCq2    O2 1204   0.405   1.229   1.819 -0.4852 -0.8731  0.7398
   79TCq2    C2 1205   0.215   1.183   1.714 -0.6520  0.2623  0.1140
   79TCq2    C3 1206   0.138   1.100   1.636 -0.4275 -0.3275 -0.2832
   79TCq2    C4 1207   0.005   1.134   1.619 -0.0724 -0.5736 -0.2209
   79TCq2    C5 1208   4.666   1.229   1.696  0.5480 -0.1261 -0.0142
   79TCq2    C6 1209   0.026   1.311   1.772  0.2500 -0.3445  0.4746
   79TCq2    C7 1210   0.160   1.286   1.786  0.6237 -0.2744 -0.2659
   79TCq2    C8 1211   4.701   1.435   1.819 -0.0961 -0.8317  0.1702
   79TCq2    O4 1212   0.057   1.505   1.881 -0.2636  0.0326  0.7116
   79TCq2    C9 1213   4.654   1.061   1.526 -0.9842 -0.0615  0.0691
   79TCq2    O5 1214   4.530   1.087   1.523 -0.5889 -0.4056 -0.4760
   79TCq2    O6 1215   4.711   0.966   1.460 -0.6802  0.0357  0.3411
   79TCq2    H2 1216   0.183   1.016   1.584  2.4854  1.5124 -0.7454
   79TCq2    H3 1217   4.559   1.243   1.700  0.5533  1.3633 -5.1355
   79TCq2    H4 1218   0.222   1.346   1.852  1.3312 -0.1899 -0.9945
   80MPD2     C 1219   2.060   2.595  12.077 -0.3920  0.1283  0.2729
   80MPD2    C1 1220   1.941   2.580  12.004 -0.8067  0.0941  0.0740
   80MPD2    C2 1221   1.820   2.589  12.065  0.0114 -0.0807 -0.2853
   80MPD2    C3 1222   1.813   2.613  12.207  0.8818  0.0025  0.0420
   80MPD2    C4 1223   1.928   2.633  12.276  0.1161  0.9571  0.2661
   80MPD2    C5 1224   2.051   2.631  12.211 -0.0886  0.1599  0.4645
   80MPD2     H 1225   1.731   2.575  12.006  0.1534  1.5058 -0.8955
   80MPD2    H1 1226   1.927   2.669  12.378 -1.3471  0.2900  0.4902
   80MPD2    H2 1227   2.158   2.589  12.031  0.4540  0.1569  2.0544
   80MPD2    H3 1228   2.143   2.651  12.265  0.0459  3.2302 -0.9571
   80MPD2     N 1229   1.698   2.597  12.283 -0.2461  0.1416 -0.2324
   80MPD2    H5 1230   1.710   2.601  12.384  1.4561 -0.0113 -0.4324
   80MPD2    N1 1231   1.928   2.558  11.865  0.5357  0.3302 -0.2789
   80MPD2    H7 1232   1.834   2.558  11.828  0.3740 -0.3037  0.1239
   81TCq2    C1 1233   2.034   2.535  11.776  0.0757  0.3025 -0.2565
   81TCq2    O2 1234   2.157   2.559  11.786 -0.2239  0.1737  0.1652
   81TCq2    C2 1235   1.987   2.491  11.647  0.0499 -1.0469  0.3205
   81TCq2    C3 1236   2.048   2.556  11.544 -0.3178 -0.3530 -0.1868
   81TCq2    C4 1237   1.994   2.545  11.420 -0.2527 -0.4158  0.0459
   81TCq2    C5 1238   1.884   2.473  11.403 -0.4600  0.2189 -0.1686
   81TCq2    C6 1239   1.829   2.399  11.504  0.6426 -0.8719  0.3062
   81TCq2    C7 1240   1.879   2.409  11.628 -0.8852  0.1213  0.6769
   81TCq2    C8 1241   1.709   2.325  11.473  0.3885  0.9114  0.7695
   81TCq2    O4 1242   1.640   2.370  11.382 -0.4798  0.4186 -0.2010
   81TCq2    C9 1243   2.058   2.609  11.316  0.7977  0.1684 -0.0156
   81TCq2    O5 1244   1.987   2.597  11.210 -0.4155  0.3675 -0.4819
   81TCq2    O6 1245   2.179   2.639  11.328  0.3794  0.6734  0.3021
   81TCq2    H2 1246   2.119   2.633  11.571 -2.4421  1.1219  1.2879
   81TCq2    H3 1247   1.829   2.479  11.310  1.8204  0.7696 -1.4860
   81TCq2    H4 1248   1.843   2.349  11.711 -0.2705 -0.3530  0.5935
   82MPD2     C 1249   0.550   1.877  10.377 -0.6374  0.1136  0.7989
   82MPD2    C1 1250   0.447   1.777  10.365  0.2761 -0.2632  0.4700
   82MPD2    C2 1251   0.471   1.654  10.416 -0.5459 -0.3887  0.8631
   82MPD2    C3 1252   0.594   1.621  10.478 -0.4905  0.2539  0.0716
   82MPD2    C4 1253   0.681   1.723  10.499 -0.0605  0.1108 -0.0645
   82MPD2    C5 1254   0.660   1.845  10.453 -0.0949 -0.7710  0.5126
   82MPD2     H 1255   0.401   1.573  10.396 -1.0153  0.1300  0.4091
   82MPD2    H1 1256   0.768   1.707  10.562  1.1166  3.0497 -0.9431
   82MPD2    H2 1257   0.546   1.980  10.345 -1.1492 -0.1342  0.0708
   82MPD2    H3 1258   0.731   1.927  10.460  0.0307 -0.8232 -0.1240
   82MPD2     N 1259   0.627   1.493  10.541  0.0095  0.3925  0.0690
   82MPD2    H5 1260   0.703   1.493  10.608 -0.9181  0.5069  1.1184
   82MPD2    N1 1261   0.322   1.813  10.308  0.5662 -0.2471  0.4570
   82MPD2    H7 1262   0.300   1.908  10.281  0.6459 -0.2865  0.2593
   83TCq2    C1 1263   0.549   1.380  10.536  0.0929 -0.6133 -0.6813
   83TCq2    O2 1264   0.444   1.361  10.475  0.7110 -0.0294  0.1791
   83TCq2    C2 1265   0.588   1.282  10.630  0.5941  1.0420  1.2934
   83TCq2    C3 1266   0.717   1.277  10.674  0.2334 -0.0786 -0.1492
   83TCq2    C4 1267   0.735   1.215  10.793 -0.3859 -0.5511 -0.7087
   83TCq2    C5 1268   0.639   1.144  10.858 -0.5292 -0.1808  0.7030
   83TCq2    C6 1269   0.510   1.133  10.804 -0.0866  0.3079 -0.1907
   83TCq2    C7 1270   0.487   1.204  10.686 -0.1148  0.3049  0.7951
   83TCq2    C8 1271   0.405   1.048  10.867  0.5307 -0.2007 -0.1897
   83TCq2    O4 1272   0.417   1.014  10.984  0.2833 -0.1698  0.1909
   83TCq2    C9 1273   0.870   1.222  10.853 -0.5727 -0.0739 -0.4302
   83TCq2    O5 1274   0.878   1.152  10.956 -0.4302  0.2267 -0.2919
   83TCq2    O6 1275   0.937   1.322  10.824 -0.3224 -0.5008  0.4475
   83TCq2    H2 1276   0.799   1.329  10.625  0.6568  0.6508  1.3469
   83TCq2    H3 1277   0.668   1.082  10.942  0.8186 -1.8805 -0.9928
   83TCq2    H4 1278   0.387   1.210  10.643  0.6021  0.4838 -0.8636
   84TCq2    C1 1279   1.826   1.483   9.918 -0.4003  0.1666  1.1796
   84TCq2    O2 1280   1.709   1.459   9.894 -0.3531  0.2536 -0.0177
   84TCq2    C2 1281   1.879   1.422  10.037  0.2758 -0.7791 -0.1754
   84TCq2    C3 1282   1.988   1.343  10.011  0.0065  0.1458  0.4199
   84TCq2    C4 1283   1.984   1.217  10.065  0.0036 -0.3247  0.1257
   84TCq2    C5 1284   1.891   1.177  10.152 -0.5218  0.9169  0.6542
   84TCq2    C6 1285   1.784   1.262  10.173  0.4368 -0.2239  0.6887
   84TCq2    C7 1286   1.775   1.387  10.115  0.6549  1.0813  0.0941
   84TCq2    C8 1287   1.674   1.216  10.261 -0.8350 -0.1978  0.2323
   84TCq2    O4 1288   1.617   1.310  10.316  0.1063  0.2378  0.1188
   84TCq2    C9 1289   2.088   1.123  10.031 -0.4272  0.3173 -0.5287
   84TCq2    O5 1290   2.072   1.001  10.068 -0.2911 -0.2082  0.0426
   84TCq2    O6 1291   2.180   1.155   9.951 -0.4396  0.0756  0.4044
   84TCq2    H2 1292   2.061   1.365   9.934 -1.5191  1.4585 -0.6384
   84TCq2    H3 1293   1.884   1.072  10.178  0.6800  1.2098  2.1677
   84TCq2    H4 1294   1.695   1.451  10.149  0.1132 -0.1896  1.1860
   85MPD2     C 1295   1.625   3.153  15.895 -0.1952 -0.8207 -0.2489
   85MPD2    C1 1296   1.499   3.180  15.934 -0.3399 -1.1654  0.2195
   85MPD2    C2 1297   1.462   3.311  15.952 -0.3293 -0.6728 -0.5657
   85MPD2    C3 1298   1.544   3.411  15.918 -0.0966 -0.5724  0.8158
   85MPD2    C4 1299   1.675   3.388  15.882  0.2955  0.1310 -0.2037
   85MPD2    C5 1300   1.712   3.256  15.867  0.6238 -0.0923 -1.0966
   85MPD2     H 1301   1.364   3.331  15.991  0.5555 -2.4016  2.5155
   85MPD2    H1 1302   1.736   3.473  15.854  1.5675 -0.9153 -0.6189
   85MPD2    H2 1303   1.666   3.053  15.893  1.1919 -0.2724  0.5774
   85MPD2    H3 1304   1.814   3.231  15.839  0.9330 -0.7271  0.5752
   85MPD2     N 1305   1.504   3.552  15.915  0.3564  0.4654 -0.2602
   85MPD2    H5 1306   1.581   3.611  15.886  1.0193  1.2195  2.9672
   85MPD2    N1 1307   1.414   3.071  15.971 -0.2133 -0.3703 -0.2039
   85MPD2    H7 1308   1.432   2.978  15.934  1.7688  0.2521 -0.7961
   86TCq2    C1 1309   1.382   3.603  15.938  0.0750 -0.4243 -0.7329
   86TCq2    O2 1310   1.272   3.550  15.949 -0.1430  0.2141  0.2478
   86TCq2    C2 1311   1.386   3.746  15.955 -0.1007  0.3829 -0.4668
   86TCq2    C3 1312   1.316   3.813  15.857 -0.2725 -0.0223  0.1042
   86TCq2    C4 1313   1.368   3.925  15.795  0.5412  0.3526 -0.4506
   86TCq2    C5 1314   1.489   3.978  15.836 -0.0422 -0.5034  0.7694
   86TCq2    C6 1315   1.556   3.908  15.935  0.8713  0.2941 -0.3149
   86TCq2    C7 1316   1.505   3.800  16.000 -0.6069 -0.2745 -0.0454
   86TCq2    C8 1317   1.698   3.886  15.911 -0.2843  0.3038 -0.3522
   86TCq2    O4 1318   1.729   3.771  15.890  0.2744  0.0328 -0.1950
   86TCq2    C9 1319   1.299   3.987  15.682 -0.0714  0.5320  0.3819
   86TCq2    O5 1320   1.206   3.922  15.638  0.3654 -0.4456 -0.4939
   86TCq2    O6 1321   1.353   4.096  15.647  0.5795  0.3463  0.3277
   86TCq2    H2 1322   1.235   3.761  15.808 -0.1732 -0.6723  0.6122
   86TCq2    H3 1323   1.533   4.065  15.790 -1.8852 -0.3390 -0.6907
   86TCq2    H4 1324   1.566   3.737  16.062 -2.9120 -2.6077 -0.1606
   87MPD2     C 1325   3.661   2.085   1.448  0.4208 -0.2152  0.1040
   87MPD2    C1 1326   3.756   2.114   1.350 -0.2177  0.1331  0.1401
   87MPD2    C2 1327   3.766   2.240   1.294  0.0117 -0.3765 -0.4528
   87MPD2    C3 1328   3.682   2.339   1.342 -0.2808 -0.1640  0.2320
   87MPD2    C4 1329   3.593   2.312   1.442  0.0014 -0.4839 -0.6418
   87MPD2    C5 1330   3.585   2.189   1.496 -0.3931 -0.1778  0.2096
   87MPD2     H 1331   3.832   2.258   1.209  1.0752  2.8287  1.0409
   87MPD2    H1 1332   3.543   2.397   1.488  0.5750 -1.1874  1.2896
   87MPD2    H2 1333   3.639   1.985   1.483 -1.7250  0.0911 -0.3381
   87MPD2    H3 1334   3.513   2.170   1.575 -0.0960 -0.1156  0.4943
   87MPD2     N 1335   3.674   2.469   1.274  0.6073  0.2870 -0.2788
   87MPD2    H5 1336   3.598   2.531   1.299  1.3311  0.5691  1.1978
   87MPD2    N1 1337   3.830   2.009   1.299  0.1515  0.7124 -0.3214
   87MPD2    H7 1338   3.801   1.918   1.334 -1.0904  1.9123  1.7656
   88TCq2    C1 1339   3.941   2.016   1.223 -0.1184 -0.3068 -0.1677
   88TCq2    O2 1340   4.012   2.109   1.190  0.9567  0.0271 -0.0380
   88TCq2    C2 1341   3.981   1.879   1.195  0.1229  0.2364  0.2907
   88TCq2    C3 1342   3.886   1.784   1.163 -0.2267 -0.1363 -0.2018
   88TCq2    C4 1343   3.928   1.663   1.102 -0.8001 -0.3826 -0.1678
   88TCq2    C5 1344   4.057   1.637   1.062 -0.6047  0.3452 -0.0520
   88TCq2    C6 1345   4.150   1.739   1.087 -0.1704  0.7829  0.0132
   88TCq2    C7 1346   4.114   1.856   1.145  0.3050  0.2018  0.8104
   88TCq2    C8 1347   4.290   1.718   1.045 -0.6965 -0.2315  0.3005
   88TCq2    O4 1348   4.358   1.820   1.028 -0.8292  0.0903  0.1257
   88TCq2    C9 1349   3.828   1.576   1.047  0.1664 -0.3291  1.1291
   88TCq2    O5 1350   3.866   1.498   0.956  0.7376  0.8113  0.2098
   88TCq2    O6 1351   3.721   1.636   1.054 -0.3669 -0.5515 -0.1982
   88TCq2    H2 1352   3.780   1.796   1.181  0.1370 -1.1749  2.6645
   88TCq2    H3 1353   4.073   1.542   1.013  0.1396 -0.1924  1.2146
   88TCq2    H4 1354   4.192   1.929   1.164 -0.1372  0.2350  2.4843
   89MPD2     C 1355   4.706   3.311   1.282 -0.1451  0.5328 -0.4229
   89MPD2    C1 1356   4.674   3.431   1.343  0.7775  0.1467  0.9316
   89MPD2    C2 1357   0.033   3.535   1.343  0.2750  0.3136  0.0246
   89MPD2    C3 1358   0.161   3.521   1.290  0.1434  0.2061  0.3392
   89MPD2    C4 1359   0.197   3.405   1.227  0.0982  0.1767  0.1192
   89MPD2    C5 1360   0.115   3.298   1.226  0.1207 -1.0605  0.5691
   89MPD2     H 1361   4.721   3.631   1.378 -0.7786  0.4380 -1.4333
   89MPD2    H1 1362   0.285   3.406   1.164  0.6704  3.0258  0.9645
   89MPD2    H2 1363   4.643   3.224   1.270  0.2814  0.0697  0.6740
   89MPD2    H3 1364   0.138   3.206   1.173 -0.7786  0.1611 -1.9612
   89MPD2     N 1365   0.246   3.633   1.271  0.8844 -0.5300 -0.4256
   89MPD2    H5 1366   0.212   3.720   1.310 -0.4308 -0.6235 -1.3638
   89MPD2    N1 1367   4.543   3.448   1.402  0.2012 -0.0683  0.9655
   89MPD2    H7 1368   4.500   3.540   1.409  1.6654  0.5813  1.4517
   90TCq2    C1 1369   0.378   3.645   1.233 -0.0509 -0.2756  0.0622
   90TCq2    O2 1370   0.467   3.558   1.235 -0.0438  0.3409  0.7931
   90TCq2    C2 1371   0.410   3.786   1.212  0.1679  0.2656 -0.5764
   90TCq2    C3 1372   0.540   3.829   1.234 -0.0573  0.1302 -0.4070
   90TCq2    C4 1373   0.562   3.961   1.238 -0.5657  0.4878  0.1351
   90TCq2    C5 1374   0.472   4.050   1.199 -1.1603  0.3566 -0.1070
   90TCq2    C6 1375   0.347   4.008   1.156  0.1759 -0.0689 -0.5106
   90TCq2    C7 1376   0.314   3.876   1.180 -0.1658 -0.3151 -0.0060
   90TCq2    C8 1377   0.242   4.102   1.115  0.1553 -0.7732  0.5738
   90TCq2    O4 1378   0.128   4.068   1.132  0.2787  0.1655  0.1200
   90TCq2    C9 1379   0.694   4.014   1.263  0.1063  0.6919 -0.3252
   90TCq2    O5 1380   0.699   4.132   1.306  0.5791 -0.0370  0.0377
   90TCq2    O6 1381   0.790   3.937   1.243 -0.3990  0.3586 -0.0325
   90TCq2    H2 1382   0.614   3.754   1.261 -2.2074 -1.2644  1.6508
   90TCq2    H3 1383   0.504   4.153   1.192 -1.1937  0.3632 -0.1598
   90TCq2    H4 1384   0.231   3.842   1.119 -1.7621  1.7442  1.0453
   91TMC2    C1 1385   1.210   4.265  16.411 -0.5270  0.2435  0.0378
   91TMC2    C2 1386   1.158   4.304  16.528  0.4660  0.6188  0.3232
   91TMC2    C3 1387   1.033   4.370  16.525 -0.5801  0.2169  0.2458
   91TMC2    C4 1388   1.152   4.278  16.291 -0.9605 -1.1605  0.6845
   91TMC2    C5 1389   1.030   4.340  16.289 -0.0096 -0.1953  0.1980
   91TMC2    C6 1390   0.967   4.378  16.402  0.4033 -0.2351  0.7676
   91TMC2     C 1391   1.301   4.161  16.424  0.2716 -0.0806 -0.3290
   91TMC2     O 1392   1.293   4.088  16.524 -0.6664 -0.0957 -0.3763
   91TMC2     H 1393   1.206   4.291  16.624 -3.2819  1.3677  2.2992
   91TMC2    H1 1394   1.189   4.248  16.194  0.9606  0.4017  0.9455
   91TMC2    H2 1395   0.866   4.419  16.401  0.2412 -0.7088 -3.1486
   91TMC2    C7 1396   0.969   4.396  16.158  0.3624 -0.1292 -0.6881
   91TMC2    C8 1397   0.966   4.393  16.643 -0.2712  0.6446  0.0185
   91TMC2    O1 1398   0.904   4.499  16.174  0.1689  0.4487  0.8565
   91TMC2    O2 1399   0.858   4.341  16.655 -0.5043 -0.8484  0.2242
   91TMC2    O5 1400   1.046   4.430  16.743  0.0690 -0.1819 -0.2361
   91TMC2    H5 1401   1.129   4.469  16.708 -0.7128  0.5269 -1.2825
   92MPD2     C 1402   1.473   3.944  16.353  0.1631  1.3724  0.4033
   92MPD2    C1 1403   1.511   4.076  16.325  0.2329 -0.8858  0.0750
   92MPD2    C2 1404   1.633   4.106  16.270  0.1466 -0.3410  0.7519
   92MPD2    C3 1405   1.730   4.006  16.245 -0.8144 -0.2472 -0.0317
   92MPD2    C4 1406   1.684   3.874  16.276 -0.4797 -0.1008  0.1454
   92MPD2    C5 1407   1.562   3.850  16.323 -0.1541 -0.1567 -0.7875
   92MPD2     H 1408   1.654   4.211  16.250 -2.3705 -0.0744 -0.5168
   92MPD2    H1 1409   1.746   3.788  16.254 -2.5821 -1.6018  0.0923
   92MPD2    H2 1410   1.380   3.914  16.399  1.8576 -0.4988  2.6062
   92MPD2    H3 1411   1.533   3.752  16.358 -4.1917  0.3766 -2.5997
   92MPD2     N 1412   1.866   4.038  16.197  0.3722  0.5625  0.4422
   92MPD2    H5 1413   1.889   4.136  16.209 -3.7482  1.6458 -0.5204
   92MPD2    N1 1414   1.411   4.173  16.339 -0.1377 -0.3061  0.4196
   92MPD2    H7 1415   1.424   4.264  16.298  0.3755 -0.0953  1.0426
   93MPD2     C 1416   3.835   4.331  13.254 -0.0312  0.1314 -0.0606
   93MPD2    C1 1417   3.812   4.343  13.392  0.7010 -0.5206 -0.0653
   93MPD2    C2 1418   3.678   4.348  13.439 -0.3235 -0.3658 -0.6949
   93MPD2    C3 1419   3.572   4.349  13.349  0.6204  0.3270 -0.5595
   93MPD2    C4 1420   3.601   4.323  13.220  0.1554  0.3215 -0.8112
   93MPD2    C5 1421   3.728   4.318  13.168  0.0946 -0.0118  0.4369
   93MPD2     H 1422   3.649   4.381  13.539  0.5518  1.5049 -1.0420
   93MPD2    H1 1423   3.517   4.322  13.151 -1.3812 -0.9293  1.0896
   93MPD2    H2 1424   3.934   4.325  13.210  1.6211 -2.9619  4.0429
   93MPD2    H3 1425   3.747   4.312  13.062  0.1611  0.4719  0.4219
   93MPD2     N 1426   3.436   4.367  13.381  0.2014 -0.3991 -0.1190
   93MPD2    H5 1427   3.370   4.377  13.304  0.6685 -0.7033 -0.5547
   93MPD2    N1 1428   3.911   4.369  13.489 -0.2833  0.1948  0.1316
   93MPD2    H7 1429   3.874   4.376  13.583 -3.0235  1.3076 -1.0162
   94TCq2    C1 1430   4.038   4.383  13.461  0.7216 -0.3045  0.4228
   94TCq2    O2 1431   4.095   4.375  13.354 -0.7040  0.0216 -0.1752
   94TCq2    C2 1432   4.117   4.415  13.583  0.6521 -0.0253  0.1476
   94TCq2    C3 1433   4.070   4.414  13.711 -0.1341 -0.0332  0.0892
   94TCq2    C4 1434   4.152   4.467  13.804  0.1534 -0.2171  0.1262
   94TCq2    C5 1435   4.284   4.506  13.783  0.3292  0.3668 -0.1159
   94TCq2    C6 1436   4.335   4.497  13.659  0.0980  0.5793  0.2695
   94TCq2    C7 1437   4.246   4.452  13.559  0.2551 -0.3402  0.4809
   94TCq2    C8 1438   4.460   4.559  13.630  0.6120 -0.1227  0.2623
   94TCq2    O4 1439   4.533   4.584  13.728 -0.9696  0.2518 -0.3222
   94TCq2    C9 1440   4.113   4.472  13.946 -0.5272 -0.6805 -0.0990
   94TCq2    O5 1441   4.201   4.506  14.026  0.3219  0.1493 -0.0154
   94TCq2    O6 1442   3.995   4.457  13.970 -0.0190  0.1236 -0.3089
   94TCq2    H2 1443   3.970   4.382  13.738  0.2278 -1.2868 -0.0827
   94TCq2    H3 1444   4.338   4.552  13.865  0.3056 -0.3402  0.2982
   94TCq2    H4 1445   4.281   4.428  13.459 -0.3684 -0.2962  0.2491
   95TMC2    C1 1446   3.926   1.580  15.469 -0.1665  0.0200  0.1398
   95TMC2    C2 1447   3.909   1.676  15.563 -0.0903 -0.2224 -0.1013
   95TMC2    C3 1448   3.816   1.656  15.664 -0.7426 -0.0850 -0.2791
   95TMC2    C4 1449   3.861   1.464  15.484 -0.0705 -0.9396  0.2583
   95TMC2    C5 1450   3.771   1.440  15.588 -0.2763  0.4736 -0.5267
   95TMC2    C6 1451   3.744   1.539  15.673  0.3715  0.0437 -0.5847
   95TMC2     C 1452   3.982   1.629  15.339 -0.1634 -0.1623  0.8912
   95TMC2     O 1453   4.050   1.732  15.346  0.2929  0.2066  0.4662
   95TMC2     H 1454   3.984   1.753  15.573 -0.3295 -0.0245  0.1568
   95TMC2    H1 1455   3.858   1.392  15.402 -0.2670 -0.2718 -0.3242
   95TMC2    H2 1456   3.685   1.527  15.763 -0.7568 -0.0275 -1.3388
   95TMC2    C7 1457   3.731   1.302  15.626 -0.0662 -0.5849 -0.4497
   95TMC2    C8 1458   3.831   1.723  15.790  0.0753 -0.7380 -0.1395
   95TMC2    O1 1459   3.638   1.290  15.705  0.3327 -0.3037  0.4400
   95TMC2    O2 1460   3.841   1.675  15.898 -0.0346 -0.4644 -0.1549
   95TMC2    O5 1461   3.854   1.851  15.768 -0.0531 -0.1542  0.1215
   95TMC2    H5 1462   3.830   1.870  15.675 -2.2195 -1.7230  0.3835
   96MPD2     C 1463   4.001   1.586  14.835  0.4263 -0.3613 -0.4806
   96MPD2    C1 1464   4.058   1.677  14.918 -0.6595  0.0363 -0.1208
   96MPD2    C2 1465   4.038   1.662  15.052 -0.2774  0.1387  0.3722
   96MPD2    C3 1466   3.960   1.558  15.099  0.9158  0.4132  0.1326
   96MPD2    C4 1467   3.900   1.465  15.017  0.4920  0.3858  0.2032
   96MPD2    C5 1468   3.915   1.484  14.882 -0.2147 -0.8188 -0.0799
   96MPD2     H 1469   4.082   1.733  15.121 -1.3903  1.9493 -0.7783
   96MPD2    H1 1470   3.843   1.383  15.059  0.4543 -0.6956 -1.9740
   96MPD2    H2 1471   4.005   1.594  14.727 -1.1624 -0.7101 -0.5656
   96MPD2    H3 1472   3.870   1.429  14.800  0.3389 -0.8036 -0.3914
   96MPD2     N 1473   3.936   1.544  15.237 -0.7999  0.1022  0.6413
   96MPD2    H5 1474   3.887   1.462  15.270 -1.4693  0.2610  0.0283
   96MPD2    N1 1475   4.128   1.780  14.857  0.1115  0.0884 -0.2161
   96MPD2    H7 1476   4.113   1.783  14.757  0.4622 -0.1358 -0.2771
   97MPD2     C 1477   1.440   3.280   0.688  0.1977  0.1937  0.4086
   97MPD2    C1 1478   1.303   3.303   0.670  0.2418 -0.1537  1.0882
   97MPD2    C2 1479   1.261   3.349   0.548  0.1408  0.3264 -0.0795
   97MPD2    C3 1480   1.345   3.397   0.449 -0.6825 -0.0970  0.1819
   97MPD2    C4 1481   1.480   3.385   0.473 -0.0693  0.1453  0.4639
   97MPD2    C5 1482   1.525   3.333   0.595 -0.5879  0.1086 -0.5178
   97MPD2     H 1483   1.153   3.358   0.537 -0.2415 -3.0922  0.9345
   97MPD2    H1 1484   1.556   3.424   0.407 -0.1455 -0.2600  0.1429
   97MPD2    H2 1485   1.485   3.228   0.772 -0.6753 -2.6850 -0.8998
   97MPD2    H3 1486   1.632   3.330   0.614 -0.2555  1.7130 -2.0610
   97MPD2     N 1487   1.311   3.434   0.319  0.3174  0.7306 -0.2721
   97MPD2    H5 1488   1.386   3.456   0.254  0.9538  1.7481  0.7830
   97MPD2    N1 1489   1.203   3.284   0.770 -0.4254 -0.0214 -0.7751
   97MPD2    H7 1490   1.109   3.311   0.741 -1.0508 -2.4501 -0.9966
   98TCq2    C1 1491   1.186   3.432   0.262 -0.0692 -0.6532 -0.4595
   98TCq2    O2 1492   1.092   3.362   0.295 -0.0695  0.1705  0.1564
   98TCq2    C2 1493   1.175   3.507   0.138 -0.3421  0.0333 -0.5341
   98TCq2    C3 1494   1.072   3.483   0.049 -0.3520  0.4954  0.2339
   98TCq2    C4 1495   1.042   3.567  17.649 -0.2272  0.6621 -0.2946
   98TCq2    C5 1496   1.099   3.689  17.645  0.3967  0.6115 -0.3499
   98TCq2    C6 1497   1.193   3.720   0.044  0.0519 -0.2653  0.0816
   98TCq2    C7 1498   1.236   3.631   0.138  1.0013 -0.3505 -0.1401
   98TCq2    C8 1499   1.243   3.853   0.051 -0.9255  0.2837  0.7412
   98TCq2    O4 1500   1.342   3.883   0.118 -0.1055  0.8075 -0.2516
   98TCq2    C9 1501   0.938   3.545  17.557 -0.4964  0.5907  0.7538
   98TCq2    O5 1502   0.871   3.435  17.562  0.1617 -0.0939 -0.2043
   98TCq2    O6 1503   0.903   3.640  17.485 -0.0331 -0.4004 -0.4002
   98TCq2    H2 1504   1.013   3.395   0.071 -1.6394  1.3838  0.3238
   98TCq2    H3 1505   1.066   3.754  17.565  0.0509  0.7134 -0.1247
   98TCq2    H4 1506   1.313   3.654   0.211 -1.8104  1.7967  2.1231
   99MPD2     C 1507   4.693   0.591   1.781  0.2852  0.2131 -0.4963
   99MPD2    C1 1508   4.602   0.689   1.770 -0.3645  0.3612  0.1337
   99MPD2    C2 1509   4.494   0.670   1.682 -0.4671 -0.2929 -0.2627
   99MPD2    C3 1510   4.484   0.560   1.605  0.0862  0.0652 -0.2292
   99MPD2    C4 1511   4.583   0.466   1.622 -0.4183 -0.5025  0.4428
   99MPD2    C5 1512   4.679   0.476   1.713  0.8828  0.2898 -0.6186
   99MPD2     H 1513   4.426   0.755   1.681  0.6920  0.6440 -0.5297
   99MPD2    H1 1514   4.578   0.369   1.575 -1.1207  0.2343 -1.0063
   99MPD2    H2 1515   0.053   0.607   1.848 -1.2664  0.4685  1.3991
   99MPD2    H3 1516   0.025   0.397   1.737  0.0597 -0.4080 -0.4945
   99MPD2     N 1517   4.383   0.548   1.512 -0.1275 -0.3540  1.3405
   99MPD2    H5 1518   4.322   0.629   1.503  1.5010  0.8571  1.1204
   99MPD2    N1 1519   4.607   0.814   1.842  0.1758 -0.1718 -0.2178
   99MPD2    H7 1520   4.540   0.881   1.805  1.3540  1.6398  0.9478
  100TCq2    C1 1521   4.697   0.864   1.933 -0.0301  0.7551 -0.2056
  100TCq2    O2 1522   0.085   0.821   1.961  0.0590  0.4932  0.2661
  100TCq2    C2 1523   4.654   0.985   1.995 -0.3835  0.3419 -0.3549
  100TCq2    C3 1524   0.028   1.068   2.044 -0.7385 -0.9032 -0.4213
  100TCq2    C4 1525   4.719   1.189   2.101 -0.0609 -0.5005 -0.5471
  100TCq2    C5 1526   4.591   1.243   2.094 -0.0182 -0.5301 -1.0240
  100TCq2    C6 1527   4.494   1.161   2.045  0.8279  0.4602  0.0196
  100TCq2    C7 1528   4.526   1.032   1.995 -0.2065  0.3882 -0.9124
  100TCq2    C8 1529   4.362   1.215   2.039  0.4261 -0.3022 -0.1257
  100TCq2    O4 1530   4.343   1.317   2.104  0.2667 -0.3149  0.6709
  100TCq2    C9 1531   0.093   1.277   2.150 -0.8119  0.5905  0.1616
  100TCq2    O5 1532   0.062   1.382   2.217  0.1089 -0.4925  0.2293
  100TCq2    O6 1533   0.209   1.238   2.116 -0.4618 -0.1849  0.4890
  100TCq2    H2 1534   0.131   1.035   2.036 -0.4937  0.1488 -1.6515
  100TCq2    H3 1535   4.574   1.347   2.119 -1.0579 -0.5762 -1.5208
  100TCq2    H4 1536   4.452   0.954   1.978  1.3492 -1.0700 -1.0110
  101MPD2     C 1537   0.959   1.803  12.621 -0.5170  0.3942  0.0246
  101MPD2    C1 1538   0.875   1.881  12.696 -0.0243  1.1646 -0.5634
  101MPD2    C2 1539   0.800   1.808  12.792 -0.6248  0.0702 -0.2570
  101MPD2    C3 1540   0.788   1.673  12.782  0.3170  0.1837  0.8004
  101MPD2    C4 1541   0.872   1.601  12.706 -0.5590 -0.2103 -0.0232
  101MPD2    C5 1542   0.956   1.664  12.626 -0.7743 -0.2643  0.4516
  101MPD2     H 1543   0.733   1.857  12.861 -0.6808  2.3258 -1.9136
  101MPD2    H1 1544   0.883   1.493  12.716  0.7973  0.1504  2.3021
  101MPD2    H2 1545   1.035   1.852  12.562  1.8735 -1.6330  1.4240
  101MPD2    H3 1546   1.041   1.614  12.581  0.6650  0.6130  2.1909
  101MPD2     N 1547   0.693   1.621  12.866 -0.5040  0.1835  0.1075
  101MPD2    H5 1548   0.636   1.693  12.908 -0.0521  1.1391 -0.9357
  101MPD2    N1 1549   0.888   2.023  12.714 -0.8226 -0.0253 -0.1893
  101MPD2    H7 1550   0.864   2.055  12.808 -2.3218  0.2230 -0.6615
  102TCq2    C1 1551   0.984   2.589  12.579 -0.3743 -0.5302  0.4302
  102TCq2    O2 1552   1.071   2.564  12.493  0.2086 -0.4855 -0.2430
  102TCq2    C2 1553   0.934   2.472  12.655 -0.0214  0.4555  0.0432
  102TCq2    C3 1554   0.856   2.501  12.764  0.0212  0.1414 -0.3002
  102TCq2    C4 1555   0.811   2.387  12.835 -0.1680  0.6866  0.3429
  102TCq2    C5 1556   0.830   2.265  12.793  0.3337  0.5135  0.6257
  102TCq2    C6 1557   0.887   2.247  12.671  0.0174  0.2511 -0.4900
  102TCq2    C7 1558   0.957   2.347  12.613  0.0786 -0.3218  0.1317
  102TCq2    C8 1559   0.906   2.117  12.617 -0.4885 -0.0638  0.0901
  102TCq2    O4 1560   0.937   2.101  12.498 -0.0352  0.1748 -0.3916
  102TCq2    C9 1561   0.716   2.412  12.937  0.8685 -0.6873  0.2724
  102TCq2    O5 1562   0.668   2.318  13.002 -0.2317 -0.2419 -1.0239
  102TCq2    O6 1563   0.674   2.534  12.955  0.1897  0.5459  0.8214
  102TCq2    H2 1564   0.850   2.592  12.822 -0.6521  0.2368 -0.5167
  102TCq2    H3 1565   0.765   2.190  12.835 -1.2287  1.4833 -0.0796
  102TCq2    H4 1566   1.004   2.325  12.517 -0.4380  1.8067 -0.6090
  103TMC2    C1 1567   3.815   2.208  12.232  0.5248  0.4856 -0.7009
  103TMC2    C2 1568   3.923   2.127  12.211 -0.3586 -0.1593  0.0335
  103TMC2    C3 1569   4.020   2.136  12.300  0.1182  0.1577 -0.4703
  103TMC2    C4 1570   3.817   2.311  12.321 -0.3872 -0.5331 -0.8134
  103TMC2    C5 1571   3.924   2.314  12.413 -0.2364  0.3728 -0.1089
  103TMC2    C6 1572   4.035   2.225  12.406 -0.4353  0.3259  0.5392
  103TMC2     C 1573   3.686   2.182  12.165  0.0385 -0.3690 -0.1959
  103TMC2     O 1574   3.590   2.260  12.179 -0.0819  0.4450 -0.0976
  103TMC2     H 1575   3.922   2.057  12.128  2.1546 -0.8036  0.5263
  103TMC2    H1 1576   3.734   2.381  12.325 -1.0514 -1.4778  2.5590
  103TMC2    H2 1577   4.117   2.229  12.477  0.7598 -1.3940 -0.7500
  103TMC2    C7 1578   3.942   2.418  12.510 -0.2783 -0.5750 -0.1312
  103TMC2    C8 1579   4.133   2.041  12.285  0.1499  0.4469 -0.4978
  103TMC2    O1 1580   4.008   2.383  12.607  0.0741 -0.9360 -0.3047
  103TMC2    O2 1581   4.135   1.924  12.255  0.3462  0.0883 -0.4874
  103TMC2    O5 1582   4.243   2.110  12.309 -0.1879 -0.7775  0.2690
  103TMC2    H5 1583   4.223   2.201  12.339  1.4270 -0.5971  0.7776
  104MPD2     C 1584   3.591   1.846  12.066  0.1628 -0.1423 -0.0028
  104MPD2    C1 1585   3.569   1.980  12.080 -0.4474  0.5116 -0.5552
  104MPD2    C2 1586   3.448   2.038  12.048  0.0973  0.4960  0.1554
  104MPD2    C3 1587   3.357   1.960  11.976 -0.4239 -0.2836 -0.2346
  104MPD2    C4 1588   3.376   1.821  11.972 -0.6487 -0.4176  0.4337
  104MPD2    C5 1589   3.495   1.767  12.012 -0.0019 -0.3836  0.8627
  104MPD2     H 1590   3.429   2.145  12.054  0.3191  0.5067  0.6495
  104MPD2    H1 1591   3.300   1.761  11.924  0.9245 -0.6822 -1.7343
  104MPD2    H2 1592   3.682   1.801  12.106  0.8548 -1.6136 -3.2788
  104MPD2    H3 1593   3.506   1.661  11.997  0.6772  0.0610 -1.7393
  104MPD2     N 1594   3.242   2.023  11.922 -0.4064 -0.2279 -0.1207
  104MPD2    H5 1595   3.222   2.119  11.949  0.2353  0.3636 -1.7640
  104MPD2    N1 1596   3.677   2.052  12.134 -0.4283 -0.1312  0.0922
  104MPD2    H7 1597   3.761   1.998  12.153 -1.5213 -2.1969 -0.9399
  105MPD2     C 1598   0.504   1.607  17.525 -0.3074  0.6298  0.0772
  105MPD2    C1 1599   0.374   1.660  17.533  0.3495  0.4832 -0.2808
  105MPD2    C2 1600   0.330   1.704  17.654 -0.0348  0.6350  0.0670
  105MPD2    C3 1601   0.406   1.696   0.066  0.0847 -0.2434 -0.0533
  105MPD2    C4 1602   0.532   1.646   0.060 -0.0894  0.1658 -0.4293
  105MPD2    C5 1603   0.581   1.606  17.637 -0.2561 -0.4165 -0.5662
  105MPD2     H 1604   0.227   1.737  17.658 -0.2575  0.0391 -0.7731
  105MPD2    H1 1605   0.594   1.620   0.145  0.8686  1.0419 -0.8569
  105MPD2    H2 1606   0.539   1.575  17.427 -2.8946 -1.3453 -0.1969
  105MPD2    H3 1607   0.675   1.555  17.624  0.9951  1.0325  2.8918
  105MPD2     N 1608   0.344   1.743   0.182 -0.4179  0.0965 -0.3983
  105MPD2    H5 1609   0.256   1.793   0.170 -1.4732 -1.6896 -0.1347
  105MPD2    N1 1610   0.287   1.683  17.417 -0.2511  0.0386  0.1759
  105MPD2    H7 1611   0.214   1.752  17.432 -2.0153 -1.2478 -2.6111
  106TCq2    C1 1612   0.390   1.733   0.311  0.4643 -0.0930 -0.0472
  106TCq2    O2 1613   0.489   1.681   0.358  0.1290 -0.2385 -0.0034
  106TCq2    C2 1614   0.285   1.795   0.395  0.5650  0.3448 -0.7003
  106TCq2    C3 1615   0.220   1.905   0.361  0.2826 -0.1029  0.6139
  106TCq2    C4 1616   0.100   1.944   0.411 -0.3832 -0.4483 -0.2275
  106TCq2    C5 1617   0.036   1.857   0.500 -0.3906 -0.0297 -0.3113
  106TCq2    C6 1618   0.102   1.735   0.523 -0.2524 -0.1470  0.2778
  106TCq2    C7 1619   0.229   1.705   0.480  0.0551  0.3108  0.2603
  106TCq2    C8 1620   0.038   1.623   0.586 -0.3010 -0.0022  0.1016
  106TCq2    O4 1621   0.070   1.512   0.548  0.5329  0.1117  0.1699
  106TCq2    C9 1622   0.038   2.063   0.359 -0.3311 -0.4395 -0.3068
  106TCq2    O5 1623   4.646   2.088   0.392  0.0198  0.0860  0.2129
  106TCq2    O6 1624   0.096   2.111   0.257  0.6418  0.1670 -0.1429
  106TCq2    H2 1625   0.267   1.963   0.283 -1.2356  0.7826  0.3416
  106TCq2    H3 1626   4.658   1.872   0.534 -0.4121 -1.9950  0.4775
  106TCq2    H4 1627   0.283   1.613   0.499  1.4876  0.8748 -1.0542
  107TMC2    C1 1628   1.163   1.136  11.055 -0.3309  0.0004  0.2509
  107TMC2    C2 1629   1.183   1.272  11.044 -0.0594  0.0321 -0.4106
  107TMC2    C3 1630   1.243   1.311  10.930 -0.6304  0.4553 -0.1125
  107TMC2    C4 1631   1.210   1.042  10.965 -0.3142 -0.7692 -0.5056
  107TMC2    C5 1632   1.283   1.089  10.858 -0.1861  1.1013  0.3144
  107TMC2    C6 1633   1.295   1.223  10.834  0.2324 -0.1756 -0.1856
  107TMC2     C 1634   1.118   1.086  11.182 -0.3237 -0.0401  0.3850
  107TMC2     O 1635   1.122   1.163  11.276 -0.1617  0.9422  0.0909
  107TMC2     H 1636   1.149   1.337  11.124 -0.6403  0.4590 -1.0091
  107TMC2    H1 1637   1.227   0.938  10.989 -3.4066 -0.5665  2.4802
  107TMC2    H2 1638   1.340   1.272  10.749 -2.8704  3.6989  0.4126
  107TMC2    C7 1639   1.305   1.002  10.748  0.5352  0.2985  0.1344
  107TMC2    C8 1640   1.232   1.448  10.894 -0.6845 -0.0206  0.6035
  107TMC2    O1 1641   1.261   0.889  10.755  0.2408  0.1034  0.6594
  107TMC2    O2 1642   1.326   1.526  10.905 -0.0090  0.0164 -0.2231
  107TMC2    O5 1643   1.109   1.464  10.949  0.0458 -0.1175 -0.1114
  107TMC2    H5 1644   1.041   1.397  10.926  0.6166 -1.2217  1.3912
  108MPD2     C 1645   1.031   0.738  11.272 -0.1369 -0.6179  0.9447
  108MPD2    C1 1646   1.018   0.876  11.287 -0.3312  0.4438  0.1517
  108MPD2    C2 1647   0.977   0.934  11.410  0.2526 -0.3306  0.4387
  108MPD2    C3 1648   0.929   0.853  11.510 -0.0089 -0.2234  0.3765
  108MPD2    C4 1649   0.938   0.713  11.490 -0.7914 -0.2430  0.2029
  108MPD2    C5 1650   0.985   0.661  11.374  0.2929  0.2760 -0.2448
  108MPD2     H 1651   0.964   1.042  11.417 -0.0519 -0.4220  1.2767
  108MPD2    H1 1652   0.906   0.641  11.565 -2.0483 -0.0560 -0.1630
  108MPD2    H2 1653   1.064   0.695  11.178 -1.5760  0.1288  0.0970
  108MPD2    H3 1654   0.990   0.555  11.350  0.3255  0.0065  0.9131
  108MPD2     N 1655   0.870   0.899  11.629 -0.3739  0.4719 -0.0081
  108MPD2    H5 1656   0.844   0.831  11.700 -0.1703  1.6204  1.1542
  108MPD2    N1 1657   1.067   0.959  11.178 -0.1097  0.5796 -0.2170
  108MPD2    H7 1658   1.073   0.908  11.091 -1.5625  0.6938 -0.3845
  109MPD2     C 1659   0.623   2.050   2.146  0.4538 -1.0149  0.1549
  109MPD2    C1 1660   0.591   2.144   2.053  0.1349  0.1480  0.2062
  109MPD2    C2 1661   0.694   2.227   1.999 -0.7014 -0.0101  0.6403
  109MPD2    C3 1662   0.823   2.200   2.024  0.1059  0.0309  0.1046
  109MPD2    C4 1663   0.853   2.105   2.120 -0.3424  0.3843 -0.2324
  109MPD2    C5 1664   0.753   2.037   2.186  0.0231  0.2897 -0.0667
  109MPD2     H 1665   0.685   2.306   1.925 -0.5440  1.5427  2.2743
  109MPD2    H1 1666   0.949   2.104   2.171 -0.9366  3.3899  0.9489
  109MPD2    H2 1667   0.557   1.973   2.185 -1.3146 -0.4165 -1.6623
  109MPD2    H3 1668   0.771   1.969   2.269 -1.1714  0.0565 -0.0005
  109MPD2     N 1669   0.918   2.279   1.956  0.9277 -0.2566 -0.7595
  109MPD2    H5 1670   0.886   2.362   1.907 -0.8001  0.5363  1.6839
  109MPD2    N1 1671   0.454   2.147   2.010  0.1822 -0.0547  0.3329
  109MPD2    H7 1672   0.391   2.078   2.049 -1.0760  0.5388 -0.6435
  110TCq2    C1 1673   1.056   2.249   1.968  0.5049 -0.4157  0.5135
  110TCq2    O2 1674   1.111   2.147   2.009  0.8601 -0.4220 -0.2973
  110TCq2    C2 1675   1.145   2.343   1.901  0.2665 -0.5748  0.1651
  110TCq2    C3 1676   1.278   2.305   1.888 -0.1194 -0.5885 -0.2001
  110TCq2    C4 1677   1.366   2.372   1.808 -0.2967 -0.5299 -0.4428
  110TCq2    C5 1678   1.325   2.486   1.739  0.1144  0.1659  0.3796
  110TCq2    C6 1679   1.196   2.526   1.759 -0.2485 -0.2168  0.1554
  110TCq2    C7 1680   1.110   2.463   1.845 -0.2061  0.4111  0.4626
  110TCq2    C8 1681   1.144   2.636   1.675  0.0230  0.2484  0.0458
  110TCq2    O4 1682   1.215   2.687   1.591 -0.4138 -0.3166  0.0393
  110TCq2    C9 1683   1.503   2.323   1.794 -0.4096  0.7346 -0.8737
  110TCq2    O5 1684   1.573   2.395   1.719  0.2394  0.3298  0.0303
  110TCq2    O6 1685   1.536   2.218   1.859 -0.3379  0.0338  0.1652
  110TCq2    H2 1686   1.319   2.215   1.933  0.9928  1.1985  2.3233
  110TCq2    H3 1687   1.392   2.542   1.675 -1.0457 -0.0716 -1.0588
  110TCq2    H4 1688   1.010   2.492   1.878 -1.7294 -2.0349 -1.9766
  111TMC2    C1 1689   0.727   3.143  11.201  0.7012 -0.0809  0.0340
  111TMC2    C2 1690   0.603   3.165  11.246 -0.8488  0.2124  0.3458
  111TMC2    C3 1691   0.590   3.193  11.384  0.1155  0.2026  0.9697
  111TMC2    C4 1692   0.841   3.171  11.275 -0.7222  0.4693  0.3711
  111TMC2    C5 1693   0.825   3.221  11.398  0.0884 -0.0087 -0.6282
  111TMC2    C6 1694   0.699   3.227  11.453 -0.1040  0.4037  0.1485
  111TMC2     C 1695   0.741   3.132  11.056  0.6928  0.0940 -1.2737
  111TMC2     O 1696   0.646   3.180  10.990 -0.5826  0.4757  0.0548
  111TMC2     H 1697   0.519   3.147  11.179  1.4238 -2.9609 -1.6584
  111TMC2    H1 1698   0.937   3.170  11.223 -1.5887  2.5308 -1.2843
  111TMC2    H2 1699   0.679   3.275  11.549  1.1943  1.2575 -0.0078
  111TMC2    C7 1700   0.939   3.245  11.490 -0.0119 -0.4240  0.1516
  111TMC2    C8 1701   0.483   3.141  11.461  0.2082  0.3572  0.2726
  111TMC2    O1 1702   0.909   3.231  11.608  0.0595 -0.0112  0.1175
  111TMC2    O2 1703   0.467   3.145  11.586  0.0318  0.4128 -0.5996
  111TMC2    O5 1704   0.405   3.070  11.379 -0.0881 -0.5316  0.1637
  111TMC2    H5 1705   0.448   3.054  11.292 -1.0823  0.0979 -0.4351
  112MPD2     C 1706   0.987   3.022  10.607 -1.1969  0.2797 -0.4737
  112MPD2    C1 1707   0.861   3.083  10.635 -0.9875 -0.1960  0.0596
  112MPD2    C2 1708   0.804   3.094  10.765 -0.5365  0.1796  0.8317
  112MPD2    C3 1709   0.885   3.060  10.870  0.0552 -1.3999 -0.4300
  112MPD2    C4 1710   1.010   3.007  10.847 -0.3014 -0.7692 -0.0980
  112MPD2    C5 1711   1.053   2.975  10.720 -0.9849 -0.3121  0.5921
  112MPD2     H 1712   0.711   3.147  10.784 -1.2505 -0.1925 -1.5965
  112MPD2    H1 1713   1.054   2.979  10.942  1.1345  0.3920 -0.4288
  112MPD2    H2 1714   1.019   3.008  10.505  0.8668  0.7200  0.1046
  112MPD2    H3 1715   1.148   2.923  10.711 -1.3144 -0.5888 -1.4436
  112MPD2     N 1716   0.856   3.079  11.006  0.0527 -0.0913  0.5856
  112MPD2    H5 1717   0.919   3.040  11.076 -0.3367 -3.0211 -0.6753
  112MPD2    N1 1718   0.784   3.149  10.539 -0.6727 -0.6487  0.3441
  112MPD2    H7 1719   0.708   3.205  10.577  0.6104  1.8121 -0.6990
  113MPD2     C 1720   3.810   1.068   1.123  0.4357  0.3388 -0.4798
  113MPD2    C1 1721   3.710   1.164   1.113  0.5658  0.0943 -0.0180
  113MPD2    C2 1722   3.596   1.149   1.030  0.7126  1.2683  0.2091
  113MPD2    C3 1723   3.590   1.033   0.958  0.1345  1.1191  0.0235
  113MPD2    C4 1724   3.699   0.948   0.958 -0.1083  0.4309 -0.3567
  113MPD2    C5 1725   3.812   0.964   1.037 -0.2972  0.4747 -0.4089
  113MPD2     H 1726   3.516   1.222   1.026  0.6557  1.2212  0.4777
  113MPD2    H1 1727   3.702   0.868   0.885  0.3145  0.8322 -0.7858
  113MPD2    H2 1728   3.892   1.073   1.192  0.6069 -0.0397 -0.6591
  113MPD2    H3 1729   3.891   0.890   1.045 -0.0572  0.7548 -0.2232
  113MPD2     N 1730   3.477   0.990   0.881  0.0724  0.3430  0.8108
  113MPD2    H5 1731   3.482   0.908   0.822  0.7079  1.3653 -0.5421
  113MPD2    N1 1732   3.709   1.275   1.202 -0.1683  0.5141 -0.3928
  113MPD2    H7 1733   3.626   1.333   1.192 -1.4124 -0.9511  1.6654
  114TCq2    C1 1734   3.360   1.057   0.866 -0.2758 -0.5783  0.4453
  114TCq2    O2 1735   3.321   1.161   0.921 -0.5393  0.1103  0.5118
  114TCq2    C2 1736   3.265   0.988   0.783  0.0465  0.2307 -0.0133
  114TCq2    C3 1737   3.190   1.060   0.695 -0.1906 -0.2408  0.3494
  114TCq2    C4 1738   3.104   1.001   0.606 -0.4818  0.1694 -0.0806
  114TCq2    C5 1739   3.089   0.870   0.601 -0.0603 -0.0641  0.4988
  114TCq2    C6 1740   3.160   0.801   0.694 -0.1119 -0.0955  0.1252
  114TCq2    C7 1741   3.246   0.855   0.786  0.1137 -0.6520  1.1474
  114TCq2    C8 1742   3.126   0.653   0.701 -0.0760  0.0821  1.1114
  114TCq2    O4 1743   3.078   0.605   0.598 -0.3820  0.3368 -0.3573
  114TCq2    C9 1744   3.029   1.081   0.504 -0.8266  0.5285  0.1242
  114TCq2    O5 1745   3.038   1.206   0.525  0.1219  0.1112  0.6056
  114TCq2    O6 1746   2.933   1.028   0.438  0.2116  0.0845  0.0808
  114TCq2    H2 1747   3.219   1.164   0.694  0.9698 -0.5721 -0.9677
  114TCq2    H3 1748   3.027   0.824   0.525 -0.9423  0.0175  1.1799
  114TCq2    H4 1749   3.290   0.804   0.871  0.6757 -0.7638  0.7871
  115TMC2    C1 1750   4.702   3.627  17.558  0.1800 -0.6498 -0.1770
  115TMC2    C2 1751   0.049   3.533  17.625 -0.2145 -0.9710 -0.8888
  115TMC2    C3 1752   0.171   3.582  17.668 -0.1323 -0.4775 -0.4293
  115TMC2    C4 1753   0.012   3.761  17.541 -0.6689  0.2126  0.3372
  115TMC2    C5 1754   0.128   3.802  17.604  0.5078 -0.2785 -0.3814
  115TMC2    C6 1755   0.214   3.711  17.664  0.0263 -0.1268 -0.6501
  115TMC2     C 1756   4.568   3.587  17.514  0.7139  0.3949  0.0732
  115TMC2     O 1757   4.520   3.479  17.549 -0.1907 -0.2038 -0.3886
  115TMC2     H 1758   0.013   3.431  17.633 -0.7650 -0.6335  0.9995
  115TMC2    H1 1759   4.654   3.830  17.529 -2.9547 -2.8198 -1.3747
  115TMC2    H2 1760   0.312   3.740   0.001  0.2293 -2.9504  1.0861
  115TMC2    C7 1761   0.131   3.934  17.651  0.4650 -0.2902 -0.2558
  115TMC2    C8 1762   0.269   3.489   0.025 -0.0108  0.2714  0.5940
  115TMC2    O1 1763   0.194   3.945   0.057  0.3754 -0.1930 -0.5056
  115TMC2    O2 1764   0.383   3.523   0.047 -0.4046  0.0723 -0.1569
  115TMC2    O5 1765   0.200   3.426   0.127  0.7625  0.4266 -0.2150
  115TMC2    H5 1766   0.117   3.394   0.084  0.9326  0.8953 -0.8849
  116MPD2     C 1767   4.192   3.655  17.174 -0.1302 -0.4917 -0.4196
  116MPD2    C1 1768   4.218   3.548  17.259  0.3608 -0.1001  0.3355
  116MPD2    C2 1769   4.328   3.549  17.339 -0.6264  0.3002 -0.5253
  116MPD2    C3 1770   4.405   3.661  17.339  0.1043  0.0948 -0.2254
  116MPD2    C4 1771   4.371   3.768  17.260  0.5006 -0.6566 -1.3641
  116MPD2    C5 1772   4.269   3.763  17.168 -0.4104  0.2787 -0.2897
  116MPD2     H 1773   4.339   3.465  17.407 -1.3768  0.4889 -0.1638
  116MPD2    H1 1774   4.444   3.845  17.238 -1.0922  0.3133 -3.2907
  116MPD2    H2 1775   4.112   3.656  17.100 -1.3729 -0.0835  0.9210
  116MPD2    H3 1776   4.255   3.847  17.101  0.0079  0.9949  0.5105
  116MPD2     N 1777   4.525   3.669  17.411  0.5013 -0.2983 -0.2347
  116MPD2    H5 1778   4.583   3.752  17.404  0.8110 -0.4361  0.8060
  116MPD2    N1 1779   4.124   3.444  17.252 -0.0556  0.1218  0.4932
  116MPD2    H7 1780   4.040   3.461  17.198  0.4185  0.2982 -0.1906
  117TMC2    C1 1781   3.513   4.468  13.928 -0.2889  0.2371 -0.7012
  117TMC2    C2 1782   3.588   4.456  14.036 -1.0958 -0.3027  0.5568
  117TMC2    C3 1783   3.696   4.540  14.052 -0.1108 -0.3896  0.3921
  117TMC2    C4 1784   3.552   4.537  13.813 -0.1736  0.7494  0.5584
  117TMC2    C5 1785   3.664   4.612  13.828 -0.3376  0.0920 -0.3862
  117TMC2    C6 1786   3.734   4.620  13.944 -0.8956  0.0308 -0.4817
  117TMC2     C 1787   3.374   4.437  13.950 -1.0602 -1.0357  0.0206
  117TMC2     O 1788   3.350   4.363  14.042 -0.3802 -1.0628 -0.2233
  117TMC2     H 1789   3.557   4.403  14.125  0.7009 -1.0019  0.7722
  117TMC2    H1 1790   3.491   4.533  13.723  0.0344 -1.9070  0.5350
  117TMC2    H2 1791   3.829   4.673  13.947 -0.2061 -1.1143 -2.1612
  117TMC2    C7 1792   3.722   4.681  13.712  0.4108  0.2753  0.5069
  117TMC2    C8 1793   3.752   4.564  14.186 -0.4328  0.0535  0.4725
  117TMC2    O1 1794   3.822   0.026  13.740 -0.0003  0.6662  0.3033
  117TMC2    O2 1795   3.678   4.565  14.285 -0.5134 -0.6475  0.1104
  117TMC2    O5 1796   3.887   4.541  14.179 -0.1305 -0.2741 -0.3857
  117TMC2    H5 1797   3.915   4.512  14.090 -0.9990  0.8624 -1.0238
  118MPD2     C 1798   3.651   4.678  13.344  0.0133  0.1664  0.1091
  118MPD2    C1 1799   3.702   0.004  13.464 -0.0448  0.5333 -0.4921
  118MPD2    C2 1800   3.786   0.112  13.467  0.6619 -0.4889  0.1791
  118MPD2    C3 1801   3.817   0.178  13.347 -0.2098  0.7376 -0.2801
  118MPD2    C4 1802   3.777   0.121  13.227 -0.4176 -0.5665 -0.8048
  118MPD2    C5 1803   3.692   0.012  13.227 -0.0876  0.5741 -0.0271
  118MPD2     H 1804   3.803   0.152  13.566 -1.4231  2.5159 -0.6610
  118MPD2    H1 1805   3.803   0.176  13.137  0.1393  0.4123 -0.0547
  118MPD2    H2 1806   3.576   4.601  13.354  0.4018 -0.5100 -2.1512
  118MPD2    H3 1807   3.663   4.697  13.130  1.6892  2.5756 -1.3651
  118MPD2     N 1808   3.895   0.299  13.338  0.8553 -0.9530 -0.7779
  118MPD2    H5 1809   3.935   0.334  13.252  4.2350  0.9238  1.5516
  118MPD2    N1 1810   3.675   4.652  13.586  0.0388  0.0914 -0.4959
  118MPD2    H7 1811   3.608   4.579  13.565  1.7424 -1.1171 -1.7553
  119MPD2     C 1812   1.598   1.436  13.583  0.4469  0.4068  0.0623
  119MPD2    C1 1813   1.473   1.452  13.634  0.1888  0.5349  0.0498
  119MPD2    C2 1814   1.369   1.421  13.550  0.4671  0.2118 -0.9717
  119MPD2    C3 1815   1.388   1.390  13.415  0.5416  0.5337  0.0245
  119MPD2    C4 1816   1.514   1.400  13.364 -0.5043  0.0498 -0.5435
  119MPD2    C5 1817   1.617   1.419  13.446 -0.0965 -0.1279  0.0712
  119MPD2     H 1818   1.273   1.410  13.598  0.7843  0.8562 -0.1872
  119MPD2    H1 1819   1.531   1.379  13.259  0.2152 -3.1795  0.2143
  119MPD2    H2 1820   1.680   1.434  13.655 -0.2394 -0.5500  0.8182
  119MPD2    H3 1821   1.721   1.413  13.414  0.6461 -0.2895  2.5226
  119MPD2     N 1822   1.277   1.369  13.335  0.1385  0.3868 -0.0820
  119MPD2    H5 1823   1.197   1.390  13.394  0.0967 -0.9612  0.3250
  119MPD2    N1 1824   1.447   1.481  13.766 -0.3602  0.8843  0.2546
  119MPD2    H7 1825   1.524   1.480  13.832  2.3214  1.2854 -2.8754
  120TCq2    C1 1826   1.266   1.326  13.209 -0.0106  0.3559  0.1711
  120TCq2    O2 1827   1.356   1.318  13.125 -0.4427 -0.0127  0.1555
  120TCq2    C2 1828   1.132   1.277  13.173 -0.5360  0.8874 -0.3413
  120TCq2    C3 1829   1.128   1.247  13.039 -0.5546  0.9615 -0.1922
  120TCq2    C4 1830   1.011   1.201  12.988  0.3827  0.1649 -0.4736
  120TCq2    C5 1831   0.898   1.201  13.069 -0.0068  0.2630  0.0901
  120TCq2    C6 1832   0.905   1.243  13.202  0.3236 -0.5787  0.0103
  120TCq2    C7 1833   1.027   1.270  13.258  0.0917 -0.2934 -0.0464
  120TCq2    C8 1834   0.784   1.263  13.271  0.3669  0.1177  0.4899
  120TCq2    O4 1835   0.685   1.256  13.202 -0.2542 -0.0760 -0.3166
  120TCq2    C9 1836   1.004   1.165  12.846  0.1606  0.3547  0.2255
  120TCq2    O5 1837   1.107   1.160  12.775  0.4490 -0.2080  0.2287
  120TCq2    O6 1838   0.899   1.126  12.801 -0.1767  0.1385 -0.4231
  120TCq2    H2 1839   1.209   1.252  12.968 -1.7469 -0.5261 -1.6488
  120TCq2    H3 1840   0.804   1.179  13.020  0.7444 -0.8283 -0.8585
  120TCq2    H4 1841   1.035   1.292  13.364 -2.6268  1.2229 -0.1664
  121TMC2    C1 1842   2.514   3.104  13.769  1.2846  0.1191  0.5312
  121TMC2    C2 1843   2.493   3.004  13.866  0.1345  0.5093  0.2486
  121TMC2    C3 1844   2.369   2.998  13.925  0.4403  0.0023 -0.3561
  121TMC2    C4 1845   2.416   3.187  13.737  0.5194  0.4422  0.2656
  121TMC2    C5 1846   2.295   3.171  13.802 -0.7832  0.0517  0.6437
  121TMC2    C6 1847   2.269   3.082  13.896 -0.0203 -0.2405  0.5567
  121TMC2     C 1848   2.648   3.114  13.710 -0.2132  0.6212  0.1353
  121TMC2     O 1849   2.735   3.094  13.792 -0.0824  1.2829 -0.3055
  121TMC2     H 1850   2.570   2.939  13.904  0.6174  0.5665 -0.6239
  121TMC2    H1 1851   2.420   3.275  13.674  0.2359 -0.3368 -0.8543
  121TMC2    H2 1852   2.169   3.071  13.936  1.3338 -0.5887  3.8579
  121TMC2    C7 1853   2.208   3.280  13.766  0.8230 -0.2539 -0.2788
  121TMC2    C8 1854   2.331   2.892  14.022  0.1375 -0.2929 -0.1955
  121TMC2    O1 1855   2.258   3.394  13.771  0.0602  0.4623  0.5032
  121TMC2    O2 1856   2.223   2.903  14.083  0.0460  0.4372 -0.8520
  121TMC2    O5 1857   2.355   2.788  13.945  0.0345  0.0097  0.1371
  121TMC2    H5 1858   2.451   2.783  13.923  0.1633  2.1894  0.2474
  122MPD2     C 1859   2.868   3.248  13.583 -0.9276  0.2947 -0.3914
  122MPD2    C1 1860   2.745   3.254  13.530  0.9341 -0.6405 -0.2884
  122MPD2    C2 1861   2.708   3.335  13.428  0.2106 -0.3618  0.6706
  122MPD2    C3 1862   2.804   3.422  13.373  0.7751  0.2189  0.1994
  122MPD2    C4 1863   2.928   3.425  13.432 -0.2773 -0.9949  0.1362
  122MPD2    C5 1864   2.963   3.331  13.531  0.3845 -0.1337  0.2455
  122MPD2     H 1865   2.607   3.333  13.390 -0.1517  0.5749  1.6152
  122MPD2    H1 1866   3.005   3.484  13.383 -0.3295 -1.0627 -0.0259
  122MPD2    H2 1867   2.902   3.183  13.662  0.4029  0.2752 -0.9875
  122MPD2    H3 1868   3.059   3.329  13.580 -0.3605 -1.8766  1.6786
  122MPD2     N 1869   2.774   3.508  13.263 -0.3925  0.0539  0.2571
  122MPD2    H5 1870   2.831   3.590  13.248  2.1392 -1.6260  0.6833
  122MPD2    N1 1871   2.646   3.183  13.590  0.3115  0.4250 -0.4102
  122MPD2    H7 1872   2.562   3.187  13.534  1.5149  0.5587 -2.2194
  123MPD2     C 1873   0.328   2.504   8.626 -0.5040  0.0787  0.1469
  123MPD2    C1 1874   0.436   2.453   8.693 -0.1720 -0.2072  0.8230
  123MPD2    C2 1875   0.555   2.521   8.690  0.2204  0.1750  0.7268
  123MPD2    C3 1876   0.565   2.641   8.623  0.2266 -0.0448  0.0588
  123MPD2    C4 1877   0.458   2.684   8.547 -0.1409 -0.8317  0.2085
  123MPD2    C5 1878   0.339   2.623   8.553 -0.3523  1.0393 -0.0145
  123MPD2     H 1879   0.639   2.483   8.747 -0.0444 -2.3510 -0.5815
  123MPD2    H1 1880   0.452   2.787   8.515  2.1685 -0.6991  0.2010
  123MPD2    H2 1881   0.227   2.466   8.632 -1.0296  1.3951 -0.2869
  123MPD2    H3 1882   0.252   2.679   8.523 -0.6573  0.7998  0.4133
  123MPD2     N 1883   0.686   2.708   8.630  0.3999  0.2732  0.8633
  123MPD2    H5 1884   0.762   2.669   8.684  0.8197 -0.2887 -0.1352
  123MPD2    N1 1885   0.406   2.334   8.760 -0.1524 -0.0812 -0.1806
  123MPD2    H7 1886   0.307   2.316   8.773 -0.1970 -0.5841 -1.2424
  124TCq2    C1 1887   0.729   2.818   8.547  0.0411  0.0923 -0.0630
  124TCq2    O2 1888   0.662   2.883   8.469 -0.0135  0.1903 -0.3904
  124TCq2    C2 1889   0.869   2.854   8.555  0.1643  0.5018 -0.1002
  124TCq2    C3 1890   0.894   2.984   8.522 -0.4069  0.2306 -1.0689
  124TCq2    C4 1891   1.023   3.022   8.532  0.4441  0.0483 -0.9783
  124TCq2    C5 1892   1.118   2.940   8.571  0.1015 -1.3248 -0.1631
  124TCq2    C6 1893   1.091   2.811   8.601  0.5343 -0.2972  0.1074
  124TCq2    C7 1894   0.961   2.761   8.601  0.3390  0.0568 -0.1032
  124TCq2    C8 1895   1.184   2.725   8.672 -0.7116 -0.2111  0.1113
  124TCq2    O4 1896   1.130   2.631   8.729 -0.1322  0.1673 -0.2410
  124TCq2    C9 1897   1.052   3.163   8.500  0.4721 -0.1234 -0.0461
  124TCq2    O5 1898   1.167   3.204   8.523 -0.3433  0.0612 -0.0536
  124TCq2    O6 1899   0.958   3.237   8.469 -0.1142  0.0402  0.2161
  124TCq2    H2 1900   0.819   3.045   8.474 -1.6216 -0.9595 -0.7035
  124TCq2    H3 1901   1.217   2.982   8.578 -0.3613 -0.2744  0.0104
  124TCq2    H4 1902   0.933   2.658   8.616  1.0585  0.1686  1.9770
  125TMC2    C1 1903   3.028   3.949   9.250 -0.3088  0.1920  0.4440
  125TMC2    C2 1904   2.988   3.839   9.323  0.4985 -0.7955  0.6551
  125TMC2    C3 1905   3.050   3.717   9.294 -0.3858 -0.6434 -0.2967
  125TMC2    C4 1906   3.137   3.940   9.171 -0.5760  0.3845 -0.4078
  125TMC2    C5 1907   3.194   3.821   9.144  0.2814 -1.0036 -0.9414
  125TMC2    C6 1908   3.156   3.703   9.207  0.2592 -0.2009  0.2263
  125TMC2     C 1909   2.966   4.076   9.274  0.2361 -0.4714  0.1569
  125TMC2     O 1910   2.974   4.163   9.191  0.4842 -0.0889 -0.0955
  125TMC2     H 1911   2.893   3.831   9.374 -0.2547  2.9232 -0.1606
  125TMC2    H1 1912   3.183   4.031   9.135 -0.4351  1.0525  1.4243
  125TMC2    H2 1913   3.180   3.612   9.153 -1.1378 -0.1851 -0.4125
  125TMC2    C7 1914   3.316   3.823   9.062 -0.4622  0.1247  0.1477
  125TMC2    C8 1915   2.985   3.603   9.350  0.0901 -0.3584  0.8323
  125TMC2    O1 1916   3.348   3.927   9.006  0.6362  0.0341  0.4707
  125TMC2    O2 1917   2.872   3.602   9.381 -0.3340  0.2911  0.1431
  125TMC2    O5 1918   3.073   3.504   9.358 -0.7931 -0.4134 -0.2346
  125TMC2    H5 1919   3.165   3.528   9.334 -1.2822  0.5189 -1.1498
  126MPD1     C 1920   2.748   4.400   9.606 -0.0094  0.4230 -0.6872
  126MPD1    C1 1921   2.819   4.307   9.673  0.4095  0.1145 -0.4443
  126MPD1    C2 1922   2.861   4.191   9.602 -0.2104 -0.8242  0.2465
  126MPD1    C3 1923   2.861   4.193   9.461  0.7082 -0.4725 -0.5270
  126MPD1    C4 1924   2.809   4.301   9.398 -0.5495  0.0161  0.2300
  126MPD1    C5 1925   2.753   4.406   9.467  0.2314  0.1408  0.3522
  126MPD1     H 1926   2.909   4.107   9.650  1.8456 -0.5082 -1.2990
  126MPD1    H1 1927   2.791   4.304   9.291  0.2652  2.1957  0.1713
  126MPD1    H2 1928   2.696   4.476   9.664  2.6330  1.7042  0.0087
  126MPD1    H3 1929   2.704   4.488   9.417 -0.7049 -0.7820 -0.2425
  126MPD1     N 1930   2.917   4.081   9.401 -0.1975 -0.2886  0.1158
  126MPD1    H5 1931   2.937   4.004   9.463  0.5420 -0.7263 -0.6722
  126MPD1    N1 1932   2.814   4.302   9.813  0.7839 -0.6306  0.1800
  126MPD1    H6 1933   2.897   4.254   9.847  0.1089 -1.8250  0.1504
  126MPD1    H7 1934   2.794   4.393   9.853 -0.7149 -0.2411 -1.4596
  127MPD2     C 1935   3.403   1.846   9.056 -0.5320 -0.4503  0.4112
  127MPD2    C1 1936   3.357   1.796   9.178 -0.0983 -0.3153 -0.0646
  127MPD2    C2 1937   3.411   1.842   9.294  0.1621  0.1767  0.1225
  127MPD2    C3 1938   3.496   1.951   9.288 -0.5616  0.2068 -0.3457
  127MPD2    C4 1939   3.549   1.990   9.170  0.2529  0.0269 -0.5515
  127MPD2    C5 1940   3.504   1.935   9.051  0.0963 -0.5760  0.6624
  127MPD2     H 1941   3.377   1.806   9.391  0.8309 -0.8459 -0.0360
  127MPD2    H1 1942   3.616   2.075   9.160  1.0854 -0.7327 -1.5074
  127MPD2    H2 1943   3.362   1.813   8.962  1.1113 -0.2591 -0.3653
  127MPD2    H3 1944   3.541   1.974   8.957 -0.8220 -0.6471  0.2672
  127MPD2     N 1945   3.535   2.008   9.412  0.4341 -0.6133  0.6224
  127MPD2    H5 1946   3.481   1.969   9.488  1.5032 -1.5473  0.9074
  127MPD2    N1 1947   3.255   1.703   9.162 -0.3948 -0.0070  0.3373
  127MPD2    H7 1948   3.208   1.707   9.072 -1.6175 -1.7929  0.9054
  128TCq2    C1 1949   3.210   1.628   9.257 -0.9426 -0.0944  0.3909
  128TCq2    O2 1950   3.270   1.595   9.359  0.5882 -0.2254  0.3366
  128TCq2    C2 1951   3.098   1.546   9.210 -0.3495 -0.8454  0.3644
  128TCq2    C3 1952   3.011   1.574   9.114  0.3204  0.0005 -0.3706
  128TCq2    C4 1953   2.912   1.482   9.074  0.1753  0.2558 -0.9040
  128TCq2    C5 1954   2.896   1.358   9.135 -0.5062  0.2499  0.1681
  128TCq2    C6 1955   2.985   1.334   9.238 -0.9432  0.5182  0.0857
  128TCq2    C7 1956   3.089   1.420   9.267  0.4897  0.3976 -0.0598
  128TCq2    C8 1957   2.972   1.224   9.329  0.5678 -0.1452  0.2508
  128TCq2    O4 1958   3.049   1.220   9.425 -0.5987 -0.9194  0.2357
  128TCq2    C9 1959   2.817   1.524   8.970  0.0147  0.5959  0.2498
  128TCq2    O5 1960   2.827   1.630   8.906 -0.5729 -0.0054 -0.3615
  128TCq2    O6 1961   2.725   1.444   8.946 -0.0184 -0.2185 -0.5666
  128TCq2    H2 1962   3.001   1.672   9.068 -1.5997 -0.0269 -0.0323
  128TCq2    H3 1963   2.829   1.284   9.093 -1.6898  0.4494  1.7100
  128TCq2    H4 1964   3.169   1.387   9.333  0.6148  0.4596 -0.1795
  129MPD2     C 1965   0.933   2.895   0.854  0.2939  0.8304  0.2942
  129MPD2    C1 1966   0.992   2.844   0.964  1.1360  0.0270 -0.1399
  129MPD2    C2 1967   1.132   2.848   0.969  0.4428 -0.0794  0.3930
  129MPD2    C3 1968   1.208   2.889   0.859  0.0290 -0.2764  0.4514
  129MPD2    C4 1969   1.138   2.935   0.749  0.1074  0.0320  0.0002
  129MPD2    C5 1970   1.004   2.939   0.747  0.5449 -0.1449  0.5214
  129MPD2     H 1971   1.188   2.819   1.057 -2.2894 -1.5889  1.6448
  129MPD2    H1 1972   1.188   2.983   0.665  0.2826 -0.3783 -0.1331
  129MPD2    H2 1973   0.826   2.901   0.844  0.5254  1.1532 -1.9088
  129MPD2    H3 1974   0.944   2.967   0.661  2.1064 -2.4900 -1.3544
  129MPD2     N 1975   1.352   2.890   0.856  0.2091 -0.0619  0.3802
  129MPD2    H5 1976   1.401   2.878   0.944  1.0377  1.8262  0.1898
  129MPD2    N1 1977   0.914   2.804   1.075  0.3797 -0.0800 -0.4010
  129MPD2    H7 1978   0.959   2.744   1.143 -0.1313  0.8525  0.7600
  130TCq2    C1 1979   0.784   2.842   1.101  0.3828  1.2800 -0.4647
  130TCq2    O2 1980   0.710   2.910   1.036  0.1376  0.2095 -0.4563
  130TCq2    C2 1981   0.736   2.790   1.228  0.9589 -0.0855 -0.5822
  130TCq2    C3 1982   0.615   2.844   1.272 -0.9592 -0.6892 -0.9259
  130TCq2    C4 1983   0.557   2.792   1.389  0.4839  0.2871 -0.4233
  130TCq2    C5 1984   0.618   2.686   1.452 -0.1153  0.5701  0.0935
  130TCq2    C6 1985   0.723   2.630   1.390  0.6751 -0.2979  0.7463
  130TCq2    C7 1986   0.780   2.671   1.278  0.7526 -0.4792 -0.1141
  130TCq2    C8 1987   0.763   2.504   1.458 -0.0832  0.4642  0.1020
  130TCq2    O4 1988   0.682   2.459   1.541 -0.8230  0.2405 -0.2963
  130TCq2    C9 1989   0.461   2.871   1.464  0.3159 -0.7441  0.2995
  130TCq2    O5 1990   0.403   2.961   1.397  0.4415  0.5363 -0.3554
  130TCq2    O6 1991   0.424   2.829   1.573  0.4428  0.1877  0.1534
  130TCq2    H2 1992   0.569   2.932   1.229 -0.5560 -0.7055 -1.3865
  130TCq2    H3 1993   0.584   2.652   1.550 -1.0472  1.5032  0.0953
  130TCq2    H4 1994   0.859   2.615   1.229  0.7152 -0.9037  0.3110
  131MPD2     C 1995   0.876   1.960   9.547 -0.4097  0.2818 -0.2109
  131MPD2    C1 1996   0.861   2.083   9.496  0.3172  0.4874 -0.3594
  131MPD2    C2 1997   0.772   2.101   9.390 -0.6334  0.4103 -0.3547
  131MPD2    C3 1998   0.694   1.999   9.349 -0.5242 -0.2573  0.2078
  131MPD2    C4 1999   0.711   1.873   9.395  0.5264  0.6370 -0.1407
  131MPD2    C5 2000   0.790   1.859   9.503  0.8773 -0.2651  0.0214
  131MPD2     H 2001   0.764   2.202   9.352 -1.0067  0.3350 -0.4819
  131MPD2    H1 2002   0.639   1.795   9.373 -1.9260  2.5929  1.0391
  131MPD2    H2 2003   0.944   1.928   9.625 -0.1531  0.1004 -0.5097
  131MPD2    H3 2004   0.808   1.760   9.542  2.2208 -0.3319 -0.7461
  131MPD2     N 2005   0.603   2.040   9.249  0.4441 -0.4228 -0.3699
  131MPD2    H5 2006   0.613   2.135   9.216  1.4045 -1.3283 -2.6631
  131MPD2    N1 2007   0.957   2.176   9.538  0.1197  0.0274 -0.5891
  131MPD2    H7 2008   1.020   2.147   9.612  0.8764  1.2827 -0.7439
  132TCq2    C1 2009   1.314   2.654   9.441 -0.2527 -0.1704  0.2592
  132TCq2    O2 2010   1.232   2.692   9.354 -0.3195 -0.5582 -0.0565
  132TCq2    C2 2011   1.272   2.527   9.505  1.1510 -0.1923  0.6085
  132TCq2    C3 2012   1.355   2.463   9.593 -0.2841 -0.3276  0.6134
  132TCq2    C4 2013   1.309   2.353   9.654  0.2048 -0.6353  0.0465
  132TCq2    C5 2014   1.191   2.301   9.620  0.1258 -0.2001  0.6074
  132TCq2    C6 2015   1.110   2.358   9.526  0.4046  0.1973 -0.1421
  132TCq2    C7 2016   1.148   2.476   9.476 -0.6279 -1.0028  0.0577
  132TCq2    C8 2017   0.986   2.299   9.478 -0.5535 -0.2873  0.3997
  132TCq2    O4 2018   0.922   2.361   9.395 -0.4804  0.0362  0.2880
  132TCq2    C9 2019   1.396   2.275   9.739 -0.2043  0.0711 -0.0523
  132TCq2    O5 2020   1.494   2.334   9.783 -0.2686  0.2340 -0.5125
  132TCq2    O6 2021   1.367   2.154   9.770 -0.4378 -0.0898 -0.3272
  132TCq2    H2 2022   1.457   2.497   9.608 -0.1921  0.2672 -1.3660
  132TCq2    H3 2023   1.166   2.204   9.662 -0.0152 -0.6868 -0.5837
  132TCq2    H4 2024   1.074   2.523   9.412  1.1021 -0.7052 -1.7428
  133MPD2     C 2025   4.721   1.732   9.401 -0.1535  0.2171  0.0524
  133MPD2    C1 2026   4.657   1.796   9.301  0.2296 -0.0733 -0.3879
  133MPD2    C2 2027   4.707   1.914   9.245  0.1493  0.2325 -0.5805
  133MPD2    C3 2028   0.073   1.981   9.320 -0.1229  0.4640  0.0943
  133MPD2    C4 2029   0.125   1.929   9.443 -0.5937 -0.3088  0.6397
  133MPD2    C5 2030   0.091   1.801   9.471 -0.2591 -0.0347 -0.6313
  133MPD2     H 2031   4.662   1.956   9.155 -1.4408  0.0925  0.1391
  133MPD2    H1 2032   0.207   1.980   9.492 -1.4193  2.8238 -1.2391
  133MPD2    H2 2033   4.688   1.636   9.437  1.9345  0.0245  1.4471
  133MPD2    H3 2034   0.148   1.751   9.549  0.1426 -1.9570 -2.1504
  133MPD2     N 2035   0.119   2.111   9.289  0.0138 -0.0215 -0.1221
  133MPD2    H5 2036   0.197   2.140   9.349 -1.2209  2.3866  0.3021
  133MPD2    N1 2037   4.553   1.723   9.235 -0.9671  0.4411 -0.2363
  133MPD2    H7 2038   4.535   1.631   9.274  1.8295 -0.8167 -1.9241
  134TCq2    C1 2039   4.484   1.761   9.122  0.7043 -0.1948 -0.5131
  134TCq2    O2 2040   4.485   1.863   9.056  0.0980  0.4171 -0.5297
  134TCq2    C2 2041   4.408   1.645   9.069  0.1768 -0.0594  0.5790
  134TCq2    C3 2042   4.422   1.523   9.136  0.3554  0.7944  0.1964
  134TCq2    C4 2043   4.345   1.427   9.076 -0.3144 -0.3447  0.2900
  134TCq2    C5 2044   4.252   1.457   8.982 -0.1116 -0.0580  0.9153
  134TCq2    C6 2045   4.232   1.584   8.929  0.0724 -0.7611  0.6291
  134TCq2    C7 2046   4.318   1.683   8.968 -1.0643  0.7334 -0.0858
  134TCq2    C8 2047   4.159   1.606   8.805  0.0346  0.3611 -0.0231
  134TCq2    O4 2048   4.172   1.719   8.757  0.4343  0.2112 -0.4948
  134TCq2    C9 2049   4.358   1.293   9.121  0.5042 -1.0600  0.1501
  134TCq2    O5 2050   4.301   1.201   9.057  0.6663  0.6471 -0.3599
  134TCq2    O6 2051   4.426   1.278   9.229 -0.0285 -0.1560  0.1105
  134TCq2    H2 2052   4.493   1.493   9.212  0.5139  0.8017  0.0513
  134TCq2    H3 2053   4.192   1.372   8.952  2.8089 -1.6721 -0.3831
  134TCq2    H4 2054   4.317   1.783   8.926  0.1093  0.3862 -0.9395
  135MPD2     C 2055   3.250   4.002   9.526  0.1503 -1.1065  0.1743
  135MPD2    C1 2056   3.284   3.867   9.537  0.5635  0.3708 -0.0645
  135MPD2    C2 2057   3.404   3.829   9.467 -0.5340 -0.9059 -0.1567
  135MPD2    C3 2058   3.474   3.917   9.386 -0.0406  0.1020 -0.3134
  135MPD2    C4 2059   3.426   4.043   9.375  0.1351 -0.1049 -0.0021
  135MPD2    C5 2060   3.321   4.084   9.446  0.1822 -0.1800 -0.5884
  135MPD2     H 2061   3.436   3.725   9.467  3.1797  0.2334 -0.2060
  135MPD2    H1 2062   3.484   4.123   9.331  0.4044  0.1315  0.7706
  135MPD2    H2 2063   3.166   4.039   9.584 -1.1611  0.2063 -2.5850
  135MPD2    H3 2064   3.291   4.187   9.433 -1.3454 -0.3621  1.5251
  135MPD2     N 2065   3.594   3.886   9.311  0.0841  0.9389 -0.6822
  135MPD2    H5 2066   3.636   3.946   9.240 -1.8267  2.2774 -0.6950
  135MPD2    N1 2067   3.196   3.775   9.613  0.0332  0.2856 -0.1894
  135MPD2    H7 2068   3.233   3.682   9.631 -1.2534 -0.2231 -0.1611
  136TCq2    C1 2069   3.063   3.795   9.653  0.4351  0.3159 -1.1573
  136TCq2    O2 2070   2.993   3.893   9.630 -0.2176 -0.0191  0.2093
  136TCq2    C2 2071   3.005   3.670   9.709 -0.2906 -0.4323 -0.0627
  136TCq2    C3 2072   2.876   3.650   9.672 -0.5465 -0.2927 -0.1394
  136TCq2    C4 2073   2.817   3.546   9.745 -0.3754  0.2244  0.2592
  136TCq2    C5 2074   2.871   3.491   9.860  0.6694 -0.0329 -0.5685
  136TCq2    C6 2075   3.005   3.505   9.885 -0.5883 -0.4244  1.0395
  136TCq2    C7 2076   3.069   3.597   9.804 -0.4044  0.6155  0.2636
  136TCq2    C8 2077   3.074   3.436   9.998  0.7331 -0.9432  0.2509
  136TCq2    O4 2078   3.185   3.476  10.024 -0.4119 -0.0351  0.5707
  136TCq2    C9 2079   2.680   3.517   9.710 -0.6194 -0.0044  0.2806
  136TCq2    O5 2080   2.614   3.436   9.784 -0.5024  0.0140 -0.0883
  136TCq2    O6 2081   2.641   3.561   9.599  0.3892 -0.3037  0.1580
  136TCq2    H2 2082   2.819   3.714   9.606 -1.6401  0.8023  1.8574
  136TCq2    H3 2083   2.808   3.415   9.905  3.0415 -2.4996 -1.4410
  136TCq2    H4 2084   3.170   3.623   9.833 -0.0362 -0.7551  0.2396
  137MPD2     C 2085   2.948   3.794   8.907  0.5242 -0.1807  0.0009
  137MPD2    C1 2086   2.848   3.744   8.982 -0.1246  0.4220 -0.3080
  137MPD2    C2 2087   2.853   3.606   9.015  0.7662  0.2974 -0.9771
  137MPD2    C3 2088   2.957   3.523   8.979  0.1705 -0.2394 -0.5783
  137MPD2    C4 2089   3.055   3.577   8.898 -0.2161  0.0587  0.3239
  137MPD2    C5 2090   3.043   3.710   8.862  0.1930 -0.2627 -0.0426
  137MPD2     H 2091   2.772   3.558   9.070  2.1793  0.4129  1.2104
  137MPD2    H1 2092   3.144   3.521   8.874  1.5591  1.6352  3.2111
  137MPD2    H2 2093   2.951   3.898   8.876  0.4060 -0.1880 -0.0341
  137MPD2    H3 2094   3.119   3.749   8.795 -0.6214  2.2820  0.5271
  137MPD2     N 2095   2.961   3.394   9.045 -0.0909 -0.3529  0.3585
  137MPD2    H5 2096   2.872   3.363   9.082 -1.3615  2.3002 -0.4535
  137MPD2    N1 2097   2.750   3.834   9.027 -0.1735 -0.7753  0.2286
  137MPD2    H7 2098   2.744   3.925   8.982 -0.0543 -0.2988  1.1865
  138TCq2    C1 2099   2.669   3.809   9.135  0.9670  0.5207 -0.1242
  138TCq2    O2 2100   2.657   3.712   9.209 -0.1387 -0.2053  0.1272
  138TCq2    C2 2101   2.578   3.916   9.166  0.0609 -0.0826  1.0737
  138TCq2    C3 2102   2.610   4.049   9.140  0.1940 -0.0192 -0.0671
  138TCq2    C4 2103   2.507   4.139   9.157 -0.1818  0.2706  0.8560
  138TCq2    C5 2104   2.380   4.103   9.187 -0.9865 -0.1805  0.2160
  138TCq2    C6 2105   2.361   3.972   9.219 -0.4444 -0.8375 -0.4347
  138TCq2    C7 2106   2.455   3.875   9.199  0.4207  0.0943 -0.0397
  138TCq2    C8 2107   2.229   3.923   9.254 -0.2875  0.2075 -0.2752
  138TCq2    O4 2108   2.140   3.989   9.207  0.1307  0.3913 -0.1252
  138TCq2    C9 2109   2.542   4.274   9.136 -0.1401 -1.2317  0.1777
  138TCq2    O5 2110   2.470   4.361   9.188  0.2416  0.3581 -0.2678
  138TCq2    O6 2111   2.634   4.305   9.052  0.4027  0.1027 -0.0097
  138TCq2    H2 2112   2.711   4.084   9.120 -0.5831 -0.2272 -4.2983
  138TCq2    H3 2113   2.302   4.177   9.196 -0.7295  0.0348  0.7133
  138TCq2    H4 2114   2.441   3.770   9.226 -0.7927  0.3830  0.4741
  139TMC2    C1 2115   3.177   1.329  13.365  0.0975 -0.0786  0.5220
  139TMC2    C2 2116   3.280   1.319  13.458 -0.3971 -0.2258  0.3057
  139TMC2    C3 2117   3.293   1.430  13.539  0.1218 -0.0674 -0.1284
  139TMC2    C4 2118   3.084   1.424  13.368 -0.4077  0.1618 -0.3027
  139TMC2    C5 2119   3.098   1.529  13.459 -0.1949  0.1314  0.7021
  139TMC2    C6 2120   3.210   1.535  13.546  0.3928  0.6635 -0.3611
  139TMC2     C 2121   3.156   1.231  13.263 -0.2045 -0.0611 -0.2768
  139TMC2     O 2122   3.046   1.225  13.210 -0.3909 -0.3527 -0.1652
  139TMC2     H 2123   3.351   1.237  13.459  1.0208  1.0041  1.2485
  139TMC2    H1 2124   3.004   1.430  13.294  0.2662 -2.7829 -1.3025
  139TMC2    H2 2125   3.225   1.617  13.615 -2.0506 -1.0697  2.2260
  139TMC2    C7 2126   3.003   1.640  13.442  0.7972 -0.3670  0.7015
  139TMC2    C8 2127   3.417   1.445  13.612  0.1779 -0.3186 -1.0759
  139TMC2    O1 2128   2.891   1.614  13.398  0.0120  0.1809  0.3795
  139TMC2    O2 2129   3.492   1.350  13.622  0.1412  0.1099  0.4552
  139TMC2    O5 2130   3.455   1.570  13.598 -0.3798  0.4564 -0.1752
  139TMC2    H5 2131   3.384   1.623  13.557  0.3137  1.8008  0.3532
  140MPD2     C 2132   3.385   0.959  13.181  0.2833  0.4272 -0.4914
  140MPD2    C1 2133   3.266   1.025  13.192 -0.3905 -0.6640 -0.0017
  140MPD2    C2 2134   3.149   0.955  13.165 -0.2344  0.0175 -0.1537
  140MPD2    C3 2135   3.162   0.822  13.118 -0.6302 -0.1540  0.0482
  140MPD2    C4 2136   3.287   0.761  13.104 -0.5613 -0.7742  0.1383
  140MPD2    C5 2137   3.393   0.837  13.130  0.5819 -0.6278  0.5533
  140MPD2     H 2138   3.050   0.995  13.183  0.6572  1.5840  1.1913
  140MPD2    H1 2139   3.297   0.657  13.076  2.6177 -0.1396 -0.9956
  140MPD2    H2 2140   3.477   1.016  13.192  0.8287 -0.4054 -0.6696
  140MPD2    H3 2141   3.496   0.802  13.130 -0.0170 -2.3958  2.5641
  140MPD2     N 2142   3.042   0.761  13.085  0.0177  0.6859  0.1750
  140MPD2    H5 2143   2.968   0.831  13.086  0.6452  1.3754 -1.6375
  140MPD2    N1 2144   3.266   1.156  13.240 -0.0898  0.0116  0.5435
  140MPD2    H7 2145   3.352   1.185  13.284  0.8773 -0.7132 -0.8420
  141TCq2    C1 2146   3.602   2.380  14.000 -0.8679 -0.4823  0.2399
  141TCq2    O2 2147   3.635   2.264  14.020  0.1622  0.5399  0.1847
  141TCq2    C2 2148   3.492   2.438  14.083  0.0451 -0.5909 -1.4427
  141TCq2    C3 2149   3.389   2.363  14.109 -0.5610 -0.5515  0.3645
  141TCq2    C4 2150   3.272   2.423  14.157 -0.6086  0.4129 -0.3495
  141TCq2    C5 2151   3.277   2.560  14.174 -0.0480 -0.3216  0.3089
  141TCq2    C6 2152   3.394   2.629  14.158  0.1937 -0.0206 -0.6963
  141TCq2    C7 2153   3.506   2.570  14.111 -0.9559 -0.2078 -0.3083
  141TCq2    C8 2154   3.381   2.770  14.149 -0.4405 -0.1927 -0.7948
  141TCq2    O4 2155   3.296   2.813  14.072 -0.0016 -0.5234 -0.5239
  141TCq2    C9 2156   3.146   2.359  14.170  0.4796  0.2954  0.5467
  141TCq2    O5 2157   3.143   2.240  14.138  0.2403  0.3947 -0.3096
  141TCq2    O6 2158   3.045   2.435  14.178 -0.6552 -0.2926  0.3700
  141TCq2    H2 2159   3.395   2.259  14.079 -1.9041 -0.0669 -1.5590
  141TCq2    H3 2160   3.183   2.610  14.194  0.9219  2.1890 -1.3137
  141TCq2    H4 2161   3.596   2.627  14.091 -0.6958 -1.3471 -2.3803
  142MPD2     C 2162   1.198   1.598   9.489 -0.5533 -0.6343 -0.3276
  142MPD2    C1 2163   1.132   1.674   9.398 -0.2777  0.6426  0.1210
  142MPD2    C2 2164   1.178   1.798   9.367  0.3853 -0.2386 -0.0708
  142MPD2    C3 2165   1.292   1.848   9.432  0.3715 -0.3102 -0.2421
  142MPD2    C4 2166   1.358   1.770   9.524  0.1042 -0.7726 -0.9724
  142MPD2    C5 2167   1.313   1.640   9.547 -0.3104 -0.2956 -0.2259
  142MPD2     H 2168   1.130   1.855   9.289  0.5931 -0.1992 -0.1707
  142MPD2    H1 2169   1.456   1.782   9.568  0.7149 -2.7949 -1.7676
  142MPD2    H2 2170   1.166   1.501   9.527 -1.4121 -0.0103  0.5361
  142MPD2    H3 2171   1.373   1.576   9.610  0.1329 -2.3392 -2.7302
  142MPD2     N 2172   1.348   1.971   9.392 -0.0028 -0.3374  0.1920
  142MPD2    H5 2173   1.441   1.984   9.432  0.2570  0.1780 -0.5757
  142MPD2    N1 2174   1.025   1.608   9.332  0.0880 -0.5643  0.2411
  142MPD2    H7 2175   1.008   1.516   9.371 -1.7714 -0.4365 -0.2844
  143TCq2    C1 2176   1.290   2.074   9.331 -0.5874  0.1642  0.1085
  143TCq2    O2 2177   1.173   2.091   9.296 -0.1461 -0.5140 -0.0711
  143TCq2    C2 2178   1.390   2.182   9.311 -0.2219 -0.6446 -0.2225
  143TCq2    C3 2179   1.514   2.180   9.365 -0.6405  0.1234 -0.4246
  143TCq2    C4 2180   1.593   2.287   9.342  0.5169 -0.0806  0.8386
  143TCq2    C5 2181   1.553   2.392   9.263  0.3532  0.2190  0.6907
  143TCq2    C6 2182   1.428   2.389   9.210 -0.5336  0.0128 -0.0950
  143TCq2    C7 2183   1.343   2.287   9.233 -0.5210  0.9758  0.4149
  143TCq2    C8 2184   1.396   2.459   9.089  0.4552  0.1839  0.5004
  143TCq2    O4 2185   1.278   2.466   9.059 -0.2522 -0.9842 -0.3559
  143TCq2    C9 2186   1.717   2.306   9.415  0.6340 -0.3125 -0.4861
  143TCq2    O5 2187   1.739   2.230   9.513 -0.0009  0.6846  0.4552
  143TCq2    O6 2188   1.792   2.394   9.370 -0.4933  0.4824  0.4863
  143TCq2    H2 2189   1.549   2.101   9.430  2.8880  0.9545 -1.3081
  143TCq2    H3 2190   1.614   2.481   9.262 -0.2696  0.6588  1.8618
  143TCq2    H4 2191   1.243   2.274   9.193  0.2902 -3.5935 -0.1183
  144MPD2     C 2192   3.328   0.363   0.528  0.8926 -0.1434 -0.2505
  144MPD2    C1 2193   3.338   0.225   0.526 -0.4141  0.3345  0.3097
  144MPD2    C2 2194   3.459   0.165   0.574 -0.1540 -0.1411  0.3313
  144MPD2    C3 2195   3.565   0.239   0.620 -0.0685  0.1541 -0.2216
  144MPD2    C4 2196   3.545   0.375   0.627 -0.3621  0.0024 -0.3982
  144MPD2    C5 2197   3.431   0.437   0.581 -0.4874 -0.7746  0.2618
  144MPD2     H 2198   3.479   0.059   0.558  0.5463  0.3904 -2.3882
  144MPD2    H1 2199   3.627   0.432   0.669  1.3914 -2.7362 -0.0971
  144MPD2    H2 2200   3.245   0.420   0.489  0.3487 -1.1768 -0.5883
  144MPD2    H3 2201   3.425   0.545   0.571 -0.7769 -0.8670 -0.6081
  144MPD2     N 2202   3.699   0.186   0.653  0.3565 -0.3226 -0.3283
  144MPD2    H5 2203   3.765   0.247   0.700 -2.1874  0.1586  2.6456
  144MPD2    N1 2204   3.247   0.144   0.460 -0.7416  1.1241 -0.5611
  144MPD2    H7 2205   3.262   0.044   0.456  0.2539  1.3460 -2.2292
  145TCq2    C1 2206   3.736   0.056   0.627  0.2227  0.7114  0.0290
  145TCq2    O2 2207   3.709   4.705   0.533 -0.3449  0.0580 -0.4465
  145TCq2    C2 2208   3.855   0.016   0.701  0.4142 -0.0874 -0.0825
  145TCq2    C3 2209   3.935   4.663   0.627 -0.3331 -0.5052 -0.2439
  145TCq2    C4 2210   4.043   4.605   0.677  0.1223  0.6373 -0.0304
  145TCq2    C5 2211   4.064   4.631   0.808  0.3833  0.1948  0.4922
  145TCq2    C6 2212   3.980   4.709   0.881 -0.0238 -0.3624 -0.0189
  145TCq2    C7 2213   3.871   0.051   0.831 -0.2621  0.3067 -0.5380
  145TCq2    C8 2214   4.015   0.011   1.019  0.1854  0.0253  0.8292
  145TCq2    O4 2215   4.111   4.671   1.056  0.2334  0.3024 -0.1746
  145TCq2    C9 2216   4.119   4.501   0.604 -0.1332 -0.4046 -0.2082
  145TCq2    O5 2217   4.070   4.452   0.501 -0.0925 -0.4445 -0.1808
  145TCq2    O6 2218   4.204   4.435   0.668 -0.0148 -0.4677  0.1946
  145TCq2    H2 2219   3.909   4.636   0.525  1.1583  0.8521 -0.9819
  145TCq2    H3 2220   4.145   4.576   0.855 -0.7888 -2.2088 -0.3185
  145TCq2    H4 2221   3.793   0.106   0.883  0.6167 -0.0548  1.1681
  146TMC2    C1 2222   0.111   3.730  12.709 -0.2327  0.0473 -0.5262
  146TMC2    C2 2223   0.083   3.800  12.599 -0.7543  0.1312 -0.4371
  146TMC2    C3 2224   0.037   3.733  12.488 -0.1697  0.0107  0.4260
  146TMC2    C4 2225   0.112   3.590  12.702  0.0563  0.6971  0.3916
  146TMC2    C5 2226   0.088   3.532  12.582 -0.0363  0.1316  0.3731
  146TMC2    C6 2227   0.041   3.594  12.471 -0.5256 -0.4165  0.5433
  146TMC2     C 2228   0.130   3.803  12.833  0.2496  0.9931 -0.8868
  146TMC2     O 2229   0.095   3.918  12.829 -0.4920  0.0859 -0.5780
  146TMC2     H 2230   0.086   3.909  12.599 -4.4616  0.2309  0.3475
  146TMC2    H1 2231   0.115   3.526  12.790 -0.3094 -0.6493 -0.5869
  146TMC2    H2 2232   0.022   3.556  12.372 -0.1216  0.4341  0.1429
  146TMC2    C7 2233   0.131   3.397  12.550  0.7304  0.7441  0.1992
  146TMC2    C8 2234   0.055   3.791  12.363  0.2676  0.2240 -0.5157
  146TMC2    O1 2235   0.086   3.347  12.447  0.8043 -0.0496  0.2184
  146TMC2    O2 2236   0.141   3.875  12.358 -0.4216 -0.0418 -0.3799
  146TMC2    O5 2237   4.661   3.793  12.299 -0.1124  0.2637  0.1272
  146TMC2    H5 2238   4.588   3.744  12.341  0.2579  0.3125  0.8148
  147MPD2     C 2239   0.417   2.982  12.636 -0.7037  0.0024 -0.2432
  147MPD2    C1 2240   0.462   3.079  12.716  0.4559  0.0001  0.9138
  147MPD2    C2 2241   0.398   3.201  12.707  0.0318  0.5872 -0.4363
  147MPD2    C3 2242   0.293   3.229  12.621 -0.7465  1.3437 -0.0483
  147MPD2    C4 2243   0.257   3.123  12.536 -0.0923 -0.2951  0.8007
  147MPD2    C5 2244   0.314   3.001  12.549  0.5479 -0.4470 -0.2321
  147MPD2     H 2245   0.413   3.278  12.782  1.7782 -0.6373  0.4638
  147MPD2    H1 2246   0.170   3.132  12.472  0.0380  0.3726  0.7147
  147MPD2    H2 2247   0.459   2.883  12.644  2.5498  1.4234  0.2304
  147MPD2    H3 2248   0.275   2.930  12.477  3.5399 -0.8582 -1.4511
  147MPD2     N 2249   0.226   3.346  12.639 -0.6654  0.5407  0.7753
  147MPD2    H5 2250   0.266   3.399  12.715  0.5410  1.0878 -0.2387
  147MPD2    N1 2251   0.583   3.057  12.784  0.1099  0.9437 -0.2288
  147MPD2    H7 2252   0.617   2.961  12.786  1.6765  1.5606  1.9541
  148MPD2     C 2253   0.646   2.915   9.826 -0.2208 -0.4961 -0.8128
  148MPD2    C1 2254   0.632   2.808   9.911 -0.8075 -0.2530  0.1813
  148MPD2    C2 2255   0.512   2.739   9.924  1.1334  0.0222 -0.1944
  148MPD2    C3 2256   0.409   2.765   9.839  0.0572  1.0543  0.4295
  148MPD2    C4 2257   0.416   2.874   9.758  0.4400 -0.7193 -0.2202
  148MPD2    C5 2258   0.535   2.952   9.764 -0.3781 -0.3592 -0.3656
  148MPD2     H 2259   0.513   2.658   9.996  4.2172  0.6296  0.4305
  148MPD2    H1 2260   0.328   2.904   9.704  0.8313  0.7190 -0.0537
  148MPD2    H2 2261   0.739   2.967   9.809 -0.1649 -0.4643 -0.4099
  148MPD2    H3 2262   0.550   3.036   9.698 -1.1435  0.7536  0.8786
  148MPD2     N 2263   0.298   2.675   9.825 -0.2543 -0.3873 -0.4815
  148MPD2    H5 2264   0.213   2.712   9.784 -0.6548 -1.7957 -0.9168
  148MPD2    N1 2265   0.747   2.766   9.992  0.8123 -0.1437  0.1405
  148MPD2    H7 2266   0.736   2.681  10.047  0.8268  0.7455  1.5089
  149TCq2    C1 2267   0.863   2.837  10.023  0.7454 -0.1842 -0.2775
  149TCq2    O2 2268   0.886   2.956  10.012 -0.0101  0.1150  0.5277
  149TCq2    C2 2269   0.953   2.770  10.115  0.4067  0.3761  0.0855
  149TCq2    C3 2270   1.048   2.844  10.172  0.1143 -0.0328 -1.3666
  149TCq2    C4 2271   1.133   2.775  10.254  0.4351 -1.5945  0.3600
  149TCq2    C5 2272   1.128   2.642  10.282  0.1304  0.0467 -0.4496
  149TCq2    C6 2273   1.026   2.573  10.232  0.1765  0.3185  0.4274
  149TCq2    C7 2274   0.931   2.635  10.150  0.1024 -0.4361 -0.2442
  149TCq2    C8 2275   1.032   2.432  10.250 -0.0237 -0.2127  0.3761
  149TCq2    O4 2276   0.970   2.374  10.165  0.8832  0.3885 -0.0564
  149TCq2    C9 2277   1.263   2.834  10.263  0.2133  0.1073  0.1395
  149TCq2    O5 2278   1.350   2.759  10.316  0.6142  0.1648  0.1317
  149TCq2    O6 2279   1.274   2.960  10.239  0.4313  0.4887 -0.4228
  149TCq2    H2 2280   1.068   2.947  10.144 -2.3340  0.7252 -0.2935
  149TCq2    H3 2281   1.200   2.597  10.350  0.6910  0.1367 -0.9824
  149TCq2    H4 2282   0.853   2.578  10.102 -0.9947 -1.4104  2.7084
  150MPD2     C 2283   2.149   2.163  11.845  0.3058  0.4562  0.0979
  150MPD2    C1 2284   2.196   2.046  11.793 -0.3542 -0.0444  1.1158
  150MPD2    C2 2285   2.315   1.994  11.845 -0.1919 -0.1117 -0.0089
  150MPD2    C3 2286   2.386   2.057  11.941 -0.3238  0.7293 -0.1050
  150MPD2    C4 2287   2.343   2.176  11.989  0.2440  0.2447  0.4157
  150MPD2    C5 2288   2.225   2.231  11.945 -0.4463  0.0461 -0.3922
  150MPD2     H 2289   2.353   1.896  11.816 -0.6589  0.4082 -2.3289
  150MPD2    H1 2290   2.398   2.231  12.064  1.5622  1.9422 -1.7977
  150MPD2    H2 2291   2.065   2.214  11.798 -0.7530 -2.2229 -0.8957
  150MPD2    H3 2292   2.200   2.334  11.967 -0.2850  0.3752 -1.7211
  150MPD2     N 2293   2.497   1.983  11.992  0.0877 -0.2898  0.4201
  150MPD2    H5 2294   2.519   1.896  11.944 -0.0012  0.0012 -0.1499
  150MPD2    N1 2295   2.134   1.980  11.679  0.0313 -0.2647 -0.0703
  150MPD2    H7 2296   2.188   1.901  11.644  1.2234 -0.1428  1.5395
  151TCq2    C1 2297   2.592   2.024  12.080  0.7812  0.1050 -0.2479
  151TCq2    O2 2298   2.607   2.138  12.123  0.6340  0.2522 -0.0349
  151TCq2    C2 2299   2.694   1.925  12.097  0.2030 -0.4092  0.2699
  151TCq2    C3 2300   2.654   1.795  12.087  0.2716 -0.2020 -0.5649
  151TCq2    C4 2301   2.746   1.694  12.100  0.1149 -0.0355  0.4273
  151TCq2    C5 2302   2.879   1.717  12.130 -0.0353 -0.4979  0.1726
  151TCq2    C6 2303   2.911   1.851  12.166  0.3650  0.1483 -0.1381
  151TCq2    C7 2304   2.821   1.954  12.145 -0.3456  0.5436  0.2424
  151TCq2    C8 2305   3.041   1.888  12.207  0.2058 -0.3553  0.3463
  151TCq2    O4 2306   3.068   2.009  12.218 -0.0067 -1.1197 -0.2068
  151TCq2    C9 2307   2.712   1.559  12.056  0.3121 -0.1822  0.6017
  151TCq2    O5 2308   2.793   1.465  12.086 -0.9006 -0.0935 -0.6297
  151TCq2    O6 2309   2.622   1.557  11.966  0.0057 -0.9059  0.4593
  151TCq2    H2 2310   2.558   1.760  12.051  0.6958 -2.1450  0.1776
  151TCq2    H3 2311   2.944   1.630  12.127  0.2519 -0.2743 -0.1170
  151TCq2    H4 2312   2.848   2.058  12.160  0.2018  0.5696 -0.9079
  152MPD2     C 2313   2.313   1.269  11.996 -0.0784  0.5621 -0.0537
  152MPD2    C1 2314   2.270   1.345  12.105  0.1791  1.0576 -0.1512
  152MPD2    C2 2315   2.143   1.409  12.102 -0.5727  0.2472 -0.2486
  152MPD2    C3 2316   2.065   1.394  11.985 -0.1520 -0.1841  0.3110
  152MPD2    C4 2317   2.110   1.326  11.872 -0.2605  0.4650 -0.3068
  152MPD2    C5 2318   2.235   1.268  11.885 -0.0930 -0.3396 -1.0083
  152MPD2     H 2319   2.110   1.464  12.189  3.5070  0.9737  0.8134
  152MPD2    H1 2320   2.053   1.308  11.782  1.1080 -1.6937 -0.7447
  152MPD2    H2 2321   2.403   1.209  11.995 -0.8891 -0.6495 -1.6644
  152MPD2    H3 2322   2.263   1.202  11.803 -0.1026 -1.1943 -0.3125
  152MPD2     N 2323   1.927   1.442  11.980  0.3532 -0.1071  0.1173
  152MPD2    H5 2324   1.874   1.440  11.893  1.3395 -1.0489 -0.4556
  152MPD2    N1 2325   2.362   1.343  12.210  0.4934  0.7882  0.1221
  152MPD2    H7 2326   2.439   1.277  12.205 -1.5541 -1.5557 -0.1455
  153TCq2    C1 2327   2.360   1.436  12.310 -0.8104 -0.6702 -0.2127
  153TCq2    O2 2328   2.294   1.538  12.318 -0.6567 -0.0241  0.7465
  153TCq2    C2 2329   2.488   1.448  12.382  0.1256  0.3390  0.4847
  153TCq2    C3 2330   2.563   1.336  12.425 -0.3419  0.1745  0.1823
  153TCq2    C4 2331   2.678   1.362  12.502 -0.1726  0.1305 -0.0401
  153TCq2    C5 2332   2.722   1.490  12.534  0.0243 -0.0769 -0.4598
  153TCq2    C6 2333   2.661   1.591  12.469 -0.0254  1.1318 -0.6253
  153TCq2    C7 2334   2.539   1.573  12.408 -0.0460 -0.1261 -0.1755
  153TCq2    C8 2335   2.696   1.724  12.496 -0.5767  0.3175  0.3224
  153TCq2    O4 2336   2.611   1.809  12.493 -0.2869 -0.7177 -0.3132
  153TCq2    C9 2337   2.751   1.252  12.564  0.4525  0.1385 -0.4455
  153TCq2    O5 2338   2.701   1.135  12.551  0.3347 -0.3195 -0.2961
  153TCq2    O6 2339   2.857   1.276  12.626  0.2129  0.4994 -0.5109
  153TCq2    H2 2340   2.538   1.231  12.416  5.6811 -0.9650 -3.0903
  153TCq2    H3 2341   2.800   1.508  12.607 -0.3782 -0.2935  0.0185
  153TCq2    H4 2342   2.502   1.660  12.354 -0.1246 -0.7513 -1.1299
  154MPD2     C 2343   3.288   1.640  17.652 -0.4346 -0.3523  0.3122
  154MPD2    C1 2344   3.335   1.575   0.060  0.0344 -0.9781 -0.3329
  154MPD2    C2 2345   3.305   1.627   0.183 -0.7739 -0.3957  0.1735
  154MPD2    C3 2346   3.221   1.735   0.197  0.1395  0.2459  0.6169
  154MPD2    C4 2347   3.194   1.807   0.085  0.7500  0.2807 -0.9507
  154MPD2    C5 2348   3.227   1.763  17.661 -0.2407 -0.2476 -0.2353
  154MPD2     H 2349   3.336   1.580   0.276 -1.6949 -1.2518  0.0501
  154MPD2    H1 2350   3.143   1.903   0.090 -0.4876 -0.3802 -0.9458
  154MPD2    H2 2351   3.331   1.609  17.558 -0.5487  0.1515  0.0930
  154MPD2    H3 2352   3.221   1.829  17.576 -2.7560 -0.6301 -0.3740
  154MPD2     N 2353   3.194   1.789   0.327 -0.3840  0.1779  0.4236
  154MPD2    H5 2354   3.227   1.728   0.402 -3.5210 -1.4265  0.5177
  154MPD2    N1 2355   3.419   1.465   0.040 -0.6496 -0.1265  0.1215
  154MPD2    H7 2356   3.436   1.443  17.641 -1.7683 -1.0035  0.1223
  155TCq2    C1 2357   3.491   1.398   0.140  0.1099  0.4873  0.2537
  155TCq2    O2 2358   3.499   1.417   0.259  0.1672 -0.3875  0.2907
  155TCq2    C2 2359   3.553   1.278   0.088  0.6765  0.4768 -0.1939
  155TCq2    C3 2360   3.479   1.209  17.689 -0.5923 -0.2546 -0.6478
  155TCq2    C4 2361   3.484   1.076  17.686 -0.5598 -0.0087  0.7308
  155TCq2    C5 2362   3.559   1.005   0.075  0.1422 -0.8298 -0.0984
  155TCq2    C6 2363   3.638   1.074   0.166  0.2009 -0.7128 -0.2062
  155TCq2    C7 2364   3.632   1.209   0.179  0.1528  0.1959 -0.0539
  155TCq2    C8 2365   3.763   1.014   0.215  0.0413  0.2184  0.2271
  155TCq2    O4 2366   3.851   1.084   0.268 -0.1652  0.2835 -0.0434
  155TCq2    C9 2367   3.397   1.015  17.596  0.2140  0.1576  0.5490
  155TCq2    O5 2368   3.306   1.083  17.539  0.0516  0.4188 -0.7095
  155TCq2    O6 2369   3.426   0.897  17.565  0.4080 -0.8351 -0.5574
  155TCq2    H2 2370   3.428   1.262  17.610  0.0129  3.7427  1.6812
  155TCq2    H3 2371   3.537   0.899   0.084  1.7205 -1.2031 -0.7292
  155TCq2    H4 2372   3.688   1.264   0.254 -0.1182  0.1193  0.2042
  156MPD2     C 2373   1.377   3.717  11.716 -0.0226 -0.0941  0.6389
  156MPD2    C1 2374   1.513   3.702  11.673 -0.1931  0.0324  0.1808
  156MPD2    C2 2375   1.600   3.663  11.776 -0.1764  0.3727  0.0069
  156MPD2    C3 2376   1.567   3.657  11.909 -0.1086 -0.1581 -0.5842
  156MPD2    C4 2377   1.440   3.693  11.949 -0.1149  0.3728  0.0311
  156MPD2    C5 2378   1.353   3.722  11.845  0.4068  0.1766 -0.4645
  156MPD2     H 2379   1.698   3.628  11.745  0.3774  0.0917  2.0985
  156MPD2    H1 2380   1.414   3.701  12.054 -0.4696  0.4277 -0.0588
  156MPD2    H2 2381   1.306   3.739  11.637 -0.1037 -2.5362  0.0443
  156MPD2    H3 2382   1.250   3.745  11.869 -0.1691 -1.8305 -1.0460
  156MPD2     N 2383   1.676   3.646  12.000  0.1842 -0.5781 -0.1396
  156MPD2    H5 2384   1.766   3.621  11.958  0.4643  1.4603 -0.7448
  156MPD2    N1 2385   1.552   3.700  11.540  0.9367  0.2245 -0.3884
  156MPD2    H7 2386   1.487   3.729  11.468 -0.4083  0.3283  0.8671
  157TCq2    C1 2387   1.686   3.703  11.501 -0.1306  0.1024  0.7309
  157TCq2    O2 2388   1.793   3.689  11.558  0.1242 -0.0237 -0.4532
  157TCq2    C2 2389   1.705   3.719  11.361 -0.6877  0.4271  0.0420
  157TCq2    C3 2390   1.616   3.660  11.281 -0.0345  0.0974  0.1119
  157TCq2    C4 2391   1.652   3.631  11.150 -0.6476 -0.0520 -0.0975
  157TCq2    C5 2392   1.784   3.652  11.112  0.2313  0.3930  0.0215
  157TCq2    C6 2393   1.865   3.720  11.194 -0.1874  0.1583 -0.1736
  157TCq2    C7 2394   1.833   3.745  11.326  0.6348 -0.0630  0.1492
  157TCq2    C8 2395   2.002   3.751  11.157  0.0554 -0.0928 -0.3188
  157TCq2    O4 2396   2.066   3.818  11.234 -0.0180  0.4673  0.1096
  157TCq2    C9 2397   1.551   3.562  11.060 -0.6670  0.4052  0.2225
  157TCq2    O5 2398   1.583   3.519  10.944 -0.0487 -0.0833 -0.0522
  157TCq2    O6 2399   1.436   3.554  11.107 -0.6437 -0.2660 -0.2961
  157TCq2    H2 2400   1.524   3.621  11.324  0.7897 -0.7860  1.0785
  157TCq2    H3 2401   1.806   3.623  11.010 -2.2679  0.8889 -0.6604
  157TCq2    H4 2402   1.906   3.792  11.391 -1.4664  0.3685  2.2163
  158TMC2    C1 2403   2.871   2.940  13.385  0.1075 -0.2126  0.2988
  158TMC2    C2 2404   2.927   3.028  13.299  0.3868 -0.0262  0.1587
  158TMC2    C3 2405   2.850   3.083  13.195  0.6633 -1.1138 -0.1068
  158TMC2    C4 2406   2.739   2.913  13.386  0.0547 -0.5765  0.0641
  158TMC2    C5 2407   2.666   2.966  13.283  0.3767 -0.2167 -1.1578
  158TMC2    C6 2408   2.716   3.049  13.189 -0.2774 -0.0524 -0.5547
  158TMC2     C 2409   2.958   2.893  13.489 -0.0171  1.0300  0.1081
  158TMC2     O 2410   3.062   2.954  13.498  0.4705 -0.1467  0.0066
  158TMC2     H 2411   3.034   3.044  13.301  0.5827 -1.3659  0.4150
  158TMC2    H1 2412   2.700   2.852  13.468 -1.7834 -0.1810 -0.5233
  158TMC2    H2 2413   2.650   3.086  13.112 -0.2613  2.9667  0.8934
  158TMC2    C7 2414   2.537   2.909  13.264  0.5793  0.5085 -0.3855
  158TMC2    C8 2415   2.911   3.127  13.070 -0.2037 -0.6627  0.5924
  158TMC2    O1 2416   2.455   2.991  13.227 -0.0862  0.1872 -0.7937
  158TMC2    O2 2417   3.032   3.107  13.042 -0.4467 -0.0875  0.2469
  158TMC2    O5 2418   2.815   3.196  13.007 -0.1463  0.1834 -0.3928
  158TMC2    H5 2419   2.734   3.208  13.061  1.1617 -0.9814  1.8277
  159MPD2     C 2420   3.095   2.590  13.878  0.4775  0.9504  0.6066
  159MPD2    C1 2421   2.979   2.546  13.826  0.5271  0.3986 -0.3959
  159MPD2    C2 2422   2.914   2.615  13.725 -0.5260 -0.2309 -0.0152
  159MPD2    C3 2423   2.977   2.725  13.663  0.2500 -0.3781  0.4425
  159MPD2    C4 2424   3.098   2.764  13.715  1.0608 -0.3935 -0.1465
  159MPD2    C5 2425   3.152   2.702  13.821  0.0250 -0.0802  0.1793
  159MPD2     H 2426   2.821   2.582  13.680 -0.6096  0.0678 -0.0673
  159MPD2    H1 2427   3.154   2.841  13.664  0.6158  0.3072  0.4365
  159MPD2    H2 2428   3.151   2.536  13.954  0.3119  0.4320  0.3612
  159MPD2    H3 2429   3.252   2.730  13.853  0.8000 -1.8630 -0.6717
  159MPD2     N 2430   2.908   2.784  13.556  0.1263  0.1176 -0.0606
  159MPD2    H5 2431   2.826   2.737  13.519 -0.1247  0.0850  0.5345
  159MPD2    N1 2432   2.919   2.431  13.888 -0.3158  0.8000 -0.2102
  159MPD2    H7 2433   2.957   2.401  13.977  0.8416 -0.2799 -1.0820
  160TMC2    C1 2434   2.740   0.469   1.444 -0.3672 -0.5926 -0.2546
  160TMC2    C2 2435   2.766   0.338   1.474  0.1207 -0.2302  0.6638
  160TMC2    C3 2436   2.790   0.243   1.379  0.2843  0.2883 -0.3589
  160TMC2    C4 2437   2.751   0.509   1.316 -0.3406 -0.3529  0.4865
  160TMC2    C5 2438   2.777   0.412   1.221  0.2794 -0.2656  0.0464
  160TMC2    C6 2439   2.803   0.284   1.248 -0.6437 -0.4105 -1.0806
  160TMC2     C 2440   2.651   0.533   1.539  0.3179  0.2135 -0.4998
  160TMC2     O 2441   2.674   0.534   1.661 -0.0094 -0.1121  0.2404
  160TMC2     H 2442   2.757   0.300   1.575  0.0984  0.1092  0.7907
  160TMC2    H1 2443   2.749   0.615   1.294 -0.0604 -0.6884 -1.1916
  160TMC2    H2 2444   2.829   0.208   1.175 -0.8244 -0.4417 -1.1140
  160TMC2    C7 2445   2.793   0.455   1.082 -0.2983 -0.1900 -0.1142
  160TMC2    C8 2446   2.803   0.103   1.415 -0.3139 -0.5200  0.2741
  160TMC2    O1 2447   2.765   0.369   1.002 -0.3384 -0.3445 -0.3580
  160TMC2    O2 2448   2.859   0.067   1.518  0.6376 -0.2162 -0.3887
  160TMC2    O5 2449   2.748   0.023   1.323 -0.2039  0.0644  0.5919
  160TMC2    H5 2450   2.691   0.079   1.267  2.8610  3.2026  0.6133
  161MPD2     C 2451   2.456   0.748   1.636  0.8699  0.2495 -0.5315
  161MPD2    C1 2452   2.446   0.672   1.518 -0.6170  0.2268 -0.0460
  161MPD2    C2 2453   2.340   0.700   1.431  0.0332  0.8643 -0.6272
  161MPD2    C3 2454   2.244   0.797   1.471  0.8095 -0.0569  0.5030
  161MPD2    C4 2455   2.261   0.862   1.588  0.6925 -0.0336  0.0447
  161MPD2    C5 2456   2.356   0.828   1.680  0.1714  0.3145 -0.7172
  161MPD2     H 2457   2.330   0.643   1.340 -0.4074 -0.0869  0.0083
  161MPD2    H1 2458   2.189   0.940   1.608  1.1500 -0.1204  2.0854
  161MPD2    H2 2459   2.543   0.736   1.699 -0.4921 -0.9665  1.1160
  161MPD2    H3 2460   2.379   0.893   1.764 -2.8536 -0.3286  0.6041
  161MPD2     N 2461   2.131   0.838   1.389 -0.5720 -0.0616 -0.6832
  161MPD2    H5 2462   2.081   0.921   1.418 -2.2448 -1.4849  0.4169
  161MPD2    N1 2463   2.549   0.585   1.471  0.7211 -0.3149  0.3360
  161MPD2    H7 2464   2.549   0.549   1.376 -0.3068  0.9764 -0.1552
  162TMC2    C1 2465   0.338   2.268   0.955 -0.0165  0.1642  0.2983
  162TMC2    C2 2466   0.259   2.344   0.872  0.2104 -0.5020  0.1431
  162TMC2    C3 2467   0.134   2.377   0.918  0.0244 -0.6825 -1.2205
  162TMC2    C4 2468   0.308   2.219   1.080  0.4719 -0.4192 -0.0977
  162TMC2    C5 2469   0.176   2.251   1.117  1.0577  0.4099  0.0006
  162TMC2    C6 2470   0.095   2.323   1.035  1.3175  0.0699  0.1711
  162TMC2     C 2471   0.468   2.244   0.899  0.6470  0.1105  0.1670
  162TMC2     O 2472   0.510   2.326   0.817 -0.1550  0.3159 -0.3658
  162TMC2     H 2473   0.283   2.386   0.775  2.5169  0.6838  1.2361
  162TMC2    H1 2474   0.377   2.175   1.150  1.3727 -0.5060 -1.0459
  162TMC2    H2 2475   4.717   2.326   1.069  1.1650 -1.4649 -0.1102
  162TMC2    C7 2476   0.112   2.165   1.213  0.4857 -0.0895  0.3197
  162TMC2    C8 2477   0.053   2.481   0.849  0.2954 -0.3151  0.1365
  162TMC2    O1 2478   4.720   2.153   1.198  0.4504 -0.2365  0.0112
  162TMC2    O2 2479   4.705   2.554   0.912 -0.0860  0.1122  0.2470
  162TMC2    O5 2480   0.096   2.506   0.725  0.0397  0.2866  0.0614
  162TMC2    H5 2481   0.141   2.432   0.679 -2.1171 -1.0336  0.0825
  163MPD2     C 2482   0.899   1.960   0.889 -0.9870  0.1912  0.4089
  163MPD2    C1 2483   0.856   2.066   0.813  0.1640  0.5258 -0.2990
  163MPD2    C2 2484   0.736   2.131   0.847  0.8972 -0.0795 -0.4849
  163MPD2    C3 2485   0.654   2.083   0.944 -1.1033  0.2472 -0.2401
  163MPD2    C4 2486   0.696   1.974   1.014  0.4330  0.1347  0.1249
  163MPD2    C5 2487   0.816   1.912   0.990 -0.2865 -0.5920  0.0304
  163MPD2     H 2488   0.706   2.223   0.797  0.5275  0.4416  0.6974
  163MPD2    H1 2489   0.640   1.922   1.090 -0.1433  1.4792  0.6299
  163MPD2    H2 2490   0.992   1.906   0.873 -0.5191  1.3812 -0.7882
  163MPD2    H3 2491   0.851   1.835   1.058  1.1886  0.3139  0.2865
  163MPD2     N 2492   0.534   2.142   0.976 -0.4354 -0.2520  0.2446
  163MPD2    H5 2493   0.486   2.098   1.054 -0.1429  1.1063  1.1901
  163MPD2    N1 2494   0.943   2.114   0.713  0.3895 -0.0463 -1.1596
  163MPD2    H7 2495   1.034   2.072   0.697  0.1330 -0.9374 -0.1903
  164TCq2    C1 2496   1.480   3.118  11.263 -0.0927  0.5419 -0.6031
  164TCq2    O2 2497   1.437   3.145  11.152 -0.5121 -0.4602  0.5342
  164TCq2    C2 2498   1.391   3.039  11.353 -0.2361 -0.6342  0.5350
  164TCq2    C3 2499   1.442   2.983  11.462  0.1427 -0.5201  0.2604
  164TCq2    C4 2500   1.353   2.925  11.551 -0.7811  0.5949 -0.0320
  164TCq2    C5 2501   1.225   2.905  11.519  0.2100 -0.4188  0.6846
  164TCq2    C6 2502   1.175   2.966  11.404 -0.4639 -0.3030 -0.4575
  164TCq2    C7 2503   1.258   3.026  11.316 -0.3934  0.2588  0.5289
  164TCq2    C8 2504   1.045   2.933  11.348 -0.5695 -0.5034  0.0720
  164TCq2    O4 2505   1.025   2.950  11.231 -0.2412 -0.7566  0.1074
  164TCq2    C9 2506   1.412   2.853  11.660  0.5766  0.3735  0.3043
  164TCq2    O5 2507   1.520   2.894  11.707 -0.6206  0.8351  0.2912
  164TCq2    O6 2508   1.353   2.757  11.708 -0.1017  0.0482 -0.5827
  164TCq2    H2 2509   1.547   2.982  11.488  0.5062  2.8273 -1.0399
  164TCq2    H3 2510   1.164   2.840  11.580  1.6462 -4.7633 -2.5276
  164TCq2    H4 2511   1.218   3.072  11.226  1.4901 -0.4835 -0.6934
  165MPD2     C 2512   2.870   3.767   1.489 -0.0551 -0.6433 -0.0100
  165MPD2    C1 2513   2.747   3.737   1.553  0.3964 -0.1236 -0.5135
  165MPD2    C2 2514   2.693   3.838   1.628 -0.1703 -0.0557  0.0412
  165MPD2    C3 2515   2.747   3.968   1.635 -0.4301  0.3839 -0.5306
  165MPD2    C4 2516   2.873   3.992   1.576  0.4023  0.3891  0.8603
  165MPD2    C5 2517   2.934   3.887   1.515 -0.0239 -0.3065 -0.5517
  165MPD2     H 2518   2.606   3.810   1.686 -0.7128 -1.7057 -1.5643
  165MPD2    H1 2519   2.929   4.085   1.580 -2.2684  1.9711  1.7036
  165MPD2    H2 2520   2.910   3.689   1.426 -0.9197 -0.4067 -0.8561
  165MPD2    H3 2521   3.032   3.896   1.468 -0.1533  2.0826 -0.3783
  165MPD2     N 2522   2.689   4.070   1.717 -0.7256  0.0339 -0.5932
  165MPD2    H5 2523   2.738   4.159   1.726 -1.7693  0.3568  1.7560
  165MPD2    N1 2524   2.696   3.604   1.528 -0.0097  0.3769  0.1816
  165MPD2    H7 2525   2.746   3.539   1.468  1.0371  0.2593  1.1591
  166TCq2    C1 2526   2.577   4.056   1.790 -0.9915 -0.4910 -0.1357
  166TCq2    O2 2527   2.498   3.964   1.801 -0.1816  0.3910 -0.4167
  166TCq2    C2 2528   2.531   4.182   1.854  0.4227  0.2184 -0.1494
  166TCq2    C3 2529   2.395   4.203   1.859  0.6194 -0.4480  0.1256
  166TCq2    C4 2530   2.347   4.327   1.893  0.0395  0.3511  0.4809
  166TCq2    C5 2531   2.441   4.429   1.912 -0.5414  0.5546 -0.0496
  166TCq2    C6 2532   2.577   4.401   1.915  1.1401 -0.2361 -0.6345
  166TCq2    C7 2533   2.625   4.276   1.889 -0.1800  0.1383  0.2393
  166TCq2    C8 2534   2.670   4.509   1.907 -0.1627 -0.6899  0.7766
  166TCq2    O4 2535   2.775   4.484   1.845  0.0036 -0.2176 -0.2819
  166TCq2    C9 2536   2.203   4.352   1.879 -0.0310  0.2268  0.5237
  166TCq2    O5 2537   2.165   4.472   1.886 -0.4805  0.3110 -0.0508
  166TCq2    O6 2538   2.136   4.246   1.885 -0.7390  0.0571  0.2696
  166TCq2    H2 2539   2.324   4.131   1.820 -0.4571  0.4379  0.4625
  166TCq2    H3 2540   2.396   4.527   1.922  0.4961  1.0947 -0.6543
  166TCq2    H4 2541   2.732   4.255   1.890 -0.1045  0.4844 -0.4723
  167TMC2    C1 2542   0.444   2.443  12.676  0.0596  0.8381  0.0051
  167TMC2    C2 2543   0.404   2.498  12.795 -0.1755 -0.1795 -0.3261
  167TMC2    C3 2544   0.388   2.418  12.902 -0.4627  0.1257 -0.3657
  167TMC2    C4 2545   0.474   2.308  12.665  0.3458 -0.0945 -0.8360
  167TMC2    C5 2546   0.461   2.232  12.781 -0.2133 -0.1568  0.4456
  167TMC2    C6 2547   0.410   2.281  12.901 -0.6853 -0.0467 -0.5856
  167TMC2     C 2548   0.515   2.537  12.595 -0.2080 -0.4980  0.0636
  167TMC2     O 2549   0.514   2.651  12.630 -0.0396 -0.0161 -0.5030
  167TMC2     H 2550   0.386   2.605  12.804  0.7368 -0.1763  1.5458
  167TMC2    H1 2551   0.480   2.256  12.570 -2.0334 -0.6960 -0.6482
  167TMC2    H2 2552   0.379   2.217  12.983 -0.7384 -1.9560 -2.0838
  167TMC2    C7 2553   0.466   2.087  12.760  0.1546 -0.3271 -0.2051
  167TMC2    C8 2554   0.376   2.477  13.033  0.2852 -0.6291 -0.7579
  167TMC2    O1 2555   0.427   2.026  12.858  0.0807 -0.1169 -0.1378
  167TMC2    O2 2556   0.282   2.551  13.063  0.2823  0.1469 -0.3458
  167TMC2    O5 2557   0.450   2.401  13.118 -0.2489  0.2154 -0.1703
  167TMC2    H5 2558   0.522   2.359  13.065 -1.3879  0.9731 -2.3127
  168MPD2     C 2559   0.670   2.674  12.394  1.1378  0.7849  0.2663
  168MPD2    C1 2560   0.651   2.543  12.391  0.2057 -0.6301 -0.3953
  168MPD2    C2 2561   0.693   2.468  12.281 -0.7910 -0.1433  0.3236
  168MPD2    C3 2562   0.760   2.518  12.172 -0.0189 -0.4910  0.4855
  168MPD2    C4 2563   0.782   2.651  12.175  0.3931  1.0733 -0.3514
  168MPD2    C5 2564   0.736   2.728  12.282  0.0280  0.6675  0.6067
  168MPD2     H 2565   0.663   2.364  12.280 -0.7316 -0.1701  0.9610
  168MPD2    H1 2566   0.834   2.707  12.098 -0.1007  0.4872 -1.1061
  168MPD2    H2 2567   0.652   2.745  12.474 -1.2424  1.8030 -1.1871
  168MPD2    H3 2568   0.757   2.834  12.270  0.0542  0.6443  0.4486
  168MPD2     N 2569   0.809   2.435  12.066  0.3932 -0.5213  0.1722
  168MPD2    H5 2570   0.842   2.489  11.987 -0.7709 -1.4017 -0.9073
  168MPD2    N1 2571   0.588   2.473  12.496  0.1969  0.2866  0.6275
  168MPD2    H7 2572   0.584   2.372  12.485 -1.4279  0.2322  1.7347
  169MPD1     C 2573   3.414   1.355   7.910 -0.9496 -0.3846 -0.3822
  169MPD1    C1 2574   3.459   1.481   7.952  0.1327  0.4892 -0.4610
  169MPD1    C2 2575   3.469   1.514   8.089  0.2201  0.0704  0.4072
  169MPD1    C3 2576   3.425   1.419   8.185  0.2672 -0.4157 -0.8383
  169MPD1    C4 2577   3.373   1.300   8.137 -0.6131 -0.5753  0.5547
  169MPD1    C5 2578   3.367   1.273   8.001 -0.3201  0.0973  0.7225
  169MPD1     H 2579   3.512   1.610   8.114  0.8735  0.0091 -0.5008
  169MPD1    H1 2580   3.340   1.224   8.207  0.2614 -1.5613 -0.0973
  169MPD1    H2 2581   3.420   1.334   7.804 -5.3451 -1.3640 -0.4408
  169MPD1    H3 2582   3.327   1.175   7.977 -0.3561  0.5924 -1.2296
  169MPD1     N 2583   3.422   1.447   8.322 -0.0229  0.8056  0.4276
  169MPD1    H5 2584   3.454   1.541   8.344 -1.8589  1.3871  0.6254
  169MPD1    N1 2585   3.499   1.575   7.856  0.5609  0.5395 -0.6503
  169MPD1    H6 2586   3.560   1.652   7.883  1.4663 -0.1653 -0.6705
  169MPD1    H7 2587   3.540   1.526   7.777  1.0602 -0.5663  0.2893
  170MPD1     C 2588   0.481   4.678  12.714  0.5685  0.0407 -0.1082
  170MPD1    C1 2589   0.549   0.077  12.713 -0.3130  0.6046  0.2818
  170MPD1    C2 2590   0.672   0.084  12.776 -0.4097 -0.0466  0.5486
  170MPD1    C3 2591   0.716   4.706  12.859  0.6102 -0.1769 -0.2568
  170MPD1    C4 2592   0.641   4.592  12.876 -0.0964  0.4522 -0.2271
  170MPD1    C5 2593   0.528   4.569  12.793 -0.2373  0.3065 -0.1719
  170MPD1     H 2594   0.728   0.175  12.763 -1.2436  0.7238  2.3515
  170MPD1    H1 2595   0.668   4.510  12.941  3.3477 -0.0395 -2.2729
  170MPD1    H2 2596   0.394   4.664  12.652  1.2850 -1.6978 -0.7322
  170MPD1    H3 2597   0.467   4.480  12.795 -0.7499  0.6664  0.1837
  170MPD1     N 2598   0.835   4.722  12.925  0.0821  0.3003 -0.2235
  170MPD1    H5 2599   0.890   0.078  12.893 -1.5961  1.8171  0.7288
  170MPD1    N1 2600   0.517   0.180  12.619  0.1913  0.1831 -0.3521
  170MPD1    H6 2601   0.420   0.196  12.594  0.5509  1.2162 -1.0794
  170MPD1    H7 2602   0.550   0.270  12.652 -0.4000  0.8771 -1.6826
  171MPD1     C 2603   0.177   0.915  15.117 -0.0260  0.0769  0.5460
  171MPD1    C1 2604   0.093   0.847  15.034  0.4376  0.8789  0.0623
  171MPD1    C2 2605   0.041   0.730  15.080 -0.7115 -0.1882 -0.0058
  171MPD1    C3 2606   0.078   0.679  15.208 -0.7781  0.6447 -0.4286
  171MPD1    C4 2607   0.178   0.744  15.279 -0.2489  0.4370  0.0625
  171MPD1    C5 2608   0.231   0.862  15.234 -0.1683 -0.0130  0.5386
  171MPD1     H 2609   4.696   0.674  15.019  0.5813 -0.4970 -1.1863
  171MPD1    H1 2610   0.198   0.704  15.378  0.9505  0.8923 -0.0088
  171MPD1    H2 2611   0.205   1.015  15.085 -1.5513  0.7754  1.4374
  171MPD1    H3 2612   0.298   0.913  15.303  0.1772 -0.7826  0.7677
  171MPD1     N 2613   0.029   0.559  15.270  0.4446 -0.1486  0.1879
  171MPD1    H5 2614   0.059   0.551  15.366  0.8283 -0.5435  0.0350
  171MPD1    N1 2615   0.043   0.920  14.921 -0.4702  0.9675  0.9293
  171MPD1    H6 2616   0.023   0.860  14.842 -0.7187  1.0153  0.9533
  171MPD1    H7 2617   0.110   0.985  14.883  0.3644 -1.4107 -1.6459
  172MPD1     C 2618   3.388   4.310   0.288 -0.6247 -0.5240 -0.0746
  172MPD1    C1 2619   3.370   4.392   0.174 -0.1892 -0.6257 -0.0964
  172MPD1    C2 2620   3.430   4.517   0.169  0.4833  0.5729  0.4686
  172MPD1    C3 2621   3.518   4.551   0.273 -0.2907 -0.5969  0.2844
  172MPD1    C4 2622   3.546   4.463   0.373 -0.1308  0.2767  1.0864
  172MPD1    C5 2623   3.474   4.349   0.389 -0.6021 -0.2249  0.0067
  172MPD1     H 2624   3.400   4.586   0.091 -0.9949 -0.5092  0.0798
  172MPD1    H1 2625   3.612   4.493   0.453  0.1055 -1.9827  1.7643
  172MPD1    H2 2626   3.365   4.205   0.296 -0.0498 -0.2220  5.4452
  172MPD1    H3 2627   3.495   4.278   0.468  2.3890  0.8485  0.2015
  172MPD1     N 2628   3.585   4.676   0.282  0.6265  1.0915 -0.0148
  172MPD1    H5 2629   3.661   4.685   0.347  1.4896 -1.6323 -0.6332
  172MPD1    N1 2630   3.281   4.355   0.077  0.2942  0.2547  0.6960
  172MPD1    H6 2631   3.257   4.256   0.074  1.0620  0.1275 -1.3100
  172MPD1    H7 2632   3.318   4.386  17.686  0.6685 -0.6569  0.5444
  173MPD1     C 2633   0.687   0.458  13.622  0.5177 -0.3119 -0.0605
  173MPD1    C1 2634   0.573   0.386  13.651  0.1337  0.0272  0.4966
  173MPD1    C2 2635   0.572   0.294  13.757 -0.1286  0.0987  0.8059
  173MPD1    C3 2636   0.693   0.253  13.807 -0.2938  1.0440 -0.1086
  173MPD1    C4 2637   0.810   0.323  13.767 -0.1278  0.2046  0.2334
  173MPD1    C5 2638   0.804   0.428  13.682  0.6305  0.0445  0.7509
  173MPD1     H 2639   0.482   0.239  13.782 -0.6998  1.1329  1.0390
  173MPD1    H1 2640   0.907   0.293  13.806 -0.4873  0.9028  1.6965
  173MPD1    H2 2641   0.678   0.536  13.547 -2.4883 -1.2180 -0.6289
  173MPD1    H3 2642   0.898   0.478  13.663 -0.6382  1.5482 -1.5145
  173MPD1     N 2643   0.696   0.144  13.899  0.0686  0.5669  0.3075
  173MPD1    H5 2644   0.608   0.095  13.915  0.6989 -1.2835 -1.8936
  173MPD1    N1 2645   0.450   0.415  13.593 -0.2477  0.1050  0.4632
  173MPD1    H6 2646   0.473   0.460  13.505 -0.4074 -1.2614 -0.2660
  173MPD1    H7 2647   0.391   0.332  13.593 -0.2782  0.1420 -1.8053
  174MPD1     C 2648   1.471   4.484  14.354  0.2123 -0.1598 -0.3549
  174MPD1    C1 2649   1.368   4.456  14.434 -0.0075  0.3638  0.5041
  174MPD1    C2 2650   1.241   4.466  14.389 -0.2325 -0.1459  0.4777
  174MPD1    C3 2651   1.215   4.494  14.257 -0.4899  0.1500 -0.2787
  174MPD1    C4 2652   1.325   4.497  14.169  0.6784 -0.2057 -0.1396
  174MPD1    C5 2653   1.453   4.497  14.220 -0.7514 -0.4871  0.2026
  174MPD1     H 2654   1.154   4.460  14.453  1.5455  0.4891  2.9191
  174MPD1    H1 2655   1.309   4.513  14.063  0.7342  0.9919  0.0252
  174MPD1    H2 2656   1.574   4.480  14.390  0.4131  3.0420 -0.5149
  174MPD1    H3 2657   1.538   4.503  14.153  0.1992 -0.6511  1.3938
  174MPD1     N 2658   1.083   4.495  14.207  0.0272  0.2792 -0.3516
  174MPD1    H5 2659   1.075   4.510  14.107  0.6326 -0.6977 -0.5488
  174MPD1    N1 2660   1.385   4.441  14.572 -0.0690  0.5016 -0.7416
  174MPD1    H6 2661   1.311   4.382  14.610 -0.5871  0.2631 -2.1057
  174MPD1    H7 2662   1.474   4.396  14.587 -0.0548  0.4590 -0.9459
  175MPD1     C 2663   3.706   0.421  15.675 -0.1231 -0.1519 -0.1271
  175MPD1    C1 2664   3.570   0.443  15.686  0.0220 -0.3474 -0.3497
  175MPD1    C2 2665   3.523   0.469  15.814 -0.4374 -0.1559  0.0510
  175MPD1    C3 2666   3.601   0.455  15.927  0.2985  0.6622 -0.2323
  175MPD1    C4 2667   3.735   0.423  15.907  0.8542  0.2434  0.3734
  175MPD1    C5 2668   3.790   0.427  15.781  0.5278  0.1139  0.0981
  175MPD1     H 2669   3.427   0.518  15.821 -2.0658 -3.0556 -1.7897
  175MPD1    H1 2670   3.809   0.421  15.985  2.3365  0.2739 -1.0298
  175MPD1    H2 2671   3.761   0.400  15.583 -4.0933 -2.4943 -1.9977
  175MPD1    H3 2672   3.895   0.403  15.771  0.5114 -1.1182  2.7008
  175MPD1     N 2673   3.557   0.483  16.059 -0.4513  0.6072 -0.1142
  175MPD1    H5 2674   3.627   0.481  16.133  1.1634  0.4626 -1.6627
  175MPD1    N1 2675   3.487   0.447  15.568 -0.4515  0.3108 -0.0787
  175MPD1    H6 2676   3.521   0.383  15.496  0.0786 -0.1546  0.5771
  175MPD1    H7 2677   3.394   0.434  15.606 -0.0169 -0.7312  0.6287
  176MPD1     C 2678   0.478   2.380  16.802  0.0024 -0.4554  0.3717
  176MPD1    C1 2679   0.489   2.514  16.759 -0.5663  0.5986 -0.1496
  176MPD1    C2 2680   0.488   2.615  16.855 -0.6815  0.0521 -0.1759
  176MPD1    C3 2681   0.452   2.591  16.987  0.0798  0.6210 -0.2321
  176MPD1    C4 2682   0.434   2.458  17.031 -0.3896 -0.2604  0.1848
  176MPD1    C5 2683   0.454   2.355  16.936 -0.1456 -0.2741 -0.0263
  176MPD1     H 2684   0.501   2.714  16.815 -0.8364  0.5912  1.0980
  176MPD1    H1 2685   0.432   2.425  17.134 -2.7219 -0.6959  0.0008
  176MPD1    H2 2686   0.482   2.302  16.727 -1.3419  0.2458 -0.4341
  176MPD1    H3 2687   0.464   2.256  16.977 -0.9990  0.9507  3.1038
  176MPD1     N 2688   0.449   2.704  17.070 -0.4471 -0.0755 -0.3533
  176MPD1    H5 2689   0.457   2.790  17.018 -3.4736  0.2215 -0.2875
  176MPD1    N1 2690   0.533   2.536  16.633 -0.5769  0.6337 -0.2034
  176MPD1    H6 2691   0.500   2.475  16.559 -0.2270 -0.8037  0.8330
  176MPD1    H7 2692   0.504   2.632  16.613 -1.4515  0.5704  0.7951
  177MPD1     C 2693   3.691   1.782  10.354  0.3757  0.3514 -0.3686
  177MPD1    C1 2694   3.792   1.866  10.344 -0.7295  0.5667  0.2268
  177MPD1    C2 2695   3.784   1.953  10.236  0.4098 -0.6045 -0.6839
  177MPD1    C3 2696   3.685   1.939  10.135 -0.6283 -0.3014 -0.0942
  177MPD1    C4 2697   3.594   1.836  10.146 -0.3298  0.6851  0.2666
  177MPD1    C5 2698   3.596   1.758  10.252 -0.5433 -0.4876  0.0355
  177MPD1     H 2699   3.858   2.033  10.240 -2.0453  1.7759 -2.6728
  177MPD1    H1 2700   3.516   1.815  10.075 -0.0924 -0.6512  0.4007
  177MPD1    H2 2701   3.684   1.721  10.443 -2.9373 -0.0759 -0.9291
  177MPD1    H3 2702   3.531   1.673  10.267 -1.7164 -0.1630 -3.2108
  177MPD1     N 2703   3.686   2.024  10.020  0.3309  0.1859 -0.2593
  177MPD1    H5 2704   3.765   2.088  10.022  0.6278 -0.2054  0.5229
  177MPD1    N1 2705   3.867   1.897  10.457  0.1739 -0.5663 -0.1018
  177MPD1    H6 2706   3.903   1.820  10.512 -0.7726 -0.4708  0.6546
  177MPD1    H7 2707   3.956   1.936  10.426  0.8277 -1.4885  0.6197
  178MPD1     C 2708   1.257   2.942   0.310  0.0848  0.7613 -0.5739
  178MPD1    C1 2709   1.343   3.048   0.293  0.1723 -0.3295  0.3268
  178MPD1    C2 2710   1.354   3.116   0.171  0.3438  0.3894  0.3376
  178MPD1    C3 2711   1.256   3.100   0.076  0.1998  0.6289 -0.4017
  178MPD1    C4 2712   1.157   3.004   0.099  0.1255  0.8358 -0.1553
  178MPD1    C5 2713   1.167   2.925   0.212 -0.2483 -0.0920 -0.0107
  178MPD1     H 2714   1.417   3.203   0.160  3.1883 -1.7603 -0.2134
  178MPD1    H1 2715   1.074   2.988   0.031 -0.4415 -0.7112  0.9072
  178MPD1    H2 2716   1.262   2.882   0.400  2.2885  0.9601 -0.5403
  178MPD1    H3 2717   1.084   2.862   0.242  0.9734 -1.6119  0.2219
  178MPD1     N 2718   1.242   3.173  17.655  0.1594 -0.4342 -0.1470
  178MPD1    H5 2719   1.171   3.138  17.592 -1.8533  1.1143  1.2369
  178MPD1    N1 2720   1.441   3.078   0.393  0.2289 -0.7201  0.4008
  178MPD1    H6 2721   1.420   3.046   0.487  0.2112  0.2198  0.7195
  178MPD1    H7 2722   1.464   3.177   0.401  0.4722 -0.7621  0.1982
  179MPD1     C 2723   0.713   2.137  15.781 -0.2388  0.0907  0.3351
  179MPD1    C1 2724   0.660   2.090  15.662 -0.9899  0.2277  0.0331
  179MPD1    C2 2725   0.658   1.954  15.643 -0.6157 -0.3796 -0.3541
  179MPD1    C3 2726   0.702   1.865  15.740 -0.6128  0.2185  0.0033
  179MPD1    C4 2727   0.736   1.914  15.863  0.8469  0.6683  0.4548
  179MPD1    C5 2728   0.747   2.049  15.883 -0.2744  0.4514 -0.7344
  179MPD1     H 2729   0.628   1.909  15.548 -2.0927 -3.4553  1.5701
  179MPD1    H1 2730   0.774   1.851  15.942  1.8168  0.6037 -0.0564
  179MPD1    H2 2731   0.715   2.243  15.804  1.5657 -0.5069  2.9399
  179MPD1    H3 2732   0.783   2.086  15.978 -0.1391 -1.4332 -0.0522
  179MPD1     N 2733   0.685   1.723  15.730  1.0650 -0.1063  0.0421
  179MPD1    H5 2734   0.712   1.670  15.812  2.8969 -0.9107 -1.0960
  179MPD1    N1 2735   0.640   2.189  15.562 -0.0360  0.4552  0.6710
  179MPD1    H6 2736   0.563   2.156  15.504 -0.2184  0.9520  0.6333
  179MPD1    H7 2737   0.615   2.281  15.599 -0.9400 -0.0982  1.4349
  180MPD1     C 2738   1.068   3.252  15.336  0.4147  0.0897 -0.7581
  180MPD1    C1 2739   0.948   3.185  15.336 -1.0921 -0.1072  0.9533
  180MPD1    C2 2740   0.919   3.106  15.226 -0.5993 -0.1256  0.2559
  180MPD1    C3 2741   1.009   3.083  15.130 -0.2544  0.2851 -0.6034
  180MPD1    C4 2742   1.134   3.147  15.136  0.4121 -0.0904 -0.2300
  180MPD1    C5 2743   1.167   3.227  15.242  0.4090 -0.6468  0.5903
  180MPD1     H 2744   0.821   3.060  15.227 -1.7226  2.2457 -0.2840
  180MPD1    H1 2745   1.210   3.149  15.058  1.6706 -1.4721  0.9662
  180MPD1    H2 2746   1.101   3.320  15.413  1.8352 -1.3431 -0.1127
  180MPD1    H3 2747   1.267   3.269  15.238 -0.9754  2.8928  2.7241
  180MPD1     N 2748   0.967   3.000  15.021  0.0946  0.4219  0.0624
  180MPD1    H5 2749   0.871   2.967  15.020  1.3812 -3.2461 -0.5741
  180MPD1    N1 2750   0.844   3.223  15.423  0.6375  0.2451  0.3470
  180MPD1    H6 2751   0.870   3.265  15.511 -1.7268  0.6647  0.8550
  180MPD1    H7 2752   0.779   3.149  15.448 -2.3402  2.3447 -1.1380
  181MPD1     C 2753   3.989   0.262   8.987 -0.3418 -0.6537 -0.2535
  181MPD1    C1 2754   4.085   0.187   9.052 -0.1484  0.2906  0.2258
  181MPD1    C2 2755   4.035   0.090   9.137  0.6996 -0.6671 -0.5872
  181MPD1    C3 2756   3.900   0.078   9.155 -0.0337  0.1065  0.9164
  181MPD1    C4 2757   3.811   0.157   9.088 -0.2061  0.3696  0.9219
  181MPD1    C5 2758   3.860   0.249   9.002 -0.2690  0.0502 -0.2294
  181MPD1     H 2759   4.106   0.019   9.179 -1.2379 -2.7260 -0.8138
  181MPD1    H1 2760   3.704   0.142   9.092 -0.1613 -0.2375 -0.2671
  181MPD1    H2 2761   4.009   0.339   8.913 -1.5835 -0.4599 -0.3857
  181MPD1    H3 2762   3.782   0.306   8.952 -1.0006 -0.8756 -0.1415
  181MPD1     N 2763   3.838   4.694   9.229  0.2261 -0.4018 -0.3090
  181MPD1    H5 2764   3.742   4.707   9.259 -0.0002  0.5888 -1.4222
  181MPD1    N1 2765   4.224   0.203   9.034  0.3876  0.1175 -0.3076
  181MPD1    H6 2766   4.273   0.179   9.120 -0.9581  1.5158  0.8407
  181MPD1    H7 2767   4.249   0.297   9.007 -0.7895  1.1596  2.2764
  182MPD1     C 2768   3.676   3.542   0.999  0.2058 -0.9076 -0.2441
  182MPD1    C1 2769   3.684   3.559   0.867 -0.1859 -0.0719  0.3570
  182MPD1    C2 2770   3.579   3.630   0.811  0.0809 -0.3277  0.2891
  182MPD1    C3 2771   3.472   3.681   0.882  0.3640 -0.3849  0.2809
  182MPD1    C4 2772   3.465   3.646   1.014  0.2480 -0.3472 -1.1216
  182MPD1    C5 2773   3.567   3.590   1.072 -0.7409  0.6073 -0.2158
  182MPD1     H 2774   3.572   3.648   0.704  0.3758  0.1079  0.3426
  182MPD1    H1 2775   3.386   3.682   1.079  2.3439 -0.4769  1.5513
  182MPD1    H2 2776   3.750   3.485   1.054 -0.8857 -0.8407  1.3052
  182MPD1    H3 2777   3.573   3.568   1.178 -0.2944  0.1779 -0.3286
  182MPD1     N 2778   3.359   3.749   0.833  0.3652  0.1445 -0.0797
  182MPD1    H5 2779   3.304   3.791   0.907  0.3114 -1.1475  0.6200
  182MPD1    N1 2780   3.796   3.510   0.789 -0.6926  0.1859  0.6599
  182MPD1    H6 2781   3.883   3.538   0.833 -1.2925  0.8041  1.4436
  182MPD1    H7 2782   3.807   3.537   0.692 -1.6893  4.5989  1.7730
  183MPD1     C 2783   4.723   0.236   9.192  0.2120  0.0676  0.3936
  183MPD1    C1 2784   4.653   0.127   9.238  0.3041  0.0700 -0.3523
  183MPD1    C2 2785   4.525   0.148   9.274  0.4792 -0.4618 -0.3496
  183MPD1    C3 2786   4.465   0.272   9.300  0.8735 -0.5002 -0.2412
  183MPD1    C4 2787   4.543   0.382   9.271  0.2724  0.7843  1.2946
  183MPD1    C5 2788   4.668   0.360   9.210  0.2903 -0.6168  0.4071
  183MPD1     H 2789   4.468   0.063   9.310 -1.8082  1.6911  1.0820
  183MPD1    H1 2790   4.504   0.483   9.274 -1.1730  0.3889 -3.5054
  183MPD1    H2 2791   0.087   0.220   9.132 -1.0144 -0.5036 -1.2851
  183MPD1    H3 2792   4.721   0.451   9.186 -3.4998  1.3909 -0.4962
  183MPD1     N 2793   4.335   0.277   9.354 -0.1856 -0.2739  0.3118
  183MPD1    H5 2794   4.289   0.188   9.371 -1.2483  0.2111 -0.0419
  183MPD1    N1 2795   4.692   4.721   9.200  0.1770  0.0230 -0.0795
  183MPD1    H6 2796   4.661   4.646   9.262  0.9935  1.6794  2.3190
  183MPD1    H7 2797   0.069   4.716   9.189  0.2630 -2.0564  1.6146
  184MPD1     C 2798   2.696   1.676   9.510 -0.8765 -0.2063  0.2321
  184MPD1    C1 2799   2.804   1.722   9.582 -0.0455 -0.1796  0.2599
  184MPD1    C2 2800   2.903   1.803   9.519  0.0482 -0.7198 -0.3693
  184MPD1    C3 2801   2.880   1.859   9.395 -0.7081 -0.3456 -0.2032
  184MPD1    C4 2802   2.760   1.818   9.330  0.9782 -0.2621  0.9393
  184MPD1    C5 2803   2.671   1.729   9.386 -0.0723  0.3601 -0.4344
  184MPD1     H 2804   2.998   1.826   9.565  0.1127  0.2059 -0.9774
  184MPD1    H1 2805   2.733   1.862   9.235 -0.8420 -1.7572  0.7507
  184MPD1    H2 2806   2.623   1.610   9.556 -1.5653  1.4113  1.4788
  184MPD1    H3 2807   2.582   1.696   9.333 -1.1440  1.3956  0.6941
  184MPD1     N 2808   2.968   1.949   9.333  0.2995 -0.2685  0.4833
  184MPD1    H5 2809   2.949   1.954   9.234  0.6539 -0.9016  0.3838
  184MPD1    N1 2810   2.833   1.666   9.707  0.0113 -0.1701  0.0345
  184MPD1    H6 2811   2.875   1.731   9.772  2.1146 -1.2150 -0.2805
  184MPD1    H7 2812   2.746   1.635   9.750  1.8881 -0.4658  3.5878
  185MPD1     C 2813   2.948   2.021   8.507  0.0688 -0.4991 -0.2460
  185MPD1    C1 2814   3.057   2.114   8.533  0.1350  0.6910  0.1538
  185MPD1    C2 2815   3.088   2.143   8.664  0.0987  0.9742 -0.0851
  185MPD1    C3 2816   3.039   2.073   8.769  0.6534 -0.4280  0.8877
  185MPD1    C4 2817   2.939   1.975   8.747  1.2059  0.2494 -0.1108
  185MPD1    C5 2818   2.890   1.962   8.619  0.5221 -0.1582  0.2191
  185MPD1     H 2819   3.157   2.224   8.684  1.4743 -0.3579  0.5526
  185MPD1    H1 2820   2.893   1.918   8.826  2.1020  1.5794  1.3702
  185MPD1    H2 2821   2.908   2.014   8.406  0.6726 -3.4071 -0.2715
  185MPD1    H3 2822   2.801   1.902   8.606 -0.1253  1.0098 -0.7718
  185MPD1     N 2823   3.085   2.088   8.900 -0.2500  0.5703 -0.7170
  185MPD1    H5 2824   3.021   2.059   8.973  0.6785  2.0697  0.7017
  185MPD1    N1 2825   3.111   2.184   8.425  0.0132 -0.9902 -0.6512
  185MPD1    H6 2826   3.212   2.189   8.436 -0.1228 -2.0648  1.1325
  185MPD1    H7 2827   3.082   2.154   8.332  0.0553  0.6033 -1.1805
  186MPD1     C 2828   1.130   1.649  15.550 -0.0488  1.0084  0.0806
  186MPD1    C1 2829   1.053   1.758  15.525 -0.2945 -0.4282  0.0888
  186MPD1    C2 2830   1.046   1.860  15.611 -0.0738  0.1788 -0.3377
  186MPD1    C3 2831   1.111   1.847  15.733  0.1396 -0.6904 -0.1135
  186MPD1    C4 2832   1.177   1.733  15.764  0.4257 -0.5741 -0.3920
  186MPD1    C5 2833   1.186   1.639  15.670 -0.2044  0.5375 -0.1247
  186MPD1     H 2834   1.003   1.956  15.587  0.1662  0.6887  1.2567
  186MPD1    H1 2835   1.236   1.717  15.853 -1.4970 -0.2245  0.9470
  186MPD1    H2 2836   1.145   1.573  15.474  3.0301  1.3931  0.3383
  186MPD1    H3 2837   1.243   1.548  15.686  1.1749  1.4413  0.1160
  186MPD1     N 2838   1.110   1.948  15.828  0.9596  0.0125  0.2814
  186MPD1    H5 2839   1.138   1.924  15.922 -0.3798  1.0000  0.9170
  186MPD1    N1 2840   1.001   1.774  15.398 -0.0496  0.0560 -0.3400
  186MPD1    H6 2841   0.979   1.680  15.368 -2.5836  0.2359  1.0070
  186MPD1    H7 2842   0.917   1.831  15.399  0.3079  0.5889 -0.6276
  187MPD1     C 2843   0.884   3.647   0.333 -0.4149 -0.7902  0.9326
  187MPD1    C1 2844   0.922   3.776   0.328  0.6739  0.1552  0.0920
  187MPD1    C2 2845   0.874   3.857   0.228 -0.0708 -0.0955  0.6577
  187MPD1    C3 2846   0.796   3.794   0.124 -0.4845 -0.2165  0.4025
  187MPD1    C4 2847   0.760   3.656   0.127  0.5382  0.6008  0.2611
  187MPD1    C5 2848   0.803   3.593   0.240 -0.4431  0.5243  1.0607
  187MPD1     H 2849   0.902   3.962   0.229 -2.7088  0.6046 -0.3824
  187MPD1    H1 2850   0.700   3.608   0.051  0.1062 -0.6668  1.4007
  187MPD1    H2 2851   0.916   3.587   0.417  1.1146 -2.3925 -0.8048
  187MPD1    H3 2852   0.774   3.489   0.248  1.1063  0.1068  1.2310
  187MPD1     N 2853   0.733   3.854   0.019  0.2932  0.3697 -0.4270
  187MPD1    H5 2854   0.685   3.797  17.648  2.3619  0.7666 -2.1634
  187MPD1    N1 2855   1.000   3.839   0.435 -0.0811 -0.4004 -0.8524
  187MPD1    H6 2856   1.070   3.783   0.483 -0.6340  1.2275  1.8143
  187MPD1    H7 2857   1.051   3.916   0.392  2.7337 -2.7040 -1.6760
  188MPD1     C 2858   1.580   3.807   9.086  0.1869  0.9423 -0.2677
  188MPD1    C1 2859   1.522   3.717   8.996  0.4397 -0.0452  0.3592
  188MPD1    C2 2860   1.427   3.630   9.048 -1.1471  0.1477  0.1475
  188MPD1    C3 2861   1.389   3.630   9.183 -0.1859 -0.6163  0.0494
  188MPD1    C4 2862   1.468   3.701   9.269 -0.1002  0.0225  0.3382
  188MPD1    C5 2863   1.558   3.793   9.219  0.0100  0.0976  0.1955
  188MPD1     H 2864   1.367   3.569   8.981 -0.4160 -0.6395  0.2142
  188MPD1    H1 2865   1.432   3.712   9.370 -1.1945  0.1248 -0.0660
  188MPD1    H2 2866   1.632   3.898   9.057  0.1692  1.3752  1.0187
  188MPD1    H3 2867   1.606   3.867   9.282 -1.5237  1.5604 -0.3710
  188MPD1     N 2868   1.289   3.540   9.234  0.5003 -0.5420  0.3516
  188MPD1    H5 2869   1.284   3.529   9.335 -1.1270  0.8077  0.4026
  188MPD1    N1 2870   1.547   3.731   8.861 -0.2643 -0.3996  0.2064
  188MPD1    H6 2871   1.633   3.784   8.852 -0.9514  0.4474 -1.5856
  188MPD1    H7 2872   1.574   3.642   8.819 -0.5350  0.0599 -0.9390
  189MPD1     C 2873   2.316   4.297  17.597  0.3481  0.6190 -0.1609
  189MPD1    C1 2874   2.199   4.228  17.591  0.1225  0.1837  0.6728
  189MPD1    C2 2875   2.084   4.277  17.646 -0.3484 -0.0452 -0.6566
  189MPD1    C3 2876   2.077   4.404   0.007  0.0810 -0.7269  0.3874
  189MPD1    C4 2877   2.188   4.485   0.002  0.2205 -0.3738 -0.1983
  189MPD1    C5 2878   2.309   4.429  17.653  0.4475  0.7818  0.4866
  189MPD1     H 2879   1.992   4.221  17.653 -1.3630  1.6540 -0.2752
  189MPD1    H1 2880   2.187   4.587   0.039  2.5281 -1.3222  2.4122
  189MPD1    H2 2881   2.413   4.256  17.573 -0.6259 -2.5021  1.3719
  189MPD1    H3 2882   2.398   4.490  17.653  0.4486  0.7408 -3.0070
  189MPD1     N 2883   1.957   4.441   0.068  0.5050 -0.5319  0.7704
  189MPD1    H5 2884   1.879   4.386   0.033 -0.3639  1.0592  0.2348
  189MPD1    N1 2885   2.201   4.097  17.544 -0.3665 -0.1061 -0.1351
  189MPD1    H6 2886   2.112   4.064  17.506 -1.0292  2.5486 -0.8960
  189MPD1    H7 2887   2.263   4.087  17.464 -1.1887 -0.1022 -0.7735
  190MPD1     C 2888   0.435   2.290  15.209 -0.2215  0.1342 -0.4492
  190MPD1    C1 2889   0.548   2.288  15.128 -0.0731 -0.5823  0.0133
  190MPD1    C2 2890   0.647   2.387  15.141  0.0534  0.1305  0.5208
  190MPD1    C3 2891   0.625   2.489  15.233 -0.4464 -0.2582  0.5348
  190MPD1    C4 2892   0.506   2.493  15.306 -0.0918 -0.4633 -0.6597
  190MPD1    C5 2893   0.412   2.394  15.299 -0.2998  0.0356 -0.3162
  190MPD1     H 2894   0.734   2.391  15.077 -1.3571 -1.7425 -1.5377
  190MPD1    H1 2895   0.492   2.576  15.375  1.0504 -1.2547  0.5376
  190MPD1    H2 2896   0.359   2.213  15.209 -1.1097  1.0062  1.8272
  190MPD1    H3 2897   0.322   2.384  15.359 -1.4719  1.4239 -1.8291
  190MPD1     N 2898   0.723   2.597  15.244  0.0743  0.2582 -0.5254
  190MPD1    H5 2899   0.817   2.593  15.204  0.3224 -0.1526  0.0929
  190MPD1    N1 2900   0.560   2.182  15.032  0.2231  0.8439 -0.1732
  190MPD1    H6 2901   0.488   2.115  15.059 -0.0244  1.9020  1.8014
  190MPD1    H7 2902   0.652   2.140  15.033 -0.8861 -1.5756 -1.2395
  191MPD1     C 2903   1.278   4.176  10.985  0.6106 -0.4901  0.1201
  191MPD1    C1 2904   1.239   4.309  10.971  0.5131  0.8728 -0.1981
  191MPD1    C2 2905   1.200   4.379  11.082  0.0214  0.2275  0.3089
  191MPD1    C3 2906   1.166   4.314  11.197 -0.3921 -0.3218  0.0751
  191MPD1    C4 2907   1.184   4.179  11.205 -0.9222  0.1571 -0.4455
  191MPD1    C5 2908   1.248   4.113  11.104 -0.1214 -0.3455  0.3281
  191MPD1     H 2909   1.214   4.487  11.085  1.3010  0.0854 -0.6310
  191MPD1    H1 2910   1.151   4.129  11.295  2.0609 -2.2387 -0.6750
  191MPD1    H2 2911   1.324   4.119  10.906  0.3965  2.0636 -1.8491
  191MPD1    H3 2912   1.283   4.014  11.128 -3.2133 -1.7471 -1.0347
  191MPD1     N 2913   1.114   4.394  11.304  0.0357 -0.5610  0.0489
  191MPD1    H5 2914   1.105   4.493  11.288 -1.5597 -1.0064 -1.8012
  191MPD1    N1 2915   1.279   4.380  10.849 -0.3900  0.7023  0.1823
  191MPD1    H6 2916   1.230   4.468  10.831 -0.4632  0.6513  0.1308
  191MPD1    H7 2917   1.276   4.322  10.766  1.2037  0.5190  0.2704
  192MPD1     C 2918   0.542   4.208  12.127 -0.1611 -0.1582 -0.0213
  192MPD1    C1 2919   0.650   4.278  12.170 -0.1060  0.4687 -0.5007
  192MPD1    C2 2920   0.718   4.349  12.072 -0.3504 -0.1568  0.0120
  192MPD1    C3 2921   0.694   4.325  11.942 -0.5516 -0.0607  0.3343
  192MPD1    C4 2922   0.588   4.243  11.901 -0.5622 -0.6393 -0.0231
  192MPD1    C5 2923   0.504   4.195  11.995  0.3801  0.0291  0.8435
  192MPD1     H 2924   0.784   4.426  12.111  1.5426 -1.2757 -0.9958
  192MPD1    H1 2925   0.560   4.213  11.801  1.1242  0.6411 -0.8686
  192MPD1    H2 2926   0.477   4.152  12.193 -0.5731 -0.9139 -1.0707
  192MPD1    H3 2927   0.411   4.141  11.979  0.1569  0.2996  1.2168
  192MPD1     N 2928   0.766   4.381  11.835  0.3835  0.4557  0.0135
  192MPD1    H5 2929   0.737   4.339  11.747 -0.5413 -1.9003  1.4779
  192MPD1    N1 2930   0.678   4.301  12.307 -0.1032 -0.9293 -0.3549
  192MPD1    H6 2931   0.667   4.221  12.369 -2.0661 -0.6666 -0.3750
  192MPD1    H7 2932   0.776   4.323  12.323 -0.1446 -1.3055  0.4148
  193MPD1     C 2933   4.140   0.624  15.944  0.1224  0.4757  0.5407
  193MPD1    C1 2934   4.059   0.658  16.051  0.5577 -0.0801  0.0388
  193MPD1    C2 2935   4.126   0.640  16.169 -0.3707 -0.7431 -0.7891
  193MPD1    C3 2936   4.256   0.592  16.187 -0.2645 -0.4407 -0.5456
  193MPD1    C4 2937   4.328   0.580  16.075  0.4135  0.3598 -0.1764
  193MPD1    C5 2938   4.271   0.598  15.958 -0.7554 -0.6054 -0.5966
  193MPD1     H 2939   4.078   0.667  16.263  0.6169 -0.0441 -0.4786
  193MPD1    H1 2940   4.434   0.558  16.080  0.2123 -0.8173 -0.9944
  193MPD1    H2 2941   4.102   0.631  15.843  1.0097  2.3789  0.3416
  193MPD1    H3 2942   4.326   0.586  15.865 -0.1124 -2.2450 -0.0003
  193MPD1     N 2943   4.323   0.580  16.310 -0.2098 -0.5417  0.1264
  193MPD1    H5 2944   4.423   0.562  16.304  0.1210  0.5067  2.3163
  193MPD1    N1 2945   3.925   0.681  16.031 -0.1601 -0.3830 -0.0999
  193MPD1    H6 2946   3.898   0.719  15.941 -2.5130 -2.1577 -0.1638
  193MPD1    H7 2947   3.884   0.735  16.107 -0.9659 -2.2418  0.7983
  194MPD1     C 2948   2.577   2.946  16.273 -0.3259  0.1579 -0.2516
  194MPD1    C1 2949   2.557   2.831  16.193  0.2240 -0.5024  0.2715
  194MPD1    C2 2950   2.581   2.707  16.256  0.3496 -0.1397  0.4831
  194MPD1    C3 2951   2.635   2.692  16.386 -0.1430  0.3244  0.1143
  194MPD1    C4 2952   2.655   2.809  16.455  0.2588  0.9130 -0.7150
  194MPD1    C5 2953   2.637   2.931  16.398  0.3740  0.2488 -0.1630
  194MPD1     H 2954   2.555   2.621  16.195 -0.2051  1.6928 -1.8935
  194MPD1    H1 2955   2.689   2.802  16.558 -0.2085 -0.0661 -0.6223
  194MPD1    H2 2956   2.562   3.050  16.244  1.9994  0.0533 -1.9020
  194MPD1    H3 2957   2.627   3.018  16.462 -0.0141  0.6243 -0.7282
  194MPD1     N 2958   2.671   2.568  16.442 -0.3022  0.5704 -0.2796
  194MPD1    H5 2959   2.726   2.573  16.527  0.7785  3.3637 -1.1512
  194MPD1    N1 2960   2.497   2.837  16.063 -0.2571 -0.3167 -0.2523
  194MPD1    H6 2961   2.505   2.919  16.004  1.9461 -0.6035 -0.3418
  194MPD1    H7 2962   2.510   2.751  16.011  0.4342 -0.6363  0.4390
  195MPD1     C 2963   0.533   4.420   0.082 -0.1305 -0.2236  0.5251
  195MPD1    C1 2964   0.598   4.375   0.200  0.5267 -0.0462  0.9187
  195MPD1    C2 2965   0.557   4.251   0.252 -0.2921  0.1416 -0.3508
  195MPD1    C3 2966   0.478   4.167   0.187 -0.9056 -0.1131 -0.2112
  195MPD1    C4 2967   0.415   4.219   0.077 -0.6503  0.8105  0.6483
  195MPD1    C5 2968   0.437   4.344   0.028 -0.7495  0.0671 -0.2028
  195MPD1     H 2969   0.605   4.227   0.346  1.8580 -0.4778 -1.6057
  195MPD1    H1 2970   0.337   4.155   0.037 -1.3740  1.7008  0.6389
  195MPD1    H2 2971   0.562   4.514   0.037  0.2069 -0.3103  0.5616
  195MPD1    H3 2972   0.374   4.372  17.643 -1.2131  5.2993  1.9075
  195MPD1     N 2973   0.441   4.032   0.236 -0.2423  0.7126 -0.6863
  195MPD1    H5 2974   0.371   3.982   0.182  2.0305 -3.2090  0.0241
  195MPD1    N1 2975   0.672   4.467   0.273  0.1505 -0.2832 -0.3519
  195MPD1    H6 2976   0.726   4.429   0.350 -2.0355 -0.1354  1.2568
  195MPD1    H7 2977   0.734   4.519   0.211  3.0138 -2.5033  0.6842
  196MPD1     C 2978   3.537   3.025   0.044  0.1220  0.7090 -0.2971
  196MPD1    C1 2979   3.616   2.956   0.122  0.0886 -0.3209  0.1154
  196MPD1    C2 2980   3.695   3.031   0.208  0.3117  0.0647 -0.3781
  196MPD1    C3 2981   3.704   3.173   0.207 -0.4235  0.0664 -0.0015
  196MPD1    C4 2982   3.620   3.235   0.121  0.3047 -0.0552  0.0187
  196MPD1    C5 2983   3.533   3.162   0.042  0.8121  0.7224 -0.2002
  196MPD1     H 2984   3.753   2.976   0.281 -0.2179 -0.4929 -0.3694
  196MPD1    H1 2985   3.602   3.342   0.117 -0.7448 -0.1549  2.0669
  196MPD1    H2 2986   3.462   2.978  17.680  0.4010 -1.3634  0.9575
  196MPD1    H3 2987   3.468   3.210  17.669 -2.4610 -2.6370  0.4833
  196MPD1     N 2988   3.783   3.257   0.303 -0.0844  0.3292  0.3862
  196MPD1    H5 2989   3.773   3.358   0.290  1.8657  0.6152  1.1028
  196MPD1    N1 2990   3.605   2.811   0.122 -0.6404  0.2616  0.5361
  196MPD1    H6 2991   3.691   2.761   0.145 -1.2624 -0.2569  1.7056
  196MPD1    H7 2992   3.577   2.784   0.028  0.1863 -0.4453  0.4898
  197MPD1     C 2993   2.776   0.666  17.402 -0.1103  0.0985 -0.1334
  197MPD1    C1 2994   2.908   0.690  17.408 -0.8210  0.2225  0.4171
  197MPD1    C2 2995   2.960   0.783  17.323  0.2369  0.9097 -0.5085
  197MPD1    C3 2996   2.884   0.863  17.241 -0.0146 -0.2340 -0.7929
  197MPD1    C4 2997   2.748   0.853  17.247 -0.4562  0.6054  0.9573
  197MPD1    C5 2998   2.703   0.752  17.320 -0.1340  0.3037 -0.4079
  197MPD1     H 2999   3.067   0.789  17.308  0.2269  1.8099 -0.2251
  197MPD1    H1 3000   2.686   0.905  17.175  0.7195  0.4340 -0.1656
  197MPD1    H2 3001   2.730   0.589  17.463 -0.1931  0.0907 -0.2045
  197MPD1    H3 3002   2.597   0.732  17.320 -0.0859  0.1412 -3.6306
  197MPD1     N 3003   2.928   0.967  17.155 -0.8531  0.3707 -0.3038
  197MPD1    H5 3004   2.859   1.013  17.097 -0.7480 -0.0419 -0.7609
  197MPD1    N1 3005   2.994   0.602  17.468 -0.4189  0.1169  0.8846
  197MPD1    H6 3006   2.965   0.553  17.553 -1.4757  0.7273  0.8751
  197MPD1    H7 3007   3.083   0.640  17.499  0.6303 -0.3650 -1.6037
  198MPD1     C 3008   0.676   3.414  15.695  0.2511  0.6476 -0.3109
  198MPD1    C1 3009   0.729   3.522  15.759  0.6674 -0.9110  0.0531
  198MPD1    C2 3010   0.756   3.627  15.684  0.1582 -0.0122 -1.3184
  198MPD1    C3 3011   0.739   3.638  15.546 -0.0130 -0.2165  0.3362
  198MPD1    C4 3012   0.672   3.533  15.484 -0.0814  0.0027  0.1315
  198MPD1    C5 3013   0.639   3.424  15.560  0.6101 -0.6755  0.2525
  198MPD1     H 3014   0.813   3.707  15.728 -0.4365  0.1123 -0.7768
  198MPD1    H1 3015   0.643   3.538  15.380  2.6532 -2.2015 -0.7345
  198MPD1    H2 3016   0.640   3.324  15.744  0.9713  1.1339  1.1164
  198MPD1    H3 3017   0.586   3.335  15.526  0.2956 -0.7774  0.9893
  198MPD1     N 3018   0.780   3.755  15.482  1.1324 -0.2438  0.0167
  198MPD1    H5 3019   0.806   3.835  15.538 -2.3255  2.2756 -2.0262
  198MPD1    N1 3020   0.735   3.523  15.901 -0.0840 -0.1154  0.0262
  198MPD1    H6 3021   0.822   3.565  15.935  1.9276 -3.3382 -1.1489
  198MPD1    H7 3022   0.736   3.426  15.932 -2.2592  0.2577  1.2707
  199MPD1     C 3023   3.475   0.337   9.703  0.4921 -0.2433  0.6384
  199MPD1    C1 3024   3.399   0.250   9.634 -0.1889  0.0580  0.7018
  199MPD1    C2 3025   3.279   0.300   9.574 -0.4363 -0.3105 -0.5113
  199MPD1    C3 3026   3.246   0.439   9.582  0.0454 -0.2932  0.8356
  199MPD1    C4 3027   3.341   0.523   9.643 -0.0745 -0.4139 -0.2419
  199MPD1    C5 3028   3.446   0.474   9.707 -0.6448 -0.1932 -0.5475
  199MPD1     H 3029   3.224   0.228   9.514  0.4898  1.0273 -2.9817
  199MPD1    H1 3030   3.332   0.631   9.644 -0.7961 -0.4634 -0.9685
  199MPD1    H2 3031   3.569   0.303   9.744  0.6555 -1.3263 -0.6385
  199MPD1    H3 3032   3.520   0.531   9.761 -0.6623 -1.7963  1.1880
  199MPD1     N 3033   3.139   0.498   9.513 -0.3834 -0.3887  0.8386
  199MPD1    H5 3034   3.144   0.599   9.507 -2.9628 -0.1744  2.2478
  199MPD1    N1 3035   3.438   0.118   9.610 -0.3053 -0.5870  1.1411
  199MPD1    H6 3036   3.354   0.067   9.584  1.0060 -1.6780 -0.9641
  199MPD1    H7 3037   3.481   0.074   9.692  0.0399 -0.3858  1.0685
  200MPD1     C 3038   1.277   0.431  14.307  0.4323 -0.1606  0.0751
  200MPD1    C1 3039   1.386   0.456  14.223  0.5585  0.0657 -0.3212
  200MPD1    C2 3040   1.508   0.483  14.277 -0.1311  0.8357  0.1095
  200MPD1    C3 3041   1.538   0.447  14.407 -0.2968 -0.1459 -1.0099
  200MPD1    C4 3042   1.436   0.406  14.491 -0.4746 -0.2857 -0.3281
  200MPD1    C5 3043   1.302   0.409  14.440 -0.8442 -0.2965 -0.0040
  200MPD1     H 3044   1.587   0.512  14.209  0.4016  1.9720  1.2279
  200MPD1    H1 3045   1.445   0.378  14.595  0.9700 -1.3470 -0.7501
  200MPD1    H2 3046   1.178   0.414  14.265  0.6641 -1.7472  0.1921
  200MPD1    H3 3047   1.222   0.375  14.504 -1.0610 -0.1520 -0.1972
  200MPD1     N 3048   1.663   0.477  14.448  0.0756 -0.3312  0.6472
  200MPD1    H5 3049   1.716   0.530  14.380 -1.9461  1.0339  0.1446
  200MPD1    N1 3050   1.357   0.489  14.092  0.3527  0.1616 -0.1270
  200MPD1    H6 3051   1.280   0.433  14.056 -1.3755  2.2861  0.2464
  200MPD1    H7 3052   1.431   0.467  14.025  0.3526 -0.2120 -0.0011
  201MPD1     C 3053   3.965   3.988  13.723 -0.2850  0.5490  0.0919
  201MPD1    C1 3054   4.071   3.980  13.810 -0.5212 -0.4013  0.5359
  201MPD1    C2 3055   4.193   3.974  13.757  0.2979 -0.2340 -0.1731
  201MPD1    C3 3056   4.219   4.006  13.623 -0.2798  0.3354  0.2470
  201MPD1    C4 3057   4.111   4.037  13.542 -0.7833 -0.4323 -0.3804
  201MPD1    C5 3058   3.986   4.015  13.593 -0.8232  0.8023  0.9179
  201MPD1     H 3059   4.278   3.949  13.819  1.0940  0.2490 -1.0865
  201MPD1    H1 3060   4.121   4.071  13.440 -0.8592 -1.2055 -0.6428
  201MPD1    H2 3061   3.860   3.999  13.746  0.0216  0.4361  1.5828
  201MPD1    H3 3062   3.900   4.021  13.527 -0.1700 -2.2894 -0.2239
  201MPD1     N 3063   4.344   4.014  13.576 -0.4376 -0.1532  0.0823
  201MPD1    H5 3064   4.420   3.962  13.618 -1.8043 -0.4484  2.1826
  201MPD1    N1 3065   4.047   3.965  13.946  0.1504 -0.4883 -0.1711
  201MPD1    H6 3066   3.969   4.014  13.990  0.5941  0.1774 -0.1347
  201MPD1    H7 3067   4.125   3.973  14.010  1.1536 -0.2633 -1.4259
  202MPD1     C 3068   0.179   3.938   9.091 -0.3474  0.0331 -0.4211
  202MPD1    C1 3069   0.174   4.068   9.144  0.2807  1.1090 -0.6535
  202MPD1    C2 3070   0.080   4.082   9.244 -0.0299  0.7398  0.1514
  202MPD1    C3 3071   0.011   3.971   9.295 -0.1842 -0.1892  0.1504
  202MPD1    C4 3072   0.033   3.844   9.250 -0.6064  0.2735 -0.0430
  202MPD1    C5 3073   0.120   3.829   9.150 -0.1528  0.7225  0.5629
  202MPD1     H 3074   0.045   4.178   9.280 -3.3013 -0.1755 -0.5090
  202MPD1    H1 3075   4.711   3.759   9.298  0.7194 -1.4145 -1.7288
  202MPD1    H2 3076   0.236   3.909   9.003 -0.5592 -1.3659 -0.1053
  202MPD1    H3 3077   0.138   3.729   9.111 -1.0734  0.4752  0.7793
  202MPD1     N 3078   4.642   3.982   9.395 -0.2745 -0.4842  0.3706
  202MPD1    H5 3079   4.606   3.896   9.435 -2.7000  0.2210 -0.2860
  202MPD1    N1 3080   0.218   4.182   9.068  0.0164 -0.1030  0.4909
  202MPD1    H6 3081   0.310   4.170   9.026 -0.8786 -0.1840 -1.4492
  202MPD1    H7 3082   0.221   4.260   9.133  1.2919 -0.8602  1.3430
  203MPD1     C 3083   3.421   0.471  12.309  0.8552 -0.0750  0.1068
  203MPD1    C1 3084   3.459   0.358  12.231 -0.0916  0.0826  0.4483
  203MPD1    C2 3085   3.415   0.236  12.281  0.5308  0.2822  0.0806
  203MPD1    C3 3086   3.343   0.216  12.401  0.5756 -0.1526  0.7730
  203MPD1    C4 3087   3.306   0.327  12.468 -0.4969  0.7246  0.2732
  203MPD1    C5 3088   3.343   0.455  12.426  0.6525  0.2130  0.5773
  203MPD1     H 3089   3.439   0.144  12.231  1.9142 -0.5978  2.3274
  203MPD1    H1 3090   3.254   0.318  12.563  0.6400  2.5981  1.0870
  203MPD1    H2 3091   3.468   0.567  12.295  1.4950 -0.1859  1.5944
  203MPD1    H3 3092   3.316   0.543  12.485  0.3007  0.5902 -0.1366
  203MPD1     N 3093   3.304   0.091  12.436 -1.0103  0.3008  0.3104
  203MPD1    H5 3094   3.327   0.018  12.369 -1.4400  0.1694  0.3025
  203MPD1    N1 3095   3.532   0.365  12.111 -0.0382  0.0069  0.3709
  203MPD1    H6 3096   3.588   0.281  12.098 -1.8535 -0.9719 -1.0424
  203MPD1    H7 3097   3.594   0.446  12.106 -1.4553  1.0722  0.2050
  204MPD1     C 3098   2.438   1.214  17.181 -0.6036  0.4608 -0.5885
  204MPD1    C1 3099   2.352   1.123  17.220  0.7184 -0.1272  0.0758
  204MPD1    C2 3100   2.240   1.099  17.148  0.2538 -1.1182  0.0114
  204MPD1    C3 3101   2.202   1.166  17.031 -0.1679  0.1485  0.9277
  204MPD1    C4 3102   2.298   1.263  16.985 -0.6522  0.4479  0.0755
  204MPD1    C5 3103   2.407   1.278  17.063  0.4726 -0.8926 -0.1607
  204MPD1     H 3104   2.174   1.029  17.199 -0.3811 -1.6852 -1.5629
  204MPD1    H1 3105   2.290   1.326  16.897  0.1962 -0.7717 -0.8638
  204MPD1    H2 3106   2.538   1.233  17.219 -0.9015  1.7901 -0.4985
  204MPD1    H3 3107   2.474   1.363  17.048  0.5976 -0.4998  2.5880
  204MPD1     N 3108   2.075   1.136  16.982  0.8897 -0.2893  0.2147
  204MPD1    H5 3109   2.010   1.076  17.030 -0.0943  0.3633 -0.2938
  204MPD1    N1 3110   2.361   1.097  17.359 -0.1410 -0.2229  0.2215
  204MPD1    H6 3111   2.461   1.087  17.376  0.2472  1.0533 -1.3301
  204MPD1    H7 3112   2.311   1.010  17.378  0.0601  0.3091  3.3236
  205MPD1     C 3113   2.606   4.607  16.281 -0.2272 -0.3414 -0.5070
  205MPD1    C1 3114   2.676   4.590  16.394 -0.2006 -0.0223 -0.4624
  205MPD1    C2 3115   2.641   4.666  16.505 -0.2404 -0.0389 -0.2573
  205MPD1    C3 3116   2.535   0.032  16.498  0.2453  0.0834 -0.0129
  205MPD1    C4 3117   2.463   0.050  16.382  0.5671 -0.4728  0.6855
  205MPD1    C5 3118   2.503   4.706  16.271  0.3733 -0.5049  0.0048
  205MPD1     H 3119   2.699   4.643  16.594  0.5774  2.0963 -0.2335
  205MPD1    H1 3120   2.376   0.115  16.375  1.1814  0.1228 -1.6100
  205MPD1    H2 3121   2.631   4.551  16.192 -0.0543 -0.0178 -0.6621
  205MPD1    H3 3122   2.456   0.005  16.176  0.9256  0.4649 -0.0303
  205MPD1     N 3123   2.504   0.104  16.613  0.4618  0.1526 -0.5233
  205MPD1    H5 3124   2.568   0.110  16.692 -0.5911  1.7597  0.2136
  205MPD1    N1 3125   2.793   4.507  16.393 -0.0606 -0.0800 -1.1311
  205MPD1    H6 3126   2.792   4.439  16.318 -0.4144 -2.3487  0.9180
  205MPD1    H7 3127   2.789   4.459  16.483 -2.1943  1.1324 -0.5713
  206MPD1     C 3128   3.131   2.747  16.394 -0.5299  0.8432  0.1407
  206MPD1    C1 3129   3.096   2.616  16.424 -0.2354 -0.8275 -0.0371
  206MPD1    C2 3130   3.024   2.547  16.324  1.3726  0.3247 -0.0879
  206MPD1    C3 3131   2.970   2.619  16.222  0.0100 -0.3716 -0.2131
  206MPD1    C4 3132   2.988   2.749  16.204  0.0869 -0.4811  1.0252
  206MPD1    C5 3133   3.071   2.817  16.294 -0.5423  0.3257 -0.1788
  206MPD1     H 3134   3.014   2.440  16.335 -2.0412  0.4921 -1.6284
  206MPD1    H1 3135   2.950   2.804  16.119  0.7781  0.5071  1.3595
  206MPD1    H2 3136   3.205   2.791  16.461  1.3113 -0.2584 -1.1851
  206MPD1    H3 3137   3.088   2.924  16.280 -0.4805  0.2789 -0.4588
  206MPD1     N 3138   2.894   2.554  16.118  0.1696 -0.1658  0.2702
  206MPD1    H5 3139   2.857   2.615  16.045 -2.2116 -0.4366  1.2654
  206MPD1    N1 3140   3.155   2.543  16.531  0.0936 -0.0819  0.6115
  206MPD1    H6 3141   3.101   2.461  16.557 -0.8170 -0.0437 -1.1334
  206MPD1    H7 3142   3.174   2.605  16.610  0.3137  1.3020 -0.5407
  207MPD1     C 3143   0.464   1.884   8.540 -0.3055  0.4042 -0.1264
  207MPD1    C1 3144   0.375   1.812   8.616 -0.4930  0.2542 -0.0370
  207MPD1    C2 3145   0.412   1.766   8.744 -0.3656 -1.0955  0.3300
  207MPD1    C3 3146   0.545   1.782   8.783 -0.0573  0.0260 -0.8791
  207MPD1    C4 3147   0.632   1.858   8.709 -0.4895  0.0442 -0.7554
  207MPD1    C5 3148   0.593   1.901   8.585 -0.1525 -0.0753  0.7451
  207MPD1     H 3149   0.337   1.704   8.793  0.7449 -1.7930  1.1460
  207MPD1    H1 3150   0.735   1.875   8.738 -0.6582 -3.8936  2.2253
  207MPD1    H2 3151   0.450   1.935   8.445 -1.1492  2.5706  1.1559
  207MPD1    H3 3152   0.660   1.954   8.517 -1.4132  0.1441 -0.3386
  207MPD1     N 3153   0.593   1.733   8.903  0.2959 -0.0581 -0.0625
  207MPD1    H5 3154   0.690   1.755   8.922 -0.0396 -0.0400  1.6413
  207MPD1    N1 3155   0.245   1.799   8.562 -0.4484  0.9113  0.2028
  207MPD1    H6 3156   0.173   1.815   8.632 -0.3968 -0.3158  0.5486
  207MPD1    H7 3157   0.222   1.857   8.482  0.8387  0.3502 -0.5783
  208MPD1     C 3158   3.151   4.122  16.710  1.0784  0.1032 -0.4120
  208MPD1    C1 3159   3.072   4.010  16.712  0.5480 -0.2617  0.2176
  208MPD1    C2 3160   2.996   3.987  16.824 -0.3666 -0.7317 -0.6703
  208MPD1    C3 3161   3.024   4.053  16.940  0.4716 -0.0421  0.1564
  208MPD1    C4 3162   3.126   4.152  16.948  0.1828  0.1190 -0.0555
  208MPD1    C5 3163   3.182   4.189  16.828  0.2085 -0.1599 -0.0232
  208MPD1     H 3164   2.914   3.915  16.821 -2.7354  1.9354  0.0013
  208MPD1    H1 3165   3.152   4.218  17.030 -1.4395  0.8853 -0.1541
  208MPD1    H2 3166   3.196   4.157  16.618 -0.9194  2.5208 -0.4672
  208MPD1    H3 3167   3.259   4.266  16.826  0.7450 -0.7160 -0.6488
  208MPD1     N 3168   2.950   3.997  17.051  0.3845 -0.0215  0.9383
  208MPD1    H5 3169   2.874   3.933  17.030 -1.1381  2.6130 -1.6582
  208MPD1    N1 3170   3.032   3.941  16.594  0.1230  0.0261  0.0299
  208MPD1    H6 3171   3.011   3.848  16.629 -1.0899 -0.9202 -3.2137
  208MPD1    H7 3172   3.114   3.926  16.536  0.9777  0.6364  1.0861
  209MPD1     C 3173   4.531   0.524   9.634 -0.2899  0.3189 -0.2647
  209MPD1    C1 3174   4.521   0.661   9.624  0.2087  0.2237  0.0484
  209MPD1    C2 3175   4.607   0.738   9.698 -0.5886 -0.7106 -0.1396
  209MPD1    C3 3176   4.710   0.680   9.768 -0.2108  0.3858  0.0290
  209MPD1    C4 3177   4.722   0.546   9.760 -0.0938  0.2804  0.5285
  209MPD1    C5 3178   4.629   0.467   9.701 -0.1474 -0.4834 -0.4111
  209MPD1     H 3179   4.597   0.846   9.698 -1.0967 -0.7562  0.3146
  209MPD1    H1 3180   0.087   0.497   9.798 -1.4923 -2.9353 -0.3547
  209MPD1    H2 3181   4.472   0.459   9.571  0.2451  0.2983 -0.7506
  209MPD1    H3 3182   4.641   0.360   9.698  1.1285 -0.3087 -1.4544
  209MPD1     N 3183   0.069   0.765   9.837 -0.0939  0.3127  0.5202
  209MPD1    H5 3184   0.051   0.864   9.823  0.3494  0.2486 -0.4504
  209MPD1    N1 3185   4.445   0.712   9.513 -0.1827  0.4347 -0.2753
  209MPD1    H6 3186   4.378   0.642   9.482 -2.0283  1.8201  0.5656
  209MPD1    H7 3187   4.410   0.807   9.521 -1.7206 -0.2495  1.0694
  210MPD1     C 3188   0.789   0.478  10.473  0.3442  0.0615 -0.0459
  210MPD1    C1 3189   0.833   0.601  10.428  0.4888  0.7734 -0.0172
  210MPD1    C2 3190   0.759   0.671  10.329 -0.1496  0.2162 -0.6485
  210MPD1    C3 3191   0.634   0.625  10.283 -0.4264  0.1881  0.5720
  210MPD1    C4 3192   0.591   0.499  10.332  1.1350  0.6295 -0.4153
  210MPD1    C5 3193   0.671   0.429  10.423 -0.4670 -0.3670  0.0035
  210MPD1     H 3194   0.811   0.752  10.280  1.0149  0.0212  0.2470
  210MPD1    H1 3195   0.494   0.460  10.306  0.9825  0.9160 -0.2747
  210MPD1    H2 3196   0.844   0.421  10.547  0.0769  0.2270  0.2768
  210MPD1    H3 3197   0.633   0.339  10.469 -0.5740  0.0262  0.6957
  210MPD1     N 3198   0.548   0.696  10.201 -0.3726 -0.7154 -0.1205
  210MPD1    H5 3199   0.463   0.652  10.166 -2.2464  0.5771  2.7962
  210MPD1    N1 3200   0.964   0.640  10.464 -0.3446  0.6384 -0.0919
  210MPD1    H6 3201   0.989   0.593  10.550 -2.5692 -2.6387 -1.1969
  210MPD1    H7 3202   0.967   0.740  10.482  2.1745  0.3545  0.9977
  211MPD1     C 3203   2.909   3.786  15.848 -0.3935 -0.5604  0.7839
  211MPD1    C1 3204   2.910   3.845  15.974 -0.5006  0.6715 -0.3759
  211MPD1    C2 3205   2.789   3.869  16.038 -0.2777 -0.1855 -0.0709
  211MPD1    C3 3206   2.667   3.833  15.983 -0.1540  0.0689 -0.5037
  211MPD1    C4 3207   2.667   3.776  15.860 -0.1274  0.2281  0.0353
  211MPD1    C5 3208   2.787   3.743  15.805 -0.1381  0.2253 -0.2449
  211MPD1     H 3209   2.804   3.904  16.139 -1.4861 -0.3266  0.1623
  211MPD1    H1 3210   2.572   3.738  15.824  0.4992 -3.5640  2.4203
  211MPD1    H2 3211   3.000   3.754  15.798 -0.3090  2.1323 -0.8048
  211MPD1    H3 3212   2.796   3.683  15.715  1.1613 -0.4679  0.3345
  211MPD1     N 3213   2.549   3.869  16.056 -0.2841  0.1970 -0.2604
  211MPD1    H5 3214   2.573   3.921  16.139 -0.7423 -1.8946  1.1996
  211MPD1    N1 3215   3.031   3.893  16.028  0.1786  0.2134  0.5776
  211MPD1    H6 3216   3.019   3.905  16.129  1.0332 -0.7926  0.7927
  211MPD1    H7 3217   3.117   3.846  16.003  0.9782  0.6447  2.4783
  212MPD1     C 3218   2.273   2.830  16.396 -0.5225 -0.1903  0.0580
  212MPD1    C1 3219   2.175   2.901  16.457 -0.3955 -0.4732  0.4125
  212MPD1    C2 3220   2.065   2.837  16.507 -0.4864  0.1073  0.0467
  212MPD1    C3 3221   2.043   2.708  16.464 -0.3937  1.1452 -0.6695
  212MPD1    C4 3222   2.130   2.640  16.381 -1.1059  0.4953  0.4383
  212MPD1    C5 3223   2.249   2.699  16.361 -0.5998 -0.7222 -0.0992
  212MPD1     H 3224   1.992   2.892  16.566 -0.0011 -0.0386  0.7849
  212MPD1    H1 3225   2.104   2.542  16.342 -2.7124  2.0629 -2.4430
  212MPD1    H2 3226   2.360   2.867  16.343 -1.6865 -0.2160 -1.8918
  212MPD1    H3 3227   2.322   2.640  16.306  0.2431 -0.5312  0.8136
  212MPD1     N 3228   1.939   2.627  16.506  0.6085 -0.4418 -0.1364
  212MPD1    H5 3229   1.931   2.532  16.472 -0.3216 -0.0147 -1.1040
  212MPD1    N1 3230   2.198   3.034  16.497  0.0756  0.4694  0.2205
  212MPD1    H6 3231   2.117   3.090  16.521 -0.1878  0.4821 -0.6856
  212MPD1    H7 3232   2.250   3.090  16.430 -0.7933 -0.0235 -0.8674
  213MPD1     C 3233   0.325   3.526  15.719  0.9823  0.0871  0.1220
  213MPD1    C1 3234   0.229   3.436  15.689  0.2276  0.0107  0.1995
  213MPD1    C2 3235   0.215   3.405  15.553  0.3737  0.1764 -0.7286
  213MPD1    C3 3236   0.261   3.498  15.460 -0.2179 -0.5475 -0.0713
  213MPD1    C4 3237   0.339   3.605  15.499  0.4737 -0.0714  0.3084
  213MPD1    C5 3238   0.371   3.620  15.629 -0.8914 -0.6671  0.0097
  213MPD1     H 3239   0.175   3.314  15.510  2.2336  0.6697 -3.4654
  213MPD1    H1 3240   0.389   3.675  15.433  1.3431 -2.7268 -1.8514
  213MPD1    H2 3241   0.344   3.548  15.824  5.1517  0.6375 -0.7703
  213MPD1    H3 3242   0.413   3.714  15.665  1.0250 -1.2451 -0.7024
  213MPD1     N 3243   0.266   3.455  15.322  0.1786  1.1213 -0.0956
  213MPD1    H5 3244   0.231   3.361  15.305 -0.4170  0.9689  1.9321
  213MPD1    N1 3245   0.197   3.340  15.781  0.7815 -0.5679 -0.2035
  213MPD1    H6 3246   0.112   3.291  15.753 -0.4378  1.9876 -1.0122
  213MPD1    H7 3247   0.184   3.378  15.875  1.8102 -1.2885  0.2232
  214MPD1     C 3248   4.634   2.748  14.998  0.3992  0.9590  0.5491
  214MPD1    C1 3249   4.645   2.823  14.881  0.6106 -0.7250 -0.0130
  214MPD1    C2 3250   0.010   2.936  14.885 -0.6351  0.1424  0.5579
  214MPD1    C3 3251   0.065   2.980  15.005  0.4130  0.0736  0.1015
  214MPD1    C4 3252   0.046   2.905  15.117 -0.9491  0.7195 -0.3077
  214MPD1    C5 3253   4.690   2.792  15.112  0.5222 -0.6952 -0.0134
  214MPD1     H 3254   0.034   2.989  14.794 -2.9732  0.1038 -0.0738
  214MPD1    H1 3255   0.099   2.920  15.210  0.7962 -1.5879 -0.9464
  214MPD1    H2 3256   4.574   2.658  15.004  0.5175  0.7862 -0.8322
  214MPD1    H3 3257   4.665   2.744  15.206  0.8587 -1.3278 -0.2519
  214MPD1     N 3258   0.150   3.087  15.012 -0.3251 -0.1525  0.0318
  214MPD1    H5 3259   0.174   3.120  15.105  0.8145 -0.0417 -0.3006
  214MPD1    N1 3260   4.576   2.786  14.762 -0.7747  0.8817 -0.9732
  214MPD1    H6 3261   4.486   2.750  14.791  0.6638 -0.3159  2.0359
  214MPD1    H7 3262   4.559   2.859  14.693 -3.9383  1.3975  0.3557
  215MPD1     C 3263   1.437   4.113  10.059 -0.2358  0.4946 -0.3287
  215MPD1    C1 3264   1.439   4.247  10.067 -0.0207  0.3690 -0.3365
  215MPD1    C2 3265   1.342   4.309  10.146 -1.2107 -0.3066  0.6366
  215MPD1    C3 3266   1.249   4.234  10.222  0.0766 -0.3227 -0.6398
  215MPD1    C4 3267   1.256   4.100  10.222  0.2842  0.5112 -0.0647
  215MPD1    C5 3268   1.351   4.040  10.141 -0.2724  0.1709  0.3814
  215MPD1     H 3269   1.340   4.417  10.150 -0.7099 -0.2459 -0.9066
  215MPD1    H1 3270   1.189   4.039  10.282  0.6153  0.5711  0.3707
  215MPD1    H2 3271   1.495   4.052   9.990  0.0007  0.2905  0.0514
  215MPD1    H3 3272   1.363   3.932  10.135  3.0021  0.4221  2.0137
  215MPD1     N 3273   1.157   4.311  10.300  0.0388 -0.5714  0.7287
  215MPD1    H5 3274   1.167   4.410  10.276  0.6602 -0.7996  0.0469
  215MPD1    N1 3275   1.522   4.331   9.997 -0.0655 -0.3210  0.2430
  215MPD1    H6 3276   1.540   4.419  10.043  0.8780 -1.6010  2.3242
  215MPD1    H7 3277   1.606   4.277   9.976 -0.2215 -0.0420 -1.0963
  216MPD1     C 3278   2.262   2.286  16.380 -0.6111 -0.3405 -0.0566
  216MPD1    C1 3279   2.166   2.197  16.337 -0.6926 -0.7277 -0.3704
  216MPD1    C2 3280   2.107   2.122  16.437 -0.2339 -0.5959  0.3263
  216MPD1    C3 3281   2.145   2.124  16.564  0.1003 -0.3216  0.5354
  216MPD1    C4 3282   2.246   2.206  16.611  0.2695 -0.1154  0.1463
  216MPD1    C5 3283   2.305   2.283  16.514 -0.1388  0.5651  0.3498
  216MPD1     H 3284   2.019   2.063  16.415  0.4569 -1.3710 -0.3374
  216MPD1    H1 3285   2.275   2.212  16.715  1.5634  1.1194 -0.2792
  216MPD1    H2 3286   2.311   2.351  16.309  0.1224 -2.0322 -1.1050
  216MPD1    H3 3287   2.377   2.358  16.546  0.2085  0.0991  0.6565
  216MPD1     N 3288   2.066   2.050  16.659 -0.9634 -0.4082  0.2655
  216MPD1    H5 3289   1.986   1.999  16.623  0.0935 -0.2556 -2.3350
  216MPD1    N1 3290   2.115   2.202  16.213  0.5493  0.1643 -0.2768
  216MPD1    H6 3291   2.058   2.121  16.189 -1.5593  1.5136  0.2260
  216MPD1    H7 3292   2.178   2.214  16.134  1.7850 -0.3922  0.6321
  217MPD1     C 3293   4.277   4.364   8.847  0.4229  0.0965 -0.0896
  217MPD1    C1 3294   4.209   4.389   8.963 -0.2830 -0.0910 -0.5557
  217MPD1    C2 3295   4.155   4.272   9.020 -0.2104 -0.0051  0.2968
  217MPD1    C3 3296   4.172   4.144   8.969 -0.2027  0.0614  0.3073
  217MPD1    C4 3297   4.237   4.135   8.851 -0.7373 -0.5625 -0.4407
  217MPD1    C5 3298   4.293   4.243   8.791 -0.6899  0.7214  0.1263
  217MPD1     H 3299   4.096   4.290   9.109  0.9420 -0.4334  1.1523
  217MPD1    H1 3300   4.257   4.039   8.805 -1.6361 -1.7548  1.6405
  217MPD1    H2 3301   4.322   4.447   8.792 -0.1873 -1.4031 -2.8552
  217MPD1    H3 3302   4.358   4.217   8.708  1.8997  0.6658  2.2064
  217MPD1     N 3303   4.109   4.028   9.018 -0.1831  0.0778  0.2206
  217MPD1    H5 3304   4.143   3.942   8.978 -1.3986  0.2384 -1.1462
  217MPD1    N1 3305   4.222   4.507   9.032 -0.0091  0.2189  0.3369
  217MPD1    H6 3306   4.213   4.579   8.961  0.5822  2.9110  3.0165
  217MPD1    H7 3307   4.141   4.514   9.093 -0.0885  0.3426  0.2164
  218MPD1     C 3308   4.683   4.695  12.463  0.2485 -0.1011 -0.3823
  218MPD1    C1 3309   0.052   4.595  12.466  0.2615  0.6950  0.3640
  218MPD1    C2 3310   0.177   4.635  12.423 -0.1306  0.4845 -0.3002
  218MPD1    C3 3311   0.199   0.027  12.350  0.4222 -0.1171 -0.2576
  218MPD1    C4 3312   0.095   0.104  12.317  0.8930  0.4288 -0.6426
  218MPD1    C5 3313   4.706   0.087  12.390 -0.3674 -0.4608 -0.7981
  218MPD1     H 3314   0.259   4.576  12.462 -1.9958 -1.9339 -0.0422
  218MPD1    H1 3315   0.097   0.183  12.243  0.2945  0.3052 -0.7865
  218MPD1    H2 3316   4.588   4.670  12.507  0.2982  1.3439  0.5424
  218MPD1    H3 3317   4.629   0.163  12.381  0.0816 -0.0454 -1.1351
  218MPD1     N 3318   0.335   0.044  12.305  0.2866  0.7703 -0.1224
  218MPD1    H5 3319   0.397   4.692  12.330  0.5663  1.4318  1.2173
  218MPD1    N1 3320   0.025   4.481  12.537 -0.2447 -0.8483  0.0345
  218MPD1    H6 3321   0.086   4.403  12.514  0.9315  0.3133 -0.7663
  218MPD1    H7 3322   4.652   4.454  12.551 -1.0147  1.3993 -1.0500
  219MPD1     C 3323   0.655   0.203  11.388 -0.4845 -0.0607 -0.0976
  219MPD1    C1 3324   0.769   0.221  11.462  0.0169  0.6238 -0.2445
  219MPD1    C2 3325   0.757   0.229  11.599 -0.0117  0.6427 -0.1400
  219MPD1    C3 3326   0.644   0.186  11.668  0.5726  0.1304 -0.1456
  219MPD1    C4 3327   0.534   0.168  11.587 -0.2254  0.1331  0.1568
  219MPD1    C5 3328   0.538   0.181  11.452 -0.3078  0.2899 -0.1433
  219MPD1     H 3329   0.845   0.260  11.655  0.2673  0.6890 -0.6101
  219MPD1    H1 3330   0.447   0.124  11.634  0.5024  0.4480  1.8161
  219MPD1    H2 3331   0.656   0.194  11.280  0.8304  1.1573 -0.1952
  219MPD1    H3 3332   0.452   0.158  11.391 -0.2241 -0.7400  0.1369
  219MPD1     N 3333   0.628   0.169  11.804 -0.1946 -0.0005 -0.7858
  219MPD1    H5 3334   0.537   0.137  11.836 -0.6166  1.6420 -0.3459
  219MPD1    N1 3335   0.885   0.271  11.411 -0.6977 -0.1854  0.3008
  219MPD1    H6 3336   0.910   0.232  11.320  0.1697  0.0836  0.4234
  219MPD1    H7 3337   0.964   0.255  11.473  1.1804  0.0869 -2.0093
  220MPD1     C 3338   0.586   3.748   9.889  0.1239  0.0039  0.4488
  220MPD1    C1 3339   0.663   3.837   9.815 -0.2036 -0.0581 -0.1178
  220MPD1    C2 3340   0.609   3.964   9.783 -0.0641 -0.3557  0.0181
  220MPD1    C3 3341   0.473   3.989   9.806  0.0881 -0.2737 -0.0021
  220MPD1    C4 3342   0.398   3.896   9.883  0.7414  0.3639 -0.1300
  220MPD1    C5 3343   0.456   3.784   9.917 -0.3411 -0.3262 -0.6152
  220MPD1     H 3344   0.665   4.045   9.738  0.9210  0.5537  2.8790
  220MPD1    H1 3345   0.295   3.920   9.907  0.7131 -0.7484  0.8481
  220MPD1    H2 3346   0.618   3.657   9.937 -0.4231  0.0426  0.8956
  220MPD1    H3 3347   0.403   3.710   9.975 -0.0479  0.3396  0.5193
  220MPD1     N 3348   0.424   4.117   9.764  0.5837 -0.5157 -0.0985
  220MPD1    H5 3349   0.502   4.167   9.723 -1.0103  2.3604  0.4025
  220MPD1    N1 3350   0.798   3.807   9.798 -1.0620  0.6392 -0.2872
  220MPD1    H6 3351   0.803   3.706   9.792  4.3218  0.8377  0.7878
  220MPD1    H7 3352   0.833   3.842   9.709  0.5479 -0.3443 -0.0198
  221MPD1     C 3353   2.255   3.725  16.454  0.2540 -0.5220 -0.0834
  221MPD1    C1 3354   2.366   3.789  16.502  0.5055  0.0030 -0.0646
  221MPD1    C2 3355   2.490   3.761  16.456 -0.4488  0.4162  0.2493
  221MPD1    C3 3356   2.520   3.673  16.358 -0.7074 -0.0043 -0.2153
  221MPD1    C4 3357   2.404   3.622  16.300  0.2346  1.0267 -0.2897
  221MPD1    C5 3358   2.279   3.646  16.343  0.5879  0.8568 -0.0104
  221MPD1     H 3359   2.571   3.813  16.505 -0.5041  0.2341  0.5340
  221MPD1    H1 3360   2.415   3.538  16.232  0.7943 -0.8406  2.0999
  221MPD1    H2 3361   2.153   3.746  16.485  0.7249 -2.1818  2.5894
  221MPD1    H3 3362   2.187   3.603  16.306  0.1880  0.5534  1.3509
  221MPD1     N 3363   2.645   3.625  16.324  0.0581 -0.3445  0.6907
  221MPD1    H5 3364   2.646   3.550  16.257  1.5767  0.2815  0.0144
  221MPD1    N1 3365   2.353   3.885  16.608 -0.5171  0.0607  0.2317
  221MPD1    H6 3366   2.265   3.937  16.599 -1.3544 -1.2943  0.5855
  221MPD1    H7 3367   2.437   3.936  16.635  0.0444 -2.0740  2.4515
  222MPD1     C 3368   1.732   1.584   0.092  0.0229 -0.7894  0.3848
  222MPD1    C1 3369   1.691   1.613   0.219 -0.0963 -0.2369 -0.4747
  222MPD1    C2 3370   1.679   1.744   0.255 -0.0728 -0.1120 -0.1976
  222MPD1    C3 3371   1.669   1.844   0.155 -0.7968  0.1931 -0.2585
  222MPD1    C4 3372   1.685   1.806   0.029  0.2157  0.3061 -0.1158
  222MPD1    C5 3373   1.718   1.675  17.692 -0.0059 -0.1901 -0.5680
  222MPD1     H 3374   1.666   1.778   0.357 -0.5504  0.0026 -0.2998
  222MPD1    H1 3375   1.668   1.872  17.643  1.6492 -0.7083 -1.1886
  222MPD1    H2 3376   1.763   1.486   0.058  2.3333  0.3654 -0.8296
  222MPD1    H3 3377   1.721   1.640  17.589  2.5065  0.8980 -0.8726
  222MPD1     N 3378   1.639   1.980   0.174  0.0374  0.1982  0.5030
  222MPD1    H5 3379   1.637   2.036   0.089  2.1152 -1.9783 -0.9699
  222MPD1    N1 3380   1.713   1.512   0.312 -0.1503 -0.0236  0.0676
  222MPD1    H6 3381   1.645   1.515   0.389 -0.8967  0.8433 -0.6297
  222MPD1    H7 3382   1.708   1.418   0.274  1.0269 -0.5013  1.0735
  223MPD1     C 3383   1.840   2.707   0.944 -0.5202 -0.3703 -0.2765
  223MPD1    C1 3384   1.919   2.715   0.832 -0.1846  0.0132 -0.6552
  223MPD1    C2 3385   1.867   2.656   0.716 -0.4366 -0.2177  0.3043
  223MPD1    C3 3386   1.751   2.583   0.724 -0.8620  0.2293  0.3202
  223MPD1    C4 3387   1.671   2.578   0.835 -0.1613 -0.4308 -0.0849
  223MPD1    C5 3388   1.722   2.641   0.946 -0.7687 -0.4497 -0.0614
  223MPD1     H 3389   1.927   2.654   0.626 -0.5706  0.8080  0.1988
  223MPD1    H1 3390   1.582   2.519   0.854 -0.4508  0.5438  1.5537
  223MPD1    H2 3391   1.868   2.748   1.041  0.3168 -0.3569 -0.5283
  223MPD1    H3 3392   1.663   2.650   1.036 -0.8610 -1.5157 -0.0223
  223MPD1     N 3393   1.727   2.511   0.604  0.0650  0.6017 -0.1445
  223MPD1    H5 3394   1.774   2.546   0.521  3.3714  1.2151  1.9669
  223MPD1    N1 3395   2.046   2.774   0.832 -0.5378 -0.3314 -0.6518
  223MPD1    H6 3396   2.087   2.784   0.740 -0.1354 -0.3058 -0.4676
  223MPD1    H7 3397   2.113   2.717   0.883  0.8254  0.3778 -1.6562
  224MPD1     C 3398   3.673   4.275  10.640  0.4902 -0.1009 -0.2908
  224MPD1    C1 3399   3.716   4.162  10.707 -0.4737 -0.4061  0.4159
  224MPD1    C2 3400   3.790   4.067  10.633 -0.2889 -0.4379  0.8614
  224MPD1    C3 3401   3.805   4.087  10.495  0.0212 -0.0715  0.4107
  224MPD1    C4 3402   3.765   4.203  10.433 -0.0252  0.5847  1.0283
  224MPD1    C5 3403   3.686   4.290  10.502 -0.0945  0.0868 -0.8251
  224MPD1     H 3404   3.826   3.975  10.679 -1.1191 -0.3645  1.6642
  224MPD1    H1 3405   3.785   4.223  10.328 -0.5452 -0.3853  0.7332
  224MPD1    H2 3406   3.622   4.352  10.696  1.8228  1.3272 -1.0640
  224MPD1    H3 3407   3.649   4.374  10.445  1.6028  2.4943  1.5876
  224MPD1     N 3408   3.866   3.996  10.409 -0.1897 -0.0971  0.9740
  224MPD1    H5 3409   3.885   4.032  10.316 -0.9183  0.7491  1.1459
  224MPD1    N1 3410   3.701   4.154  10.844 -0.1910  0.0413  0.5411
  224MPD1    H6 3411   3.625   4.212  10.879 -2.2013 -1.7815 -0.7891
  224MPD1    H7 3412   3.687   4.058  10.876 -0.0539 -0.5159 -1.0618
  225MPD1     C 3413   0.443   0.894  12.312 -0.4080  0.0022  0.3858
  225MPD1    C1 3414   0.420   0.765  12.279  0.0302  0.3375  0.3611
  225MPD1    C2 3415   0.290   0.741  12.237 -0.4386  0.2203 -0.0623
  225MPD1    C3 3416   0.184   0.830  12.270 -0.0780 -0.4467  0.1876
  225MPD1    C4 3417   0.215   0.951  12.318  0.1999  0.2534  0.1765
  225MPD1    C5 3418   0.343   0.986  12.329  0.4730  0.1729  0.0880
  225MPD1     H 3419   0.263   0.642  12.201  0.5612 -0.1132  0.1032
  225MPD1    H1 3420   0.137   1.024  12.336 -0.2971 -0.9443  2.9359
  225MPD1    H2 3421   0.548   0.918  12.319 -0.1548 -0.6306 -1.4445
  225MPD1    H3 3422   0.374   1.088  12.351 -0.3451  0.6761 -1.0943
  225MPD1     N 3423   0.048   0.806  12.242 -0.0339  0.1351 -0.7626
  225MPD1    H5 3424   4.706   0.883  12.247 -0.1849  0.1379 -3.0069
  225MPD1    N1 3425   0.528   0.675  12.260  0.2625 -0.1554  0.6759
  225MPD1    H6 3426   0.488   0.592  12.302 -0.9040 -0.1506 -0.4163
  225MPD1    H7 3427   0.612   0.689  12.316 -0.3421  0.8462  1.3253
  226MPD1     C 3428   3.393   0.806   8.008  0.1507 -0.0222  0.0161
  226MPD1    C1 3429   3.510   0.862   8.065 -0.6107  0.0872  0.7172
  226MPD1    C2 3430   3.516   0.880   8.204 -0.3578  0.7520 -0.0980
  226MPD1    C3 3431   3.402   0.854   8.278  0.0090 -0.6439 -0.2478
  226MPD1    C4 3432   3.290   0.803   8.221  0.2298  0.1001  0.1470
  226MPD1    C5 3433   3.294   0.775   8.089  0.1596  0.0194  0.0523
  226MPD1     H 3434   3.605   0.918   8.253  0.7534  0.1136 -1.6424
  226MPD1    H1 3435   3.202   0.773   8.276 -1.4480  2.6638 -1.1262
  226MPD1    H2 3436   3.389   0.768   7.906 -1.9487 -1.8724  0.7729
  226MPD1    H3 3437   3.213   0.727   8.034  0.3726  1.6256 -1.6466
  226MPD1     N 3438   3.407   0.895   8.415 -0.1180 -0.7220 -0.2563
  226MPD1    H5 3439   3.500   0.915   8.448  0.4447 -1.1825 -1.5556
  226MPD1    N1 3440   3.624   0.891   7.987 -0.1729 -0.1279  0.1393
  226MPD1    H6 3441   3.687   0.954   8.036 -0.9295  0.6441  0.1140
  226MPD1    H7 3442   3.598   0.938   7.901  0.7551 -2.6353 -1.5178
  227MPD1     C 3443   3.902   1.394   9.118  0.1237  0.3526  0.1405
  227MPD1    C1 3444   3.867   1.284   9.185  0.4152 -0.4891 -0.2515
  227MPD1    C2 3445   3.793   1.193   9.126  0.2082  0.3683 -0.0807
  227MPD1    C3 3446   3.736   1.216   9.000  0.5372 -0.9728 -0.2972
  227MPD1    C4 3447   3.768   1.332   8.930 -0.3472  0.0513 -0.2195
  227MPD1    C5 3448   3.862   1.420   8.993 -0.5703  0.2211  0.3990
  227MPD1     H 3449   3.753   1.110   9.183  0.4668  1.1155  1.1928
  227MPD1    H1 3450   3.728   1.355   8.833  0.5182 -1.0745 -0.8450
  227MPD1    H2 3451   3.957   1.468   9.175  0.8695  0.1801 -0.3634
  227MPD1    H3 3452   3.892   1.509   8.940 -1.2418  0.0785 -0.2174
  227MPD1     N 3453   3.652   1.115   8.942 -0.2070 -0.1050  0.2934
  227MPD1    H5 3454   3.637   1.038   9.006  0.1352  0.3757  0.9527
  227MPD1    N1 3455   3.920   1.271   9.313  0.0575  0.6344 -0.6264
  227MPD1    H6 3456   3.926   1.356   9.370 -1.8843  1.8350 -2.2201
  227MPD1    H7 3457   3.871   1.209   9.376 -1.0684  0.1968 -1.9485
  228MPD1     C 3458   1.596   3.100  12.556  0.0136  0.6808 -0.0615
  228MPD1    C1 3459   1.601   3.021  12.668  0.2944  0.3462  0.2494
  228MPD1    C2 3460   1.493   3.019  12.748  0.0443  0.2925 -0.4034
  228MPD1    C3 3461   1.380   3.087  12.718  0.1506  0.6925  0.2824
  228MPD1    C4 3462   1.372   3.157  12.601  0.2338  0.2641  0.0275
  228MPD1    C5 3463   1.481   3.165  12.517  0.3538 -0.1207 -0.2169
  228MPD1     H 3464   1.504   2.950  12.830  1.0294 -0.0883 -0.8561
  228MPD1    H1 3465   1.296   3.229  12.572  0.2185  0.4868  0.6035
  228MPD1    H2 3466   1.678   3.109  12.486 -0.1634  2.9659  0.0212
  228MPD1    H3 3467   1.486   3.224  12.427 -1.2736 -0.4545 -0.5157
  228MPD1     N 3468   1.267   3.073  12.801 -0.3191 -0.2700 -0.3269
  228MPD1    H5 3469   1.265   2.990  12.859 -0.2186  0.4090  0.6523
  228MPD1    N1 3470   1.713   2.945  12.696  0.2057  0.4541  0.2941
  228MPD1    H6 3471   1.798   2.952  12.640  0.4158 -2.5792  0.1965
  228MPD1    H7 3472   1.743   2.962  12.792 -1.5449  0.0521  0.9178
  229MPD1     C 3473   0.929   1.434  16.071  0.1835 -1.0704 -0.1505
  229MPD1    C1 3474   0.964   1.489  15.948  0.1889  0.0596  0.7217
  229MPD1    C2 3475   1.012   1.401  15.854  0.1821 -0.5563 -0.1179
  229MPD1    C3 3476   1.035   1.265  15.880 -0.2111  0.2001 -0.1094
  229MPD1    C4 3477   1.003   1.220  16.007  0.0564 -0.1787 -0.5495
  229MPD1    C5 3478   0.942   1.302  16.097  0.3939 -0.3395 -0.2255
  229MPD1     H 3479   1.037   1.445  15.758  2.1900 -0.1600  0.5787
  229MPD1    H1 3480   1.013   1.117  16.040  0.0204 -0.9925 -3.1337
  229MPD1    H2 3481   0.873   1.491  16.144  0.1073 -0.4649 -0.6795
  229MPD1    H3 3482   0.907   1.259  16.190 -0.0316 -2.7229 -1.4982
  229MPD1     N 3483   1.086   1.163  15.791  0.2405  0.0965 -0.0388
  229MPD1    H5 3484   1.098   1.074  15.839 -2.7560  0.4379  1.3343
  229MPD1    N1 3485   0.928   1.618  15.911  0.0117 -0.6195  0.5083
  229MPD1    H6 3486   0.937   1.684  15.988 -1.0630  1.4290 -1.1078
  229MPD1    H7 3487   0.986   1.651  15.833 -1.3642  0.2861 -0.1272
  230MPD1     C 3488   1.782   0.437  15.729 -0.6254  0.6687  0.8816
  230MPD1    C1 3489   1.770   0.465  15.592  0.7226 -0.1693 -0.9723
  230MPD1    C2 3490   1.672   0.548  15.553 -0.8510  0.3712  0.3073
  230MPD1    C3 3491   1.599   0.628  15.646  0.6207 -0.0916 -0.0397
  230MPD1    C4 3492   1.610   0.595  15.777  0.4760 -0.2871  0.0155
  230MPD1    C5 3493   1.704   0.510  15.821 -0.5662 -0.2301  0.3799
  230MPD1     H 3494   1.651   0.574  15.450 -1.2531 -1.4525 -0.0586
  230MPD1    H1 3495   1.546   0.636  15.855 -0.0084  1.6607 -1.4019
  230MPD1    H2 3496   1.847   0.354  15.755 -1.0583 -0.6949 -2.2809
  230MPD1    H3 3497   1.717   0.492  15.927  1.3932 -2.3239 -0.2108
  230MPD1     N 3498   1.502   0.716  15.595  0.5078  0.2067 -0.0162
  230MPD1    H5 3499   1.501   0.717  15.494 -1.9392  0.4303  0.0030
  230MPD1    N1 3500   1.834   0.391  15.497 -0.0854 -0.6765 -0.1790
  230MPD1    H6 3501   1.822   0.435  15.406  2.8451 -2.9503 -1.6477
  230MPD1    H7 3502   1.934   0.389  15.514  0.0642  0.6411 -0.8684
  231MPD1     C 3503   4.613   3.340  15.226 -0.3646  0.0133  0.2611
  231MPD1    C1 3504   4.610   3.288  15.095  0.3130 -0.0029  0.2699
  231MPD1    C2 3505   4.636   3.373  14.986  0.7898  0.4222  0.2931
  231MPD1    C3 3506   4.686   3.502  15.007  0.7359  0.9259 -0.5832
  231MPD1    C4 3507   4.700   3.543  15.141  0.5050  0.0958 -0.7444
  231MPD1    C5 3508   4.671   3.461  15.248 -0.1661 -0.3450  0.4753
  231MPD1     H 3509   4.618   3.341  14.884  0.8854  0.1505  0.3628
  231MPD1    H1 3510   0.011   3.642  15.168  2.6021 -0.6223 -0.8835
  231MPD1    H2 3511   4.580   3.281  15.311  3.0348  3.1407  3.7809
  231MPD1    H3 3512   4.676   3.504  15.348 -0.3358  0.7438  0.0219
  231MPD1     N 3513   0.004   3.576  14.893  0.2592 -0.0879 -0.7663
  231MPD1    H5 3514   4.709   3.551  14.797 -2.1365 -1.3750  0.0716
  231MPD1    N1 3515   4.557   3.166  15.078  0.2943  1.3959 -0.4187
  231MPD1    H6 3516   4.607   3.108  15.010 -0.2694  0.0132  0.3483
  231MPD1    H7 3517   4.567   3.105  15.158  2.5773  0.4503 -1.4021
  232MPD1     C 3518   1.420   0.728  17.237  0.2600 -0.2416 -0.3915
  232MPD1    C1 3519   1.436   0.737  17.376 -0.4940  0.3398 -0.5100
  232MPD1    C2 3520   1.320   0.770  17.446  0.0345 -0.1112 -0.5804
  232MPD1    C3 3521   1.204   0.820  17.388  0.2583  0.6661  0.2928
  232MPD1    C4 3522   1.204   0.827  17.250 -0.3889  0.6794  0.3361
  232MPD1    C5 3523   1.308   0.774  17.178 -0.0205 -0.3573  0.0716
  232MPD1     H 3524   1.319   0.761  17.554  0.8773 -0.3168 -0.5943
  232MPD1    H1 3525   1.114   0.863  17.202 -1.1089  1.6554  2.4305
  232MPD1    H2 3526   1.488   0.684  17.164  0.9653  1.4980 -0.7805
  232MPD1    H3 3527   1.305   0.771  17.070 -0.4167  0.8333  0.0501
  232MPD1     N 3528   1.089   0.850  17.466  0.3944 -0.1263  0.1574
  232MPD1    H5 3529   1.102   0.850  17.566  2.2233  1.8810 -0.0708
  232MPD1    N1 3530   1.538   0.665  17.437  0.0213 -0.1335  0.1305
  232MPD1    H6 3531   1.627   0.655  17.387 -0.5943 -1.8435 -0.6045
  232MPD1    H7 3532   1.554   0.694  17.534 -2.4768  2.1844 -0.1382
  233MPD1     C 3533   2.418   0.196   1.700 -0.3223 -0.9988 -0.1406
  233MPD1    C1 3534   2.313   0.109   1.695  0.6149  0.5138 -0.4704
  233MPD1    C2 3535   2.336   4.697   1.663 -0.6072  0.0712 -0.0911
  233MPD1    C3 3536   2.466   4.656   1.630  0.5025  0.7895  0.0587
  233MPD1    C4 3537   2.568   0.022   1.650  0.1001  0.3577 -0.0107
  233MPD1    C5 3538   2.546   0.151   1.690  0.2828  0.3400  0.3919
  233MPD1     H 3539   2.259   4.621   1.663  1.3212 -1.8624 -1.9048
  233MPD1    H1 3540   2.669   4.711   1.633 -0.5534 -1.3321 -0.4695
  233MPD1    H2 3541   2.403   0.303   1.715  1.7893 -0.5698 -1.1053
  233MPD1    H3 3542   2.633   0.212   1.709  0.2489 -0.0004  1.6907
  233MPD1     N 3543   2.503   4.528   1.574 -0.2184 -0.1702 -0.3395
  233MPD1    H5 3544   2.602   4.518   1.553 -0.9236 -0.1728 -3.6117
  233MPD1    N1 3545   2.182   0.164   1.698  0.2107 -0.5602 -0.1870
  233MPD1    H6 3546   2.111   0.096   1.725 -1.5511  1.5282  0.4512
  233MPD1    H7 3547   2.176   0.246   1.757 -0.0181 -0.4840 -0.3134
  234MPD1     C 3548   4.174   2.169   9.563  0.3580 -0.7507 -0.5304
  234MPD1    C1 3549   4.203   2.231   9.683  0.2020  0.4018 -0.1003
  234MPD1    C2 3550   4.239   2.367   9.681 -0.0883  0.0888  0.0500
  234MPD1    C3 3551   4.240   2.438   9.566 -0.3039  0.2925 -0.3950
  234MPD1    C4 3552   4.214   2.375   9.444  0.7384 -0.3325 -0.1606
  234MPD1    C5 3553   4.184   2.236   9.448 -0.2186  0.1403 -0.3803
  234MPD1     H 3554   4.255   2.423   9.772 -1.5130  0.3799  0.1175
  234MPD1    H1 3555   4.217   2.424   9.348 -1.4451  0.4155  0.1579
  234MPD1    H2 3556   4.152   2.063   9.566  0.4023 -0.7101  1.4012
  234MPD1    H3 3557   4.164   2.191   9.351  0.6586 -0.0136 -0.4882
  234MPD1     N 3558   4.264   2.576   9.565 -0.5286 -0.1792 -0.1631
  234MPD1    H5 3559   4.277   2.610   9.660 -1.6113  0.2691 -0.1681
  234MPD1    N1 3560   4.203   2.159   9.808  0.3265 -0.5372  0.6697
  234MPD1    H6 3561   4.153   2.071   9.803 -1.1776  0.2458  1.7382
  234MPD1    H7 3562   4.144   2.215   9.870  0.4363  0.8263 -0.4609
  235MPD1     C 3563   4.608   1.476   8.853  0.1698 -0.1464 -0.5885
  235MPD1    C1 3564   0.008   1.459   8.923 -0.2259 -0.7219 -0.0869
  235MPD1    C2 3565   0.075   1.575   8.958  0.6997  0.3064  0.3665
  235MPD1    C3 3566   0.051   1.696   8.900 -0.7255 -0.4333  0.2156
  235MPD1    C4 3567   4.676   1.702   8.806  0.3956  0.5937 -0.1324
  235MPD1    C5 3568   4.580   1.600   8.800 -0.2526 -0.1212  0.5313
  235MPD1     H 3569   0.157   1.565   9.029  2.3336  0.4987 -1.4823
  235MPD1    H1 3570   4.645   1.792   8.753  2.3548  0.8086 -0.9269
  235MPD1    H2 3571   4.532   1.401   8.831  1.1371 -1.5038  0.6830
  235MPD1    H3 3572   4.498   1.613   8.731  0.4691 -1.2062 -0.5480
  235MPD1     N 3573   0.126   1.809   8.955 -0.4078 -0.1627  0.1857
  235MPD1    H5 3574   0.192   1.791   9.030  1.4382  1.7767 -0.9411
  235MPD1    N1 3575   0.033   1.341   8.994 -0.5865 -0.4024  0.0366
  235MPD1    H6 3576   4.722   1.254   8.957  1.5721 -0.6678 -1.4194
  235MPD1    H7 3577   0.132   1.338   9.018 -0.1785  0.7665 -1.5741
  236MPD1     C 3578   4.388   2.291   9.149  0.4122  0.9067  0.3627
  236MPD1    C1 3579   4.425   2.417   9.187 -0.2590 -0.7389  0.0024
  236MPD1    C2 3580   4.514   2.435   9.293 -0.3273  0.9274  0.2808
  236MPD1    C3 3581   4.542   2.330   9.374  0.2412  0.6027  0.3835
  236MPD1    C4 3582   4.493   2.204   9.347  0.2494  0.1807 -0.7714
  236MPD1    C5 3583   4.412   2.188   9.234  0.1315  0.3570  0.1704
  236MPD1     H 3584   4.563   2.528   9.322  0.2078  0.1937  1.7286
  236MPD1    H1 3585   4.502   2.113   9.406 -0.1276 -2.4361 -4.7606
  236MPD1    H2 3586   4.330   2.278   9.059  1.2710  1.1453 -0.2272
  236MPD1    H3 3587   4.374   2.088   9.212 -1.1950  0.7838  0.5556
  236MPD1     N 3588   4.624   2.330   9.482 -0.1920 -0.2426  0.3921
  236MPD1    H5 3589   4.618   2.243   9.534  1.1744 -1.3975 -1.4124
  236MPD1    N1 3590   4.414   2.517   9.081 -0.2340  0.0889 -0.1980
  236MPD1    H6 3591   4.424   2.612   9.115  1.1567 -0.9199  2.2644
  236MPD1    H7 3592   4.327   2.492   9.036 -1.0904  1.3381  0.7549
  237MPD1     C 3593   4.282   0.389  15.576  0.7540 -0.2598 -0.3093
  237MPD1    C1 3594   4.273   0.267  15.645 -0.4985  0.1013 -0.7832
  237MPD1    C2 3595   4.244   0.151  15.571  0.1333  0.3111  1.0654
  237MPD1    C3 3596   4.223   0.154  15.436  0.5913 -0.4935  0.0099
  237MPD1    C4 3597   4.249   0.271  15.369  0.0561  0.3521  0.6448
  237MPD1    C5 3598   4.274   0.385  15.440  0.6439 -0.4270  0.5700
  237MPD1     H 3599   4.232   0.060  15.629 -1.4392  0.3785  0.8520
  237MPD1    H1 3600   4.245   0.272  15.260  0.6998 -1.0724  0.6053
  237MPD1    H2 3601   4.302   0.485  15.624  2.7107 -0.1512 -1.3401
  237MPD1    H3 3602   4.294   0.474  15.382 -1.7327  1.4476  2.6564
  237MPD1     N 3603   4.183   0.040  15.358 -0.5077 -0.4936 -0.0523
  237MPD1    H5 3604   4.142   0.065  15.269 -5.0631 -3.0282  1.3318
  237MPD1    N1 3605   4.269   0.278  15.789 -0.0821  0.2517 -0.0782
  237MPD1    H6 3606   4.284   0.190  15.838 -1.4421  1.4498  2.4576
  237MPD1    H7 3607   4.324   0.348  15.838 -1.0134  0.9972 -0.0855
  238MPD1     C 3608   1.268   3.519  15.575  0.5728 -0.1676 -0.7183
  238MPD1    C1 3609   1.359   3.537  15.468 -0.6110  0.0448 -0.2651
  238MPD1    C2 3610   1.310   3.555  15.341  0.5973  0.4271  0.0946
  238MPD1    C3 3611   1.174   3.579  15.324  0.2198  0.2657 -0.2435
  238MPD1    C4 3612   1.091   3.579  15.433  0.3576  0.0664  0.0505
  238MPD1    C5 3613   1.136   3.549  15.553 -0.3033  0.1559  0.8275
  238MPD1     H 3614   1.382   3.558  15.260  1.5713 -3.2069  0.7991
  238MPD1    H1 3615   0.984   3.584  15.418  0.1259  0.7221  2.0100
  238MPD1    H2 3616   1.306   3.506  15.675 -0.8928  2.6174  0.2110
  238MPD1    H3 3617   1.069   3.550  15.639  0.7692  0.4522  1.6569
  238MPD1     N 3618   1.112   3.591  15.199  0.1804  0.3392  0.5253
  238MPD1    H5 3619   1.012   3.608  15.189 -0.2251 -1.4489  1.5742
  238MPD1    N1 3620   1.500   3.537  15.491  0.3894  0.4877  0.4354
  238MPD1    H6 3621   1.523   3.613  15.554 -0.0798  0.1168  1.0549
  238MPD1    H7 3622   1.554   3.567  15.411  0.0184  0.9312  0.3531
  239MPD1     C 3623   1.721   4.579  14.854 -0.5301 -0.9692  0.2947
  239MPD1    C1 3624   1.796   4.570  14.741 -0.3513  0.0428  0.1103
  239MPD1    C2 3625   1.745   4.635  14.629 -0.4511 -0.2077  0.1728
  239MPD1    C3 3626   1.636   4.708  14.641  0.3932 -0.1102  0.6317
  239MPD1    C4 3627   1.559   4.710  14.756 -0.5709 -0.0443 -0.2962
  239MPD1    C5 3628   1.611   4.658  14.870 -0.0365 -0.0937 -0.0227
  239MPD1     H 3629   1.802   4.624  14.537 -2.0775 -2.0964 -0.6320
  239MPD1    H1 3630   1.462   0.034  14.768 -0.1506  0.4945  0.9818
  239MPD1    H2 3631   1.745   4.511  14.935  0.9078  0.9066  1.4314
  239MPD1    H3 3632   1.556   4.668  14.963 -0.3699 -0.3860 -0.1902
  239MPD1     N 3633   1.575   0.043  14.526  0.1626  0.7058  0.5039
  239MPD1    H5 3634   1.475   0.056  14.518  0.0206 -0.5215  0.3204
  239MPD1    N1 3635   1.898   4.478  14.737  0.4690 -0.2693  0.2209
  239MPD1    H6 3636   1.971   4.512  14.675  2.1910 -1.0067  1.8400
  239MPD1    H7 3637   1.944   4.466  14.827 -0.0610  0.4579  0.5850
  240MPD1     C 3638   1.593   4.084  14.029 -0.2060  0.2738  0.1397
  240MPD1    C1 3639   1.472   4.057  13.960 -0.1478 -0.2236  0.1754
  240MPD1    C2 3640   1.355   4.061  14.038 -0.6320  0.5214  0.3683
  240MPD1    C3 3641   1.362   4.060  14.175  0.6392  0.7180  0.3165
  240MPD1    C4 3642   1.478   4.073  14.240  0.6539 -0.0869  0.0892
  240MPD1    C5 3643   1.591   4.089  14.171  0.2541  0.0651  0.2709
  240MPD1     H 3644   1.257   4.050  13.992  0.2501 -1.1405 -1.1274
  240MPD1    H1 3645   1.487   4.084  14.348 -0.2743 -2.4822  0.4024
  240MPD1    H2 3646   1.686   4.093  13.974  0.6913  1.7405  1.9247
  240MPD1    H3 3647   1.686   4.111  14.220  0.5071  0.2320 -0.2891
  240MPD1     N 3648   1.240   4.038  14.252 -0.3838  0.2021 -0.4595
  240MPD1    H5 3649   1.154   4.038  14.198  0.8413  0.2935 -2.3834
  240MPD1    N1 3650   1.487   4.070  13.822 -0.0585  0.2530  0.3016
  240MPD1    H6 3651   1.565   4.012  13.792 -0.6007  0.5716 -1.6901
  240MPD1    H7 3652   1.398   4.041  13.781  0.6277 -1.6227  0.1605
  241MPD1     C 3653   0.725   4.319  15.045  0.4467 -0.0941 -0.0190
  241MPD1    C1 3654   0.714   4.181  15.052  0.2877  0.5174 -0.5593
  241MPD1    C2 3655   0.754   4.100  14.950 -0.0628  0.6660 -0.2859
  241MPD1    C3 3656   0.846   4.151  14.860 -0.7880  0.5344 -0.7912
  241MPD1    C4 3657   0.866   4.288  14.859  0.0191  0.3191  0.1390
  241MPD1    C5 3658   0.810   4.372  14.954  0.2482  0.4578 -0.3366
  241MPD1     H 3659   0.728   3.995  14.954  1.2980  0.3063 -0.6448
  241MPD1    H1 3660   0.934   4.327  14.785  1.9655 -0.9755  1.2361
  241MPD1    H2 3661   0.676   4.390  15.110 -1.1879 -0.3650 -0.9323
  241MPD1    H3 3662   0.816   4.480  14.946  1.2254  0.3231 -1.3779
  241MPD1     N 3663   0.913   4.067  14.763 -0.3148 -0.0797  0.1062
  241MPD1    H5 3664   0.951   4.117  14.683 -1.2067  0.8801  0.2796
  241MPD1    N1 3665   0.626   4.129  15.142 -0.2972  0.2431 -0.1260
  241MPD1    H6 3666   0.641   4.031  15.164  2.2890  0.8223  0.7219
  241MPD1    H7 3667   0.610   4.181  15.228  1.3609  1.1807 -0.3742
  242MPD1     C 3668   0.783   2.374  14.606 -0.3647  0.2116  0.8738
  242MPD1    C1 3669   0.847   2.340  14.721  1.2277  0.0033 -1.0000
  242MPD1    C2 3670   0.980   2.326  14.718  0.0053  0.4072 -0.0929
  242MPD1    C3 3671   1.054   2.320  14.602  0.0026  0.7379 -0.1035
  242MPD1    C4 3672   0.992   2.350  14.489 -0.3868 -0.2851  0.2892
  242MPD1    C5 3673   0.857   2.380  14.490  0.3241 -0.5890  0.2795
  242MPD1     H 3674   1.028   2.305  14.813  1.7442  0.6852 -0.9103
  242MPD1    H1 3675   1.048   2.359  14.396 -0.3163  1.1953  0.4788
  242MPD1    H2 3676   0.678   2.398  14.600 -0.2467  1.0275  1.9842
  242MPD1    H3 3677   0.813   2.409  14.395 -1.4704 -1.3737  0.8834
  242MPD1     N 3678   1.196   2.296  14.595 -0.3401  0.3695  0.6291
  242MPD1    H5 3679   1.236   2.320  14.506  1.9137 -2.2589  0.9383
  242MPD1    N1 3680   0.775   2.325  14.840 -0.2937  0.4143 -0.1187
  242MPD1    H6 3681   0.796   2.240  14.892 -0.1233 -0.2262 -1.2307
  242MPD1    H7 3682   0.676   2.343  14.821  0.2796  5.0516  1.2946
  243MPD1     C 3683   2.688   1.403  17.666  0.7890 -0.3904 -0.0416
  243MPD1    C1 3684   2.571   1.332  17.654  0.2767  0.5725 -0.7918
  243MPD1    C2 3685   2.474   1.366  17.554 -0.1535 -0.0101  0.7396
  243MPD1    C3 3686   2.496   1.471  17.462  0.1098 -0.1690  0.4692
  243MPD1    C4 3687   2.619   1.530  17.472  0.6243 -0.0105 -0.3774
  243MPD1    C5 3688   2.712   1.500  17.573 -0.0009 -0.2658 -0.3729
  243MPD1     H 3689   2.396   1.295  17.532 -1.0633  1.0457  0.5548
  243MPD1    H1 3690   2.648   1.599  17.394 -0.7951  1.8976  0.7615
  243MPD1    H2 3691   2.760   1.386   0.047 -1.3224 -1.6726  1.5655
  243MPD1    H3 3692   2.809   1.549  17.568  0.5520 -1.5208 -1.8530
  243MPD1     N 3693   2.393   1.501  17.370  0.5725 -0.1608  0.7963
  243MPD1    H5 3694   2.309   1.447  17.390 -0.8446  1.5935 -0.4788
  243MPD1    N1 3695   2.560   1.223   0.044  0.1844 -0.5064 -0.7733
  243MPD1    H6 3696   2.468   1.180   0.057  1.0572 -2.0995  0.0598
  243MPD1    H7 3697   2.603   1.236   0.135  1.0982 -2.5412 -0.9245
  244MPD1     C 3698   1.588   1.372  17.540  0.6329 -0.4187  0.3811
  244MPD1    C1 3699   1.705   1.299  17.565  0.2739 -0.2789  0.5532
  244MPD1    C2 3700   1.811   1.312  17.475 -0.4188 -0.9567 -0.4043
  244MPD1    C3 3701   1.811   1.400  17.369 -0.1543  0.1597  0.3033
  244MPD1    C4 3702   1.688   1.471  17.343  0.7337  0.5916  0.7440
  244MPD1    C5 3703   1.585   1.455  17.431 -0.1755 -0.6307 -0.1390
  244MPD1     H 3704   1.893   1.245  17.499 -0.3885 -0.7915 -0.0340
  244MPD1    H1 3705   1.678   1.547  17.266 -2.6473 -1.9818 -1.3566
  244MPD1    H2 3706   1.499   1.367  17.602  0.8625  0.5397  0.7716
  244MPD1    H3 3707   1.490   1.508  17.422  0.5416  0.8660  1.2214
  244MPD1     N 3708   1.927   1.424  17.297 -0.1388  0.0051  0.6894
  244MPD1    H5 3709   2.018   1.395  17.330  0.2606  0.4339 -0.0249
  244MPD1    N1 3710   1.698   1.199  17.665 -0.8879  0.0878  0.4442
  244MPD1    H6 3711   1.653   1.243   0.047 -0.6734 -0.2410  0.7448
  244MPD1    H7 3712   1.790   1.163  17.691 -0.1455  0.1265 -2.1680
  245MPD1     C 3713   0.351   2.253  12.136 -0.3578  0.4887 -0.4478
  245MPD1    C1 3714   0.357   2.145  12.221  0.1328  0.5999 -0.1709
  245MPD1    C2 3715   0.289   2.169  12.347  0.0057 -1.3308 -0.2487
  245MPD1    C3 3716   0.230   2.283  12.379  0.0751 -0.2278  0.3843
  245MPD1    C4 3717   0.217   2.378  12.285 -0.0652  0.9259 -0.4429
  245MPD1    C5 3718   0.274   2.366  12.163  0.3148 -0.0349 -0.0375
  245MPD1     H 3719   0.309   2.092  12.421  0.8313  0.2173  1.1289
  245MPD1    H1 3720   0.168   2.472  12.306  3.2534  1.9210  2.8453
  245MPD1    H2 3721   0.412   2.260  12.046 -0.9117 -0.8677 -0.9257
  245MPD1    H3 3722   0.276   2.445  12.088 -0.7375  0.7983  0.8125
  245MPD1     N 3723   0.158   2.310  12.496 -0.5017 -0.1179 -0.3234
  245MPD1    H5 3724   0.117   2.401  12.515 -0.3637 -0.3783  1.2364
  245MPD1    N1 3725   0.448   2.036  12.205 -0.2490  0.2226 -0.2637
  245MPD1    H6 3726   0.469   2.023  12.106 -1.2260  0.8797 -0.5570
  245MPD1    H7 3727   0.425   1.953  12.259  0.8263  0.2638  0.2628
  246MPD1     C 3728   3.827   1.490   8.437 -0.2795  0.5375 -0.5233
  246MPD1    C1 3729   3.831   1.381   8.518 -0.3538  0.4644 -0.1580
  246MPD1    C2 3730   3.924   1.380   8.622 -0.4397  0.0007 -0.0544
  246MPD1    C3 3731   4.005   1.491   8.652  0.8066 -0.3900 -0.9272
  246MPD1    C4 3732   3.988   1.602   8.576 -0.0271 -0.2489  0.2845
  246MPD1    C5 3733   3.905   1.603   8.470  0.3110  1.0308  0.0021
  246MPD1     H 3734   3.943   1.287   8.673 -0.0076  0.5853  0.8352
  246MPD1    H1 3735   4.019   1.698   8.615 -1.4227  0.4746 -0.4047
  246MPD1    H2 3736   3.749   1.501   8.362 -1.5505 -0.7171  0.5985
  246MPD1    H3 3737   3.884   1.694   8.414 -1.3822  0.1817 -0.7409
  246MPD1     N 3738   4.083   1.498   8.767 -0.3090 -0.4079  0.5141
  246MPD1    H5 3739   4.085   1.417   8.828 -2.8383 -0.7691  0.1268
  246MPD1    N1 3740   3.744   1.277   8.495 -0.4104 -0.1886 -0.2009
  246MPD1    H6 3741   3.664   1.300   8.436 -0.3539  1.3931  0.3378
  246MPD1    H7 3742   3.716   1.234   8.583 -1.3512  0.9112  0.0366
  247MPD1     C 3743   3.825   0.782  15.642  1.0578  0.9459 -0.1258
  247MPD1    C1 3744   3.722   0.852  15.705  0.7177 -0.3591  0.2402
  247MPD1    C2 3745   3.724   0.994  15.690 -0.1783 -0.3388  0.7519
  247MPD1    C3 3746   3.817   1.068  15.608 -0.1320  0.6893 -0.0211
  247MPD1    C4 3747   3.906   0.983  15.540 -0.1707  1.2393  0.6234
  247MPD1    C5 3748   3.911   0.841  15.558  0.1276 -0.5259  0.1180
  247MPD1     H 3749   3.658   1.046  15.759  3.0439  4.7924 -0.0319
  247MPD1    H1 3750   3.969   1.040  15.473  0.5986 -0.3661 -0.0329
  247MPD1    H2 3751   3.843   0.677  15.659  0.5997  1.5274  3.9341
  247MPD1    H3 3752   3.981   0.786  15.497 -1.3053 -0.4511 -1.5623
  247MPD1     N 3753   3.818   1.209  15.578 -0.1504  0.0681 -0.2379
  247MPD1    H5 3754   3.877   1.244  15.503  1.1999 -1.1915  0.2466
  247MPD1    N1 3755   3.636   0.786  15.797 -0.8314 -0.4192  0.0555
  247MPD1    H6 3756   3.567   0.851  15.834  0.9908  2.2522 -1.2133
  247MPD1    H7 3757   3.596   0.699  15.764  0.7464 -1.4820  0.9150
  248MPD1     C 3758   4.112   0.632   0.178  0.2771  0.2044 -0.1985
  248MPD1    C1 3759   4.004   0.599   0.092  0.4715 -0.1585 -0.0100
  248MPD1    C2 3760   3.899   0.694   0.088 -0.3957 -0.0191 -0.5808
  248MPD1    C3 3761   3.884   0.799   0.182 -0.5054 -0.0272  0.3684
  248MPD1    C4 3762   3.994   0.815   0.265 -0.2959  0.1408  0.0106
  248MPD1    C5 3763   4.107   0.736   0.269  0.5699  0.1441 -0.1643
  248MPD1     H 3764   3.815   0.681   0.021 -1.7635 -0.2425  1.1770
  248MPD1    H1 3765   3.992   0.888   0.346  1.0475 -0.3410  0.4780
  248MPD1    H2 3766   4.205   0.575   0.178 -0.6719 -1.3419  1.1821
  248MPD1    H3 3767   4.196   0.761   0.327  0.3654  0.0564  0.1892
  248MPD1     N 3768   3.773   0.883   0.173 -0.4868 -0.2868  0.1471
  248MPD1    H5 3769   3.688   0.855   0.124 -0.0670  0.6899 -1.1567
  248MPD1    N1 3770   4.006   0.506  17.681 -0.3372 -0.3856  0.4512
  248MPD1    H6 3771   4.057   0.423   0.015 -2.0833 -1.0724  1.4340
  248MPD1    H7 3772   3.915   0.466  17.660 -0.6476  0.9208 -0.7048
  249MPD1     C 3773   0.807   1.551   8.742  0.2675 -0.9873 -0.6110
  249MPD1    C1 3774   0.810   1.420   8.787  0.6618  0.3415  0.7869
  249MPD1    C2 3775   0.915   1.385   8.874  0.1440  0.5580 -0.0578
  249MPD1    C3 3776   1.015   1.474   8.903 -0.7866 -0.8620  0.6053
  249MPD1    C4 3777   1.016   1.594   8.844  0.1235 -0.5310 -0.1478
  249MPD1    C5 3778   0.911   1.632   8.763  0.8847  0.6805 -0.0112
  249MPD1     H 3779   0.911   1.286   8.918  0.8369  0.6397  0.1814
  249MPD1    H1 3780   1.099   1.663   8.853  0.0456 -0.6938  1.8006
  249MPD1    H2 3781   0.736   1.585   8.667 -0.9021 -1.5860  0.2144
  249MPD1    H3 3782   0.916   1.725   8.707 -0.6025  0.9643  0.3309
  249MPD1     N 3783   1.117   1.431   8.993  0.3411  0.2349 -0.3967
  249MPD1    H5 3784   1.110   1.336   9.028  2.2251 -1.0682 -3.5047
  249MPD1    N1 3785   0.713   1.321   8.762 -1.0687  0.4100 -0.0921
  249MPD1    H6 3786   0.751   1.230   8.738  2.0788  1.2919  1.6129
  249MPD1    H7 3787   0.653   1.355   8.687  0.5291  0.0288 -1.5226
  250MPD2     C 3788   2.181   0.420  12.903  0.0461 -0.8409  0.3548
  250MPD2    C1 3789   2.115   0.465  12.792  0.2010 -0.1349 -0.2927
  250MPD2    C2 3790   2.067   0.371  12.701  0.2747 -0.0533  0.4001
  250MPD2    C3 3791   2.099   0.239  12.725 -0.6801  0.3506 -0.5103
  250MPD2    C4 3792   2.173   0.200  12.838  0.2257 -0.2455 -0.4203
  250MPD2    C5 3793   2.207   0.291  12.935  0.3125  0.4221 -0.1520
  250MPD2     H 3794   2.006   0.401  12.616  0.4561 -0.3065  0.1823
  250MPD2    H1 3795   2.200   0.097  12.860  1.2598  0.0203 -0.4364
  250MPD2    H2 3796   2.215   0.485  12.983  1.1588 -0.4367 -0.4538
  250MPD2    H3 3797   2.269   0.276  13.023 -0.5316  2.2530  0.7685
  250MPD2     N 3798   2.032   0.137  12.656 -0.1156 -0.1455  0.3582
  250MPD2    H5 3799   2.039   0.038  12.677 -1.9648 -0.5961 -1.0959
  250MPD2    N1 3800   2.070   0.604  12.794 -0.0710  0.2942 -0.4642
  250MPD2    H7 3801   2.089   0.660  12.877  0.6526  0.8909 -1.0338
  251TMC3    C1 3802   1.934   0.782  12.748  0.2672 -1.0677 -0.0672
  251TMC3    C2 3803   1.872   0.779  12.872 -0.2319  0.1756  0.2361
  251TMC3    C3 3804   1.874   0.897  12.942  0.3451 -0.5400 -0.0938
  251TMC3    C4 3805   1.993   0.888  12.692  0.0096 -0.4460  0.1045
  251TMC3    C5 3806   1.988   1.004  12.770  0.9696  0.1033  0.5122
  251TMC3    C6 3807   1.928   1.011  12.893  0.5659 -0.4465 -0.5043
  251TMC3     C 3808   1.993   0.657  12.696 -0.0941  0.0781 -0.5799
  251TMC3     O 3809   1.999   0.636  12.577  0.3612 -0.5110 -0.1489
  251TMC3     H 3810   1.818   0.689  12.901 -0.5668  0.8060  1.5900
  251TMC3    H1 3811   2.037   0.886  12.593  1.5381  0.9008  0.7677
  251TMC3    H2 3812   1.912   1.104  12.947 -2.2991 -0.3481 -1.4965
  251TMC3    C7 3813   2.131   1.032  12.788 -0.0335  0.0374 -0.3257
  251TMC3    C8 3814   1.867   0.883  13.086 -0.7005  0.8556 -0.2427
  251TMC3    O1 3815   2.215   0.963  12.728  0.2638  0.1637  0.6098
  251TMC3    O2 3816   1.789   0.802  13.138  0.0129  0.3910  0.5689
  252TMC3    C1 3817   3.432   1.422   8.548 -0.5381  0.1041  0.6011
  252TMC3    C2 3818   3.502   1.540   8.550  0.6846 -0.3072 -0.0318
  252TMC3    C3 3819   3.496   1.609   8.665  1.1028  0.1694 -0.8484
  252TMC3    C4 3820   3.366   1.369   8.665  0.1127 -0.0718 -0.4877
  252TMC3    C5 3821   3.349   1.452   8.773 -0.2311 -0.6991  1.0327
  252TMC3    C6 3822   3.415   1.574   8.773 -0.5661 -0.3109  0.2543
  252TMC3     C 3823   3.388   1.361   8.428 -0.2172 -0.3392  0.3703
  252TMC3     O 3824   3.334   1.250   8.432  0.0226 -0.8281 -0.9266
  252TMC3     H 3825   3.574   1.570   8.475  1.2166  1.2381  1.0948
  252TMC3    H1 3826   3.313   1.275   8.666 -1.2976  0.7158  0.8635
  252TMC3    H2 3827   3.410   1.636   8.862 -1.5922  0.4120 -0.3176
  252TMC3    C7 3828   3.369   1.391   8.906 -0.1849 -0.2503  0.2721
  252TMC3    C8 3829   3.618   1.678   8.702 -0.1903 -0.5451  0.0712
  252TMC3    O1 3830   3.409   1.467   8.993 -0.9336  0.3058  0.0556
  252TMC3    O2 3831   3.688   1.739   8.618 -0.4242  0.1127 -0.4459
  253MPD2     C 3832   3.822   0.171  15.387  0.2347 -0.3863 -0.1943
  253MPD2    C1 3833   3.692   0.170  15.343  0.1716  0.5226 -0.0613
  253MPD2    C2 3834   3.597   0.129  15.430  0.4410 -0.5109  0.9168
  253MPD2    C3 3835   3.625   0.102  15.567 -0.0604 -0.5626  0.3387
  253MPD2    C4 3836   3.753   0.116  15.611 -0.0732  0.9368 -0.7150
  253MPD2    C5 3837   3.848   0.145  15.521  0.4430  0.1622 -0.0357
  253MPD2     H 3838   3.495   0.121  15.392  1.3750 -1.1422 -1.4531
  253MPD2    H1 3839   3.778   0.097  15.715 -3.2555  0.7537 -0.0068
  253MPD2    H2 3840   3.896   0.199  15.314 -1.2999  0.4789 -1.4210
  253MPD2    H3 3841   3.945   0.161  15.565 -0.9608  2.1450  2.3126
  253MPD2     N 3842   3.524   0.070  15.664  0.2196  0.4233  0.3197
  253MPD2    H5 3843   3.562   0.055  15.757  2.8362  1.2307 -0.6270
  253MPD2    N1 3844   3.663   0.191  15.207  0.8369 -0.0350  1.0175
  253MPD2    H7 3845   3.571   0.169  15.170 -0.0117 -0.3720  3.3085
  254TMC3    C1 3846   3.318   0.048  15.766  0.0273 -1.1773 -0.3414
  254TMC3    C2 3847   3.189   4.716  15.760 -0.3148  0.1238 -0.2474
  254TMC3    C3 3848   3.120   4.695  15.880 -0.4719 -0.0395 -0.1791
  254TMC3    C4 3849   3.360   0.095  15.889  0.5870 -0.3181  0.0970
  254TMC3    C5 3850   3.299   0.058  16.009 -0.2553 -0.4564  0.7409
  254TMC3    C6 3851   3.174   0.000  16.005  0.3375  0.3967  0.1131
  254TMC3     C 3852   3.386   0.077  15.648  0.3413 -0.2862 -0.8705
  254TMC3     O 3853   3.317   0.119  15.556 -0.1244 -0.1078 -0.3869
  254TMC3     H 3854   3.154   4.667  15.669 -1.1851  0.5534 -0.1433
  254TMC3    H1 3855   3.448   0.158  15.893 -0.8171  1.6649 -0.5039
  254TMC3    H2 3856   3.119   4.698  16.094  1.3335  0.0816  0.6307
  254TMC3    C7 3857   3.343   0.121  16.127  0.4500  0.1560  0.3316
  254TMC3    C8 3858   2.982   4.716  15.876 -0.1628 -0.3376 -0.0010
  254TMC3    O1 3859   3.256   0.125  16.211  0.6318  0.4691  0.5607
  254TMC3    O2 3860   2.919   4.690  15.976  0.0374  0.6344  0.4130
  255MPD2     C 3861   2.577   2.791   9.733 -0.2944  0.2147 -0.1055
  255MPD2    C1 3862   2.710   2.770   9.765 -0.1944  0.4903  0.3420
  255MPD2    C2 3863   2.808   2.814   9.673  0.1303 -0.3785 -0.4203
  255MPD2    C3 3864   2.770   2.890   9.559 -0.2895  0.2008  0.3780
  255MPD2    C4 3865   2.638   2.902   9.529 -0.9423  0.2395  0.4021
  255MPD2    C5 3866   2.537   2.850   9.614  0.1446 -0.2286 -0.1237
  255MPD2     H 3867   2.914   2.797   9.689  0.1465 -0.6085 -0.7856
  255MPD2    H1 3868   2.607   2.930   9.429 -0.6242 -0.9129 -0.0157
  255MPD2    H2 3869   2.495   2.759   9.797 -1.3176  0.4908 -1.2701
  255MPD2    H3 3870   2.434   2.878   9.593 -0.4108 -2.2767 -0.1349
  255MPD2     N 3871   2.872   2.946   9.474 -0.1985  0.1728  0.2827
  255MPD2    H5 3872   2.970   2.920   9.485  0.4870  2.6032  0.0047
  255MPD2    N1 3873   2.732   2.684   9.878 -0.2257 -0.3745 -0.3877
  255MPD2    H7 3874   2.648   2.660   9.929 -0.4356  2.2798  0.4767
  256TMC3    C1 3875   2.848   2.595  10.069 -0.4080  0.1000  0.2128
  256TMC3    C2 3876   2.945   2.657  10.151  0.2752  0.2063  0.1605
  256TMC3    C3 3877   2.901   2.688  10.282  0.4182 -0.1178 -0.1484
  256TMC3    C4 3878   2.727   2.564  10.104  0.2951  0.9106  0.9616
  256TMC3    C5 3879   2.678   2.612  10.220  0.7122 -0.0168 -0.0319
  256TMC3    C6 3880   2.762   2.674  10.312  0.0231  0.3131  0.1280
  256TMC3     C 3881   2.859   2.651   9.932  1.0746  0.8532 -0.4634
  256TMC3     O 3882   2.965   2.692   9.887 -0.1053 -0.2573  0.5001
  256TMC3     H 3883   3.049   2.674  10.125  0.6046 -2.2378 -0.0985
  256TMC3    H1 3884   2.668   2.505  10.035  0.7075  0.5916  0.8810
  256TMC3    H2 3885   2.721   2.707  10.407  0.7644  0.5695  0.3585
  256TMC3    C7 3886   2.560   2.699  10.190  0.2909  0.3194  0.2361
  256TMC3    C8 3887   2.962   2.806  10.338 -0.0390 -0.2439 -0.4025
  256TMC3    O1 3888   2.506   2.675  10.084 -0.2906 -0.2624 -0.2088
  256TMC3    O2 3889   3.032   2.803  10.437  0.0157  0.2672 -0.2147
  257MPD2     C 3890   1.411   0.649  12.848 -0.1116  0.1313  0.3739
  257MPD2    C1 3891   1.343   0.572  12.768  0.6844 -0.4655 -0.3548
  257MPD2    C2 3892   1.284   0.456  12.814 -0.5790 -0.3381  0.0152
  257MPD2    C3 3893   1.288   0.419  12.947  0.2361 -0.1760 -0.2402
  257MPD2    C4 3894   1.362   0.503  13.029  0.2359  0.3624  0.0218
  257MPD2    C5 3895   1.421   0.616  12.983 -0.0684  0.0599  0.1234
  257MPD2     H 3896   1.240   0.387  12.743  0.5873  1.2588 -2.2559
  257MPD2    H1 3897   1.371   0.490  13.136 -1.4293  2.2651  0.3957
  257MPD2    H2 3898   1.456   0.742  12.814 -1.1237  0.8386  0.9497
  257MPD2    H3 3899   1.468   0.692  13.044  1.9975 -0.4972 -0.7715
  257MPD2     N 3900   1.235   0.301  12.992  0.3947  0.3631  0.0617
  257MPD2    H5 3901   1.177   0.244  12.932  1.4290 -2.2290  1.5283
  257MPD2    N1 3902   1.342   0.615  12.635  0.0891  0.0888  0.1864
  257MPD2    H7 3903   1.421   0.669  12.600 -0.9949  1.0465 -0.7847
  258TMC3    C1 3904   1.194   0.112  13.118 -0.5473 -0.0134  0.7647
  258TMC3    C2 3905   1.069   0.090  13.055  0.1533  0.7202  0.1372
  258TMC3    C3 3906   1.032   4.680  13.058 -0.1370 -0.3419 -0.8341
  258TMC3    C4 3907   1.278   0.018  13.166  0.9540 -0.4299  0.6737
  258TMC3    C5 3908   1.234   4.612  13.157 -0.5269 -0.7141  0.3701
  258TMC3    C6 3909   1.107   4.580  13.108  0.9528  0.2972 -0.5119
  258TMC3     C 3910   1.254   0.242  13.114 -0.0886 -0.5075  1.0521
  258TMC3     O 3911   1.328   0.276  13.204 -0.7589  0.2436 -0.0513
  258TMC3     H 3912   0.995   0.163  13.029  0.6711  1.2306  0.1029
  258TMC3    H1 3913   1.374   0.052  13.203  1.0540 -0.3855  0.3734
  258TMC3    H2 3914   1.075   4.477  13.109  2.0340 -0.0183  2.3909
  258TMC3    C7 3915   1.335   4.517  13.110  0.3067  0.1314 -0.0510
  258TMC3    C8 3916   0.893   4.640  13.025 -0.4136  0.6153  0.6733
  258TMC3    O1 3917   1.313   4.461  13.003 -0.4296  0.0619  0.0781
  258TMC3    O2 3918   0.850   4.538  13.082  0.1317 -0.4920 -0.2549
  259MPD2     C 3919   0.121   1.937   0.903  0.4813 -0.8427  0.7124
  259MPD2    C1 3920   0.178   1.818   0.917  0.3317  0.2537 -0.8239
  259MPD2    C2 3921   0.292   1.787   0.838  0.6390 -0.1071 -0.1102
  259MPD2    C3 3922   0.353   1.882   0.762  0.6914 -0.0761 -0.2741
  259MPD2    C4 3923   0.291   1.997   0.746 -0.3971  0.2796 -0.6285
  259MPD2    C5 3924   0.174   2.022   0.817  0.3661  0.2087  0.6531
  259MPD2     H 3925   0.336   1.688   0.847 -0.3397 -0.6220 -0.8976
  259MPD2    H1 3926   0.335   2.076   0.686 -0.7361 -0.5328 -1.9476
  259MPD2    H2 3927   0.029   1.960   0.956  1.4010  3.0364  0.6206
  259MPD2    H3 3928   0.115   2.113   0.813  1.1130  0.7562  2.0136
  259MPD2     N 3929   0.472   1.842   0.697  0.4196 -0.3568 -0.3539
  259MPD2    H5 3930   0.500   1.747   0.720 -1.4278 -0.6947  0.4512
  259MPD2    N1 3931   0.123   1.725   1.007 -0.4975  0.2633  0.4111
  259MPD2    H7 3932   0.039   1.755   1.055 -0.4869  0.5512  0.2485
  260TMC3    C1 3933   0.687   1.851   0.599 -1.0109 -0.0539 -0.3835
  260TMC3    C2 3934   0.748   1.862   0.481  0.2652  0.7100 -0.2632
  260TMC3    C3 3935   0.842   1.770   0.449  0.2127 -0.0658  0.1925
  260TMC3    C4 3936   0.714   1.755   0.689  0.1409 -0.1833 -0.1622
  260TMC3    C5 3937   0.809   1.666   0.652  0.7952  0.2536 -0.4655
  260TMC3    C6 3938   0.883   1.677   0.536  0.7449  1.0100 -0.7987
  260TMC3     C 3939   0.552   1.912   0.611 -0.4963 -0.0364  0.1425
  260TMC3     O 3940   0.522   2.011   0.544  0.0715  0.9729  0.7351
  260TMC3     H 3941   0.716   1.933   0.405 -0.6500  0.1119 -0.4308
  260TMC3    H1 3942   0.665   1.743   0.784 -1.1182  1.7620 -0.5694
  260TMC3    H2 3943   0.962   1.605   0.520  0.0181 -0.0933  0.5679
  260TMC3    C7 3944   0.736   1.543   0.626 -0.2341 -0.1811  0.5163
  260TMC3    C8 3945   0.872   1.749   0.308  0.1455  0.4831 -0.2208
  260TMC3    O1 3946   0.768   1.467   0.531 -0.1723  0.1992 -0.0445
  260TMC3    O2 3947   0.894   1.846   0.237 -0.2987 -0.9167 -0.1777
  261MPD2     C 3948   1.533   0.143  11.970  0.2270  1.1599 -0.4011
  261MPD2    C1 3949   1.641   0.186  12.038  0.4593  0.9343  0.5293
  261MPD2    C2 3950   1.683   0.300  11.990 -0.1561 -0.1375  0.7002
  261MPD2    C3 3951   1.629   0.378  11.893 -0.3879  0.0209  0.0088
  261MPD2    C4 3952   1.516   0.330  11.821 -0.7224  0.8869 -0.1043
  261MPD2    C5 3953   1.472   0.207  11.865  0.1601 -0.3403 -0.2081
  261MPD2     H 3954   1.771   0.343  12.037  1.0400 -1.4976 -0.2994
  261MPD2    H1 3955   1.453   0.391  11.757  1.5042  1.0293 -2.1451
  261MPD2    H2 3956   1.485   0.049  11.993  4.1663 -0.7502  0.0369
  261MPD2    H3 3957   1.384   0.161  11.822  0.2152 -0.4133 -0.2420
  261MPD2     N 3958   1.686   0.497  11.855  0.2085  0.0775 -0.3557
  261MPD2    H5 3959   1.774   0.522  11.899  0.2095 -0.4396 -0.0619
  261MPD2    N1 3960   1.715   0.126  12.143  0.1980 -0.1439  0.2627
  261MPD2    H7 3961   1.798   0.177  12.170  0.8562 -0.7343 -0.6138
  262TMC3    C1 3962   1.764   0.676  11.730  0.2624  0.6266  0.0258
  262TMC3    C2 3963   1.748   0.813  11.702  0.2124  0.2748 -0.5997
  262TMC3    C3 3964   1.865   0.880  11.673  0.5476  0.0910  0.2146
  262TMC3    C4 3965   1.890   0.626  11.748  0.0181  0.3655  0.1296
  262TMC3    C5 3966   2.001   0.704  11.722 -0.2798  0.2621  0.5846
  262TMC3    C6 3967   1.993   0.829  11.673 -0.5649 -0.0548  0.7424
  262TMC3     C 3968   1.651   0.582  11.752 -0.0800  0.2997 -0.0763
  262TMC3     O 3969   1.555   0.591  11.676 -0.1921  0.4567 -0.0123
  262TMC3     H 3970   1.646   0.848  11.685 -0.7246 -1.7895  0.7540
  262TMC3    H1 3971   1.916   0.523  11.766 -0.9064  0.1015 -0.0560
  262TMC3    H2 3972   2.083   0.886  11.653 -0.6267 -0.1959  0.0414
  262TMC3    C7 3973   2.128   0.652  11.758 -0.0578 -0.1055  0.5211
  262TMC3    C8 3974   1.850   1.021  11.621 -0.4363 -1.0496  0.2512
  262TMC3    O1 3975   2.214   0.684  11.679 -0.2128 -0.3464 -0.3055
  262TMC3    O2 3976   1.950   1.069  11.571 -0.3389  0.6829 -0.5968
  263MPD2     C 3977   2.998   4.675  11.455  0.6865  0.2445 -0.2538
  263MPD2    C1 3978   2.989   4.563  11.377  0.2741  0.7364  0.2688
  263MPD2    C2 3979   3.017   4.588  11.242  0.1808  0.8105  0.0035
  263MPD2    C3 3980   3.038   4.711  11.185  0.1022  0.2471  0.5354
  263MPD2    C4 3981   3.029   0.098  11.268  0.4476  0.2572 -0.5328
  263MPD2    C5 3982   3.018   0.074  11.401  0.1865  0.5267  0.4401
  263MPD2     H 3983   3.002   4.502  11.177 -0.1545  0.0791  1.0543
  263MPD2    H1 3984   3.036   0.201  11.233 -1.7858  0.9464  1.0152
  263MPD2    H2 3985   2.992   4.659  11.562  0.8083  0.2842 -0.2413
  263MPD2    H3 3986   3.020   0.166  11.458  4.0695  0.1047  0.9877
  263MPD2     N 3987   3.053   0.021  11.047  0.4289 -0.4229 -0.1992
  263MPD2    H5 3988   3.037   0.117  11.016 -1.6055  0.1220  2.4825
  263MPD2    N1 3989   2.958   4.442  11.438 -0.4627  0.2402  0.4321
  263MPD2    H7 3990   2.957   4.438  11.540 -0.0464  0.5847  0.4513
  264TMC3    C1 3991   3.081   4.710  10.826  0.6651  0.2195 -0.1772
  264TMC3    C2 3992   3.000   0.087  10.799  0.8727  0.2066  0.9823
  264TMC3    C3 3993   2.995   0.132  10.667  0.4199 -0.1779  0.7316
  264TMC3    C4 3994   3.152   4.641  10.734  0.2305  0.2165 -0.3952
  264TMC3    C5 3995   3.131   4.678  10.598 -0.3277  0.4229 -0.2871
  264TMC3    C6 3996   3.058   0.066  10.565 -0.4040  0.3614  0.2954
  264TMC3     C 3997   3.088   4.659  10.952 -0.0013 -0.6471  0.1574
  264TMC3     O 3998   3.140   4.549  10.967 -0.2224  0.3261  0.2839
  264TMC3     H 3999   2.936   0.131  10.874 -0.6939  0.7245 -0.6691
  264TMC3    H1 4000   3.220   4.562  10.764  0.3569 -0.1105 -1.5651
  264TMC3    H2 4001   3.061   0.105  10.464 -2.1023 -2.2946 -0.7877
  264TMC3    C7 4002   3.254   4.674  10.524 -0.4383  0.5844  0.0200
  264TMC3    C8 4003   3.039   0.273  10.666 -0.1384 -1.0082  0.8465
  264TMC3    O1 4004   3.312   4.567  10.518 -0.8355  0.0574  0.5544
  264TMC3    O2 4005   3.121   0.294  10.580 -0.2151 -0.3760 -0.3761
  265MPD2     C 4006   4.723   4.476  15.183  0.2160 -0.0878  0.0894
  265MPD2    C1 4007   0.041   4.599  15.148  0.4538 -0.4673  0.5493
  265MPD2    C2 4008   0.152   4.611  15.073  0.8857  0.0153  0.3072
  265MPD2    C3 4009   0.216   4.494  15.029  0.5474  0.3183 -0.3350
  265MPD2    C4 4010   0.169   4.367  15.064  0.2127  0.3716  0.2755
  265MPD2    C5 4011   0.064   4.360  15.153  0.2427  0.5606  0.1437
  265MPD2     H 4012   0.194   4.708  15.047  0.2283  0.2105 -0.0232
  265MPD2    H1 4013   0.219   4.278  15.028 -1.4993  0.7030 -2.9567
  265MPD2    H2 4014   4.644   4.458  15.255  0.2970  0.0432  0.2123
  265MPD2    H3 4015   0.024   4.262  15.174  1.1405  0.1069 -0.2602
  265MPD2     N 4016   0.330   4.488  14.946 -0.2337  0.1676  0.1033
  265MPD2    H5 4017   0.370   4.395  14.943 -0.1314  0.2021  0.3823
  265MPD2    N1 4018   4.716   4.711  15.202  0.3275 -0.2713  0.3229
  265MPD2    H7 4019   0.029   0.076  15.172 -3.9959  0.7060 -2.1623
  266TMC3    C1 4020   4.614   0.134  15.354  0.6402 -0.7515 -0.0091
  266TMC3    C2 4021   4.623   0.161  15.484  0.0075  0.1654  0.2052
  266TMC3    C3 4022   4.634   0.296  15.531  0.6340  0.3436  0.3761
  266TMC3    C4 4023   4.616   0.239  15.263 -0.4157 -0.8118  0.4701
  266TMC3    C5 4024   4.632   0.360  15.314  0.2816 -0.5173 -0.4040
  266TMC3    C6 4025   4.634   0.396  15.444  0.5906 -0.2596  0.4550
  266TMC3     C 4026   4.631   4.714  15.315  0.0832  0.2412 -0.0477
  266TMC3     O 4027   4.576   4.633  15.388  0.3339 -0.2725 -0.2043
  266TMC3     H 4028   4.623   0.081  15.558 -4.5731  0.9806  1.0880
  266TMC3    H1 4029   4.615   0.232  15.154 -0.7736  0.4923  0.3907
  266TMC3    H2 4030   4.604   0.495  15.478 -0.2446 -0.8010  1.2726
  266TMC3    C7 4031   4.671   0.461  15.217 -0.2992 -0.8605 -0.3355
  266TMC3    C8 4032   4.633   0.312  15.677 -0.2382 -1.1261  0.2952
  266TMC3    O1 4033   4.636   0.455  15.102 -0.2002 -0.2538  0.4551
  266TMC3    O2 4034   4.632   0.207  15.743 -0.0687 -0.2656  0.2214
  267MPD2     C 4035   2.184   1.696  17.574 -0.2205  0.6333 -0.5885
  267MPD2    C1 4036   2.252   1.784  17.504  0.4692 -0.3882  0.2461
  267MPD2    C2 4037   2.198   1.848  17.397 -0.0195 -0.5404 -0.2724
  267MPD2    C3 4038   2.077   1.805  17.353  0.7161  0.2734  0.3597
  267MPD2    C4 4039   2.000   1.724  17.436  0.4499 -0.1931 -0.2912
  267MPD2    C5 4040   2.056   1.658  17.540 -0.0961  0.2314  0.3289
  267MPD2     H 4041   2.260   1.922  17.347 -1.1813  2.0968  2.2031
  267MPD2    H1 4042   1.901   1.692  17.407 -0.0200 -3.3135  4.8545
  267MPD2    H2 4043   2.232   1.646  17.657 -2.4225  1.7024  1.3454
  267MPD2    H3 4044   1.999   1.580  17.589  0.9232 -1.8218 -1.7528
  267MPD2     N 4045   2.022   1.857  17.228  0.0808  0.1561  0.4965
  267MPD2    H5 4046   2.093   1.884  17.160  0.2115 -1.0839  0.1376
  267MPD2    N1 4047   2.388   1.809  17.546  0.9141  0.2083 -0.8127
  267MPD2    H7 4048   2.409   1.752  17.627  0.0497 -0.4302 -1.0384
  268TMC3    C1 4049   2.615   1.879  17.536  0.0725  0.6233  0.2856
  268TMC3    C2 4050   2.713   1.931  17.454 -0.0546  0.4167  0.1850
  268TMC3    C3 4051   2.846   1.914  17.494  0.1230 -0.1870  0.1681
  268TMC3    C4 4052   2.641   1.827  17.657  0.1068  0.1261 -0.5076
  268TMC3    C5 4053   2.767   1.807  17.693 -0.4841  0.1970 -0.2924
  268TMC3    C6 4054   2.871   1.846  17.611  0.0740  0.2570 -0.3956
  268TMC3     C 4055   2.485   1.877  17.478  0.6363 -0.1122 -0.2457
  268TMC3     O 4056   2.473   1.941  17.377 -0.2779 -0.0189  0.3449
  268TMC3     H 4057   2.688   1.990  17.366  2.3560  1.6465  0.3365
  268TMC3    H1 4058   2.559   1.799   0.024  0.2107  2.5336  0.6562
  268TMC3    H2 4059   2.975   1.828  17.637 -0.0068  0.7727  0.2928
  268TMC3    C7 4060   2.796   1.762   0.133 -0.2932  0.4783  1.3226
  268TMC3    C8 4061   2.955   1.979  17.414  0.7051  0.2278 -0.2148
  268TMC3    O1 4062   2.875   1.672   0.146 -0.4861  0.6163  0.0897
  268TMC3    O2 4063   3.069   1.982  17.452 -0.1394  0.0044  0.5753
  269MPD2     C 4064   2.722   0.689  15.045  0.0740 -0.2937  0.0505
  269MPD2    C1 4065   2.633   0.686  15.148  0.6318  0.1177  0.0780
  269MPD2    C2 4066   2.583   0.805  15.198 -0.1940 -0.3359 -0.0486
  269MPD2    C3 4067   2.637   0.926  15.163  0.0272 -0.6461 -0.3016
  269MPD2    C4 4068   2.725   0.932  15.059  0.6145  0.0386  0.2167
  269MPD2    C5 4069   2.758   0.812  14.996 -0.0312 -0.0910 -0.6408
  269MPD2     H 4070   2.500   0.800  15.267  1.0045  2.0519  1.5957
  269MPD2    H1 4071   2.766   1.021  15.012 -0.5829  1.0671  1.1315
  269MPD2    H2 4072   2.750   0.596  14.997 -0.1928  0.3864 -1.4085
  269MPD2    H3 4073   2.829   0.804  14.915 -0.3044  0.2865 -0.9211
  269MPD2     N 4074   2.592   1.049  15.215  0.0280 -0.1321 -0.1570
  269MPD2    H5 4075   2.508   1.063  15.270  0.1317  1.0024 -0.2869
  269MPD2    N1 4076   2.581   0.558  15.184 -0.7293 -0.0455 -0.0031
  269MPD2    H7 4077   2.618   0.484  15.125  1.2311 -1.7357  3.3422
  270TMC3    C1 4078   2.436   0.394  15.257 -0.2701 -0.0796 -0.1781
  270TMC3    C2 4079   2.417   0.343  15.136 -0.0977 -0.4897 -0.3392
  270TMC3    C3 4080   2.341   0.230  15.128 -0.2043 -0.3741 -0.0775
  270TMC3    C4 4081   2.383   0.335  15.371 -0.0075 -0.1818  0.2357
  270TMC3    C5 4082   2.308   0.218  15.367  0.6140 -0.3282 -0.7235
  270TMC3    C6 4083   2.290   0.170  15.243  0.4098  0.3407 -0.0255
  270TMC3     C 4084   2.489   0.527  15.276 -1.1613  0.8315 -0.6920
  270TMC3     O 4085   2.454   0.593  15.374  0.0846  0.0312 -0.5742
  270TMC3     H 4086   2.456   0.407  15.057  0.3839 -0.9002 -0.4324
  270TMC3    H1 4087   2.406   0.383  15.466  1.1405 -2.0364  0.9006
  270TMC3    H2 4088   2.264   0.066  15.228  0.5924  0.3996 -0.7597
  270TMC3    C7 4089   2.360   0.122  15.461  0.3408 -0.5466 -0.1205
  270TMC3    C8 4090   2.352   0.162  15.002  0.6552  0.1872  0.1507
  270TMC3    O1 4091   2.476   0.141  15.504 -0.3543 -0.1637 -0.1897
  270TMC3    O2 4092   2.444   0.192  14.925 -0.2212 -0.3083  0.2060
  271MPD2     C 4093   2.002   0.344  13.659  0.1947  0.2945 -0.4461
  271MPD2    C1 4094   1.932   0.316  13.771 -0.6656  0.1714 -0.1435
  271MPD2    C2 4095   1.810   0.386  13.789  0.7978  0.3868  0.0947
  271MPD2    C3 4096   1.769   0.477  13.698  0.2819 -0.3168 -0.0203
  271MPD2    C4 4097   1.841   0.496  13.592  0.9834  0.0111  0.2554
  271MPD2    C5 4098   1.961   0.433  13.566  0.4585  0.0775 -0.0284
  271MPD2     H 4099   1.744   0.361  13.871 -0.2277 -0.1379 -0.8839
  271MPD2    H1 4100   1.813   0.578  13.527 -0.5293  0.0817  1.0143
  271MPD2    H2 4101   2.095   0.293  13.634 -0.1683 -2.1607  3.2228
  271MPD2    H3 4102   2.024   0.460  13.483 -0.8122 -0.1730 -1.0828
  271MPD2     N 4103   1.651   0.551  13.711  0.1635  0.2683  0.2113
  271MPD2    H5 4104   1.634   0.613  13.633  0.1457  0.5581  0.4447
  271MPD2    N1 4105   1.970   0.220  13.867 -0.0289 -0.8850  0.6486
  271MPD2    H7 4106   1.901   0.201  13.939 -0.2502 -1.9261  0.1622
  272TMC3    C1 4107   2.069   0.046  13.967 -0.1015  0.8571  0.4740
  272TMC3    C2 4108   2.129   4.652  13.958  0.6944 -0.3179 -0.4729
  272TMC3    C3 4109   2.163   4.590  14.072  0.2739  0.0825 -1.0981
  272TMC3    C4 4110   2.052   0.105  14.088 -0.7161  0.5856  0.0394
  272TMC3    C5 4111   2.072   0.032  14.208 -0.2011 -0.1033 -0.0015
  272TMC3    C6 4112   2.136   4.638  14.198  0.6169  0.2017 -0.1946
  272TMC3     C 4113   2.072   0.133  13.852  0.6378  0.0348  0.5262
  272TMC3     O 4114   2.167   0.131  13.773 -0.9116 -0.2699  0.8019
  272TMC3     H 4115   2.149   4.620  13.856 -0.2327  0.0854 -0.7826
  272TMC3    H1 4116   2.024   0.209  14.098  1.1094  0.7425  3.5619
  272TMC3    H2 4117   2.179   4.603  14.291 -1.0133  2.8458  1.5551
  272TMC3    C7 4118   2.116   0.128  14.310  0.1710  0.4617  0.2304
  272TMC3    C8 4119   2.233   4.464  14.050  0.4959 -0.0872 -1.0020
  272TMC3    O1 4120   2.200   0.202  14.268  0.2162  0.1691 -0.0101
  272TMC3    O2 4121   2.255   4.430  13.932  0.7068  0.2579 -0.3180
  273MPD2     C 4122   3.915   2.937  11.778  0.4063 -1.0776 -0.5376
  273MPD2    C1 4123   3.860   3.061  11.769  0.2055  0.2090 -0.2354
  273MPD2    C2 4124   3.737   3.089  11.702  0.1807 -0.8034 -0.3299
  273MPD2    C3 4125   3.662   2.985  11.653 -0.0151 -0.4475  1.1688
  273MPD2    C4 4126   3.723   2.861  11.670 -0.1898 -0.6200  0.4470
  273MPD2    C5 4127   3.847   2.833  11.728 -0.3789 -0.5406  0.0014
  273MPD2     H 4128   3.699   3.190  11.688  0.6997 -0.5294  0.2406
  273MPD2    H1 4129   3.672   2.779  11.621 -1.2778  0.3132  0.0173
  273MPD2    H2 4130   4.005   2.907  11.831  3.0091  4.8372 -1.6206
  273MPD2    H3 4131   3.869   2.727  11.731  0.7751 -0.2703  0.9664
  273MPD2     N 4132   3.539   3.006  11.588  0.0464  0.0031 -0.2423
  273MPD2    H5 4133   3.499   2.924  11.543 -0.9130  1.4268 -1.9650
  273MPD2    N1 4134   3.923   3.177  11.823  0.2876  0.1900  0.0783
  273MPD2    H7 4135   3.873   3.265  11.820 -1.1507 -0.6133  0.8813
  274TMC3    C1 4136   3.359   3.108  11.489 -0.9892 -0.4194  0.1029
  274TMC3    C2 4137   3.381   3.056  11.365 -0.1431 -0.0442 -0.9430
  274TMC3    C3 4138   3.300   3.101  11.256  0.3967 -0.2663  0.8566
  274TMC3    C4 4139   3.255   3.198  11.513 -0.0088 -0.3799  0.1899
  274TMC3    C5 4140   3.177   3.238  11.408  0.5715  0.1666 -0.1470
  274TMC3    C6 4141   3.198   3.185  11.282 -0.0588  0.0040  0.1071
  274TMC3     C 4142   3.466   3.116  11.584 -0.4620 -0.6477  0.8967
  274TMC3     O 4143   3.486   3.227  11.638 -0.2562 -0.4375 -0.2167
  274TMC3     H 4144   3.464   2.987  11.352  0.8931  0.9012  0.6325
  274TMC3    H1 4145   3.243   3.227  11.617 -0.8567 -1.6885  0.4659
  274TMC3    H2 4146   3.154   3.237  11.198 -2.7843 -2.2852  0.1151
  274TMC3    C7 4147   3.083   3.346  11.429  0.4354  0.4900  0.5782
  274TMC3    C8 4148   3.374   3.105  11.132  0.2904  0.0744  0.2193
  274TMC3    O1 4149   3.086   3.406  11.535  0.0602  0.3965 -0.2719
  274TMC3    O2 4150   3.480   3.048  11.120 -0.5843  0.4794 -0.2266
  275MPD2     C 4151   3.845   0.863  13.883 -0.1942 -0.5018 -0.7148
  275MPD2    C1 4152   3.743   0.908  13.967  0.2779 -0.5210  0.4579
  275MPD2    C2 4153   3.611   0.862  13.962 -0.4320 -0.3117  0.2189
  275MPD2    C3 4154   3.576   0.781  13.852  0.3874  0.3494 -0.1817
  275MPD2    C4 4155   3.678   0.739  13.766  0.1544 -0.3654  0.1930
  275MPD2    C5 4156   3.813   0.774  13.785  0.2556  0.1205 -0.1672
  275MPD2     H 4157   3.537   0.911  14.025 -0.5318  0.9084 -0.8341
  275MPD2    H1 4158   3.661   0.666  13.687 -0.4536 -0.6164  0.5556
  275MPD2    H2 4159   3.953   0.874  13.894 -0.2285 -0.2301 -0.6479
  275MPD2    H3 4160   3.882   0.731  13.713 -0.1822  0.2277 -0.6595
  275MPD2     N 4161   3.438   0.731  13.825 -0.3844 -0.4702  0.4505
  275MPD2    H5 4162   3.426   0.675  13.741  2.2524 -0.5590  0.1161
  275MPD2    N1 4163   3.779   1.000  14.072 -0.3163  0.3379 -0.8518
  275MPD2    H7 4164   3.703   1.014  14.138 -1.0526 -0.2280 -1.5765
  276TMC3    C1 4165   3.903   1.162  14.178 -0.2375  0.3629 -0.2253
  276TMC3    C2 4166   3.847   1.113  14.294 -0.4412  0.9218 -0.1637
  276TMC3    C3 4167   3.897   1.150  14.420  0.7086 -0.0837 -0.2758
  276TMC3    C4 4168   4.001   1.258  14.188  0.1586  0.3012  0.1917
  276TMC3    C5 4169   4.036   1.302  14.317 -0.3385 -0.2202  0.1179
  276TMC3    C6 4170   3.987   1.244  14.435  0.1091  0.5190 -0.5474
  276TMC3     C 4171   3.884   1.089  14.060 -0.6085  0.0771  0.1055
  276TMC3     O 4172   3.967   1.104  13.965 -0.1108 -0.0088  0.0123
  276TMC3     H 4173   3.759   1.051  14.302 -1.1645  2.1516  1.4156
  276TMC3    H1 4174   4.042   1.305  14.099 -0.4518  2.2730  0.9580
  276TMC3    H2 4175   4.011   1.283  14.533 -0.9818  1.2904 -0.5970
  276TMC3    C7 4176   4.098   1.430  14.336  0.3829 -0.4047  0.7491
  276TMC3    C8 4177   3.815   1.141  14.539 -0.1817  0.5798  0.3543
  276TMC3    O1 4178   4.051   1.492  14.429 -0.4368  0.1977  0.1750
  276TMC3    O2 4179   3.814   1.239  14.613  0.1258  0.3459 -0.0958
  277MPD2     C 4180   1.081   0.453  13.289  0.3138 -0.4201 -0.2302
  277MPD2    C1 4181   0.977   0.418  13.198  0.5920  0.0447  0.0725
  277MPD2    C2 4182   0.898   0.313  13.234  0.4734  0.3408  0.6596
  277MPD2    C3 4183   0.914   0.242  13.347  0.3068  0.3747 -0.3448
  277MPD2    C4 4184   1.013   0.280  13.436 -0.4728 -0.0776  0.2310
  277MPD2    C5 4185   1.093   0.387  13.404 -0.0699  0.3299 -0.1151
  277MPD2     H 4186   0.809   0.293  13.175  0.6797 -0.7045  0.6906
  277MPD2    H1 4187   1.033   0.222  13.525  1.8855 -0.3365 -0.4494
  277MPD2    H2 4188   1.154   0.530  13.266  0.0151  0.5754  2.1932
  277MPD2    H3 4189   1.177   0.405  13.469 -1.2740  0.3009  1.4422
  277MPD2     N 4190   0.813   0.148  13.384  0.2430 -0.2042 -0.2749
  277MPD2    H5 4191   0.736   0.131  13.319  1.2265 -1.4992 -1.0990
  277MPD2    N1 4192   0.952   0.498  13.083 -0.8320  0.1908  0.3914
  277MPD2    H7 4193   1.009   0.582  13.071 -1.3703  0.3065 -1.3477
  278TMC3    C1 4194   0.676   0.023  13.530  0.0508  0.4030  0.1615
  278TMC3    C2 4195   0.672   4.630  13.605  0.3469  0.2080 -0.4320
  278TMC3    C3 4196   0.552   4.570  13.626 -0.0431 -0.4268 -0.1361
  278TMC3    C4 4197   0.560   0.087  13.486  0.0024 -0.3269  0.5543
  278TMC3    C5 4198   0.441   0.034  13.526 -0.5552  0.1689  0.3919
  278TMC3    C6 4199   0.441   4.635  13.577  0.3947  0.6444 -0.0378
  278TMC3     C 4200   0.812   0.078  13.504 -0.5563 -0.1795  0.7543
  278TMC3     O 4201   0.912   0.034  13.557 -0.6919 -0.7743 -0.0254
  278TMC3     H 4202   0.762   4.581  13.643  0.5027  1.3064  0.5968
  278TMC3    H1 4203   0.572   0.179  13.431 -1.1439  0.4634  1.6209
  278TMC3    H2 4204   0.347   4.582  13.585  0.5709  0.5208  1.2055
  278TMC3    C7 4205   0.335   0.072  13.442  1.0056  0.3001 -0.4925
  278TMC3    C8 4206   0.557   4.432  13.676 -0.7295  0.5964  0.3433
  278TMC3    O1 4207   0.360   0.139  13.345 -0.3318 -0.1144  0.1272
  278TMC3    O2 4208   0.644   4.394  13.752 -0.3021 -0.2234 -0.5448
  279MPD2     C 4209   4.079   4.677  17.580  0.5311 -0.0231 -0.6923
  279MPD2    C1 4210   4.088   0.071  17.650  0.1695  0.9350  0.1758
  279MPD2    C2 4211   4.170   0.176  17.599 -0.7426  0.2240 -0.8650
  279MPD2    C3 4212   4.237   0.158  17.479  0.3700 -0.4539 -0.1742
  279MPD2    C4 4213   4.229   0.039  17.416  1.0238  0.5495 -0.4774
  279MPD2    C5 4214   4.155   4.664  17.469  0.8688  0.2701 -0.4270
  279MPD2     H 4215   4.163   0.282  17.621 -3.4300 -0.0073 -0.6642
  279MPD2    H1 4216   4.264   0.015  17.316 -0.1662 -0.1620 -0.7284
  279MPD2    H2 4217   4.011   4.595  17.599 -1.0626  1.4473 -0.0355
  279MPD2    H3 4218   4.140   4.576  17.406 -1.6057  0.8051 -0.5766
  279MPD2     N 4219   4.306   0.262  17.415  0.1372 -0.4434 -0.1052
  279MPD2    H5 4220   4.316   0.236  17.317  0.6725  2.5930 -0.8695
  279MPD2    N1 4221   4.001   0.093   0.067 -0.1278 -0.4949 -0.3968
  279MPD2    H7 4222   3.938   0.017   0.093  2.2829 -1.5451  2.4454
  280TMC3    C1 4223   3.880   0.226   0.232 -0.2937 -0.2956  0.3612
  280TMC3    C2 4224   3.787   0.128   0.221 -0.0608 -0.2591 -0.8115
  280TMC3    C3 4225   3.654   0.160   0.239  0.2612  0.5705 -0.2610
  280TMC3    C4 4226   3.849   0.353   0.267 -0.2613  0.7287  0.3168
  280TMC3    C5 4227   3.720   0.382   0.280 -0.1006 -0.4552  0.1147
  280TMC3    C6 4228   3.617   0.293   0.269 -0.1532 -0.2269 -0.5598
  280TMC3     C 4229   4.002   0.204   0.151  0.0696 -0.4563  0.7876
  280TMC3     O 4230   4.081   0.297   0.161 -0.2593  0.0733 -0.1711
  280TMC3     H 4231   3.818   0.024   0.213  2.6554  0.3412  1.9491
  280TMC3    H1 4232   3.929   0.426   0.268  1.8526 -1.5922 -0.1660
  280TMC3    H2 4233   3.514   0.306   0.298 -0.5013  2.4534 -3.0434
  280TMC3    C7 4234   3.678   0.503   0.346  0.1609  0.6987 -0.2013
  280TMC3    C8 4235   3.556   0.064   0.212 -0.6027 -0.7440  0.0760
  280TMC3    O1 4236   3.754   0.546   0.429  0.3507  0.1870 -0.4856
  280TMC3    O2 4237   3.459   0.098   0.149 -0.5943 -0.0729 -0.2967
  281TMC3    C1 4238   2.869   0.604  13.062 -0.1271 -0.3115 -0.6645
  281TMC3    C2 4239   2.780   0.707  13.029 -0.1649  0.3140  0.1885
  281TMC3    C3 4240   2.646   0.676  13.026  0.2932  0.4111 -0.0097
  281TMC3    C4 4241   2.833   0.475  13.074  0.0284  0.5410 -0.0069
  281TMC3    C5 4242   2.697   0.449  13.059 -1.0539 -0.4388 -0.2481
  281TMC3    C6 4243   2.604   0.544  13.041  0.3408 -0.7344  0.1287
  281TMC3     C 4244   3.014   0.631  13.063  0.3809 -0.2598 -0.1877
  281TMC3     O 4245   3.088   0.537  13.076 -0.1694  0.2747 -0.0097
  281TMC3     H 4246   2.809   0.806  12.994 -2.6958  1.0435  0.1537
  281TMC3    H1 4247   2.905   0.396  13.097  0.8253  0.9095 -1.2289
  281TMC3    H2 4248   2.500   0.513  13.036 -0.6581  2.6594  0.2281
  281TMC3    C7 4249   2.644   0.311  13.051  0.1811  0.6117  0.0441
  281TMC3    C8 4250   2.553   0.775  12.979  0.5773  0.1006  0.4652
  281TMC3    O1 4251   2.522   0.300  13.051  0.2231  0.0618 -0.4765
  281TMC3    O2 4252   2.447   0.736  12.941 -0.2342 -0.1825 -0.6561
  282MPD2     C 4253   4.416   1.587  14.793  0.3011 -0.2149  0.1125
  282MPD2    C1 4254   4.474   1.689  14.853 -0.3438  0.2374  0.2052
  282MPD2    C2 4255   4.560   1.766  14.776  0.3606  0.2310 -0.0436
  282MPD2    C3 4256   4.560   1.766  14.636  0.0623  0.3046  0.8024
  282MPD2    C4 4257   4.483   1.666  14.570  0.1625 -0.3957  0.2891
  282MPD2    C5 4258   4.422   1.573  14.653 -0.0768 -0.8232 -0.6486
  282MPD2     H 4259   4.615   1.845  14.826  1.7781 -1.2003  0.6754
  282MPD2    H1 4260   4.481   1.644  14.463 -0.0604  1.2141 -0.0318
  282MPD2    H2 4261   4.359   1.516  14.853 -1.0052  0.2668 -0.5592
  282MPD2    H3 4262   4.367   1.493  14.605  0.4706 -1.1481 -0.7369
  282MPD2     N 4263   4.639   1.853  14.565 -0.5177  0.5489 -0.5263
  282MPD2    H5 4264   4.690   1.924  14.616  0.8273 -1.4393  0.8987
  282MPD2    N1 4265   4.473   1.724  14.989 -0.4479  0.1916 -0.3242
  282MPD2    H7 4266   4.527   1.806  15.013 -0.0426 -0.0459 -0.4168
  283TMC3    C1 4267   4.435   1.694  15.223 -0.3152 -0.6147 -0.2059
  283TMC3    C2 4268   4.469   1.825  15.246 -0.5360  0.0217 -0.0138
  283TMC3    C3 4269   4.444   1.869  15.378 -0.2084 -0.0033 -0.5116
  283TMC3    C4 4270   4.364   1.619  15.308  0.2715  0.5365 -0.2459
  283TMC3    C5 4271   4.328   1.670  15.431 -0.5890 -0.6706 -0.0759
  283TMC3    C6 4272   4.376   1.791  15.473  0.3716 -0.1767  0.2150
  283TMC3     C 4273   4.412   1.645  15.087  0.3577 -1.0917 -0.5674
  283TMC3     O 4274   4.357   1.541  15.074  0.0913  0.0596  0.0161
  283TMC3     H 4275   4.499   1.886  15.161 -3.9459  0.9239 -0.5717
  283TMC3    H1 4276   4.316   1.526  15.282 -0.4957  0.9238 -0.2062
  283TMC3    H2 4277   4.350   1.829  15.571  0.5247 -2.8872  1.2989
  283TMC3    C7 4278   4.275   1.583  15.531 -0.2988 -1.3128 -0.8756
  283TMC3    C8 4279   4.492   2.003  15.424  0.5836  0.9106 -0.4825
  283TMC3    O1 4280   4.236   1.641  15.630  0.0804 -0.2675  0.2069
  283TMC3    O2 4281   4.476   2.022  15.545 -0.4794 -0.0093 -0.2766
  284MPD2     C 4282   3.621   1.453  11.820 -0.6223  0.7923  0.5399
  284MPD2    C1 4283   3.709   1.421  11.718  0.6293  0.7276 -0.1390
  284MPD2    C2 4284   3.788   1.312  11.737 -0.3594 -0.3433  0.2292
  284MPD2    C3 4285   3.784   1.233  11.854 -0.7137 -0.8779  0.1140
  284MPD2    C4 4286   3.700   1.276  11.961  0.3865  0.1681 -0.2198
  284MPD2    C5 4287   3.619   1.384  11.942 -0.8387 -0.0324 -0.8989
  284MPD2     H 4288   3.848   1.276  11.654 -0.1063  1.5427 -0.3995
  284MPD2    H1 4289   3.719   1.233  12.059 -0.0320 -0.5856 -0.4692
  284MPD2    H2 4290   3.554   1.536  11.807 -1.5031  0.0121  0.1125
  284MPD2    H3 4291   3.563   1.430  12.022 -0.4713  0.2777 -0.8211
  284MPD2     N 4292   3.873   1.124  11.879 -0.0384  0.1780  0.3012
  284MPD2    H5 4293   3.858   1.066  11.961  0.5398  0.3275  0.5091
  284MPD2    N1 4294   3.720   1.489  11.605  0.0677 -0.3932 -0.1098
  284MPD2    H7 4295   3.782   1.447  11.537 -3.5098 -0.9549 -3.0478
  285TMC3    C1 4296   3.660   1.613  11.412  0.2228 -0.9958 -0.5372
  285TMC3    C2 4297   3.693   1.509  11.326 -0.6879  0.2170 -0.5053
  285TMC3    C3 4298   3.729   1.539  11.196 -0.8560 -0.3390 -0.0083
  285TMC3    C4 4299   3.652   1.742  11.357  0.6030  0.3959 -0.3677
  285TMC3    C5 4300   3.682   1.764  11.219 -0.6327  0.1645  1.1951
  285TMC3    C6 4301   3.724   1.664  11.137 -0.0717  0.7381  0.2130
  285TMC3     C 4302   3.629   1.580  11.555  0.0725 -0.6935 -0.1631
  285TMC3     O 4303   3.546   1.648  11.619 -0.9553  0.0681 -0.5977
  285TMC3     H 4304   3.697   1.406  11.358 -2.7419  0.2017 -0.2830
  285TMC3    H1 4305   3.641   1.827  11.423 -0.3697 -1.3571  1.7281
  285TMC3    H2 4306   3.773   1.682  11.041 -0.5432  2.0317  0.2137
  285TMC3    C7 4307   3.723   1.899  11.183 -1.2321 -0.8105 -0.4101
  285TMC3    C8 4308   3.778   1.424  11.123  0.2796 -0.0023 -0.0768
  285TMC3    O1 4309   3.803   1.945  11.262  0.2784 -0.0918 -0.1181
  285TMC3    O2 4310   3.728   1.317  11.146 -0.2765 -0.7076  0.3707
  286MPD2     C 4311   3.487   4.464   1.577 -0.0748  0.2882  0.0074
  286MPD2    C1 4312   3.421   4.507   1.468  0.2456  0.7396 -0.2453
  286MPD2    C2 4313   3.428   4.439   1.347  0.4787 -0.6347 -0.4990
  286MPD2    C3 4314   3.501   4.325   1.341  0.1115  0.2871  0.3323
  286MPD2    C4 4315   3.569   4.281   1.461  0.0912 -0.2692 -0.8364
  286MPD2    C5 4316   3.553   4.344   1.571 -0.0068 -0.8587 -0.6498
  286MPD2     H 4317   3.365   4.479   1.268 -0.1603  0.1282  0.3981
  286MPD2    H1 4318   3.612   4.182   1.461  0.7220  0.0042  0.9841
  286MPD2    H2 4319   3.472   4.507   1.676  0.1755  1.1287 -0.3183
  286MPD2    H3 4320   3.595   4.308   1.664 -0.9846 -0.6552 -0.1227
  286MPD2     N 4321   3.522   4.254   1.221 -0.7395 -0.7470 -0.3070
  286MPD2    H5 4322   3.594   4.185   1.239  0.6339  0.8430  0.2809
  286MPD2    N1 4323   3.338   4.621   1.474  1.0219 -0.0520 -0.6324
  286MPD2    H7 4324   3.283   4.639   1.391  0.5976 -0.6662 -0.4820
  287TMC3    C1 4325   3.505   4.169   1.007  0.3604 -0.0075  0.7105
  287TMC3    C2 4326   3.470   4.182   0.874  0.3415 -0.5183 -0.1846
  287TMC3    C3 4327   3.539   4.102   0.790 -0.1011  0.5791 -0.0226
  287TMC3    C4 4328   3.598   4.077   1.048  0.2786  0.0655 -0.9905
  287TMC3    C5 4329   3.662   3.998   0.959 -0.5797  0.7931  0.1910
  287TMC3    C6 4330   3.633   4.005   0.828  0.0601 -0.2310  0.8527
  287TMC3     C 4331   3.451   4.258   1.104  0.7730 -0.2144 -0.2161
  287TMC3     O 4332   3.353   4.323   1.073 -0.3463 -0.3264 -0.1050
  287TMC3     H 4333   3.400   4.254   0.834  0.1098  0.0186  1.1827
  287TMC3    H1 4334   3.619   4.054   1.152 -0.0375  2.2829 -0.4328
  287TMC3    H2 4335   3.667   3.922   0.767 -1.2073  0.9114 -1.3909
  287TMC3    C7 4336   3.756   3.907   1.004 -0.0322 -0.2378  0.0292
  287TMC3    C8 4337   3.487   4.092   0.656 -0.3823 -0.2865 -0.3766
  287TMC3    O1 4338   3.760   3.887   1.127  0.5537 -0.1050 -0.7659
  287TMC3    O2 4339   3.369   4.121   0.630 -0.7736  0.3187 -0.6340
  288TMC3    C1 4340   0.860   4.537  14.186  0.2844  0.4164 -0.2486
  288TMC3    C2 4341   0.729   4.522  14.231  0.0586 -0.1439  0.0221
  288TMC3    C3 4342   0.635   4.611  14.206  0.2161 -0.0798  0.2083
  288TMC3    C4 4343   0.887   4.636  14.091  0.6900  0.4584 -0.6569
  288TMC3    C5 4344   0.777   4.705  14.048  0.3436 -0.2390 -0.4645
  288TMC3    C6 4345   0.659   4.713  14.119 -0.4281  0.7214  0.0879
  288TMC3     C 4346   0.966   4.483  14.271 -0.1845 -0.0271  0.2067
  288TMC3     O 4347   0.942   4.468  14.390 -0.0897  0.1650  0.1433
  288TMC3     H 4348   0.711   4.442  14.301 -1.9078  0.0119 -0.3247
  288TMC3    H1 4349   0.984   4.667  14.055 -0.0881  1.8784 -1.4847
  288TMC3    H2 4350   0.592   0.074  14.110 -1.3798 -0.1271 -0.8205
  288TMC3    C7 4351   0.808   0.087  13.960  0.0188  0.1373  0.5433
  288TMC3    C8 4352   0.510   4.609  14.286  0.0540 -0.3941 -0.2736
  288TMC3    O1 4353   0.925   0.117  13.943  0.9773  0.0488  0.1657
  288TMC3    O2 4354   0.469   4.721  14.320  0.1315  0.1671 -0.0593
  289MPD2     C 4355   0.734   3.436  14.265  0.4523 -0.2630  0.5232
  289MPD2    C1 4356   0.714   3.569  14.255  0.2075  0.6186 -0.0007
  289MPD2    C2 4357   0.603   3.611  14.178  0.4147 -0.5537  0.4026
  289MPD2    C3 4358   0.510   3.522  14.127 -0.6495 -0.5257  0.4648
  289MPD2    C4 4359   0.542   3.384  14.136 -0.0977  0.2383  0.3832
  289MPD2    C5 4360   0.650   3.348  14.203  0.2617 -0.5468  0.6646
  289MPD2     H 4361   0.574   3.716  14.180 -0.7581 -0.8882  1.0014
  289MPD2    H1 4362   0.483   3.298  14.108 -0.6794  0.6511  0.3295
  289MPD2    H2 4363   0.817   3.395  14.320  0.7404  0.0382  0.3109
  289MPD2    H3 4364   0.672   3.244  14.220  0.3436 -0.7167 -0.4966
  289MPD2     N 4365   0.395   3.562  14.066  0.2390  0.2292 -0.0526
  289MPD2    H5 4366   0.333   3.491  14.028  2.6363 -2.2586  0.7059
  289MPD2    N1 4367   0.798   3.655  14.329 -0.4782  0.3282 -0.2901
  289MPD2    H7 4368   0.865   3.612  14.392 -0.3353 -1.1200 -1.4301
  290TMC3    C1 4369   0.215   3.689  13.995 -0.7991 -0.6879  0.4824
  290TMC3    C2 4370   0.172   3.807  13.931  0.5553 -0.4179  1.2048
  290TMC3    C3 4371   0.071   3.801  13.840  0.1433  0.2582 -0.0528
  290TMC3    C4 4372   0.156   3.563  13.974 -0.5406 -0.1038  0.1671
  290TMC3    C5 4373   0.059   3.569  13.875 -0.0084  0.3601  0.2380
  290TMC3    C6 4374   0.014   3.680  13.813 -0.3822  0.0768  0.2530
  290TMC3     C 4375   0.345   3.694  14.055 -0.7044  0.0738  0.0194
  290TMC3     O 4376   0.395   3.800  14.079  1.1711  0.2245 -0.3796
  290TMC3     H 4377   0.224   3.899  13.956  0.5134  0.2154 -1.0683
  290TMC3    H1 4378   0.183   3.470  14.023  0.8629 -0.7428 -1.7753
  290TMC3    H2 4379   4.652   3.663  13.750  0.5386 -1.2518 -0.6476
  290TMC3    C7 4380   4.675   3.479  13.893 -0.4706 -1.0073 -0.5549
  290TMC3    C8 4381   4.693   3.905  13.840 -0.1985 -0.1076 -0.3614
  290TMC3    O1 4382   4.563   3.529  13.898  0.0356  0.2486 -0.2857
  290TMC3    O2 4383   4.583   3.866  13.805  0.1607 -0.2419  0.6424
  291MPD2     C 4384   4.373   3.766   0.102  0.0798 -0.8996 -0.1490
  291MPD2    C1 4385   4.427   3.649   0.152  0.3214  0.2266  0.0334
  291MPD2    C2 4386   4.546   3.657   0.201 -0.6952  0.1724  0.3823
  291MPD2    C3 4387   4.621   3.776   0.191 -0.1061  0.0068  0.6806
  291MPD2    C4 4388   4.570   3.893   0.129 -0.0320  0.5321 -0.1969
  291MPD2    C5 4389   4.437   3.887   0.084 -0.1646 -0.5612 -0.5604
  291MPD2     H 4390   4.593   3.566   0.239  0.3438  1.0190  1.1404
  291MPD2    H1 4391   4.622   3.988   0.121  2.3969 -0.9049 -1.1708
  291MPD2    H2 4392   4.271   3.761   0.063  0.2443  1.0499 -0.8354
  291MPD2    H3 4393   4.368   3.963   0.051 -0.2907 -0.7576 -0.7501
  291MPD2     N 4394   0.030   3.778   0.238 -0.1277 -0.4651  0.6199
  291MPD2    H5 4395   0.080   3.864   0.220 -0.6507 -0.0248  1.2764
  291MPD2    N1 4396   4.370   3.520   0.151  0.1451  0.3917  0.4245
  291MPD2    H7 4397   4.425   3.453   0.203 -0.9961 -1.5424 -0.8483
  292TMC3    C1 4398   4.206   3.353   0.155 -0.5181 -0.4318 -0.1286
  292TMC3    C2 4399   4.255   3.311   0.275 -0.0893 -0.0857  0.2540
  292TMC3    C3 4400   4.238   3.183   0.306  0.2749  0.0119  0.1576
  292TMC3    C4 4401   4.126   3.278   0.075  0.0435 -0.0609 -0.1034
  292TMC3    C5 4402   4.119   3.149   0.108  0.5954 -0.0137 -0.0333
  292TMC3    C6 4403   4.168   3.105   0.227  0.1691  0.3705  0.6383
  292TMC3     C 4404   4.244   3.488   0.111  0.2977 -0.1048 -0.3987
  292TMC3     O 4405   4.160   3.554   0.050 -0.5734  0.3963 -0.2450
  292TMC3     H 4406   4.311   3.376   0.340  1.5124  0.2554 -1.4658
  292TMC3    H1 4407   4.097   3.313  17.675  1.2066  1.1112 -0.0224
  292TMC3    H2 4408   4.167   2.998   0.245 -0.3517 -0.0822 -2.1514
  292TMC3    C7 4409   4.049   3.045   0.025 -0.4012  0.3092  0.3329
  292TMC3    C8 4410   4.283   3.135   0.436  0.6574  0.9713  0.2579
  292TMC3    O1 4411   4.078   2.929   0.048 -0.1101  0.6095  1.0181
  292TMC3    O2 4412   4.379   3.195   0.478  0.2033  0.4604  0.3258
  293MPD2     C 4413   1.500   0.270  12.374 -1.2988  0.4980 -0.8448
  293MPD2    C1 4414   1.478   0.165  12.458 -0.4149 -0.4469  0.4784
  293MPD2    C2 4415   1.507   0.177  12.591 -0.3120 -0.4734 -1.2434
  293MPD2    C3 4416   1.594   0.282  12.635  0.2904 -0.1364 -0.3234
  293MPD2    C4 4417   1.633   0.378  12.540 -0.4080 -0.1271  0.4741
  293MPD2    C5 4418   1.573   0.377  12.414 -0.7140 -0.2443 -0.4736
  293MPD2     H 4419   1.490   0.105  12.670 -0.7348  0.5988 -0.3639
  293MPD2    H1 4420   1.711   0.450  12.564  0.8739 -1.0173 -1.0074
  293MPD2    H2 4421   1.469   0.267  12.270 -0.0609  0.5939 -1.2131
  293MPD2    H3 4422   1.606   0.449  12.341 -0.6170  0.7819  0.5804
  293MPD2     N 4423   1.620   0.294  12.773  0.2581  0.5188  0.4425
  293MPD2    H5 4424   1.593   0.218  12.834  0.3694 -0.1058 -0.2863
  293MPD2    N1 4425   1.404   0.062  12.401 -0.4306 -0.2939 -0.4390
  293MPD2    H7 4426   1.389   0.068  12.301 -0.1015 -3.0169 -0.6592
  294TMC3    C1 4427   1.324   4.559  12.375  1.0217 -0.2826  0.5892
  294TMC3    C2 4428   1.267   4.451  12.428 -0.0585 -0.0377  0.0933
  294TMC3    C3 4429   1.183   4.376  12.360 -0.3958 -0.7148 -0.3942
  294TMC3    C4 4430   1.310   4.585  12.244 -0.7926 -0.3846 -0.0453
  294TMC3    C5 4431   1.235   4.497  12.169  0.0205  0.3007 -0.2752
  294TMC3    C6 4432   1.165   4.396  12.225 -0.1193  0.6010 -0.2857
  294TMC3     C 4433   1.360   4.670  12.464 -0.0984 -0.1775  0.4290
  294TMC3     O 4434   1.377   4.638  12.578  0.2017 -0.5033 -0.1045
  294TMC3     H 4435   1.276   4.437  12.536 -0.6906  0.9897  0.2782
  294TMC3    H1 4436   1.370   4.658  12.190 -0.1900 -0.5281  0.4262
  294TMC3    H2 4437   1.116   4.322  12.163 -0.5540 -0.5817  1.4596
  294TMC3    C7 4438   1.251   4.505  12.023  0.0031 -0.4821 -0.2107
  294TMC3    C8 4439   1.117   4.277  12.435 -0.6631  0.4628  0.2206
  294TMC3    O1 4440   1.157   4.459  11.962  0.3744  0.4211  0.1947
  294TMC3    O2 4441   1.147   4.260  12.553  0.5213 -0.8003 -0.2971
  295MPD2     C 4442   2.312   3.053   0.362 -0.2814 -0.0192  0.1378
  295MPD2    C1 4443   2.185   3.046   0.302 -0.0934 -0.7171  0.5166
  295MPD2    C2 4444   2.074   3.033   0.390  0.2825  0.4702 -0.1483
  295MPD2    C3 4445   2.097   3.032   0.527  0.0945 -0.1469  0.1815
  295MPD2    C4 4446   2.227   3.036   0.576 -0.6786 -0.1988  0.5344
  295MPD2    C5 4447   2.326   3.049   0.490  0.2877  0.8290  0.2826
  295MPD2     H 4448   1.975   3.010   0.351 -0.8236 -1.2842  3.6534
  295MPD2    H1 4449   2.250   3.042   0.681 -1.9947  0.2934  0.7945
  295MPD2    H2 4450   2.396   3.069   0.296 -0.6574 -0.8008 -0.5291
  295MPD2    H3 4451   2.427   3.070   0.525  0.6096  0.2038 -0.2645
  295MPD2     N 4452   1.993   3.023   0.624  0.3964  0.2264 -0.5785
  295MPD2    H5 4453   2.018   3.052   0.718 -0.9543 -1.3503  0.2764
  295MPD2    N1 4454   2.171   3.044   0.162  0.4151 -0.8213  0.2032
  295MPD2    H7 4455   2.081   3.015   0.125  0.9035 -0.2442 -1.4229
  296TMC3    C1 4456   1.785   2.994   0.725 -0.0780 -0.0774  0.1716
  296TMC3    C2 4457   1.812   3.080   0.829  0.4890 -0.4773  0.9594
  296TMC3    C3 4458   1.710   3.080   0.927 -0.0674  0.3054 -0.0443
  296TMC3    C4 4459   1.661   2.934   0.703  0.3179  0.4271 -0.5792
  296TMC3    C5 4460   1.569   2.942   0.796 -0.2365 -0.0391  0.0480
  296TMC3    C6 4461   1.586   3.027   0.907  0.5238  0.0148 -0.4117
  296TMC3     C 4462   1.861   2.996   0.605  0.7319  0.4661  0.0709
  296TMC3     O 4463   1.804   2.969   0.498  0.4184 -0.2717  0.0942
  296TMC3     H 4464   1.910   3.126   0.841  1.6102 -2.8724  1.0759
  296TMC3    H1 4465   1.644   2.880   0.611 -0.1868  1.4844 -1.1115
  296TMC3    H2 4466   1.503   3.054   0.971  1.3985  3.3046 -0.6695
  296TMC3    C7 4467   1.432   2.917   0.750 -0.4379 -0.5850 -0.2128
  296TMC3    C8 4468   1.717   3.164   1.043  0.3563  0.2027 -0.4151
  296TMC3    O1 4469   1.415   2.935   0.630 -0.4765  0.2046  0.0081
  296TMC3    O2 4470   1.624   3.242   1.057 -0.2313 -0.2877  0.2827
  297MPD2     C 4471   3.822   0.734  16.661 -0.1637 -0.2803 -0.1166
  297MPD2    C1 4472   3.777   0.757  16.534 -0.0565  0.0335 -0.0497
  297MPD2    C2 4473   3.844   0.844  16.457 -0.9857  0.3391 -0.7113
  297MPD2    C3 4474   3.956   0.915  16.500 -0.3803 -0.0516 -0.1978
  297MPD2    C4 4475   3.997   0.893  16.628 -0.2749 -0.9057 -0.2457
  297MPD2    C5 4476   3.931   0.808  16.712  0.8939  0.1179 -0.0298
  297MPD2     H 4477   3.809   0.858  16.355 -1.1425  2.5607 -0.3612
  297MPD2    H1 4478   4.083   0.945  16.669 -0.9978  0.3328 -0.2770
  297MPD2    H2 4479   3.770   0.658  16.718  0.7431  0.8639  2.2760
  297MPD2    H3 4480   3.951   0.800  16.818 -1.0713  0.7655  0.3765
  297MPD2     N 4481   4.029   1.010  16.418  0.6353 -0.1933 -0.1441
  297MPD2    H5 4482   4.115   1.053  16.451 -0.9696  1.2414  2.1438
  297MPD2    N1 4483   3.655   0.706  16.480 -0.6976  0.5435 -0.0166
  297MPD2    H7 4484   3.637   0.726  16.383 -0.1509  0.6112 -0.1046
  298TMC3    C1 4485   3.472   0.578  16.449  0.2286 -0.4925  0.2264
  298TMC3    C2 4486   3.500   0.568  16.314 -0.1425  0.6697 -0.2027
  298TMC3    C3 4487   3.400   0.523  16.231  0.2999  0.6900  0.3080
  298TMC3    C4 4488   3.356   0.533  16.501 -0.2137 -0.3281 -0.3042
  298TMC3    C5 4489   3.262   0.477  16.417  0.1425 -0.0414  0.1079
  298TMC3    C6 4490   3.281   0.468  16.282  0.3806  0.4420  0.2301
  298TMC3     C 4491   3.563   0.630  16.542 -0.0434 -0.0320  0.3028
  298TMC3     O 4492   3.539   0.623  16.661  0.0537  0.3795 -0.6212
  298TMC3     H 4493   3.585   0.613  16.265 -0.2014  0.8271 -0.1612
  298TMC3    H1 4494   3.340   0.524  16.607  3.3133  1.6455  0.4001
  298TMC3    H2 4495   3.216   0.417  16.211  0.5775 -1.3280  1.3130
  298TMC3    C7 4496   3.136   0.536  16.462 -0.0367 -0.0111  0.5428
  298TMC3    C8 4497   3.426   0.506  16.091  0.2177 -0.4584 -1.0961
  298TMC3    O1 4498   3.135   0.608  16.562 -0.7201  0.3301  0.4673
  298TMC3    O2 4499   3.330   0.512  16.016 -1.0556  0.4368 -0.5677
  299MPD2     C 4500   0.283   0.225  10.522 -0.7887 -0.0135 -0.7745
  299MPD2    C1 4501   0.272   0.356  10.489 -0.4404  0.0953 -0.4185
  299MPD2    C2 4502   0.176   0.396  10.397 -0.4655  0.7991 -0.1114
  299MPD2    C3 4503   0.083   0.308  10.345 -0.1611  0.4339  0.2070
  299MPD2    C4 4504   0.094   0.178  10.385  0.4016  0.7748 -0.1719
  299MPD2    C5 4505   0.185   0.140  10.478 -0.1253 -0.3196  0.9113
  299MPD2     H 4506   0.179   0.499  10.363  1.8324  1.2477  1.4180
  299MPD2    H1 4507   0.018   0.109  10.350 -1.0292  0.9010  2.6531
  299MPD2    H2 4508   0.366   0.192  10.583 -0.1608  2.2816 -0.3770
  299MPD2    H3 4509   0.179   0.039  10.517 -1.1861 -0.6649 -0.1647
  299MPD2     N 4510   4.705   0.336  10.248  0.1054 -0.4437  0.6102
  299MPD2    H5 4511   4.639   0.263  10.224 -0.3229 -0.2136  1.0708
  299MPD2    N1 4512   0.366   0.447  10.551  0.1986 -0.0974 -0.3236
  299MPD2    H7 4513   0.436   0.413  10.617  0.1340 -0.0068 -0.2096
  300TMC3    C1 4514   4.555   0.445  10.103  0.2917 -0.4924 -0.2446
  300TMC3    C2 4515   4.520   0.573  10.055 -0.0829 -0.2608  0.0661
  300TMC3    C3 4516   4.388   0.592  10.025  0.0049 -0.6073 -0.0608
  300TMC3    C4 4517   4.466   0.344  10.107  1.0680 -0.1482 -0.5279
  300TMC3    C5 4518   4.333   0.373  10.077  0.2406 -0.0387  0.1656
  300TMC3    C6 4519   4.290   0.496  10.031  0.5492 -0.2109  0.5477
  300TMC3     C 4520   4.677   0.449  10.184  0.3842  0.6118 -0.0024
  300TMC3     O 4521   4.718   0.563  10.210  0.0550 -0.1618  0.1586
  300TMC3     H 4522   4.594   0.653  10.058 -0.3618 -0.0777  2.1375
  300TMC3    H1 4523   4.492   0.241  10.131  0.2444 -0.1060  0.5881
  300TMC3    H2 4524   4.186   0.513  10.009  0.7008  0.5199  0.4122
  300TMC3    C7 4525   4.229   0.287  10.132  0.4662 -0.4893  0.0421
  300TMC3    C8 4526   4.349   0.729   9.983  0.1216  0.0736  0.5953
  300TMC3    O1 4527   4.255   0.167  10.138 -0.0441  0.1209  0.5514
  300TMC3    O2 4528   4.414   0.823  10.028 -0.2008  0.3214  0.6859
  301MPD2     C 4529   1.775   1.583   1.456  0.0244 -0.0929 -0.5498
  301MPD2    C1 4530   1.687   1.530   1.366 -0.2615 -0.2274 -0.0443
  301MPD2    C2 4531   1.705   1.397   1.325  0.0735  0.4778  0.6255
  301MPD2    C3 4532   1.822   1.330   1.357 -0.0202  0.2034  0.4355
  301MPD2    C4 4533   1.917   1.386   1.447 -0.1905  0.2365 -0.6578
  301MPD2    C5 4534   1.889   1.508   1.493 -0.6390 -0.2306  0.6741
  301MPD2     H 4535   1.634   1.352   1.256 -0.1760  1.0258  0.5243
  301MPD2    H1 4536   2.002   1.335   1.491 -1.8255 -0.4637  1.6998
  301MPD2    H2 4537   1.774   1.679   1.507 -1.1648 -0.4435  0.0751
  301MPD2    H3 4538   1.959   1.548   1.565  0.6880 -0.5143 -0.4487
  301MPD2     N 4539   1.844   1.193   1.319  0.0063  0.2875  0.0925
  301MPD2    H5 4540   1.917   1.143   1.367 -1.3473 -1.0866  0.7266
  301MPD2    N1 4541   1.569   1.599   1.326  0.2956 -0.1830  0.5258
  301MPD2    H7 4542   1.506   1.540   1.272  3.8003 -2.5338 -0.9934
  302TMC3    C1 4543   1.807   0.995   1.188  0.4661  0.8368 -0.5830
  302TMC3    C2 4544   1.909   0.938   1.261 -0.0857  0.1966 -0.2610
  302TMC3    C3 4545   1.970   0.823   1.213  0.6485  0.0545 -0.3159
  302TMC3    C4 4546   1.780   0.942   1.065 -0.7478 -0.5507  0.4112
  302TMC3    C5 4547   1.832   0.823   1.023  0.3591  0.6012 -0.9255
  302TMC3    C6 4548   1.942   0.771   1.088  0.1472 -0.2492 -0.2344
  302TMC3     C 4549   1.772   1.130   1.212 -0.1302  0.2981 -0.4911
  302TMC3     O 4550   1.706   1.186   1.129 -0.3862 -0.5330  0.3090
  302TMC3     H 4551   1.920   0.957   1.367 -0.3039 -0.9572 -0.0335
  302TMC3    H1 4552   1.704   0.992   1.006  0.4186 -1.3819 -1.8428
  302TMC3    H2 4553   1.997   0.693   1.037  1.4425  0.3890  0.2043
  302TMC3    C7 4554   1.807   0.784   0.888  0.4497  0.3770  0.7559
  302TMC3    C8 4555   2.091   0.774   1.276 -0.6185 -0.5477 -0.6226
  302TMC3    O1 4556   1.894   0.716   0.837 -0.0769 -0.7274 -0.1577
  302TMC3    O2 4557   2.112   0.659   1.249 -0.0438  0.6566  0.1072
  303MPD2     C 4558   2.718   4.689   9.969  0.0175 -0.0496  0.2001
  303MPD2    C1 4559   2.619   4.596  10.006  0.1585 -0.2400  0.3711
  303MPD2    C2 4560   2.507   4.573   9.920 -0.1463 -0.0740  0.3512
  303MPD2    C3 4561   2.505   4.632   9.792 -0.4155 -0.2471 -0.4935
  303MPD2    C4 4562   2.607   4.716   9.754 -0.8754  0.0674  0.8146
  303MPD2    C5 4563   2.709   0.017   9.841  0.0681  0.2281  0.0228
  303MPD2     H 4564   2.425   4.507   9.946 -0.4424  0.1440 -0.0400
  303MPD2    H1 4565   2.606   0.056   9.667  0.5133 -1.9033 -0.6659
  303MPD2    H2 4566   2.802   4.722  10.030  2.5259 -2.4508 -1.9327
  303MPD2    H3 4567   2.787   0.085   9.808 -1.3977  1.3351 -1.1922
  303MPD2     N 4568   2.397   4.613   9.708 -1.2535  0.1007 -0.0383
  303MPD2    H5 4569   2.415   4.650   9.615  0.2623  0.2721  0.3219
  303MPD2    N1 4570   2.635   4.538  10.134 -0.7272  0.6643  0.1947
  303MPD2    H7 4571   2.724   4.554  10.181  0.2302 -2.5784 -0.5375
  304TMC3    C1 4572   2.579   4.380  10.314 -0.8357  0.4399  0.4119
  304TMC3    C2 4573   2.477   4.376  10.412  1.1766 -0.3229  0.7737
  304TMC3    C3 4574   2.474   4.265  10.491  0.5037  0.3685 -0.4735
  304TMC3    C4 4575   2.665   4.276  10.290  0.0020  0.5655  0.3635
  304TMC3    C5 4576   2.655   4.164  10.372 -0.4436 -0.2430  0.8324
  304TMC3    C6 4577   2.562   4.167  10.474 -0.7771  0.1541  0.1120
  304TMC3     C 4578   2.542   4.462  10.197  0.6700 -0.4661 -0.5675
  304TMC3     O 4579   2.419   4.451  10.165 -0.5039  0.1191  0.4675
  304TMC3     H 4580   2.398   4.450  10.418  0.3108 -1.3339  1.8328
  304TMC3    H1 4581   2.732   4.272  10.205 -0.1308  0.2570  0.2704
  304TMC3    H2 4582   2.564   4.089  10.548 -0.1345  0.1725  0.1115
  304TMC3    C7 4583   2.644   4.040  10.302  0.1167  0.2990 -0.1447
  304TMC3    C8 4584   2.342   4.222  10.521 -0.0128 -0.6446 -0.4047
  304TMC3    O1 4585   2.595   3.942  10.353 -0.0678 -0.7494 -0.1153
  304TMC3    O2 4586   2.261   4.302  10.565 -0.9439 -0.4843 -0.6336
  305MPD2     C 4587   0.307   1.999  13.622 -0.1135 -0.8216 -0.3958
  305MPD2    C1 4588   0.427   1.949  13.591 -0.1382 -0.1675  0.0188
  305MPD2    C2 4589   0.444   1.839  13.503  0.4452  0.2080  0.8707
  305MPD2    C3 4590   0.337   1.785  13.442 -0.1244  0.4564 -0.3600
  305MPD2    C4 4591   0.212   1.844  13.462  0.1083  0.0583  0.0203
  305MPD2    C5 4592   0.194   1.947  13.555  0.3477 -0.4644 -0.0405
  305MPD2     H 4593   0.538   1.786  13.509  1.6124  2.3499  1.3562
  305MPD2    H1 4594   0.127   1.810  13.406 -2.3815  4.8111  0.8981
  305MPD2    H2 4595   0.305   2.084  13.689  0.8340 -0.9551 -0.2029
  305MPD2    H3 4596   0.099   1.996  13.567  0.4880  0.0079 -0.9385
  305MPD2     N 4597   0.344   1.681  13.343  0.8638 -0.1545 -0.1104
  305MPD2    H5 4598   0.259   1.645  13.302 -0.1071  1.5711  0.4123
  305MPD2    N1 4599   0.533   2.002  13.665  0.1033  0.3339 -0.0162
  305MPD2    H7 4600   0.521   2.052  13.753 -2.5352  0.1669 -0.2686
  306TMC3    C1 4601   0.755   2.008  13.749 -0.7717 -0.2331  0.3476
  306TMC3    C2 4602   0.704   2.060  13.866 -0.4263  0.2916  0.3306
  306TMC3    C3 4603   0.792   2.064  13.974 -0.3170  0.1559 -0.3685
  306TMC3    C4 4604   0.891   1.983  13.732 -0.1098  0.2957  0.1130
  306TMC3    C5 4605   0.978   2.004  13.837 -0.2174 -0.6542  0.2613
  306TMC3    C6 4606   0.925   2.040  13.959 -0.5615 -0.2945 -0.4407
  306TMC3     C 4607   0.663   1.966  13.638 -0.0490  0.1268  0.7460
  306TMC3     O 4608   0.722   1.908  13.548 -0.0083 -0.2485  0.1579
  306TMC3     H 4609   0.597   2.051  13.881 -0.6757 -0.0153 -1.6200
  306TMC3    H1 4610   0.929   1.947  13.637 -0.6887  0.9811 -0.3732
  306TMC3    H2 4611   0.985   2.032  14.049 -1.6546  0.8879  0.3921
  306TMC3    C7 4612   1.119   1.983  13.815 -0.3801 -1.0446  0.6292
  306TMC3    C8 4613   0.740   2.091  14.108 -0.5342  0.7405 -0.2690
  306TMC3    O1 4614   1.143   1.909  13.724 -0.1017  0.4357 -0.4438
  306TMC3    O2 4615   0.819   2.061  14.197  0.5252  0.2086 -0.2080
  307MPD2     C 4616   2.714   4.363  17.482 -0.0834  0.1320 -0.2328
  307MPD2    C1 4617   2.689   4.498  17.509  0.4687  0.9444  0.1931
  307MPD2    C2 4618   2.661   4.537  17.641 -0.2824 -0.4252 -0.4631
  307MPD2    C3 4619   2.642   4.438   0.040  0.0378  0.9639 -0.0465
  307MPD2    C4 4620   2.645   4.302  17.697 -0.7124 -0.1804  0.1491
  307MPD2    C5 4621   2.677   4.264  17.572 -0.2683  0.2681  0.3177
  307MPD2     H 4622   2.636   4.641  17.659 -0.0061 -0.4752  0.2058
  307MPD2    H1 4623   2.623   4.220   0.066 -0.1222  0.2844  0.9127
  307MPD2    H2 4624   2.755   4.337  17.385 -0.1836 -2.4876  0.4442
  307MPD2    H3 4625   2.680   4.160  17.542 -4.0610  0.3472 -0.2646
  307MPD2     N 4626   2.590   4.484   0.163  0.0685 -0.6581  0.3875
  307MPD2    H5 4627   2.589   4.584   0.183  0.0477 -1.0315  2.2287
  307MPD2    N1 4628   2.704   4.608  17.421 -0.4220  0.0161 -0.5430
  307MPD2    H7 4629   2.694   4.703  17.455 -1.6420 -0.4748  0.5197
  308TMC3    C1 4630   2.280   4.520   0.492  0.0772  0.0071  0.2758
  308TMC3    C2 4631   2.322   4.640   0.531  0.4134 -0.2986 -0.2988
  308TMC3    C3 4632   2.453   4.679   0.493 -0.6237  0.2045 -0.4558
  308TMC3    C4 4633   2.364   4.438   0.412 -0.4534 -0.3369 -0.2335
  308TMC3    C5 4634   2.480   4.485   0.365 -0.4051  0.1287  0.4353
  308TMC3    C6 4635   2.527   4.606   0.409  1.1316  0.1452 -0.1371
  308TMC3     C 4636   2.147   4.479   0.512 -0.2347 -0.1263  0.5354
  308TMC3     O 4637   2.135   4.359   0.529 -0.6760 -0.1465  0.6856
  308TMC3     H 4638   2.262   4.707   0.591  0.7149  1.0049 -1.4574
  308TMC3    H1 4639   2.317   4.345   0.382  1.3852 -0.7499 -1.8419
  308TMC3    H2 4640   2.620   4.645   0.368  1.3185  2.7707  2.7890
  308TMC3    C7 4641   2.540   4.406   0.260 -0.1998  0.9074 -0.1840
  308TMC3    C8 4642   2.505   0.094   0.498  0.5093 -0.4314  0.0676
  308TMC3    O1 4643   2.511   4.287   0.266 -0.4366  0.0378 -0.3586
  308TMC3    O2 4644   2.624   0.097   0.512  0.5559  0.6473 -0.0459
  309MPD2     C 4645   1.758   0.240  17.148  0.4199 -0.3960  0.4102
  309MPD2    C1 4646   1.696   0.277  17.031 -0.7905 -0.3692 -0.1981
  309MPD2    C2 4647   1.570   0.328  17.036 -0.3206  0.4145 -0.7234
  309MPD2    C3 4648   1.498   0.327  17.152 -0.8569  0.5230 -0.2410
  309MPD2    C4 4649   1.560   0.283  17.272 -0.4605 -0.1460 -0.2012
  309MPD2    C5 4650   1.686   0.239  17.263 -0.5075  0.0383  0.1269
  309MPD2     H 4651   1.526   0.369  16.946  0.7599 -2.0925 -2.4037
  309MPD2    H1 4652   1.514   0.273  17.370  1.2704 -0.5159  0.5778
  309MPD2    H2 4653   1.863   0.212  17.145  0.6527  0.8444 -2.5759
  309MPD2    H3 4654   1.720   0.197  17.357  1.8733  0.7806 -0.3969
  309MPD2     N 4655   1.361   0.368  17.157  0.2569  0.1336 -0.2257
  309MPD2    H5 4656   1.319   0.373  17.249  2.2195 -0.8630  0.7111
  309MPD2    N1 4657   1.772   0.291  16.914  0.0131 -0.3636  0.1695
  309MPD2    H7 4658   1.725   0.328  16.832 -0.5580 -1.0759  0.1744
  310TMC3    C1 4659   1.929   0.264  16.754 -0.7503  0.6956  0.1526
  310TMC3    C2 4660   1.880   0.376  16.684 -0.0599 -0.0853 -0.1889
  310TMC3    C3 4661   1.902   0.385  16.549 -0.4704 -0.1114  0.0017
  310TMC3    C4 4662   1.998   0.169  16.679  0.5897 -0.5141 -0.5493
  310TMC3    C5 4663   2.004   0.172  16.542 -0.7376 -0.6366  0.3205
  310TMC3    C6 4664   1.965   0.289  16.477  0.8042 -0.7120 -0.3299
  310TMC3     C 4665   1.893   0.237  16.889 -0.8564  0.7707  0.3803
  310TMC3     O 4666   1.947   0.138  16.934 -0.1565 -0.8783 -0.1241
  310TMC3     H 4667   1.845   0.462  16.741  1.2295  1.4801 -1.7382
  310TMC3    H1 4668   2.020   0.074  16.727  0.9877  0.5652  1.4377
  310TMC3    H2 4669   1.938   0.286  16.372 -2.2925 -0.1601  0.4447
  310TMC3    C7 4670   2.054   0.056  16.480 -0.0604 -0.8613 -0.1280
  310TMC3    C8 4671   1.815   0.482  16.475 -0.1925 -0.0492 -0.3199
  310TMC3    O1 4672   2.047   4.682  16.545  0.4977  0.0100  0.5641
  310TMC3    O2 4673   1.817   0.472  16.353 -0.4219  0.5644 -0.0411
  311MPD2     C 4674   4.259   1.559  12.493  0.2761  0.7021 -0.2091
  311MPD2    C1 4675   4.243   1.691  12.528  0.0163 -0.2004  0.3557
  311MPD2    C2 4676   4.120   1.735  12.574  0.0878  0.1934  0.1712
  311MPD2    C3 4677   4.013   1.654  12.599 -0.1157  0.0021 -0.3130
  311MPD2    C4 4678   4.019   1.521  12.556 -0.1953  0.2012  0.3180
  311MPD2    C5 4679   4.147   1.478  12.509  0.1421  0.7558  0.5499
  311MPD2     H 4680   4.118   1.838  12.610  0.0697  0.5308 -0.7926
  311MPD2    H1 4681   3.934   1.456  12.571  0.5182 -0.7141  0.3334
  311MPD2    H2 4682   4.339   1.506  12.441  0.2088 -0.1817  0.5847
  311MPD2    H3 4683   4.156   1.374  12.481  0.0534  0.7006  0.7198
  311MPD2     N 4684   3.900   1.719  12.652  0.6912  0.6982 -0.3315
  311MPD2    H5 4685   3.913   1.818  12.670  1.2128  0.4551  0.6202
  311MPD2    N1 4686   4.346   1.789  12.509 -0.1934 -0.3604  0.0118
  311MPD2    H7 4687   4.324   1.888  12.519  2.0390  0.2730 -1.3335
  312TMC3    C1 4688   3.677   1.752  12.722  0.1304 -0.0599  0.3183
  312TMC3    C2 4689   3.547   1.725  12.688 -0.6110 -0.3535 -0.2013
  312TMC3    C3 4690   3.457   1.828  12.715  0.0501  0.0196  0.2318
  312TMC3    C4 4691   3.714   1.856  12.808  0.9811 -0.2251 -0.0857
  312TMC3    C5 4692   3.617   1.940  12.847 -0.3508  0.3705  0.0806
  312TMC3    C6 4693   3.497   1.935  12.794  0.1282 -0.2976 -0.6585
  312TMC3     C 4694   3.775   1.657  12.667  0.1039  0.5020 -0.8345
  312TMC3     O 4695   3.734   1.548  12.633  0.4976 -0.3296  0.0841
  312TMC3     H 4696   3.509   1.633  12.645 -0.9301 -1.5193  2.5825
  312TMC3    H1 4697   3.815   1.881  12.838  1.0335 -1.4346  0.7502
  312TMC3    H2 4698   3.429   2.015  12.821 -0.1658 -0.5941 -0.5302
  312TMC3    C7 4699   3.657   2.041  12.944  0.3514 -0.0602 -0.1540
  312TMC3    C8 4700   3.315   1.812  12.681 -0.4362 -0.0444  0.2982
  312TMC3    O1 4701   3.605   2.153  12.942  0.3984 -0.0379  0.4259
  312TMC3    O2 4702   3.271   1.700  12.701 -0.3023  0.3238  1.0951
  313MPD2     C 4703   3.619   0.873  10.296  0.0720 -0.0328 -0.3948
  313MPD2    C1 4704   3.492   0.852  10.354 -0.3542 -0.5917 -0.5936
  313MPD2    C2 4705   3.415   0.745  10.323  0.1548  0.1326  0.2153
  313MPD2    C3 4706   3.467   0.649  10.240  0.0309  0.6652  0.2085
  313MPD2    C4 4707   3.589   0.668  10.184  0.9547 -0.1432  0.1381
  313MPD2    C5 4708   3.670   0.770  10.220  0.8256  0.9290  0.8948
  313MPD2     H 4709   3.311   0.736  10.352 -0.1419 -0.4696 -0.9871
  313MPD2    H1 4710   3.628   0.603  10.106 -0.9546 -1.1298  0.0257
  313MPD2    H2 4711   3.691   0.952  10.313 -0.9534  0.7251  0.4292
  313MPD2    H3 4712   3.764   0.786  10.168  0.8309 -1.9221  0.0703
  313MPD2     N 4713   3.380   0.541  10.200  0.5646  0.1832  0.1491
  313MPD2    H5 4714   3.288   0.525  10.240 -0.2354 -0.9796 -2.1373
  313MPD2    N1 4715   3.428   0.958  10.431  0.3895  0.2680 -0.4182
  313MPD2    H7 4716   3.327   0.951  10.445  0.3129  0.9911 -0.6188
  314TMC3    C1 4717   3.421   1.177  10.529  0.0458  0.2500  0.2981
  314TMC3    C2 4718   3.493   1.270  10.590  0.5830  0.1276 -0.0104
  314TMC3    C3 4719   3.468   1.407  10.571  0.0854 -0.3691  1.2878
  314TMC3    C4 4720   3.325   1.219  10.444  0.7825 -0.2055 -1.0357
  314TMC3    C5 4721   3.300   1.353  10.426  0.4959  0.1188 -0.5487
  314TMC3    C6 4722   3.378   1.450  10.484  0.2715 -0.2531 -0.3282
  314TMC3     C 4723   3.501   1.066  10.483 -0.2155 -0.0916 -0.1016
  314TMC3     O 4724   3.621   1.073  10.509  0.1069  0.5322  0.7124
  314TMC3     H 4725   3.559   1.233  10.668  0.5618  0.5755  0.2172
  314TMC3    H1 4726   3.269   1.156  10.377  0.0213  0.9168 -1.4491
  314TMC3    H2 4727   3.342   1.552  10.474  0.0244 -0.3415 -0.3334
  314TMC3    C7 4728   3.238   1.387  10.301  0.2296 -1.2077 -0.4714
  314TMC3    C8 4729   3.571   1.503  10.608 -0.3195  0.3211 -0.3256
  314TMC3    O1 4730   3.135   1.333  10.270 -0.4103  0.4207  0.1327
  314TMC3    O2 4731   3.540   1.617  10.637 -1.0555 -0.0719 -0.2729
  315MPD2     C 4732   2.588   0.349   0.076  0.3660 -0.2366 -0.1941
  315MPD2    C1 4733   2.712   0.361   0.141 -0.4741 -0.4224  0.2669
  315MPD2    C2 4734   2.773   0.484   0.143 -0.6034  0.3088 -0.7832
  315MPD2    C3 4735   2.730   0.598   0.075 -0.2347 -0.3715  0.0168
  315MPD2    C4 4736   2.603   0.588   0.024  0.6721  0.3984  0.1940
  315MPD2    C5 4737   2.531   0.465   0.030 -0.5401 -0.8129 -0.4961
  315MPD2     H 4738   2.867   0.490   0.196 -0.6629 -0.5903 -0.5803
  315MPD2    H1 4739   2.548   0.666  17.671  0.9633  0.7298  0.3861
  315MPD2    H2 4740   2.539   0.255   0.053  0.1274  0.2390 -1.6196
  315MPD2    H3 4741   2.437   0.449  17.676 -1.5417  3.8013 -0.0903
  315MPD2     N 4742   2.813   0.715   0.057  0.2762 -0.1861 -0.0921
  315MPD2    H5 4743   2.903   0.709   0.104 -0.9152 -1.9018  1.9494
  315MPD2    N1 4744   2.784   0.246   0.204  0.0819 -0.2982  0.8401
  315MPD2    H7 4745   2.867   0.264   0.260 -1.0211 -0.6398  2.5868
  316TMC3    C1 4746   2.888   0.935   0.011 -0.7565 -0.1546 -0.3808
  316TMC3    C2 4747   2.969   0.924   0.117 -0.5360  0.4961  0.7364
  316TMC3    C3 4748   3.055   1.023   0.124 -0.1930  0.3055  0.3875
  316TMC3    C4 4749   2.890   1.030  17.608 -0.3275 -0.7972  0.6327
  316TMC3    C5 4750   2.985   1.135  17.618  0.2307  0.1074  0.1088
  316TMC3    C6 4751   3.064   1.131   0.034  0.4044 -0.3027  0.3744
  316TMC3     C 4752   2.780   0.835  17.696 -0.6882 -0.4320  0.4803
  316TMC3     O 4753   2.672   0.869  17.648 -0.8721 -0.0613 -0.5910
  316TMC3     H 4754   2.949   0.849   0.192 -1.1996 -0.5506 -0.4738
  316TMC3    H1 4755   2.814   1.019  17.532 -0.8788 -4.7333  1.7629
  316TMC3    H2 4756   3.140   1.208   0.046  1.9435 -1.6727 -0.5741
  316TMC3    C7 4757   2.990   1.254  17.532  0.4093  0.5761 -0.3046
  316TMC3    C8 4758   3.171   1.015   0.207 -0.3251  0.9819  0.6221
  316TMC3    O1 4759   3.037   1.353  17.582 -0.4205  0.3529 -0.3385
  316TMC3    O2 4760   3.217   1.120   0.244 -0.1589  0.3882  0.5866
  317MPD2     C 4761   0.230   3.912  13.093 -0.1427  0.9306 -0.4355
  317MPD2    C1 4762   0.248   3.784  13.042 -0.2623 -0.4455  0.7865
  317MPD2    C2 4763   0.327   3.696  13.115 -0.2993 -0.3183 -1.0212
  317MPD2    C3 4764   0.394   3.736  13.230  0.7096  0.0232 -0.1997
  317MPD2    C4 4765   0.367   3.862  13.284  0.3079 -0.6345 -0.5821
  317MPD2    C5 4766   0.285   3.945  13.215  0.2290 -0.1594  0.3769
  317MPD2     H 4767   0.343   3.593  13.087 -1.2005 -1.2010  1.6192
  317MPD2    H1 4768   0.408   3.894  13.379  0.4385 -2.0621 -0.1489
  317MPD2    H2 4769   0.157   3.975  13.046  0.6470  1.8364 -0.4426
  317MPD2    H3 4770   0.259   4.038  13.264 -1.8103  0.0863 -1.1529
  317MPD2     N 4771   0.477   3.637  13.289  0.0036 -0.7855 -0.1668
  317MPD2    H5 4772   0.495   3.550  13.240  3.2060  0.0078 -0.3638
  317MPD2    N1 4773   0.197   3.737  12.919 -0.7170 -0.8755 -0.2862
  317MPD2    H7 4774   0.226   3.643  12.894 -1.5140 -0.7988 -1.4970
  318TMC3    C1 4775   0.638   3.528  13.410 -0.1427  0.1143 -0.6835
  318TMC3    C2 4776   0.588   3.406  13.380 -0.2710 -0.1086  0.3856
  318TMC3    C3 4777   0.654   3.297  13.428 -1.0668 -0.6809 -0.0462
  318TMC3    C4 4778   0.762   3.535  13.469  0.1907 -0.5826 -0.2327
  318TMC3    C5 4779   0.835   3.423  13.490  1.2490 -0.4289  0.1129
  318TMC3    C6 4780   0.780   3.297  13.468 -0.4728 -0.5439  0.2296
  318TMC3     C 4781   0.549   3.642  13.410 -0.4235 -0.2887  0.1463
  318TMC3     O 4782   0.584   3.727  13.489 -0.2713  0.8538  0.3672
  318TMC3     H 4783   0.485   3.397  13.349 -1.2293  1.9913  2.9367
  318TMC3    H1 4784   0.804   3.629  13.501  1.6388 -1.3328  0.0518
  318TMC3    H2 4785   0.840   3.209  13.488 -2.1086 -1.1884  2.3000
  318TMC3    C7 4786   0.961   3.433  13.561  0.1373 -0.1935  0.0085
  318TMC3    C8 4787   0.608   3.165  13.379 -0.3137  0.2778  0.7639
  318TMC3    O1 4788   0.988   3.543  13.606  0.4114 -0.0947  0.5945
  318TMC3    O2 4789   0.647   3.067  13.439  0.1309  0.4713  0.2999
  319MPD2     C 4790   1.085   0.029  16.633  0.5352  0.7452 -0.3214
  319MPD2    C1 4791   0.972   0.012  16.718 -0.2975 -0.0783 -0.1341
  319MPD2    C2 4792   0.850   0.003  16.660  0.5418 -0.2894 -0.2631
  319MPD2    C3 4793   0.832   4.719  16.521 -0.6110  0.1186  0.1879
  319MPD2    C4 4794   0.943   0.007  16.444  0.9451  0.0185  0.0232
  319MPD2    C5 4795   1.064   0.025  16.498 -0.1645  0.6835 -0.4617
  319MPD2     H 4796   0.765   0.010  16.727  0.0920  1.5269 -1.0238
  319MPD2    H1 4797   0.938   0.002  16.336  0.5275  1.1245 -0.0119
  319MPD2    H2 4798   1.186   0.027  16.674  0.0959 -0.3877  0.7136
  319MPD2    H3 4799   1.146   0.057  16.435  1.3157 -0.9357  0.6289
  319MPD2     N 4800   0.702   0.002  16.460 -0.1875 -0.1669  0.4305
  319MPD2    H5 4801   0.698   0.022  16.361  1.9548 -0.4104  0.3069
  319MPD2    N1 4802   0.976   4.721  16.855  0.5749 -0.2338 -0.1656
  319MPD2    H7 4803   0.889   4.683  16.892  1.8196 -0.4524  2.5077
  320TMC3    C1 4804   0.475   4.715  16.428 -0.5050 -0.0698 -0.0809
  320TMC3    C2 4805   0.470   0.072  16.317 -0.0484 -0.3488 -0.1146
  320TMC3    C3 4806   0.365   0.048  16.231  0.1992  0.3865 -0.4513
  320TMC3    C4 4807   0.389   4.616  16.454 -0.2129 -0.7245 -1.2126
  320TMC3    C5 4808   0.292   4.588  16.364 -0.4183 -0.1675 -0.4225
  320TMC3    C6 4809   0.273   4.672  16.253 -0.0773 -0.2079 -0.8629
  320TMC3     C 4810   0.586   4.712  16.522  0.4757  0.0967 -0.3161
  320TMC3     O 4811   0.570   4.672  16.637 -0.5752 -0.0421  0.3018
  320TMC3     H 4812   0.535   0.158  16.304 -0.7549 -0.5101 -4.7721
  320TMC3    H1 4813   0.404   4.558  16.545  2.5755  0.8519 -0.6769
  320TMC3    H2 4814   0.198   4.654  16.177  1.0447 -1.2084 -1.7309
  320TMC3    C7 4815   0.303   4.454  16.319 -0.0809 -0.0931  0.5912
  320TMC3    C8 4816   0.362   0.136  16.125 -0.0778  0.0023  0.0331
  320TMC3    O1 4817   0.273   4.440  16.199 -0.4735 -0.2487  1.0761
  320TMC3    O2 4818   0.390   0.253  16.142  0.9525 -0.7104  0.2513
  321TMC3    C1 4819   1.056   4.722  17.079  0.4734 -0.5918  0.5061
  321TMC3    C2 4820   0.998   4.599  17.103 -0.5914 -0.1751  0.2586
  321TMC3    C3 4821   0.991   4.566  17.239  0.0672 -0.1901 -0.5373
  321TMC3    C4 4822   1.108   0.074  17.173  0.0757  0.1764  0.2944
  321TMC3    C5 4823   1.091   0.049  17.311 -0.6113 -0.6250 -0.0822
  321TMC3    C6 4824   1.027   4.654  17.340  0.0349 -1.1382 -0.3044
  321TMC3     C 4825   1.074   0.037  16.942  0.1738  0.2147 -0.5532
  321TMC3     O 4826   1.173   0.109  16.919 -0.7377  1.1620  0.4581
  321TMC3     H 4827   0.983   4.530  17.020  0.4019  0.7565 -0.7004
  321TMC3    H1 4828   1.157   0.168  17.151  0.2435  0.2296  0.8719
  321TMC3    H2 4829   1.009   4.626  17.443 -2.7216  1.1758 -0.1466
  321TMC3    C7 4830   1.215   0.072  17.380  0.2717 -0.1596  0.1548
  321TMC3    C8 4831   1.053   4.437  17.254  0.1278 -0.8575 -0.5181
  321TMC3    O1 4832   1.277   0.178  17.371  0.2169  0.7331 -0.6351
  321TMC3    O2 4833   1.164   4.441  17.315 -0.3130 -0.6798 -0.0288
  322MPD2     C 4834   0.015   1.610  13.715  0.5078  1.1960 -0.3671
  322MPD2    C1 4835   0.054   1.508  13.805 -0.2678  0.9234  0.2912
  322MPD2    C2 4836   0.090   1.386  13.769 -0.0136  0.0239  0.2657
  322MPD2    C3 4837   0.091   1.355  13.634  0.0136 -0.0507  0.0403
  322MPD2    C4 4838   0.036   1.442  13.543  0.5162  0.7887 -0.0663
  322MPD2    C5 4839   4.712   1.569  13.585 -0.2028  0.3734 -0.1875
  322MPD2     H 4840   0.127   1.310  13.837 -0.9381  1.6558  2.5745
  322MPD2    H1 4841   0.021   1.422  13.437 -0.3675 -0.2232  0.2619
  322MPD2    H2 4842   4.723   1.712  13.747  0.5606  0.7623  1.0081
  322MPD2    H3 4843   4.677   1.641  13.513  0.8206  0.9359 -0.1087
  322MPD2     N 4844   0.147   1.234  13.590  0.4864  0.0924  0.1980
  322MPD2    H5 4845   0.180   1.165  13.656 -0.1668  0.2969  0.7478
  322MPD2    N1 4846   0.084   1.552  13.940 -0.1378 -0.0311 -0.0936
  322MPD2    H7 4847   0.066   1.650  13.961 -2.9318 -0.7679  0.8924
  323TMC3    C1 4848   0.180   1.553  14.151  0.2992 -0.4579  0.0545
  323TMC3    C2 4849   0.271   1.642  14.113 -0.5646 -0.5153 -0.3058
  323TMC3    C3 4850   0.343   1.707  14.202  0.6831 -0.4229 -0.3055
  323TMC3    C4 4851   0.170   1.511  14.282  0.7445 -0.1973 -0.4137
  323TMC3    C5 4852   0.247   1.578  14.376  0.5967 -0.1395  0.7233
  323TMC3    C6 4853   0.336   1.678  14.338  1.3104 -0.3076 -0.4368
  323TMC3     C 4854   0.129   1.472  14.045  0.5264  0.9441  1.0134
  323TMC3     O 4855   0.124   1.350  14.063  0.5135 -0.1552 -0.4270
  323TMC3     H 4856   0.274   1.659  14.006 -0.3808 -0.7207 -0.3339
  323TMC3    H1 4857   0.099   1.433  14.308 -0.0679  1.3178  1.9644
  323TMC3    H2 4858   0.394   1.734  14.411  0.3688 -1.8668  1.4889
  323TMC3    C7 4859   0.308   1.484  14.470 -0.1157 -0.0911  0.6090
  323TMC3    C8 4860   0.480   1.741  14.168  0.4093 -0.0981 -0.0514
  323TMC3    O1 4861   0.298   1.365  14.442  0.0054 -0.4590 -0.4486
  323TMC3    O2 4862   0.562   1.733  14.257 -0.3434 -0.1660 -0.5856
  324MPD2     C 4863   2.243   2.049  14.056 -0.0957  0.0894 -0.2670
  324MPD2    C1 4864   2.232   2.187  14.056 -0.4500  0.1738  0.1535
  324MPD2    C2 4865   2.112   2.235  14.013 -0.5494  0.3077 -0.5620
  324MPD2    C3 4866   1.998   2.161  13.986 -0.7124 -0.0285  0.7122
  324MPD2    C4 4867   2.019   2.028  13.994  0.0470 -0.1662  0.2322
  324MPD2    C5 4868   2.142   1.971  14.013 -0.0727  0.1845 -0.4567
  324MPD2     H 4869   2.118   2.340  13.987 -1.0852  0.4563 -0.0679
  324MPD2    H1 4870   1.939   1.963  13.963  0.4492  0.3279 -1.9009
  324MPD2    H2 4871   2.344   2.015  14.077 -1.3123 -2.6394  1.0642
  324MPD2    H3 4872   2.168   1.867  13.998  0.0084 -0.2827  2.7832
  324MPD2     N 4873   1.873   2.216  13.954  0.0153 -0.1009  0.4301
  324MPD2    H5 4874   1.799   2.147  13.947 -1.8526  1.8694  0.7897
  324MPD2    N1 4875   2.340   2.275  14.079  0.1162 -0.5170 -0.1460
  324MPD2    H7 4876   2.320   2.375  14.073  1.4043 -0.2613 -0.1441
  325TMC3    C1 4877   1.702   2.393  13.986  0.3533  0.3347  0.3788
  325TMC3    C2 4878   1.607   2.328  13.918 -0.2451 -0.2877  0.5251
  325TMC3    C3 4879   1.487   2.392  13.892  0.6635 -0.3981 -0.3505
  325TMC3    C4 4880   1.674   2.515  14.039  0.1978 -0.1073  0.3742
  325TMC3    C5 4881   1.561   2.583  13.998 -0.3575  0.2780 -0.3316
  325TMC3    C6 4882   1.462   2.523  13.929 -0.2578  0.2699  0.3173
  325TMC3     C 4883   1.840   2.343  13.995 -0.1486  0.8341 -0.1515
  325TMC3     O 4884   1.910   2.438  14.029  0.0112 -0.2906  0.2130
  325TMC3     H 4885   1.628   2.226  13.888  1.5865  0.4999 -0.9215
  325TMC3    H1 4886   1.742   2.574  14.101  0.0907  1.8095 -1.3260
  325TMC3    H2 4887   1.369   2.573  13.903 -0.7187 -0.9186 -0.3312
  325TMC3    C7 4888   1.540   2.719  14.039 -0.3136 -0.6160 -0.1998
  325TMC3    C8 4889   1.396   2.328  13.807 -0.4203  0.4131  0.6151
  325TMC3    O1 4890   1.639   2.796  14.028  0.4179 -0.0842 -0.1125
  325TMC3    O2 4891   1.452   2.253  13.727 -0.2183 -0.8477  0.5419
  326MPD2     C 4892   3.178   4.043  10.984 -0.7786 -0.1487  0.2085
  326MPD2    C1 4893   3.272   3.959  10.931  0.2640 -0.2316 -0.3406
  326MPD2    C2 4894   3.390   3.947  10.993  0.4372  0.0808 -0.6514
  326MPD2    C3 4895   3.424   4.037  11.095  0.3742 -0.4856  0.5309
  326MPD2    C4 4896   3.331   4.125  11.145 -0.7480 -0.2058 -0.3817
  326MPD2    C5 4897   3.207   4.110  11.093  0.4105  0.0827  0.5397
  326MPD2     H 4898   3.463   3.872  10.965 -1.2806 -1.5459 -0.7787
  326MPD2    H1 4899   3.339   4.187  11.233 -0.5199  2.0993 -2.0482
  326MPD2    H2 4900   3.074   4.043  10.953 -0.9286 -1.3132  0.7049
  326MPD2    H3 4901   3.125   4.167  11.136 -0.2738 -1.9522  1.9214
  326MPD2     N 4902   3.548   4.046  11.158  0.4558 -0.2787 -1.0935
  326MPD2    H5 4903   3.546   4.122  11.225  1.6295 -1.6375  0.4972
  326MPD2    N1 4904   3.239   3.876  10.817  0.3036  0.0327  0.2398
  326MPD2    H7 4905   3.292   3.792  10.797  0.4282 -0.1478  1.2979
  327TMC3    C1 4906   3.134   3.824  10.620 -0.5239  0.2519  0.5293
  327TMC3    C2 4907   3.117   3.877  10.498 -0.9021 -0.1062 -0.0961
  327TMC3    C3 4908   3.130   3.798  10.385 -0.0919 -0.0681 -0.3815
  327TMC3    C4 4909   3.172   3.695  10.638 -0.0224 -0.2242  0.0962
  327TMC3    C5 4910   3.192   3.625  10.519  0.1332  0.3774  0.5007
  327TMC3    C6 4911   3.167   3.672  10.390 -0.4212  0.0573 -0.5562
  327TMC3     C 4912   3.141   3.921  10.730 -0.0380 -0.3713  0.0809
  327TMC3     O 4913   3.090   4.032  10.722 -0.0550  0.1081  0.0833
  327TMC3     H 4914   3.090   3.982  10.496  0.1204  0.1487 -0.3524
  327TMC3    H1 4915   3.202   3.650  10.732 -0.2602 -0.3000  0.1353
  327TMC3    H2 4916   3.183   3.598  10.313 -1.0750 -0.2683 -0.3842
  327TMC3    C7 4917   3.286   3.512  10.529 -0.0570 -0.3039 -0.5682
  327TMC3    C8 4918   3.132   3.866  10.255  0.5123  0.0603  0.4120
  327TMC3    O1 4919   3.380   3.508  10.453  0.6318  0.5681  0.2430
  327TMC3    O2 4920   3.099   3.986  10.259  0.6280  0.6683  0.8145
  328MPD2     C 4921   0.647   3.486  17.185  0.0999 -0.3558  0.1080
  328MPD2    C1 4922   0.538   3.403  17.158 -0.5461  0.5343 -0.2843
  328MPD2    C2 4923   0.437   3.450  17.073 -0.0132 -0.5595  0.0439
  328MPD2    C3 4924   0.458   3.570  17.009  0.2375 -0.0366 -0.3133
  328MPD2    C4 4925   0.561   3.659  17.046  0.3052  0.7005  0.0879
  328MPD2    C5 4926   0.660   3.606  17.123 -0.6638 -0.0550  0.4561
  328MPD2     H 4927   0.348   3.392  17.048 -1.0174  0.3655  1.4645
  328MPD2    H1 4928   0.569   3.751  16.989  0.5075  0.9823  0.5755
  328MPD2    H2 4929   0.723   3.452  17.255 -0.3325 -3.2417 -0.8321
  328MPD2    H3 4930   0.742   3.671  17.152 -0.2639 -0.4019  0.1125
  328MPD2     N 4931   0.376   3.618  16.907  0.6651  0.3744 -0.4248
  328MPD2    H5 4932   0.414   3.707  16.875  0.8960  0.0345 -1.1100
  328MPD2    N1 4933   0.518   3.281  17.228  0.1687  0.4478  0.1991
  328MPD2    H7 4934   0.591   3.255  17.295  2.3149  2.5263 -1.3671
  329TMC3    C1 4935   0.436   3.063  17.276  0.6031 -0.4588 -0.0551
  329TMC3    C2 4936   0.495   3.071  17.401 -0.2816 -0.6242  0.1035
  329TMC3    C3 4937   0.518   2.953  17.466 -0.1651  0.0123 -0.2418
  329TMC3    C4 4938   0.428   2.941  17.207  0.3659  0.5983  0.6519
  329TMC3    C5 4939   0.459   2.828  17.278  0.6207  0.1221 -0.6921
  329TMC3    C6 4940   0.503   2.832  17.407 -0.2397 -0.0765 -0.3367
  329TMC3     C 4941   0.425   3.186  17.194 -0.3094 -0.0966  0.5880
  329TMC3     O 4942   0.339   3.177  17.109  0.2076 -0.1322  0.6380
  329TMC3     H 4943   0.499   3.166  17.454 -0.4666 -0.4342 -0.2219
  329TMC3    H1 4944   0.412   2.940  17.099 -1.2731  1.8714  0.8802
  329TMC3    H2 4945   0.535   2.748  17.466  0.1885 -1.5664 -2.6811
  329TMC3    C7 4946   0.454   2.702  17.208 -0.5056  0.1526 -0.5390
  329TMC3    C8 4947   0.555   2.959  17.610 -0.5377  0.0132  0.6919
  329TMC3    O1 4948   0.485   2.607  17.275 -0.0544 -0.0460  0.6735
  329TMC3    O2 4949   0.618   2.865  17.653 -0.0377  0.4251  0.3052
  330TMC3    C1 4950   3.741   2.303   9.730  0.0593  0.0527  0.5122
  330TMC3    C2 4951   3.709   2.265   9.598 -0.0016  0.7150  0.6221
  330TMC3    C3 4952   3.659   2.139   9.569 -0.2879  0.7804  0.0282
  330TMC3    C4 4953   3.717   2.221   9.835  0.3928 -0.1471 -0.0839
  330TMC3    C5 4954   3.647   2.107   9.803  0.0624  0.0702 -0.4954
  330TMC3    C6 4955   3.621   2.060   9.673 -0.7200 -0.4347  0.0222
  330TMC3     C 4956   3.771   2.440   9.766 -0.1610  0.5029  0.3621
  330TMC3     O 4957   3.769   2.479   9.882 -0.3940 -0.1316 -0.3212
  330TMC3     H 4958   3.713   2.336   9.516 -1.0974 -0.2031 -0.2246
  330TMC3    H1 4959   3.761   2.238   9.933 -0.3669  0.9173  0.0698
  330TMC3    H2 4960   3.558   1.973   9.669  0.4514 -1.1678 -2.1994
  330TMC3    C7 4961   3.602   2.018   9.912  0.5263  0.0857 -0.4046
  330TMC3    C8 4962   3.617   2.115   9.432  0.4662 -0.2397  0.1704
  330TMC3    O1 4963   3.511   1.936   9.898  0.9408 -0.1233  0.0083
  330TMC3    O2 4964   3.671   2.188   9.349  0.4380 -0.5686  0.5310
  331MPD2     C 4965   1.622   2.051  12.696 -0.4582  0.1612  0.3200
  331MPD2    C1 4966   1.533   2.072  12.587 -0.8860  0.3984 -0.2877
  331MPD2    C2 4967   1.503   1.970  12.503 -0.0676  0.1228  0.5763
  331MPD2    C3 4968   1.581   1.856  12.502 -0.6298 -0.1241  0.7744
  331MPD2    C4 4969   1.668   1.836  12.611  0.1368  0.2880 -0.0447
  331MPD2    C5 4970   1.688   1.931  12.705 -0.7142 -0.3087 -0.3386
  331MPD2     H 4971   1.430   1.993  12.426  0.3107 -0.3355  0.0849
  331MPD2    H1 4972   1.729   1.746  12.611 -0.7936 -0.3475  0.8904
  331MPD2    H2 4973   1.643   2.131  12.766  0.2502 -0.8169  1.2220
  331MPD2    H3 4974   1.752   1.920  12.792  1.6766  0.1521 -2.0246
  331MPD2     N 4975   1.583   1.762  12.393 -0.2056  0.0853  0.4941
  331MPD2    H5 4976   1.657   1.693  12.394  0.0744  0.3715 -0.5884
  331MPD2    N1 4977   1.464   2.190  12.569  0.3085  0.5564  0.5392
  331MPD2    H7 4978   1.390   2.189  12.499  1.0253  0.3556 -0.2129
  332TMC3    C1 4979   1.573   1.707  12.162  0.3551 -0.0671  0.0627
  332TMC3    C2 4980   1.538   1.755  12.034 -0.1386 -0.1230  1.0758
  332TMC3    C3 4981   1.610   1.701  11.933  0.0404  0.0150  0.3419
  332TMC3    C4 4982   1.674   1.611  12.184 -0.6788 -0.0273  0.4245
  332TMC3    C5 4983   1.737   1.562  12.074  0.2726 -0.6245  0.0486
  332TMC3    C6 4984   1.711   1.608  11.950  0.1503  0.0789 -0.0022
  332TMC3     C 4985   1.514   1.777  12.274  0.5844  0.9942 -0.0129
  332TMC3     O 4986   1.424   1.860  12.251  0.0230 -0.0821 -0.2101
  332TMC3     H 4987   1.468   1.838  12.031  0.6377  0.5899  2.7697
  332TMC3    H1 4988   1.681   1.560  12.279  1.5307  1.4133  1.0368
  332TMC3    H2 4989   1.776   1.583  11.867  0.9141  1.4039  0.2017
  332TMC3    C7 4990   1.860   1.490  12.099  0.5065 -0.2659  0.3730
  332TMC3    C8 4991   1.635   1.801  11.841  0.4410  0.0042  0.0850
  332TMC3    O1 4992   1.896   1.487  12.214 -0.6677  0.2188 -0.6074
  332TMC3    O2 4993   1.745   1.854  11.832  0.2412 -0.4908  0.8531
  333MPD2     C 4994   1.807   1.790  11.069  0.5288  0.0953 -0.2688
  333MPD2    C1 4995   1.861   1.676  11.020 -0.5252  1.5644  0.0808
  333MPD2    C2 4996   1.801   1.554  11.053 -0.1266 -0.4280  0.1874
  333MPD2    C3 4997   1.689   1.544  11.134  0.3452 -0.1736 -0.3437
  333MPD2    C4 4998   1.637   1.662  11.172  1.1839 -0.4023 -0.0276
  333MPD2    C5 4999   1.690   1.786  11.139 -0.7577 -0.2154  0.2254
  333MPD2     H 5000   1.834   1.461  11.009  1.4337 -0.0607  0.5702
  333MPD2    H1 5001   1.546   1.668  11.230  1.4160  0.2925  0.2680
  333MPD2    H2 5002   1.848   1.890  11.061 -0.7369  0.7948  2.1166
  333MPD2    H3 5003   1.654   1.878  11.185 -2.5691 -1.3706  1.1237
  333MPD2     N 5004   1.632   1.413  11.159 -0.0679  0.3477  0.1836
  333MPD2    H5 5005   1.678   1.342  11.102  3.1106  1.9334  0.8049
  333MPD2    N1 5006   1.976   1.699  10.951 -0.6738 -0.0871  0.0221
  333MPD2    H7 5007   2.005   1.792  10.923  0.6340  0.2677  2.5872
  334TMC3    C1 5008   2.130   1.651  10.778 -0.1337  0.3269  0.1978
  334TMC3    C2 5009   2.230   1.564  10.724  0.9338 -0.1538  0.2154
  334TMC3    C3 5010   2.294   1.608  10.609 -0.5569 -0.5980 -0.2868
  334TMC3    C4 5011   2.097   1.770  10.724 -0.4417 -0.2627  0.4897
  334TMC3    C5 5012   2.156   1.796  10.600  0.4924 -0.6674  0.0486
  334TMC3    C6 5013   2.256   1.719  10.542 -0.3565 -0.4819 -0.5559
  334TMC3     C 5014   2.048   1.598  10.886 -0.0886  0.4488 -0.9820
  334TMC3     O 5015   2.045   1.478  10.906  0.4258  0.4627  0.2186
  334TMC3     H 5016   2.259   1.473  10.773 -2.7202  0.0690  2.7671
  334TMC3    H1 5017   2.011   1.832  10.745  0.4237  1.4119 -0.9354
  334TMC3    H2 5018   2.311   1.755  10.456  1.9285 -2.5238  0.0455
  334TMC3    C7 5019   2.157   1.937  10.561  0.5182 -0.3631  0.2378
  334TMC3    C8 5020   2.406   1.536  10.552 -0.5610 -0.3556 -0.2414
  334TMC3    O1 5021   2.144   2.020  10.653 -0.2801 -0.3884 -0.4371
  334TMC3    O2 5022   2.411   1.419  10.592 -0.1690 -0.1068 -0.4484
  335TMC3    C1 5023   1.304   3.323  17.485 -0.1349 -1.2423  0.2701
  335TMC3    C2 5024   1.172   3.314  17.442  0.0745  0.3694  0.5108
  335TMC3    C3 5025   1.150   3.365  17.317  0.4177 -0.4392 -0.4094
  335TMC3    C4 5026   1.400   3.376  17.411  0.0537 -0.2058  0.2794
  335TMC3    C5 5027   1.367   3.436  17.291 -0.0665 -0.3832  0.2409
  335TMC3    C6 5028   1.236   3.440  17.252 -0.0841 -0.1477 -0.0551
  335TMC3     C 5029   1.337   3.267  17.608  0.4568  0.4178  0.2556
  335TMC3     O 5030   1.437   3.311  17.664  1.0359 -0.4831 -0.0254
  335TMC3     H 5031   1.092   3.267  17.498  2.8100 -2.3579  2.1526
  335TMC3    H1 5032   1.506   3.362  17.431  0.1800  0.3980  0.0455
  335TMC3    H2 5033   1.209   3.477  17.153 -0.6985  1.8581  0.8633
  335TMC3    C7 5034   1.474   3.487  17.202 -0.4243  0.1864  0.5982
  335TMC3    C8 5035   1.038   3.321  17.241 -0.2499 -0.3601  0.3719
  335TMC3    O1 5036   1.584   3.430  17.207  0.3563  0.6104  0.3796
  335TMC3    O2 5037   0.996   3.395  17.157  0.7448  0.0142 -0.1326
  336MPD2     C 5038   0.638   1.162  16.200  0.8077 -0.0404  0.3911
  336MPD2    C1 5039   0.675   1.105  16.076 -0.3964  0.5403  0.3207
  336MPD2    C2 5040   0.712   0.971  16.081  0.6483 -0.0832  0.0785
  336MPD2    C3 5041   0.711   0.906  16.207 -0.4466  0.5476  0.1560
  336MPD2    C4 5042   0.692   0.973  16.328  0.6772 -0.7330 -0.0315
  336MPD2    C5 5043   0.649   1.100  16.321 -0.0175 -0.3660 -0.3211
  336MPD2     H 5044   0.738   0.923  15.987  0.7846 -1.7860  0.9823
  336MPD2    H1 5045   0.698   0.928  16.427 -0.0792 -0.7152  0.0265
  336MPD2    H2 5046   0.594   1.261  16.204  0.1797 -0.2647 -0.7732
  336MPD2    H3 5047   0.632   1.161  16.409  0.6353 -2.1734  1.0611
  336MPD2     N 5048   0.750   0.773  16.220  0.5445  0.0554  0.0345
  336MPD2    H5 5049   0.759   0.731  16.312  0.5151  0.7320  0.3470
  336MPD2    N1 5050   0.667   1.169  15.948  0.4486 -0.2544  0.4448
  336MPD2    H7 5051   0.692   1.115  15.866  0.7961 -0.4205  0.6610
  337TMC3    C1 5052   0.630   1.326  15.792  0.2888  0.7169 -1.2971
  337TMC3    C2 5053   0.539   1.255  15.716  0.6713  0.2337  0.2318
  337TMC3    C3 5054   0.510   1.307  15.590  0.1694  0.7143 -0.0460
  337TMC3    C4 5055   0.671   1.455  15.763 -0.7224 -0.3550  0.3594
  337TMC3    C5 5056   0.627   1.511  15.644  0.2821  0.1080 -0.1429
  337TMC3    C6 5057   0.547   1.439  15.561  0.4526 -0.1566 -0.1427
  337TMC3     C 5058   0.636   1.299  15.928 -0.4824 -1.1059 -0.5835
  337TMC3     O 5059   0.622   1.391  16.009  0.3141 -0.4481  0.0598
  337TMC3     H 5060   0.508   1.158  15.750 -1.9268  0.9747 -0.0336
  337TMC3    H1 5061   0.736   1.502  15.837  0.6621 -0.4978 -0.7605
  337TMC3    H2 5062   0.507   1.492  15.475 -0.3353 -0.2514  0.1626
  337TMC3    C7 5063   0.632   1.654  15.624 -0.6250  0.7474  0.7390
  337TMC3    C8 5064   0.400   1.246  15.519 -0.5113 -0.0991 -0.1600
  337TMC3    O1 5065   0.587   1.697  15.517 -0.8485  0.0336 -0.5822
  337TMC3    O2 5066   0.345   1.158  15.584 -0.4487 -0.1513  0.5162
  338MPD2     C 5067   1.107   0.308   0.990  0.6180 -0.0327  0.2729
  338MPD2    C1 5068   1.078   0.331   0.860 -0.3166  0.2823  0.6356
  338MPD2    C2 5069   0.948   0.341   0.821 -0.3100  0.2781  0.0929
  338MPD2    C3 5070   0.842   0.304   0.901  0.3499  0.6507 -0.2000
  338MPD2    C4 5071   0.880   0.269   1.030  0.1256  0.3977 -0.1062
  338MPD2    C5 5072   1.009   0.267   1.068  0.0681  0.3335 -0.2281
  338MPD2     H 5073   0.929   0.373   0.719 -0.6153 -2.0144 -0.5639
  338MPD2    H1 5074   0.805   0.227   1.097  0.9096 -0.8793 -0.0274
  338MPD2    H2 5075   1.207   0.298   1.032  0.0549 -2.7397  0.9532
  338MPD2    H3 5076   1.032   0.243   1.171  2.2399 -0.4434 -0.8933
  338MPD2     N 5077   0.716   0.299   0.842 -0.4820  0.0567 -0.3499
  338MPD2    H5 5078   0.718   0.320   0.743 -1.2349  1.6786 -0.0242
  338MPD2    N1 5079   1.178   0.366   0.769  0.5759 -0.5776 -0.2627
  338MPD2    H7 5080   1.147   0.365   0.672 -0.0228 -1.5025 -0.0665
  339TMC3    C1 5081   0.521   0.204   0.784 -0.2152 -0.7911 -0.1511
  339TMC3    C2 5082   0.404   0.146   0.818  0.4457 -0.4198  0.8731
  339TMC3    C3 5083   0.324   0.111   0.712  0.0657 -0.6469  0.3503
  339TMC3    C4 5084   0.545   0.250   0.657 -0.8539  0.0683 -1.0608
  339TMC3    C5 5085   0.447   0.244   0.559 -0.3652  0.8357  0.2659
  339TMC3    C6 5086   0.338   0.165   0.582  0.5865  0.4398 -0.2464
  339TMC3     C 5087   0.601   0.247   0.894  0.9332  0.0951 -0.7146
  339TMC3     O 5088   0.577   0.210   1.006  0.0948  0.4666 -0.0964
  339TMC3     H 5089   0.389   0.102   0.916  0.2618 -0.0432  1.0158
  339TMC3    H1 5090   0.634   0.304   0.627 -0.4263 -0.6687 -1.1104
  339TMC3    H2 5091   0.281   0.123   0.500  0.4778 -0.3733  0.2440
  339TMC3    C7 5092   0.472   0.319   0.429 -0.1701 -0.0537  0.0597
  339TMC3    C8 5093   0.235   0.002   0.721 -0.2293  0.1150 -0.0404
  339TMC3    O1 5094   0.576   0.379   0.429 -0.1527  0.6496  0.0130
  339TMC3    O2 5095   0.126   0.013   0.661 -0.4480  0.1765 -0.2834
  340MPD2     C 5096   2.367   3.168  10.142 -0.6824  0.5289 -0.6888
  340MPD2    C1 5097   2.342   3.051  10.072 -0.2180 -0.0019 -0.0718
  340MPD2    C2 5098   2.397   2.936  10.110 -0.3153 -0.6472  0.1238
  340MPD2    C3 5099   2.484   2.924  10.228  0.3733  0.4816  1.0194
  340MPD2    C4 5100   2.502   3.041  10.303 -0.6009  0.4593  0.2885
  340MPD2    C5 5101   2.438   3.156  10.259  0.2679  0.0576 -0.4569
  340MPD2     H 5102   2.377   2.851  10.045 -0.2016  1.2140 -2.3842
  340MPD2    H1 5103   2.570   3.044  10.388 -0.4140  3.6952  0.0500
  340MPD2    H2 5104   2.323   3.264  10.117 -1.8384  0.4044  0.8522
  340MPD2    H3 5105   2.460   3.235  10.330 -3.9746  1.2219 -0.4698
  340MPD2     N 5106   2.564   2.813  10.261 -0.0302 -0.0790 -0.2262
  340MPD2    H5 5107   2.607   2.822  10.352 -2.1770  3.0787  0.4833
  340MPD2    N1 5108   2.277   3.070   9.949 -0.6089  0.2283  0.1915
  340MPD2    H7 5109   2.232   3.160   9.933 -1.1513 -0.0099  0.3843
  341TMC3    C1 5110   2.185   3.033   9.738  0.7681 -0.3578 -0.5889
  341TMC3    C2 5111   2.091   2.955   9.673  0.2513  0.0356 -0.3414
  341TMC3    C3 5112   2.011   3.013   9.580 -1.2630  0.1451  0.4828
  341TMC3    C4 5113   2.194   3.172   9.715  0.1211 -0.3837  0.6692
  341TMC3    C5 5114   2.115   3.221   9.614 -0.0165  0.2967  0.3718
  341TMC3    C6 5115   2.022   3.147   9.542 -0.2965  1.0975 -0.2160
  341TMC3     C 5116   2.254   2.977   9.848  0.2093 -0.1077 -0.6844
  341TMC3     O 5117   2.286   2.860   9.837 -0.0956  0.2739 -0.5222
  341TMC3     H 5118   2.074   2.849   9.688  1.4374  0.0278  0.9410
  341TMC3    H1 5119   2.271   3.237   9.754  0.8276 -0.6037 -0.3653
  341TMC3    H2 5120   1.953   3.199   9.477 -3.6693 -1.4397  1.3096
  341TMC3    C7 5121   2.125   3.363   9.595 -0.1901  0.0359 -0.3292
  341TMC3    C8 5122   1.890   2.943   9.544  0.1602 -0.6836  0.4834
  341TMC3    O1 5123   2.228   3.418   9.632  0.6560 -0.1468  0.6018
  341TMC3    O2 5124   1.873   2.839   9.608  0.0020  0.0574 -0.1675
  342MPD2     C 5125   3.593   1.767  17.533 -0.0830 -0.1172 -0.0945
  342MPD2    C1 5126   3.669   1.751  17.420  0.0894  0.6293  0.4421
  342MPD2    C2 5127   3.710   1.866  17.348 -0.5727  0.2081  0.0078
  342MPD2    C3 5128   3.692   1.995  17.401  0.6312  0.0809 -0.6069
  342MPD2    C4 5129   3.619   2.006  17.517  0.5626 -0.3285  0.1194
  342MPD2    C5 5130   3.580   1.895  17.584  0.4451 -0.5276  0.6508
  342MPD2     H 5131   3.759   1.843  17.254  0.7483  3.3645 -0.0638
  342MPD2    H1 5132   3.595   2.106  17.550 -1.3885 -0.8562  0.2516
  342MPD2    H2 5133   3.547   1.690  17.594 -1.6412  0.9329  0.0765
  342MPD2    H3 5134   3.513   1.916  17.667 -0.6059 -2.1850  0.2196
  342MPD2     N 5135   3.755   2.116  17.359  0.1371  0.3514 -0.0429
  342MPD2    H5 5136   3.749   2.202  17.412  0.9385 -0.2636  1.0394
  342MPD2    N1 5137   3.689   1.634  17.353 -0.0202 -0.1679  0.4889
  342MPD2    H7 5138   3.740   1.641  17.266 -2.0345 -1.2730 -0.7895
  343TMC3    C1 5139   3.680   1.412  17.285  0.1261  0.0179 -0.1017
  343TMC3    C2 5140   3.804   1.417  17.228  0.3571  0.5010  0.3109
  343TMC3    C3 5141   3.862   1.300  17.176  0.1157  0.5475  0.4954
  343TMC3    C4 5142   3.613   1.292  17.294  0.4944 -0.6575 -0.4989
  343TMC3    C5 5143   3.667   1.185  17.229  0.3360  0.1980 -0.3583
  343TMC3    C6 5144   3.794   1.184  17.178 -0.5112 -1.5312  0.5466
  343TMC3     C 5145   3.638   1.511  17.383  0.3583 -0.6058 -0.6938
  343TMC3     O 5146   3.564   1.473  17.473 -0.0660 -0.3453  0.0520
  343TMC3     H 5147   3.869   1.502  17.243 -1.2242  1.6702  0.5104
  343TMC3    H1 5148   3.514   1.288  17.337  1.1035 -0.1412  0.9762
  343TMC3    H2 5149   3.834   1.089  17.145  0.4710  0.0826 -3.0070
  343TMC3    C7 5150   3.611   1.057  17.265 -0.3002  0.5187  0.1464
  343TMC3    C8 5151   4.002   1.299  17.170  0.2564 -0.0037  0.3809
  343TMC3    O1 5152   3.489   1.054  17.271 -0.3746  0.0244 -0.3920
  343TMC3    O2 5153   4.065   1.376  17.242  0.0475  0.4008  0.1438
  344MPD2     C 5154   0.960   0.977  10.537  0.5905 -0.1939 -0.2165
  344MPD2    C1 5155   0.831   1.010  10.498 -0.0043 -0.6232 -0.2336
  344MPD2    C2 5156   0.817   1.117  10.408 -0.9455 -0.0536 -0.1069
  344MPD2    C3 5157   0.927   1.175  10.355 -0.4692 -0.1788 -0.0033
  344MPD2    C4 5158   1.055   1.138  10.383 -0.2876  0.2547  0.1016
  344MPD2    C5 5159   1.070   1.034  10.476  0.6419 -0.2504 -0.4742
  344MPD2     H 5160   0.714   1.131  10.376 -1.4971  1.9265  2.4786
  344MPD2    H1 5161   1.141   1.188  10.341 -0.3999 -1.3409 -2.0274
  344MPD2    H2 5162   0.981   0.899  10.610 -0.1866  0.6236  0.8719
  344MPD2    H3 5163   1.169   1.002  10.505  1.1005  0.6799 -1.0019
  344MPD2     N 5164   0.902   1.289  10.270  0.0136  0.4825  0.2136
  344MPD2    H5 5165   0.984   1.337  10.235 -1.0960  1.0869 -1.5507
  344MPD2    N1 5166   0.719   0.945  10.551 -0.3101  0.9206  0.5661
  344MPD2    H7 5167   0.638   0.943  10.491  0.9523  2.6228 -1.2173
  345TMC3    C1 5168   0.806   1.486  10.192 -0.1625  0.1752  0.2947
  345TMC3    C2 5169   0.911   1.556  10.245  0.1757  0.3982 -0.1548
  345TMC3    C3 5170   0.915   1.689  10.235 -0.6160 -0.1263  0.4163
  345TMC3    C4 5171   0.704   1.545  10.133  1.5226  0.3151  0.5444
  345TMC3    C5 5172   0.715   1.682  10.126  0.0846 -1.1132 -0.5472
  345TMC3    C6 5173   0.820   1.755  10.168  0.5285 -0.7255  0.1889
  345TMC3     C 5174   0.783   1.352  10.236 -0.2014  0.3938  0.2138
  345TMC3     O 5175   0.669   1.307  10.224 -0.4455  0.6320 -0.1536
  345TMC3     H 5176   1.003   1.511  10.282 -0.2752  0.7993  1.4240
  345TMC3    H1 5177   0.615   1.495  10.096  1.8323 -0.1463  0.4128
  345TMC3    H2 5178   0.823   1.864  10.171 -1.8494 -0.7513  2.9928
  345TMC3    C7 5179   0.632   1.760  10.036  0.0178 -0.6214 -0.1170
  345TMC3    C8 5180   1.017   1.759  10.319 -0.3087 -0.1617 -0.2656
  345TMC3    O1 5181   0.631   1.880  10.065 -0.0554  0.6437 -0.1768
  345TMC3    O2 5182   1.059   1.698  10.415 -0.1742  0.1533  0.0791
  346MPD2     C 5183   0.271   2.946  14.315 -0.1519 -0.5613 -0.2193
  346MPD2    C1 5184   0.390   2.934  14.251  0.4850 -0.1029  0.1470
  346MPD2    C2 5185   0.507   2.930  14.328 -0.9352  1.0777 -0.0849
  346MPD2    C3 5186   0.496   2.942  14.462 -0.7460 -0.0949 -0.3452
  346MPD2    C4 5187   0.374   2.956  14.523  0.2163  0.1471  0.4559
  346MPD2    C5 5188   0.260   2.962  14.451  0.3606 -0.5577  0.0940
  346MPD2     H 5189   0.600   2.932  14.272  0.3201 -0.5088  1.9321
  346MPD2    H1 5190   0.368   2.958  14.631 -1.9550  0.4768  0.3286
  346MPD2    H2 5191   0.179   2.944  14.257 -0.7725 -1.7646  0.8054
  346MPD2    H3 5192   0.164   2.957  14.501 -0.3571 -1.3396 -1.3609
  346MPD2     N 5193   0.622   2.922  14.532  0.4918 -0.7472 -0.0902
  346MPD2    H5 5194   0.711   2.918  14.485  1.1614  2.0073  0.9152
  346MPD2    N1 5195   0.405   2.913  14.115 -0.4840 -0.0240  0.2728
  346MPD2    H7 5196   0.499   2.911  14.077  0.1627 -1.8072  1.9948
  347TMC3    C1 5197   0.773   2.849  14.685 -0.2264  0.6998 -0.5553
  347TMC3    C2 5198   0.844   2.801  14.583  0.4602  0.2741  0.3181
  347TMC3    C3 5199   0.982   2.802  14.589 -0.1720 -0.2266 -0.3022
  347TMC3    C4 5200   0.832   2.896  14.799  0.4456  0.1518  0.7587
  347TMC3    C5 5201   0.967   2.896  14.802 -0.2960 -0.2386 -0.2291
  347TMC3    C6 5202   1.045   2.854  14.699 -0.3928 -0.3418  0.1766
  347TMC3     C 5203   0.639   2.903  14.666  0.2683 -0.2199  0.4225
  347TMC3     O 5204   0.560   2.920  14.757 -0.6892 -0.0175  0.3526
  347TMC3     H 5205   0.804   2.760  14.491  2.2304  0.6399 -0.6143
  347TMC3    H1 5206   0.766   2.933  14.877  0.0429  2.0740 -0.4973
  347TMC3    H2 5207   1.153   2.864  14.706 -0.1715  0.3003 -4.2236
  347TMC3    C7 5208   1.039   2.966  14.911 -0.2606 -0.6013  0.0233
  347TMC3    C8 5209   1.059   2.795  14.465  0.1744  0.2141 -0.1591
  347TMC3    O1 5210   1.159   2.985  14.896 -0.2471 -0.2022  0.1140
  347TMC3    O2 5211   1.034   2.721  14.373  0.2809 -0.0780 -0.3068
  348MPD2     C 5212   3.762   1.941  11.787 -0.8616  0.6935  0.2319
  348MPD2    C1 5213   3.862   2.039  11.764  0.5036 -0.0127 -0.0394
  348MPD2    C2 5214   3.837   2.138  11.672  0.8253 -0.2871  0.2383
  348MPD2    C3 5215   3.722   2.145  11.596  0.6249 -0.1162 -0.4044
  348MPD2    C4 5216   3.629   2.047  11.615 -0.0782  0.0715  0.7712
  348MPD2    C5 5217   3.651   1.943  11.709 -0.1922 -0.4099  0.5252
  348MPD2     H 5218   3.918   2.206  11.649  1.2602 -0.0752  2.3688
  348MPD2    H1 5219   3.538   2.047  11.557 -0.4414  0.9246  1.3361
  348MPD2    H2 5220   3.763   1.862  11.860 -2.6585  0.6357  0.1911
  348MPD2    H3 5221   3.575   1.866  11.709  0.7143 -1.2945  0.3590
  348MPD2     N 5222   3.703   2.251  11.513 -0.4468  1.0803 -0.2782
  348MPD2    H5 5223   3.782   2.315  11.513  0.7097 -0.3330 -1.0896
  348MPD2    N1 5224   3.995   2.036  11.821  0.4313 -0.1858 -0.0684
  348MPD2    H7 5225   4.044   2.121  11.796 -0.3448  0.2830 -0.0147
  349TMC3    C1 5226   4.181   1.963  11.944  0.6224  0.3824 -0.2746
  349TMC3    C2 5227   4.262   1.856  11.966 -0.6785 -0.3293 -0.8165
  349TMC3    C3 5228   4.398   1.878  11.977 -0.7508 -0.0478 -0.1539
  349TMC3    C4 5229   4.232   2.088  11.936 -0.0524 -0.4042 -0.0511
  349TMC3    C5 5230   4.363   2.105  11.956  0.6251  0.7798  0.2348
  349TMC3    C6 5231   4.445   2.007  11.985 -0.6737  0.5675  0.3599
  349TMC3     C 5232   4.040   1.942  11.905  0.1547 -0.2871 -0.3156
  349TMC3     O 5233   3.980   1.843  11.943 -0.4497 -0.4523 -0.1652
  349TMC3     H 5234   4.218   1.757  11.961 -0.3074 -0.4719 -1.2850
  349TMC3    H1 5235   4.169   2.176  11.930 -1.1743 -1.1789  0.1631
  349TMC3    H2 5236   4.551   2.030  11.984 -0.2121 -1.5437 -0.7866
  349TMC3    C7 5237   4.436   2.222  11.907  0.5970 -0.7712 -0.1541
  349TMC3    C8 5238   4.495   1.775  11.978 -0.1877 -0.3388  0.4584
  349TMC3    O1 5239   4.538   2.260  11.966 -0.2131 -0.2394 -0.1490
  349TMC3    O2 5240   4.587   1.772  11.898 -0.5470 -0.6266  0.6439
  350MPD2     C 5241   3.184   4.498   9.479 -0.5323  0.0382  0.7013
  350MPD2    C1 5242   3.290   4.494   9.569 -0.1322 -0.3584  0.1248
  350MPD2    C2 5243   3.265   4.554   9.690 -0.3115  0.6969 -0.5914
  350MPD2    C3 5244   3.166   4.647   9.708  1.0424  0.1535 -0.0380
  350MPD2    C4 5245   3.073   4.665   9.614 -0.0029 -0.4583  0.3187
  350MPD2    C5 5246   3.081   4.583   9.501  0.2432 -0.0942 -0.2913
  350MPD2     H 5247   3.346   4.550   9.762 -1.9256 -3.4411  0.9671
  350MPD2    H1 5248   2.996   0.016   9.623  0.2749 -0.0700 -0.5970
  350MPD2    H2 5249   3.188   4.438   9.389  1.6109 -1.5517  1.8573
  350MPD2    H3 5250   3.003   4.599   9.428 -0.5228 -1.4142  0.2331
  350MPD2     N 5251   3.158   0.016   9.814  0.0473 -0.1452  0.4720
  350MPD2    H5 5252   3.091   0.092   9.804  0.5211  0.1930 -0.1575
  350MPD2    N1 5253   3.414   4.437   9.535  0.4382  0.1138 -0.0103
  350MPD2    H7 5254   3.478   4.425   9.613  1.2903 -0.3405 -0.7804
  351TMC3    C1 5255   3.610   4.410   9.400  0.2511 -1.2962 -0.9054
  351TMC3    C2 5256   3.665   4.311   9.466  0.1613  0.3313 -0.2845
  351TMC3    C3 5257   3.800   4.290   9.461  0.3629 -0.7206  0.9051
  351TMC3    C4 5258   3.679   4.504   9.332 -0.0450 -0.4026  0.1855
  351TMC3    C5 5259   3.814   4.484   9.331 -0.1554  0.5941  0.0944
  351TMC3    C6 5260   3.880   4.375   9.390  0.1530  0.2977  0.0293
  351TMC3     C 5261   3.464   4.416   9.406 -0.2790  0.6211 -0.6972
  351TMC3     O 5262   3.420   4.446   9.296  0.2408  0.0747  0.2364
  351TMC3     H 5263   3.596   4.239   9.509  0.6993 -0.4081 -0.6484
  351TMC3    H1 5264   3.619   4.576   9.277 -0.0564 -1.0372 -0.6411
  351TMC3    H2 5265   3.987   4.384   9.400  0.1713  0.7184 -0.5807
  351TMC3    C7 5266   3.902   4.577   9.266  0.2983 -0.5178 -0.0829
  351TMC3    C8 5267   3.858   4.176   9.534 -0.0936  0.4226  0.2857
  351TMC3    O1 5268   4.013   4.529   9.234 -0.2214 -0.0765 -0.1047
  351TMC3    O2 5269   3.794   4.128   9.628 -0.1733  0.3707 -0.2374
  352MPD2     C 5270   1.207   2.454   1.011  0.0388  0.2522  0.7067
  352MPD2    C1 5271   1.099   2.380   1.030 -0.5564 -0.6659  0.0294
  352MPD2    C2 5272   1.103   2.257   1.100 -0.0237  0.0533  0.5511
  352MPD2    C3 5273   1.225   2.221   1.151 -0.0687 -0.0079  0.4253
  352MPD2    C4 5274   1.334   2.306   1.141 -0.6686  0.0143 -0.4033
  352MPD2    C5 5275   1.322   2.425   1.067  0.1949 -0.8806  0.5964
  352MPD2     H 5276   1.011   2.200   1.100 -1.1941  1.9375  0.2317
  352MPD2    H1 5277   1.433   2.298   1.183 -1.3327  0.2923  1.2277
  352MPD2    H2 5278   1.184   2.547   0.960  0.0804 -1.0080 -1.6213
  352MPD2    H3 5279   1.401   2.500   1.075 -1.1720  0.3396  2.7817
  352MPD2     N 5280   1.244   2.106   1.218  0.1439  0.0228  0.2317
  352MPD2    H5 5281   1.340   2.083   1.243 -0.3433 -1.4060  0.7604
  352MPD2    N1 5282   0.980   2.432   0.976 -0.0431  0.3608  1.0708
  352MPD2    H7 5283   0.993   2.511   0.913  1.5258 -2.4926 -2.2196
  353TMC3    C1 5284   1.200   1.881   1.281 -0.2413 -0.3309 -0.0874
  353TMC3    C2 5285   1.334   1.874   1.314 -0.6174  0.7465 -0.7684
  353TMC3    C3 5286   1.386   1.748   1.317  0.2639 -0.6677  0.3199
  353TMC3    C4 5287   1.121   1.778   1.251  0.4504  0.5336 -0.5462
  353TMC3    C5 5288   1.176   1.657   1.254  0.5654 -0.6984 -0.0136
  353TMC3    C6 5289   1.307   1.637   1.298 -0.4161 -0.6511  0.1046
  353TMC3     C 5290   1.148   2.011   1.244  0.7752  0.4576 -0.2520
  353TMC3     O 5291   1.028   2.016   1.224 -0.8622  0.1006  0.1673
  353TMC3     H 5292   1.391   1.963   1.337  0.9529 -0.6915  0.8432
  353TMC3    H1 5293   1.024   1.787   1.204 -0.5943 -3.6100  0.8313
  353TMC3    H2 5294   1.347   1.536   1.301 -1.0363 -0.9106 -0.3586
  353TMC3    C7 5295   1.143   1.569   1.143 -0.5572 -0.5976  0.0077
  353TMC3    C8 5296   1.529   1.723   1.359  1.0701 -0.5909 -0.2034
  353TMC3    O1 5297   1.229   1.493   1.096  0.3157  0.0808  0.2727
  353TMC3    O2 5298   1.590   1.816   1.408 -0.4374  0.0482 -0.8931
  354TMC3    C1 5299   2.669   3.580  13.059  0.1676 -0.6245  0.1514
  354TMC3    C2 5300   2.710   3.710  13.087  0.0002  0.3311 -0.0167
  354TMC3    C3 5301   2.687   3.799  12.990 -0.3170 -0.1142 -0.5798
  354TMC3    C4 5302   2.627   3.537  12.940 -0.2238  0.3645 -0.0985
  354TMC3    C5 5303   2.615   3.630  12.840  0.2788  0.4156 -0.5520
  354TMC3    C6 5304   2.653   3.761  12.862  1.0208  0.6189  0.0534
  354TMC3     C 5305   2.683   3.474  13.160 -1.0165  1.0681 -0.6697
  354TMC3     O 5306   2.627   3.364  13.146 -0.7885  0.5941  0.5727
  354TMC3     H 5307   2.742   3.742  13.186  2.6315 -2.1045 -0.0739
  354TMC3    H1 5308   2.602   3.432  12.924  1.5934 -0.2189  0.9522
  354TMC3    H2 5309   2.635   3.832  12.782  0.8151 -0.3346 -0.7517
  354TMC3    C7 5310   2.606   3.587  12.702  0.0731 -0.3165  0.5593
  354TMC3    C8 5311   2.730   3.942  12.996 -0.3590  0.1295 -0.2914
  354TMC3    O1 5312   2.570   3.469  12.691  0.2414  0.4665  0.1080
  354TMC3    O2 5313   2.681   4.018  12.912 -0.0197  0.4735 -0.1266
  355MPD2     C 5314   3.308   0.155  11.664 -0.3863 -0.4948 -0.2351
  355MPD2    C1 5315   3.381   0.119  11.549  0.0216  0.9816 -0.5679
  355MPD2    C2 5316   3.493   0.036  11.559 -0.3687 -0.4383  0.0877
  355MPD2    C3 5317   3.535   4.717  11.680 -0.3306 -0.1658  0.5568
  355MPD2    C4 5318   3.456   0.016  11.791  0.1488  0.3584 -0.3336
  355MPD2    C5 5319   3.342   0.093  11.782 -0.1283  0.0244  0.1728
  355MPD2     H 5320   3.551   0.013  11.470 -0.5961 -1.1572  0.1254
  355MPD2    H1 5321   3.486   4.697  11.886 -0.2529 -1.4353 -1.0367
  355MPD2    H2 5322   3.222   0.221  11.669 -0.9922 -1.2245 -1.0480
  355MPD2    H3 5323   3.281   0.113  11.869 -1.4209  0.5230 -0.8570
  355MPD2     N 5324   3.639   4.629  11.693  0.4993  0.4751 -0.3530
  355MPD2    H5 5325   3.662   4.605  11.789 -0.6222 -3.6631 -1.1459
  355MPD2    N1 5326   3.347   0.184  11.429 -0.0469 -0.0409  0.0176
  355MPD2    H7 5327   3.276   0.258  11.427  0.5755  0.5438 -0.7060
  356TMC3    C1 5328   3.834   4.528  11.596  0.1725  0.1976  0.0172
  356TMC3    C2 5329   3.905   4.568  11.480 -0.1960 -0.6243  0.4033
  356TMC3    C3 5330   4.019   4.642  11.492  1.0189  0.9213 -0.1243
  356TMC3    C4 5331   3.896   4.554  11.715 -0.2031  0.1839 -0.4987
  356TMC3    C5 5332   4.009   4.626  11.717 -0.3601 -0.7715 -0.6805
  356TMC3    C6 5333   4.074   4.669  11.608  0.1712  0.6892  0.4569
  356TMC3     C 5334   3.693   4.562  11.587  0.2135 -0.2431 -0.7577
  356TMC3     O 5335   3.642   4.534  11.478 -0.0445 -1.1039  0.0652
  356TMC3     H 5336   3.869   4.544  11.380 -0.2190  0.7805  0.0834
  356TMC3    H1 5337   3.856   4.509  11.805 -0.4573 -0.1636 -0.7831
  356TMC3    H2 5338   4.174   4.711  11.611 -0.4283  1.7974  4.7566
  356TMC3    C7 5339   4.077   4.629  11.842  0.7578 -0.5173 -0.7224
  356TMC3    C8 5340   4.068   4.695  11.373 -0.4975 -0.1859 -0.4900
  356TMC3    O1 5341   4.054   4.534  11.916  0.3050 -0.1428  0.3002
  356TMC3    O2 5342   4.006   4.680  11.270  0.2427 -0.9570  0.2654
  357MPD2     C 5343   2.920   4.463   0.834 -0.1334 -0.2424  0.1219
  357MPD2    C1 5344   2.932   4.335   0.876  0.0517 -0.1827 -0.7876
  357MPD2    C2 5345   2.873   4.301   0.999 -0.0292  0.3880 -1.0727
  357MPD2    C3 5346   2.795   4.390   1.069  0.6059  0.5351  0.1597
  357MPD2    C4 5347   2.787   4.523   1.029  0.6965  0.5691 -0.0846
  357MPD2    C5 5348   2.859   4.559   0.914  0.0472 -0.7888  0.1076
  357MPD2     H 5349   2.888   4.204   1.044 -0.0385  1.0878  0.4475
  357MPD2    H1 5350   2.738   4.600   1.087 -0.3852  1.4531 -2.1785
  357MPD2    H2 5351   2.973   4.499   0.746 -2.3732 -1.1715 -1.5844
  357MPD2    H3 5352   2.856   4.665   0.895 -1.0249 -0.8135  0.1741
  357MPD2     N 5353   2.740   4.351   1.196 -0.1360 -0.0365  0.1183
  357MPD2    H5 5354   2.672   4.416   1.234  0.1518  0.4692 -0.2461
  357MPD2    N1 5355   3.011   4.245   0.800 -0.0942 -0.7962 -0.4826
  357MPD2    H7 5356   3.050   4.275   0.711 -0.0856  1.2557  0.2131
  358TMC3    C1 5357   3.100   4.044   0.731 -0.8057 -0.2133  0.1367
  358TMC3    C2 5358   3.045   4.053   0.606 -0.4790 -0.0206 -0.4037
  358TMC3    C3 5359   3.072   3.946   0.528  0.0990 -0.6626 -0.3117
  358TMC3    C4 5360   3.181   3.940   0.771  0.5154  0.3829 -0.3417
  358TMC3    C5 5361   3.210   3.841   0.680  0.3204 -0.2609 -0.4055
  358TMC3    C6 5362   3.153   3.844   0.556 -0.3693  0.0087 -0.0867
  358TMC3     C 5363   3.053   4.124   0.839  0.2730 -0.2271 -1.2292
  358TMC3     O 5364   3.050   4.067   0.952 -0.0601 -0.1930 -0.6322
  358TMC3     H 5365   2.970   4.127   0.581  1.7675  3.2368  2.5967
  358TMC3    H1 5366   3.240   3.962   0.859  0.9201  0.5974 -0.6648
  358TMC3    H2 5367   3.157   3.763   0.485 -4.4415 -1.1894  1.0424
  358TMC3    C7 5368   3.324   3.757   0.702  0.5726  0.6147 -0.1173
  358TMC3    C8 5369   2.994   3.942   0.411  0.4985  0.5528  0.5090
  358TMC3    O1 5370   3.365   3.695   0.605 -0.0473 -0.8023 -0.2835
  358TMC3    O2 5371   3.053   3.953   0.308 -0.6904  0.4489 -0.4841
  359MPD2     C 5372   3.724   3.502  12.420 -0.0700  0.3655  0.0302
  359MPD2    C1 5373   3.767   3.387  12.358 -0.5217 -0.2634 -1.1246
  359MPD2    C2 5374   3.747   3.265  12.416  0.3134 -0.3519  0.2776
  359MPD2    C3 5375   3.654   3.253  12.515  0.3169 -0.5537  0.9241
  359MPD2    C4 5376   3.612   3.363  12.585  0.1381  0.2872  0.0673
  359MPD2    C5 5377   3.649   3.488  12.528  0.9243 -0.5458 -0.1129
  359MPD2     H 5378   3.792   3.179  12.367  1.7483  1.2785 -1.2444
  359MPD2    H1 5379   3.542   3.364  12.668  0.0278 -1.8617 -0.0046
  359MPD2    H2 5380   3.756   3.600  12.388  0.4318  1.0342  2.5755
  359MPD2    H3 5381   3.618   3.576  12.584 -1.4133 -1.3817 -0.0732
  359MPD2     N 5382   3.614   3.125  12.563 -0.2028  0.0331 -0.3142
  359MPD2    H5 5383   3.563   3.120  12.651  0.9402 -0.0643  0.3452
  359MPD2    N1 5384   3.858   3.393  12.251 -0.3566 -0.2665  0.3477
  359MPD2    H7 5385   3.890   3.303  12.215  0.1409 -0.4527  1.2490
  360TMC3    C1 5386   4.006   3.472  12.102  0.1263 -0.1763 -0.5422
  360TMC3    C2 5387   4.134   3.529  12.107  0.4035 -0.0614  0.3107
  360TMC3    C3 5388   4.233   3.458  12.041 -0.1481  0.4371 -0.1715
  360TMC3    C4 5389   3.981   3.371  12.021  0.2177 -0.4869  0.2084
  360TMC3    C5 5390   4.076   3.308  11.943  0.1407 -0.6943 -0.2106
  360TMC3    C6 5391   4.206   3.347  11.960 -0.0136  0.0928  0.1773
  360TMC3     C 5392   3.912   3.501  12.199 -0.0351 -0.5240 -0.3565
  360TMC3     O 5393   3.929   3.612  12.240 -0.0854 -0.0403  0.2717
  360TMC3     H 5394   4.160   3.606  12.179 -0.7743  0.0067  0.6664
  360TMC3    H1 5395   3.880   3.337  12.002  0.4190 -1.0707  0.1971
  360TMC3    H2 5396   4.280   3.293  11.903  0.1166 -1.3693  1.7174
  360TMC3    C7 5397   4.045   3.176  11.885 -0.4736 -0.3246  0.2939
  360TMC3    C8 5398   4.372   3.506  12.057  0.1691  0.1245  0.8943
  360TMC3    O1 5399   4.117   3.086  11.919 -0.2742 -0.7588  0.5680
  360TMC3    O2 5400   4.380   3.609  12.123 -0.4461  0.2493  0.1669
  361MPD2     C 5401   0.256   2.222  17.361  0.4773 -0.4646 -0.5903
  361MPD2    C1 5402   0.268   2.177  17.228 -0.1586 -0.0574  0.2078
  361MPD2    C2 5403   0.362   2.077  17.201  0.2684  0.2867 -0.0246
  361MPD2    C3 5404   0.446   2.027  17.298  0.5080 -0.7543 -0.4159
  361MPD2    C4 5405   0.433   2.066  17.430  0.2227 -0.6202 -0.0612
  361MPD2    C5 5406   0.335   2.167  17.455  0.2018  1.0364  0.4348
  361MPD2     H 5407   0.377   2.044  17.099 -0.0530 -1.7021  0.5712
  361MPD2    H1 5408   0.503   2.029  17.505  1.3731  1.0231 -0.3105
  361MPD2    H2 5409   0.174   2.281  17.399 -1.3975 -0.7919 -4.1705
  361MPD2    H3 5410   0.324   2.203  17.556  0.8182  0.9478  0.5365
  361MPD2     N 5411   0.535   1.920  17.272 -0.1581 -0.2503 -0.4795
  361MPD2    H5 5412   0.598   1.887  17.345  1.8185  0.7917 -1.7260
  361MPD2    N1 5413   0.181   2.235  17.133  0.1273 -0.6008  0.3186
  361MPD2    H7 5414   0.135   2.319  17.168  1.9072  0.9445 -1.0803
  362TMC3    C1 5415   0.080   2.284  16.919  0.6715 -0.0053 -0.2883
  362TMC3    C2 5416   4.693   2.336  16.977  0.2721  0.3816  0.3195
  362TMC3    C3 5417   4.615   2.435  16.914  0.0335  0.1313 -0.0952
  362TMC3    C4 5418   0.121   2.329  16.800 -1.2628 -0.2659 -0.2342
  362TMC3    C5 5419   0.044   2.422  16.734  0.5619  0.3222  0.3297
  362TMC3    C6 5420   4.655   2.478  16.791 -0.2192 -0.2854 -0.5243
  362TMC3     C 5421   0.170   2.201  16.997 -0.2207  0.0012  0.5787
  362TMC3     O 5422   0.215   2.102  16.940  0.4689 -0.3932  0.3478
  362TMC3     H 5423   4.660   2.296  17.072  0.1130  0.6235  0.3671
  362TMC3    H1 5424   0.212   2.285  16.762 -0.3265 -1.1647  3.0374
  362TMC3    H2 5425   4.589   2.544  16.736  3.2860  4.1280  0.5676
  362TMC3    C7 5426   0.064   2.433  16.596 -0.9735 -0.2815 -0.5549
  362TMC3    C8 5427   4.472   2.416  16.923 -0.1759 -0.0712  0.3745
  362TMC3    O1 5428   0.128   2.334  16.554  0.1188 -1.2448  0.2792
  362TMC3    O2 5429   4.428   2.305  16.908 -0.4436  0.1323 -0.2704
  363TMC3    C1 5430   4.125   0.368   9.413  0.4588  0.5162  0.4206
  363TMC3    C2 5431   4.095   0.251   9.481 -0.4814  0.7779  0.2687
  363TMC3    C3 5432   3.965   0.223   9.508  0.6316  0.1303  0.2190
  363TMC3    C4 5433   4.029   0.458   9.384 -0.3575  0.3787  0.0753
  363TMC3    C5 5434   3.899   0.426   9.412  0.1995  0.2209  0.2499
  363TMC3    C6 5435   3.865   0.307   9.476  0.4671 -0.4798 -0.0004
  363TMC3     C 5436   4.260   0.396   9.377 -0.3222  0.8335  0.0011
  363TMC3     O 5437   4.295   0.512   9.350 -0.4742 -0.1494 -0.2904
  363TMC3     H 5438   4.167   0.181   9.521 -0.7355  1.6026  2.1539
  363TMC3    H1 5439   4.058   0.534   9.313  0.5620  0.2045  0.2664
  363TMC3    H2 5440   3.764   0.287   9.510  0.1690 -1.4518 -1.4097
  363TMC3    C7 5441   3.801   0.497   9.335  0.3661  0.9281 -0.8512
  363TMC3    C8 5442   3.931   0.115   9.602  0.0026  0.5445  0.9740
  363TMC3    O1 5443   3.833   0.599   9.281 -0.5798  0.2746  0.6915
  363TMC3    O2 5444   3.859   0.144   9.694 -0.1797 -0.3391  0.6032
  364MPD2     C 5445   3.395   3.957   9.838  0.1172  0.2874 -0.9089
  364MPD2    C1 5446   3.302   4.030   9.904  0.0661  0.0270 -0.4184
  364MPD2    C2 5447   3.223   3.967   9.997 -0.2894 -0.2481 -0.3803
  364MPD2    C3 5448   3.261   3.842  10.049 -0.7950  0.2344  0.1289
  364MPD2    C4 5449   3.354   3.771   9.973  0.4481  0.1069  1.1351
  364MPD2    C5 5450   3.414   3.830   9.868 -0.3855  0.1400  0.2987
  364MPD2     H 5451   3.140   4.021  10.042  0.0060  0.5770 -0.8046
  364MPD2    H1 5452   3.374   3.670  10.006  3.4766 -0.3767 -2.2470
  364MPD2    H2 5453   3.465   4.000   9.767 -0.3562  1.5706 -0.5799
  364MPD2    H3 5454   3.486   3.769   9.814 -0.5290  0.0201  0.2390
  364MPD2     N 5455   3.202   3.794  10.168  0.1189  0.2870 -0.1439
  364MPD2    H5 5456   3.219   3.695  10.180 -0.3639  0.4463  1.7416
  364MPD2    N1 5457   3.288   4.166   9.863 -0.1678 -0.1224  0.0765
  364MPD2    H7 5458   3.360   4.204   9.803  0.9858 -2.3800  0.0234
  365TMC3    C1 5459   3.231   4.357   9.990 -0.0670 -0.0341 -0.4626
  365TMC3    C2 5460   3.318   4.300  10.087 -0.3961  0.0877 -0.2878
  365TMC3    C3 5461   3.292   4.319  10.217 -0.3597  0.3405 -0.0037
  365TMC3    C4 5462   3.130   4.440  10.032 -0.0802  0.2800 -0.4642
  365TMC3    C5 5463   3.112   4.453  10.170  0.3597 -0.5303  0.1196
  365TMC3    C6 5464   3.187   4.389  10.266 -0.5037  0.3749  0.7017
  365TMC3     C 5465   3.184   4.246   9.915 -0.0773  0.0316 -0.6838
  365TMC3     O 5466   3.066   4.221   9.937 -0.0339 -0.4815  0.1828
  365TMC3     H 5467   3.390   4.224  10.060  0.6381  0.5200  1.2543
  365TMC3    H1 5468   3.050   4.476   9.967 -1.0794  0.8663  1.0783
  365TMC3    H2 5469   3.182   4.418  10.370  0.6414 -0.9816  1.1331
  365TMC3    C7 5470   3.005   4.543  10.215  0.4051  0.3765  0.0265
  365TMC3    C8 5471   3.340   4.230  10.321  0.5067 -0.7878 -0.4190
  365TMC3    O1 5472   2.964   4.630  10.141  0.0130  0.0912  0.1711
  365TMC3    O2 5473   3.280   4.233  10.429  0.1603  0.0495  0.4538
  366MPD2     C 5474   0.396   4.697  15.358  0.0832 -0.0879  0.0739
  366MPD2    C1 5475   0.475   0.046  15.278 -0.8819 -0.3629 -0.0245
  366MPD2    C2 5476   0.607   0.003  15.269  0.1255 -0.9543  0.8948
  366MPD2    C3 5477   0.656   4.610  15.323 -0.2853  0.1853 -0.4090
  366MPD2    C4 5478   0.566   4.528  15.393 -0.3186 -0.0837  0.3274
  366MPD2    C5 5479   0.438   4.576  15.413 -0.1937  1.0127 -0.6861
  366MPD2     H 5480   0.675   0.067  15.215 -1.8613  2.2779  2.2362
  366MPD2    H1 5481   0.602   4.432  15.429  0.6649 -0.5464 -1.8518
  366MPD2    H2 5482   0.306   0.016  15.399  0.4061 -1.7765  2.5747
  366MPD2    H3 5483   0.375   4.520  15.481  1.6407  0.9035  0.9257
  366MPD2     N 5484   0.791   4.571  15.311 -0.6757 -0.3108 -0.3621
  366MPD2    H5 5485   0.824   4.496  15.370 -1.2117  1.2333  1.8856
  366MPD2    N1 5486   0.448   0.176  15.241  0.1062 -0.6132  0.3045
  366MPD2    H7 5487   0.534   0.222  15.211  0.5506  0.4021  3.1647
  367TMC3    C1 5488   0.349   0.384  15.241  0.0075 -0.5094 -0.0470
  367TMC3    C2 5489   0.417   0.424  15.356  0.0341 -0.5086 -0.4217
  367TMC3    C3 5490   0.483   0.542  15.344  0.9510 -0.8688 -0.0647
  367TMC3    C4 5491   0.337   0.452  15.130 -0.2544 -0.4213  0.1309
  367TMC3    C5 5492   0.417   0.560  15.118 -0.0614  0.0274 -0.0993
  367TMC3    C6 5493   0.486   0.613  15.222  0.5605  0.5748  0.6639
  367TMC3     C 5494   0.330   0.245  15.247 -0.3491 -0.5961  0.1572
  367TMC3     O 5495   0.214   0.206  15.275  0.5367  0.5849 -0.0053
  367TMC3     H 5496   0.426   0.363  15.445 -1.6036  1.0227  0.7955
  367TMC3    H1 5497   0.279   0.407  15.050 -0.6192  0.9410 -0.3762
  367TMC3    H2 5498   0.542   0.703  15.204  3.1590 -1.1375  0.1818
  367TMC3    C7 5499   0.424   0.637  14.992  0.4591  1.0087  0.3599
  367TMC3    C8 5500   0.568   0.585  15.449 -1.1049  0.4602 -0.4032
  367TMC3    O1 5501   0.460   0.752  14.999 -0.0154  0.5140  0.4217
  367TMC3    O2 5502   0.592   0.503  15.533 -0.3648 -0.5932  0.5383
  368MPD2     C 5503   2.271   2.120  13.046  0.0455 -0.0196 -0.1239
  368MPD2    C1 5504   2.323   2.251  13.048 -0.5593 -0.0237  0.1911
  368MPD2    C2 5505   2.460   2.266  13.072  0.0679 -0.9320 -0.1816
  368MPD2    C3 5506   2.545   2.159  13.083 -0.6815 -0.3168  0.0612
  368MPD2    C4 5507   2.494   2.032  13.060 -0.0898  0.0864 -0.6657
  368MPD2    C5 5508   2.357   2.013  13.043 -0.2064  0.1092 -0.2792
  368MPD2     H 5509   2.504   2.363  13.095  0.7188 -1.0668 -0.8662
  368MPD2    H1 5510   2.561   1.946  13.066 -1.0973 -0.7090 -0.7458
  368MPD2    H2 5511   2.164   2.105  13.037 -0.1531  1.6095 -0.5044
  368MPD2    H3 5512   2.313   1.914  13.036 -0.6246  0.2156  0.9195
  368MPD2     N 5513   2.675   2.172  13.107  0.1122  0.6445  1.2357
  368MPD2    H5 5514   2.728   2.086  13.098 -1.3853  0.0002 -1.7387
  368MPD2    N1 5515   2.233   2.357  13.037 -0.4665 -0.2473  0.1607
  368MPD2    H7 5516   2.133   2.343  13.023 -0.3166 -1.1126 -0.0831
  369TMC3    C1 5517   2.164   2.574  12.988 -0.4491 -0.1204 -0.1559
  369TMC3    C2 5518   2.196   2.662  12.896  0.1177 -0.4948 -0.2615
  369TMC3    C3 5519   2.093   2.722  12.822 -0.8136  0.4929  0.0197
  369TMC3    C4 5520   2.035   2.541  13.017  0.3171 -0.2971  0.5966
  369TMC3    C5 5521   1.937   2.613  12.955  0.7065 -0.3490  0.2643
  369TMC3    C6 5522   1.959   2.704  12.857  0.2581  0.1160  0.1726
  369TMC3     C 5523   2.275   2.478  13.007  0.4612 -0.1666 -0.1244
  369TMC3     O 5524   2.382   2.517  12.963  0.0050  0.0101  0.8180
  369TMC3     H 5525   2.298   2.687  12.869 -0.5010  1.8767 -0.3780
  369TMC3    H1 5526   2.014   2.488  13.109 -3.4046 -0.1389 -0.1808
  369TMC3    H2 5527   1.881   2.757  12.803  0.1938 -2.3882 -2.1467
  369TMC3    C7 5528   1.805   2.558  12.979  0.1113 -0.7902  0.1381
  369TMC3    C8 5529   2.121   2.793  12.700 -0.2562 -0.3117 -0.9306
  369TMC3    O1 5530   1.786   2.466  13.058  0.0133 -0.0317 -0.1240
  369TMC3    O2 5531   2.034   2.873  12.676  0.1518  0.2413 -0.6278
  370TMC3    C1 5532   1.237   2.950  16.065  0.6002 -0.0643  0.1724
  370TMC3    C2 5533   1.161   2.915  16.176  0.2798  0.4369  0.1700
  370TMC3    C3 5534   1.062   2.812  16.164 -0.5068  0.3296 -0.2001
  370TMC3    C4 5535   1.204   2.894  15.948 -0.4438  0.6346  0.1836
  370TMC3    C5 5536   1.099   2.801  15.929 -0.4795  0.5698  0.3440
  370TMC3    C6 5537   1.041   2.758  16.042 -0.3389 -0.3740 -0.4665
  370TMC3     C 5538   1.309   3.078  16.064 -0.7224  0.5661 -0.1082
  370TMC3     O 5539   1.278   3.166  16.146 -0.2870  0.4839 -0.9126
  370TMC3     H 5540   1.175   2.976  16.264  1.4850  2.3834 -1.3836
  370TMC3    H1 5541   1.246   2.926  15.853 -0.6497  2.0824  0.5873
  370TMC3    H2 5542   0.966   2.680  16.039 -2.4283  1.6797 -1.8133
  370TMC3    C7 5543   1.100   2.709  15.819 -0.4356 -0.2059  0.4377
  370TMC3    C8 5544   1.067   2.717  16.270  0.0082  0.2036 -0.5417
  370TMC3    O1 5545   1.004   2.644  15.784  0.1766 -0.1065  0.4316
  370TMC3    O2 5546   1.085   2.603  16.234 -0.6027  0.2761 -0.4062
  371TMC3    C1 5547   2.590   1.277  15.256  0.0013  0.1063 -0.6345
  371TMC3    C2 5548   2.452   1.284  15.258 -0.9354  0.0060  0.0388
  371TMC3    C3 5549   2.399   1.398  15.316 -1.1347 -0.3318  0.2180
  371TMC3    C4 5550   2.677   1.373  15.300  0.3625  0.1882 -0.3942
  371TMC3    C5 5551   2.619   1.478  15.364 -0.1198  0.0863  0.2556
  371TMC3    C6 5552   2.481   1.493  15.371  0.0108  0.2275  0.3079
  371TMC3     C 5553   2.658   1.161  15.212 -0.3896  0.0314  0.2774
  371TMC3     O 5554   2.770   1.189  15.167 -0.4798 -0.1851  0.1006
  371TMC3     H 5555   2.395   1.220  15.192  1.3563 -0.6246 -1.3279
  371TMC3    H1 5556   2.784   1.356  15.297  0.1947 -1.4592  3.3202
  371TMC3    H2 5557   2.441   1.586  15.410 -2.0710  0.7917 -3.1812
  371TMC3    C7 5558   2.688   1.605  15.333 -0.0906  0.5003  0.0237
  371TMC3    C8 5559   2.260   1.430  15.300 -0.0850  0.1252 -0.6909
  371TMC3    O1 5560   2.649   1.711  15.377 -0.1539  0.3939 -0.4341
  371TMC3    O2 5561   2.189   1.339  15.260  0.3439  0.2125 -0.1518
  372MPD2     C 5562   2.271   2.777  13.289 -0.7961 -0.0478  0.0351
  372MPD2    C1 5563   2.397   2.708  13.298  0.1126 -0.0075 -0.4846
  372MPD2    C2 5564   2.402   2.571  13.322 -0.3592 -0.4044  0.3100
  372MPD2    C3 5565   2.292   2.497  13.348  0.4278 -0.4823 -0.3251
  372MPD2    C4 5566   2.167   2.566  13.348  0.2685 -0.0164 -0.1540
  372MPD2    C5 5567   2.157   2.701  13.319 -0.2310 -0.3096 -0.7856
  372MPD2     H 5568   2.498   2.522  13.335 -0.0573  0.3420  0.9274
  372MPD2    H1 5569   2.072   2.518  13.369  0.4467 -0.4302 -0.2906
  372MPD2    H2 5570   2.268   2.884  13.271  1.2040  0.3160  1.9459
  372MPD2    H3 5571   2.063   2.754  13.330 -0.4567 -0.6888 -0.8942
  372MPD2     N 5572   2.310   2.362  13.383  0.1252 -0.7208 -0.1206
  372MPD2    H5 5573   2.403   2.323  13.370  1.1010  1.2718  1.0114
  372MPD2    N1 5574   2.518   2.779  13.297 -0.8617 -0.3359  0.4024
  372MPD2    H7 5575   2.606   2.734  13.322 -1.1448 -0.6060  0.9239
  373TMC3    C1 5576   2.266   2.135  13.423 -0.0129 -0.0564 -0.2748
  373TMC3    C2 5577   2.175   2.045  13.458 -0.6558 -0.1482  0.2385
  373TMC3    C3 5578   2.216   1.917  13.484  0.8425  0.2433 -1.0789
  373TMC3    C4 5579   2.400   2.104  13.411 -0.1537 -0.0770  0.3190
  373TMC3    C5 5580   2.435   1.974  13.414  0.0722  0.5006  0.0421
  373TMC3    C6 5581   2.342   1.881  13.445  0.6202 -0.9422 -0.0558
  373TMC3     C 5582   2.219   2.274  13.422 -0.5522 -0.1750  0.3940
  373TMC3     O 5583   2.100   2.295  13.448  0.5860 -0.3815 -0.0700
  373TMC3     H 5584   2.074   2.080  13.475 -0.2215  1.1621  0.0582
  373TMC3    H1 5585   2.472   2.176  13.372  0.7576  0.0954  2.3227
  373TMC3    H2 5586   2.369   1.777  13.457  0.4869 -1.4783 -4.3309
  373TMC3    C7 5587   2.571   1.938  13.440  0.3471  0.5932 -0.5867
  373TMC3    C8 5588   2.106   1.824  13.516 -0.1397 -0.3430 -0.6779
  373TMC3    O1 5589   2.585   1.817  13.451  0.1526 -0.4648 -0.4173
  373TMC3    O2 5590   2.007   1.838  13.454  0.1111 -0.0621  0.0251
  374TMC3    C1 5591   3.167   2.093   9.291 -0.3325  0.0954 -0.7521
  374TMC3    C2 5592   3.246   2.194   9.346 -0.3121  0.0512  0.5570
  374TMC3    C3 5593   3.310   2.275   9.254  0.2255  0.2965 -0.2555
  374TMC3    C4 5594   3.158   2.066   9.156 -0.5790 -0.0248  0.0083
  374TMC3    C5 5595   3.230   2.150   9.075  0.5430  0.0406  0.5632
  374TMC3    C6 5596   3.299   2.257   9.125  0.3340  0.0309  0.1116
  374TMC3     C 5597   3.080   2.020   9.380  0.0627  0.2347  0.2293
  374TMC3     O 5598   3.101   2.049   9.497 -0.5674  0.9638  0.3957
  374TMC3     H 5599   3.240   2.219   9.451  1.5152 -2.6856  1.3016
  374TMC3    H1 5600   3.125   1.970   9.119 -0.3992 -0.0396 -0.1117
  374TMC3    H2 5601   3.353   2.315   9.051  0.9200  0.3582  0.7963
  374TMC3    C7 5602   3.216   2.137   8.928 -0.8722  0.1365  0.6184
  374TMC3    C8 5603   3.392   2.382   9.298  0.8165 -0.4643  0.8611
  374TMC3    O1 5604   3.303   2.164   8.847 -0.1648  0.2462  0.4353
  374TMC3    O2 5605   3.450   2.440   9.208 -0.2433 -0.5924 -0.3161
  375MPD2     C 5606   2.680   3.430  16.795  0.4606 -0.5184  0.1240
  375MPD2    C1 5607   2.606   3.434  16.681 -0.1581 -0.0512 -0.2293
  375MPD2    C2 5608   2.659   3.373  16.570  0.5616  0.2264  0.4171
  375MPD2    C3 5609   2.777   3.304  16.572  0.0817  0.6846 -0.3067
  375MPD2    C4 5610   2.839   3.282  16.693 -0.2001 -0.0247 -0.9531
  375MPD2    C5 5611   2.790   3.351  16.800  0.2876  0.1567  0.2591
  375MPD2     H 5612   2.593   3.363  16.484  0.3105  2.3863  0.3652
  375MPD2    H1 5613   2.933   3.228  16.695  0.0689  0.4447 -0.8729
  375MPD2    H2 5614   2.649   3.487  16.881  1.6724  2.2449 -1.2760
  375MPD2    H3 5615   2.832   3.326  16.897 -0.5385  0.9131  0.8138
  375MPD2     N 5616   2.833   3.242  16.457  0.1536 -0.0146  0.2670
  375MPD2    H5 5617   2.919   3.189  16.467 -0.9443 -1.8882 -0.2431
  375MPD2    N1 5618   2.480   3.491  16.677  0.3703  0.2287  0.9805
  375MPD2    H7 5619   2.436   3.477  16.587  1.2430  2.2045  0.2490
  376TMC3    C1 5620   2.875   3.191  16.234  0.5318  0.8850 -0.3351
  376TMC3    C2 5621   3.011   3.192  16.265 -0.3575  0.0362  0.1469
  376TMC3    C3 5622   3.096   3.141  16.173  0.2372 -0.2889 -0.1202
  376TMC3    C4 5623   2.827   3.150  16.114  0.1097 -0.3850  0.3876
  376TMC3    C5 5624   2.920   3.104  16.025 -0.1249 -0.2263 -0.1450
  376TMC3    C6 5625   3.051   3.087  16.055 -0.2408 -0.8962 -0.2145
  376TMC3     C 5626   2.783   3.261  16.332  0.0115  0.1653  0.3288
  376TMC3     O 5627   2.682   3.315  16.289  0.1644 -0.5455 -0.2091
  376TMC3     H 5628   3.059   3.239  16.350 -0.9057 -0.6365  0.8260
  376TMC3    H1 5629   2.722   3.151  16.089  0.2046 -1.0499 -0.0568
  376TMC3    H2 5630   3.122   3.036  15.991  0.5360  0.8815 -0.7799
  376TMC3    C7 5631   2.882   3.053  15.894  0.2848  0.0931 -0.7088
  376TMC3    C8 5632   3.237   3.156  16.193  0.0668 -0.0045 -0.1339
  376TMC3    O1 5633   2.971   2.989  15.839 -0.2943  0.2463 -0.6320
  376TMC3    O2 5634   3.305   3.159  16.088 -0.1145  0.3596 -0.0022
  377MPD2     C 5635   0.979   3.098  12.467  0.7233  0.1776  0.5710
  377MPD2    C1 5636   1.070   3.000  12.438 -0.6102  0.2954  0.3194
  377MPD2    C2 5637   1.055   2.875  12.485 -0.3048  0.7610 -0.1297
  377MPD2    C3 5638   0.944   2.836  12.560  0.2634  0.7985 -0.5629
  377MPD2    C4 5639   0.846   2.933  12.590  0.0639 -0.3759 -0.1479
  377MPD2    C5 5640   0.872   3.063  12.547 -0.0860  0.2011  0.8384
  377MPD2     H 5641   1.124   2.794  12.462  1.2470  2.1000 -0.2147
  377MPD2    H1 5642   0.758   2.916  12.652 -1.3144  1.2523 -1.6518
  377MPD2    H2 5643   0.991   3.202  12.441 -1.7121 -0.1837 -2.0477
  377MPD2    H3 5644   0.802   3.139  12.580  0.0031  0.4618  0.4284
  377MPD2     N 5645   0.915   2.707  12.603 -0.1155  0.8501 -0.3198
  377MPD2    H5 5646   0.837   2.688  12.666  0.5766  0.9445  0.5554
  377MPD2    N1 5647   1.174   3.029  12.349  0.2175  0.0072 -0.2985
  377MPD2    H7 5648   1.162   3.121  12.309  0.7993  0.0700 -0.3184
  378TMC3    C1 5649   1.375   3.099  12.006 -0.2040  0.0222 -0.2816
  378TMC3    C2 5650   1.311   3.083  12.124  0.3362 -0.0142 -0.2243
  378TMC3    C3 5651   1.359   2.989  12.213  0.0012 -0.4758 -0.5741
  378TMC3    C4 5652   1.494   3.043  11.975 -0.1910  0.2896 -0.6139
  378TMC3    C5 5653   1.541   2.962  12.074  0.5543  0.1731  0.6334
  378TMC3    C6 5654   1.479   2.927  12.192  0.1976 -0.7467  0.5493
  378TMC3     C 5655   1.289   3.162  11.907 -0.1455  0.3132 -0.8907
  378TMC3     O 5656   1.174   3.133  11.906  0.7074  0.3262  0.3949
  378TMC3     H 5657   1.214   3.130  12.135  0.9867  0.9881  1.1741
  378TMC3    H1 5658   1.540   3.065  11.880 -1.9178  0.6921 -1.3498
  378TMC3    H2 5659   1.522   2.865  12.269 -0.1062  0.4737  1.7008
  378TMC3    C7 5660   1.677   2.910  12.069 -0.4970 -0.1023 -0.5781
  378TMC3    C8 5661   1.280   2.945  12.320  0.7686 -0.1167 -0.2320
  378TMC3    O1 5662   1.742   2.924  12.172  0.9086  0.7145 -0.1060
  378TMC3    O2 5663   1.308   2.838  12.368  0.1501  0.8327 -0.0869
  379MPD2     C 5664   1.352   0.700  16.477 -0.7580  0.3630 -0.0943
  379MPD2    C1 5665   1.426   0.634  16.380  0.0129 -0.2709  0.6440
  379MPD2    C2 5666   1.548   0.581  16.405  0.5685  0.3188 -0.1196
  379MPD2    C3 5667   1.603   0.598  16.532 -0.2979 -0.6508  0.3439
  379MPD2    C4 5668   1.530   0.651  16.637 -1.7271 -0.1642  0.5157
  379MPD2    C5 5669   1.403   0.692  16.612 -0.1654 -0.3950 -0.0209
  379MPD2     H 5670   1.606   0.532  16.327  0.6221  1.7504 -0.9678
  379MPD2    H1 5671   1.570   0.670  16.736 -2.0964  0.5225  0.5383
  379MPD2    H2 5672   1.252   0.738  16.457  0.0435  2.2816 -0.4760
  379MPD2    H3 5673   1.351   0.744  16.691 -1.4599 -0.7557 -0.6515
  379MPD2     N 5674   1.731   0.548  16.560 -0.3301  0.1633 -0.1488
  379MPD2    H5 5675   1.755   0.549  16.658  1.6111 -1.3771 -0.6276
  379MPD2    N1 5676   1.364   0.627  16.259  0.6796  0.5738  0.3723
  379MPD2    H7 5677   1.270   0.665  16.250 -0.8074 -2.7398  1.8395
  380TMC3    C1 5678   1.318   0.553  16.042 -0.4450 -0.6392 -0.6859
  380TMC3    C2 5679   1.353   0.457  15.953  0.4711 -1.4794 -0.2062
  380TMC3    C3 5680   1.271   0.444  15.841  0.4140 -0.9139  0.2180
  380TMC3    C4 5681   1.216   0.646  16.018 -0.1868 -0.2542 -0.1740
  380TMC3    C5 5682   1.141   0.626  15.905  0.6158  0.1776 -0.3741
  380TMC3    C6 5683   1.182   0.541  15.807 -0.1281 -0.3524  0.1193
  380TMC3     C 5684   1.413   0.568  16.148 -0.4906  0.5391  0.1197
  380TMC3     O 5685   1.523   0.521  16.135  0.3480 -0.4239  0.1314
  380TMC3     H 5686   1.431   0.384  15.969  1.8945  0.2517  0.7041
  380TMC3    H1 5687   1.188   0.724  16.089 -1.5929 -2.8697  2.1289
  380TMC3    H2 5688   1.142   0.542  15.706 -1.9149 -1.6006  0.8342
  380TMC3    C7 5689   1.050   0.734  15.866  1.3056 -0.5161 -0.0400
  380TMC3    C8 5690   1.317   0.365  15.730  0.1800  0.0668 -0.3578
  380TMC3    O1 5691   1.077   0.847  15.903  0.0273 -0.3362 -0.2038
  380TMC3    O2 5692   1.295   0.392  15.611 -0.0498  0.4405  0.0617
  381TMC3    C1 5693   1.098   2.163  15.915  0.5812  0.5264 -0.2450
  381TMC3    C2 5694   1.148   2.293  15.898  0.2393  0.3324 -0.1438
  381TMC3    C3 5695   1.167   2.362  16.016 -0.3664 -0.4767 -0.5092
  381TMC3    C4 5696   1.055   2.115  16.036 -0.3507  0.9696 -0.7816
  381TMC3    C5 5697   1.084   2.187  16.150  0.5122  0.3594  0.6194
  381TMC3    C6 5698   1.138   2.313  16.137  0.2257  0.6535 -0.2321
  381TMC3     C 5699   1.090   2.081  15.799 -0.5143 -0.1285 -0.1615
  381TMC3     O 5700   1.081   2.134  15.691 -0.2618 -0.0721  0.4635
  381TMC3     H 5701   1.164   2.335  15.800  0.1304  2.7569  0.8846
  381TMC3    H1 5702   1.011   2.016  16.038 -2.1054  1.7911  1.4640
  381TMC3    H2 5703   1.159   2.364  16.230 -1.1740  1.0906 -0.1516
  381TMC3    C7 5704   1.090   2.111  16.269 -0.1062 -0.2445  0.2302
  381TMC3    C8 5705   1.299   2.426  16.016  0.5779  0.0005  0.2807
  381TMC3    O1 5706   1.105   1.990  16.251  0.4618  0.2961 -0.1034
  381TMC3    O2 5707   1.381   2.384  15.937 -0.2335 -0.0066 -0.5922
  382MPD2     C 5708   0.677   4.662  17.000 -0.7533 -0.2050 -0.2554
  382MPD2    C1 5709   0.653   4.687  17.138  0.3298 -0.0855  0.2432
  382MPD2    C2 5710   0.657   4.579  17.222 -0.1795 -0.8848 -0.0326
  382MPD2    C3 5711   0.657   4.452  17.170  0.6641  0.8840 -0.1375
  382MPD2    C4 5712   0.680   4.433  17.038 -0.6620 -0.2045 -0.3598
  382MPD2    C5 5713   0.694   4.535  16.959  0.0761  0.2268 -0.0289
  382MPD2     H 5714   0.647   4.601  17.328  0.0886 -0.0651 -0.1789
  382MPD2    H1 5715   0.701   4.332  17.004 -2.5938 -0.6027 -0.3791
  382MPD2    H2 5716   0.662   0.013  16.924  0.0079  0.9913  0.7891
  382MPD2    H3 5717   0.696   4.506  16.855  1.0055  0.5263 -0.0865
  382MPD2     N 5718   0.645   4.338  17.253 -0.0170 -0.0195  0.3777
  382MPD2    H5 5719   0.627   4.250  17.205 -0.0783  0.9171 -1.3387
  382MPD2    N1 5720   0.650   0.092  17.185 -0.6255  0.5311 -0.0916
  382MPD2    H7 5721   0.648   0.107  17.285 -0.1893  1.6143 -0.2484
  383TMC3    C1 5722   0.600   4.212  17.439  0.9411 -0.5509  0.1541
  383TMC3    C2 5723   0.505   4.135  17.379 -0.4159 -0.6037  0.6564
  383TMC3    C3 5724   0.482   4.006  17.424 -0.9096  0.0152 -0.6731
  383TMC3    C4 5725   0.678   4.161  17.546 -0.2883  0.5764  0.2788
  383TMC3    C5 5726   0.651   4.030  17.585  0.3710 -0.9451 -0.6293
  383TMC3    C6 5727   0.555   3.952  17.530  0.3599  0.1520  0.5058
  383TMC3     C 5728   0.635   4.342  17.385  0.0357 -0.1303  0.8331
  383TMC3     O 5729   0.684   4.423  17.460  0.4598  0.1622  0.2565
  383TMC3     H 5730   0.433   4.180  17.312  0.9808 -3.3379 -2.6678
  383TMC3    H1 5731   0.736   4.224  17.613  3.8887 -1.2828 -1.5429
  383TMC3    H2 5732   0.518   3.871  17.592 -2.5621 -0.1164 -1.5909
  383TMC3    C7 5733   0.717   3.991   0.008 -0.0636  0.3425  1.2168
  383TMC3    C8 5734   0.371   3.936  17.376 -0.5604  0.7406 -0.3412
  383TMC3    O1 5735   0.768   4.081   0.073  0.6388 -0.0379  0.4143
  383TMC3    O2 5736   0.288   4.005  17.329  0.3317  0.1731  0.1905
  384MPD2     C 5737   2.578   0.788  11.585  0.2886  0.2336  0.3627
  384MPD2    C1 5738   2.587   0.759  11.724  0.1216 -0.6551  0.0312
  384MPD2    C2 5739   2.690   0.679  11.769 -0.3286  0.1597 -0.3662
  384MPD2    C3 5740   2.762   0.606  11.677 -0.2143  0.0040  0.6125
  384MPD2    C4 5741   2.740   0.622  11.547 -0.3130 -0.0265  1.2449
  384MPD2    C5 5742   2.656   0.720  11.494  0.3902  0.2696 -0.5350
  384MPD2     H 5743   2.698   0.670  11.877 -0.7235 -0.8723 -0.4196
  384MPD2    H1 5744   2.808   0.576  11.475 -0.1682 -0.9681  1.9704
  384MPD2    H2 5745   2.509   0.862  11.547  1.0710 -0.1858 -1.8511
  384MPD2    H3 5746   2.638   0.719  11.387 -2.0062 -0.1629 -0.1365
  384MPD2     N 5747   2.844   0.503  11.733  0.1358 -0.3356  0.3286
  384MPD2    H5 5748   2.857   0.504  11.833  0.8192 -0.9832  0.2451
  384MPD2    N1 5749   2.513   0.830  11.818 -0.2485  0.0599 -0.3453
  384MPD2    H7 5750   2.515   0.802  11.916 -3.8233 -0.3571 -0.3686
  385TMC3    C1 5751   2.930   0.284  11.753  1.0515 -0.2172 -0.2999
  385TMC3    C2 5752   2.860   0.167  11.731  0.1329  0.1733 -0.5216
  385TMC3    C3 5753   2.817   0.095  11.836 -0.7081 -0.5347 -0.0375
  385TMC3    C4 5754   2.963   0.324  11.875 -0.2580  0.7417  0.0367
  385TMC3    C5 5755   2.913   0.252  11.982 -0.3060 -0.3168  0.6647
  385TMC3    C6 5756   2.843   0.137  11.961  0.4568  0.1401  0.2545
  385TMC3     C 5757   2.892   0.393  11.663  0.8340 -0.0463  0.3800
  385TMC3     O 5758   2.882   0.369  11.541 -0.2723 -0.6708 -0.0895
  385TMC3     H 5759   2.829   0.135  11.632  0.3899  0.4483 -0.6921
  385TMC3    H1 5760   3.013   0.417  11.899 -0.7164  1.1804 -0.7103
  385TMC3    H2 5761   2.781   0.098  12.041  1.0939 -0.7382  0.3143
  385TMC3    C7 5762   2.851   0.355  12.075  0.4640 -0.4115  0.1549
  385TMC3    C8 5763   2.763   4.689  11.824  0.3505 -0.1154  0.3369
  385TMC3    O1 5764   2.837   0.464  12.020 -0.3937  0.2569  0.0512
  385TMC3    O2 5765   2.730   4.634  11.930 -0.0056  0.2940  0.0072
  386TMC3    C1 5766   2.848   3.104  11.601 -0.6058  0.5162 -1.0798
  386TMC3    C2 5767   2.818   3.031  11.489 -0.4286 -0.0839 -0.4705
  386TMC3    C3 5768   2.716   3.084  11.413  0.2749 -0.6017 -0.6317
  386TMC3    C4 5769   2.808   3.231  11.623  0.1398 -0.1455  0.7031
  386TMC3    C5 5770   2.719   3.288  11.538 -0.6622  0.4036 -0.0869
  386TMC3    C6 5771   2.672   3.213  11.429 -0.7769 -0.4869 -0.0923
  386TMC3     C 5772   2.947   3.046  11.688 -0.7193  0.1806  0.6183
  386TMC3     O 5773   3.021   3.124  11.743  0.5300  0.2905 -0.0160
  386TMC3     H 5774   2.857   2.933  11.464  4.3710  2.1212 -1.4936
  386TMC3    H1 5775   2.847   3.275  11.715  0.1591 -2.0126  1.5828
  386TMC3    H2 5776   2.590   3.246  11.366 -0.5750  1.8883  0.9086
  386TMC3    C7 5777   2.630   3.384  11.585 -0.0141 -0.2653 -0.1082
  386TMC3    C8 5778   2.662   3.010  11.300  0.2674  0.0722 -0.8182
  386TMC3    O1 5779   2.629   3.398  11.705 -0.2678 -0.4421  0.1019
  386TMC3    O2 5780   2.583   3.073  11.230 -0.5356  0.5185  0.0021
  387MPD2     C 5781   0.515   3.111   9.227  0.0147 -0.4506  0.3397
  387MPD2    C1 5782   0.635   3.039   9.238 -0.2973 -0.2323  0.0234
  387MPD2    C2 5783   0.631   2.910   9.291  0.8442 -0.2501 -0.0974
  387MPD2    C3 5784   0.512   2.849   9.326 -0.1983  0.3670  0.0836
  387MPD2    C4 5785   0.393   2.922   9.315 -0.6662 -0.4035 -0.5294
  387MPD2    C5 5786   0.396   3.049   9.260 -0.2029 -0.3738  0.5897
  387MPD2     H 5787   0.722   2.859   9.320  1.5586  0.1638 -1.5758
  387MPD2    H1 5788   0.301   2.880   9.352  0.7474 -0.9819  2.3452
  387MPD2    H2 5789   0.514   3.209   9.180  1.1230 -1.2949 -1.4678
  387MPD2    H3 5790   0.316   3.120   9.280 -1.3667 -1.3364 -0.6194
  387MPD2     N 5791   0.527   2.719   9.393  0.8773  0.1211 -0.1121
  387MPD2    H5 5792   0.617   2.672   9.394  0.4250 -0.7631 -0.9371
  387MPD2    N1 5793   0.760   3.098   9.235  0.2924  0.1208 -0.2363
  387MPD2    H7 5794   0.837   3.034   9.248 -0.4155 -0.5081  0.8140
  388TMC3    C1 5795   0.930   3.251   9.244 -0.3098  0.5109  0.1577
  388TMC3    C2 5796   0.999   3.347   9.180  0.1543 -0.4100 -0.0747
  388TMC3    C3 5797   1.117   3.387   9.238  0.8007  0.0015 -0.3338
  388TMC3    C4 5798   0.974   3.181   9.356 -0.4194 -0.2567  0.1415
  388TMC3    C5 5799   1.100   3.213   9.397 -0.2394  0.2830  0.5326
  388TMC3    C6 5800   1.176   3.314   9.341 -0.3357 -0.5926  0.4801
  388TMC3     C 5801   0.792   3.230   9.208 -0.2264  0.5978 -0.2387
  388TMC3     O 5802   0.723   3.326   9.184 -0.0436 -0.1719  0.3008
  388TMC3     H 5803   0.948   3.395   9.097 -0.8419  0.7343  1.1894
  388TMC3    H1 5804   0.910   3.111   9.408  0.2591  0.3938  1.8548
  388TMC3    H2 5805   1.278   3.326   9.374 -0.8482 -0.2090  1.9174
  388TMC3    C7 5806   1.175   3.122   9.483  0.0128 -0.3448  0.4319
  388TMC3    C8 5807   1.196   3.473   9.157  0.3844 -0.4992 -0.2166
  388TMC3    O1 5808   1.290   3.139   9.520  0.0627 -0.0158 -0.1985
  388TMC3    O2 5809   1.160   3.485   9.045 -0.2555 -0.0559  0.0841
  389MPD2     C 5810   4.426   1.412  10.514  0.9160  0.1934  0.1216
  389MPD2    C1 5811   4.374   1.321  10.418 -0.7931 -0.4666  0.7688
  389MPD2    C2 5812   4.359   1.190  10.462 -0.7658  0.1875 -0.1685
  389MPD2    C3 5813   4.402   1.149  10.586  0.7740 -0.5183  0.5359
  389MPD2    C4 5814   4.451   1.242  10.673  0.1098  1.1360 -0.4628
  389MPD2    C5 5815   4.452   1.373  10.637 -0.8506  0.2055  0.1655
  389MPD2     H 5816   4.312   1.123  10.392  1.8675 -1.3081 -0.4941
  389MPD2    H1 5817   4.480   1.218  10.775  1.1439  0.6605 -0.8705
  389MPD2    H2 5818   4.434   1.518  10.491 -0.6504  0.6517  1.6691
  389MPD2    H3 5819   4.499   1.444  10.704 -1.1199 -0.1444  0.7211
  389MPD2     N 5820   4.385   1.015  10.628  0.0871  0.4670 -0.0719
  389MPD2    H5 5821   4.420   0.996  10.721 -1.5279  2.1760  0.8785
  389MPD2    N1 5822   4.320   1.386  10.304 -0.2994  0.2725  0.1794
  389MPD2    H7 5823   4.346   1.483  10.294  0.5308  0.5845  5.0463
  390TMC3    C1 5824   4.320   0.803  10.665  0.0173  0.1816 -0.0049
  390TMC3    C2 5825   4.192   0.755  10.690 -0.3178  0.0879 -0.5115
  390TMC3    C3 5826   4.170   0.711  10.822  0.3170 -0.1316  0.1844
  390TMC3    C4 5827   4.413   0.816  10.763 -0.2484 -0.9906 -0.3157
  390TMC3    C5 5828   4.378   0.781  10.887 -0.2961 -0.5793  0.2537
  390TMC3    C6 5829   4.255   0.731  10.922  0.3535 -0.1326 -0.0383
  390TMC3     C 5830   4.319   0.912  10.568 -0.0860 -0.3838  0.6349
  390TMC3     O 5831   4.237   0.905  10.473  0.1283  0.1911 -0.0559
  390TMC3     H 5832   4.111   0.762  10.618 -0.6024 -0.2902 -0.2260
  390TMC3    H1 5833   4.520   0.834  10.756 -0.0996 -2.2648 -1.3195
  390TMC3    H2 5834   4.244   0.687  11.020 -0.7889  0.5190  0.1180
  390TMC3    C7 5835   4.451   0.862  10.985  0.4671 -0.1280 -0.2195
  390TMC3    C8 5836   4.038   0.681  10.853 -0.1558  0.0125  0.1350
  390TMC3    O1 5837   4.495   0.964  10.937 -0.1055  0.3276 -0.0097
  390TMC3    O2 5838   3.979   0.597  10.779  0.0797  0.2818 -0.0179
  391MPD2     C 5839   3.301   2.261  10.840  0.1205 -0.7988 -0.5306
  391MPD2    C1 5840   3.359   2.385  10.857  0.1786  0.1379 -0.5054
  391MPD2    C2 5841   3.387   2.455  10.740 -0.5075  0.0677 -0.6180
  391MPD2    C3 5842   3.357   2.419  10.610  0.4725  0.4627  0.0114
  391MPD2    C4 5843   3.289   2.294  10.603  0.5672  0.4786  0.2741
  391MPD2    C5 5844   3.266   2.217  10.716 -0.0854 -0.3802 -0.9691
  391MPD2     H 5845   3.441   2.548  10.755 -1.0149 -0.2145  3.0596
  391MPD2    H1 5846   3.276   2.246  10.507  0.1452 -1.8707  1.4981
  391MPD2    H2 5847   3.273   2.206  10.929  0.2509  1.4516  0.8957
  391MPD2    H3 5848   3.208   2.126  10.706 -0.6471 -0.3235  1.7550
  391MPD2     N 5849   3.394   2.502  10.500  0.5088  0.4767  0.2998
  391MPD2    H5 5850   3.463   2.570  10.529  2.9902 -1.4959 -0.9272
  391MPD2    N1 5851   3.395   2.423  10.987 -0.0355 -0.3993 -0.2535
  391MPD2    H7 5852   3.360   2.357  11.056 -0.6923  0.3068  0.0845
  392TMC3    C1 5853   3.439   2.548  10.274  0.3100  0.3859 -0.1472
  392TMC3    C2 5854   3.404   2.532  10.147 -1.3659 -0.1975 -0.7325
  392TMC3    C3 5855   3.470   2.603  10.050 -0.0451  0.0586 -0.2308
  392TMC3    C4 5856   3.558   2.612  10.306 -0.1103 -0.1069 -0.8527
  392TMC3    C5 5857   3.624   2.675  10.206 -0.2442  0.5222 -0.3516
  392TMC3    C6 5858   3.584   2.665  10.079 -0.6479 -0.0478 -1.1622
  392TMC3     C 5859   3.355   2.481  10.371 -0.0952  0.2738  0.5593
  392TMC3     O 5860   3.267   2.405  10.333 -0.5907 -0.4132  0.4287
  392TMC3     H 5861   3.319   2.471  10.119 -0.3876 -1.3629 -1.1554
  392TMC3    H1 5862   3.582   2.634  10.409  0.4821  2.3132 -1.4984
  392TMC3    H2 5863   3.648   2.704  10.001  0.1849  0.3905 -0.2477
  392TMC3    C7 5864   3.747   2.746  10.247 -0.8957 -0.0863  0.4226
  392TMC3    C8 5865   3.439   2.571   9.914 -0.9483  0.4338  0.6862
  392TMC3    O1 5866   3.795   2.718  10.354  0.1117  0.2109 -0.2938
  392TMC3    O2 5867   3.365   2.474   9.898 -0.2258  0.3331  0.4180
  393TMC3    C1 5868   2.207   0.082   9.995 -0.4383 -0.2309 -0.7086
  393TMC3    C2 5869   2.135   4.691  10.031 -0.3648  1.1250  0.0805
  393TMC3    C3 5870   2.134   4.656  10.162 -0.0744  0.4871  0.5598
  393TMC3    C4 5871   2.264   0.161  10.086  0.6668  0.5177 -0.0822
  393TMC3    C5 5872   2.256   0.124  10.217 -0.4061 -0.6493 -0.1524
  393TMC3    C6 5873   2.192   0.006  10.257  0.2341 -0.0937 -0.7894
  393TMC3     C 5874   2.186   0.142   9.870 -0.3803  0.0856  0.7010
  393TMC3     O 5875   2.261   0.233   9.833  0.2782  0.6189  0.0827
  393TMC3     H 5876   2.087   4.625   9.959 -0.6666  1.7471 -0.2819
  393TMC3    H1 5877   2.317   0.248  10.050 -0.7076  1.2900 -0.2188
  393TMC3    H2 5878   2.203   4.694  10.359  0.3169  0.8025 -0.4820
  393TMC3    C7 5879   2.343   0.196  10.310 -0.7013  0.3095  0.1956
  393TMC3    C8 5880   2.074   4.531  10.199  0.2400  0.2257  0.6541
  393TMC3    O1 5881   2.328   0.173  10.430 -0.6892  0.1800 -0.1941
  393TMC3    O2 5882   2.026   4.508  10.311  0.6606  0.3290 -0.0197
  394TMC3    C1 5883   4.240   1.413  10.086 -0.0380  0.2703  0.1632
  394TMC3    C2 5884   4.143   1.371   9.999 -0.0403  0.1749  0.2852
  394TMC3    C3 5885   4.161   1.398   9.865  0.4638  0.7116 -0.1854
  394TMC3    C4 5886   4.346   1.496  10.050 -0.7976 -0.4497 -0.2800
  394TMC3    C5 5887   4.337   1.539   9.922 -0.2556  0.1833 -1.2565
  394TMC3    C6 5888   4.244   1.501   9.824  0.0547  0.1258 -1.0047
  394TMC3     C 5889   4.252   1.324  10.200 -0.8334  0.5451  0.6465
  394TMC3     O 5890   4.225   1.204  10.181  0.5467  0.0965 -0.0865
  394TMC3     H 5891   4.065   1.303  10.033 -0.6832  0.6498 -0.2438
  394TMC3    H1 5892   4.425   1.529  10.116 -1.4978 -0.3113  0.4812
  394TMC3    H2 5893   4.241   1.553   9.728 -0.3633 -0.8408 -1.5173
  394TMC3    C7 5894   4.432   1.641   9.878  0.0568  0.2283  0.0306
  394TMC3    C8 5895   4.127   1.300   9.770 -0.3507 -0.1124  0.8840
  394TMC3    O1 5896   4.391   1.730   9.809  0.2287 -0.0114 -0.0914
  394TMC3    O2 5897   4.110   1.342   9.652  0.8681  0.2513  0.3509
  395TMC3    C1 5898   4.235   2.917  14.150 -0.3676 -0.8457  0.3052
  395TMC3    C2 5899   4.129   2.978  14.087 -0.0001  0.0812  0.4564
  395TMC3    C3 5900   4.115   3.112  14.082 -0.0292  0.5208 -0.2237
  395TMC3    C4 5901   4.337   3.007  14.202  0.6529 -0.5032 -0.1516
  395TMC3    C5 5902   4.309   3.141  14.196 -0.1589  0.0279  0.1499
  395TMC3    C6 5903   4.200   3.197  14.137 -0.0241  0.7022 -0.3086
  395TMC3     C 5904   4.190   2.826  14.254  0.1008  0.1973 -0.0222
  395TMC3     O 5905   4.266   2.797  14.346 -0.1741  0.3159  0.0447
  395TMC3     H 5906   4.063   2.925  14.019  2.3503 -1.5434 -0.5959
  395TMC3    H1 5907   4.416   2.968  14.265 -0.1820 -1.8900  0.0456
  395TMC3    H2 5908   4.176   3.301  14.116 -0.6708  0.2019 -2.0380
  395TMC3    C7 5909   4.415   3.232  14.223 -0.1110 -0.1140  0.1634
  395TMC3    C8 5910   3.978   3.162  14.070 -0.1426 -0.4827  0.2970
  395TMC3    O1 5911   4.386   3.346  14.255  1.1727 -0.3832  0.3915
  395TMC3    O2 5912   3.967   3.261  14.000  0.1288 -0.0120 -0.1147
  396MPD2     C 5913   3.423   4.232  17.239  0.2868 -0.5560 -0.2584
  396MPD2    C1 5914   3.475   4.242  17.112 -0.0967 -0.1282  0.7314
  396MPD2    C2 5915   3.471   4.365  17.052 -0.4480  0.0113 -0.6260
  396MPD2    C3 5916   3.437   4.481  17.116 -0.7940 -0.8291 -0.9520
  396MPD2    C4 5917   3.396   4.465  17.251 -0.0836  0.0616  0.4566
  396MPD2    C5 5918   3.384   4.341  17.299  0.5935  0.1885  0.0755
  396MPD2     H 5919   3.518   4.375  16.955 -1.2669  0.1426 -1.0084
  396MPD2    H1 5920   3.367   4.548  17.314 -2.6928  1.7013 -2.8288
  396MPD2    H2 5921   3.426   4.138  17.294 -0.1967 -1.1924 -1.3082
  396MPD2    H3 5922   3.343   4.342  17.400  1.9766  0.1084  0.6472
  396MPD2     N 5923   3.447   4.607  17.048 -0.5777 -0.0724  0.6239
  396MPD2    H5 5924   3.457   4.606  16.947 -1.2906  0.3461  0.5498
  396MPD2    N1 5925   3.520   4.123  17.058 -0.8145  0.0896  0.3133
  396MPD2    H7 5926   3.522   4.039  17.115 -1.4626 -0.5056 -0.5409
  397TMC3    C1 5927   3.554   3.962  16.883  0.1579  0.2201 -0.9884
  397TMC3    C2 5928   3.610   3.948  16.758 -0.5753 -0.4039  0.2867
  397TMC3    C3 5929   3.550   3.871  16.658 -0.6065  0.2750  0.4418
  397TMC3    C4 5930   3.435   3.896  16.914  0.1192  1.0034  0.0853
  397TMC3    C5 5931   3.381   3.822  16.812  0.6406 -0.5310 -0.5178
  397TMC3    C6 5932   3.436   3.805  16.687  0.5358 -0.3379  0.3467
  397TMC3     C 5933   3.565   4.100  16.929 -0.3674 -0.4029  0.2568
  397TMC3     O 5934   3.601   4.178  16.842  0.3094  0.4656 -0.2107
  397TMC3     H 5935   3.706   3.997  16.742 -0.6836 -0.6130 -1.0192
  397TMC3    H1 5936   3.379   3.918  17.004  0.3114 -2.2976  1.0366
  397TMC3    H2 5937   3.382   3.746  16.613 -0.6868  0.6209  0.4832
  397TMC3    C7 5938   3.258   3.751  16.838  0.5460  0.4708  0.5860
  397TMC3    C8 5939   3.629   3.840  16.539  0.3477 -0.1877  0.0062
  397TMC3    O1 5940   3.193   3.706  16.745 -0.1939  0.1743  0.7374
  397TMC3    O2 5941   3.732   3.905  16.525  0.6167  0.6428  0.3183
  398MPD2     C 5942   1.446   0.387   0.079 -0.0167 -0.9854  0.4905
  398MPD2    C1 5943   1.570   0.338   0.111 -0.4645  0.3431  0.3033
  398MPD2    C2 5944   1.670   0.429   0.116  0.0582  0.2147 -0.1060
  398MPD2    C3 5945   1.655   0.564   0.088 -0.9255  0.2980  0.2701
  398MPD2    C4 5946   1.537   0.616   0.062 -0.7212  0.4913  0.4530
  398MPD2    C5 5947   1.431   0.527   0.056  0.2443  0.2077  0.4853
  398MPD2     H 5948   1.763   0.394   0.159  0.8957  0.9586 -1.3508
  398MPD2    H1 5949   1.521   0.721   0.042  1.8681  0.4494 -1.7098
  398MPD2    H2 5950   1.360   0.322   0.069 -0.1971 -0.8568  1.2523
  398MPD2    H3 5951   1.338   0.574   0.026 -0.0011  0.6949  1.9819
  398MPD2     N 5952   1.778   0.636   0.078  0.2034  0.1414  0.6308
  398MPD2    H5 5953   1.860   0.581   0.099 -0.7937 -1.9884 -1.0727
  398MPD2    N1 5954   1.606   0.201   0.141  0.0804 -0.4300  0.2045
  398MPD2    H7 5955   1.705   0.187   0.155  0.0549  0.7979  1.6387
  399TMC3    C1 5956   1.588   4.691   0.174 -0.5799 -0.1904  0.6461
  399TMC3    C2 5957   1.724   4.681   0.169  0.0671  1.1374 -0.0275
  399TMC3    C3 5958   1.778   4.555   0.154 -0.0583 -0.6374 -0.4402
  399TMC3    C4 5959   1.503   4.579   0.170  0.6966  0.0619  0.0931
  399TMC3    C5 5960   1.561   4.457   0.165  0.5113 -0.4595 -0.1940
  399TMC3    C6 5961   1.696   4.446   0.148  0.4664 -0.2527 -1.0514
  399TMC3     C 5962   1.522   0.092   0.141 -0.0909  0.4753 -0.9079
  399TMC3     O 5963   1.401   0.096   0.120 -0.1490 -0.1775 -0.1312
  399TMC3     H 5964   1.789   0.042   0.158  0.8619  0.5524  0.1347
  399TMC3    H1 5965   1.397   4.592   0.190  0.6756  0.7820 -0.4681
  399TMC3    H2 5966   1.730   4.344   0.130  0.4044 -0.3054 -0.8688
  399TMC3    C7 5967   1.472   4.346   0.127 -0.4189  0.4594 -0.3138
  399TMC3    C8 5968   1.915   4.558   0.127 -0.2126 -0.5032  0.8841
  399TMC3    O1 5969   1.520   4.231   0.140  0.0027  0.0857 -0.6372
  399TMC3    O2 5970   1.972   4.664   0.119 -0.5215  0.1558  0.4997
  400TMC3    C1 5971   0.206   3.642  16.750  0.2163 -0.4117  0.2424
  400TMC3    C2 5972   0.092   3.597  16.680 -0.8503  0.0662 -0.0285
  400TMC3    C3 5973   0.003   3.689  16.636  0.3848 -0.4580  0.3963
  400TMC3    C4 5974   0.237   3.777  16.758  0.3724 -0.8141 -0.4634
  400TMC3    C5 5975   0.139   3.864  16.710  0.3586 -0.0040  0.1238
  400TMC3    C6 5976   0.022   3.824  16.652 -0.3942 -0.1172 -0.5867
  400TMC3     C 5977   0.274   3.551  16.839  0.0080  0.1476 -0.2542
  400TMC3     O 5978   0.227   3.437  16.853 -0.2627  0.2346  0.0972
  400TMC3     H 5979   0.062   3.493  16.684  1.2915 -0.5372  0.4895
  400TMC3    H1 5980   0.324   3.824  16.801 -1.0150  1.6400 -0.3857
  400TMC3    H2 5981   4.672   3.900  16.629 -0.9420  0.0203  1.6636
  400TMC3    C7 5982   0.176   4.005  16.731 -0.3236 -0.0870 -1.1494
  400TMC3    C8 5983   4.636   3.666  16.523 -0.3900  0.1708 -0.4795
  400TMC3    O1 5984   0.251   4.023  16.825  0.2277  0.4234 -0.2117
  400TMC3    O2 5985   4.562   3.768  16.508  0.2130 -0.1625  0.1378
  401MPD2     C 5986   3.154   2.679   0.848  0.1238 -0.2181 -0.9569
  401MPD2    C1 5987   3.248   2.583   0.879 -0.4067 -0.0232 -0.5692
  401MPD2    C2 5988   3.219   2.450   0.862  0.3369 -0.3569 -0.2372
  401MPD2    C3 5989   3.111   2.409   0.791  0.6513  0.6564  0.1011
  401MPD2    C4 5990   3.018   2.504   0.757 -0.0206  0.0656 -0.8706
  401MPD2    C5 5991   3.041   2.643   0.787  0.3056 -0.2870  0.5749
  401MPD2     H 5992   3.300   2.380   0.884 -0.5528 -1.0822  0.7131
  401MPD2    H1 5993   2.932   2.485   0.694  0.2594 -0.5555 -1.0650
  401MPD2    H2 5994   3.172   2.783   0.873  0.4440 -0.1490 -1.4732
  401MPD2    H3 5995   2.961   2.714   0.767  1.1864  1.1031  2.0066
  401MPD2     N 5996   3.105   2.272   0.761 -0.2542  1.0095  0.1471
  401MPD2    H5 5997   3.173   2.206   0.796 -0.4061 -1.0131 -3.4360
  401MPD2    N1 5998   3.376   2.612   0.932 -0.3730  0.1955 -0.1297
  401MPD2    H7 5999   3.439   2.532   0.928 -0.1909  0.3954 -1.1837
  402TMC3    C1 6000   3.031   2.083   0.656 -0.0996 -0.2031  0.0333
  402TMC3    C2 6001   3.093   2.004   0.744 -0.7245  0.0678  0.3532
  402TMC3    C3 6002   3.140   1.883   0.710  0.3147 -0.0683 -0.4241
  402TMC3    C4 6003   3.025   2.039   0.526  0.5232  0.6368 -0.0842
  402TMC3    C5 6004   3.071   1.909   0.499  0.0853  0.5407  0.0855
  402TMC3    C6 6005   3.132   1.826   0.588 -0.2142 -0.4065 -0.3829
  402TMC3     C 6006   3.018   2.220   0.669 -0.9872  0.4397 -0.5606
  402TMC3     O 6007   2.942   2.275   0.592 -0.7538 -1.3369  0.1088
  402TMC3     H 6008   3.094   2.047   0.843 -1.6679  0.6399  0.1058
  402TMC3    H1 6009   2.984   2.101   0.447  1.1500  3.4043  1.7415
  402TMC3    H2 6010   3.154   1.722   0.566  0.2154 -0.9013  2.3800
  402TMC3    C7 6011   3.106   1.892   0.358 -1.2240  0.2143  0.4465
  402TMC3    C8 6012   3.187   1.800   0.814 -0.6308  0.4774 -0.3492
  402TMC3    O1 6013   3.050   1.969   0.276  0.0787 -0.2504  0.7782
  402TMC3    O2 6014   3.289   1.734   0.799 -0.2806 -0.9939  0.0934
  403MPD2     C 6015   2.038   0.045  13.219  0.0016 -0.0649 -0.4403
  403MPD2    C1 6016   2.060   0.182  13.237  0.0095 -0.7652 -0.4212
  403MPD2    C2 6017   2.182   0.222  13.286  0.0694  0.0474  0.1275
  403MPD2    C3 6018   2.287   0.134  13.299 -0.2962 -0.5238 -0.4571
  403MPD2    C4 6019   2.260   4.722  13.265 -0.8709  0.2188 -0.1652
  403MPD2    C5 6020   2.141   4.676  13.222  0.6095  0.5807 -0.0172
  403MPD2     H 6021   2.207   0.327  13.289 -0.3311  0.1415  0.0934
  403MPD2    H1 6022   2.341   4.650  13.253 -0.5572  0.7691 -1.3293
  403MPD2    H2 6023   1.943   0.010  13.182  0.1191 -1.0541  0.2057
  403MPD2    H3 6024   2.123   4.570  13.210  0.7612  0.7222 -1.4901
  403MPD2     N 6025   2.410   0.180  13.350 -0.5278  0.7759 -0.0925
  403MPD2    H5 6026   2.426   0.280  13.359 -1.8553  1.1248 -1.5253
  403MPD2    N1 6027   1.953   0.262  13.216 -0.7908 -0.1544  0.2657
  403MPD2    H7 6028   1.864   0.218  13.196 -2.0161  2.0735  0.7753
  404TMC3    C1 6029   1.825   0.446  13.162  0.2977  0.8854  0.1827
  404TMC3    C2 6030   1.730   0.384  13.236  1.2615 -0.1066 -0.3890
  404TMC3    C3 6031   1.633   0.316  13.169 -0.0459 -0.6924  0.0131
  404TMC3    C4 6032   1.813   0.460  13.029  0.1043  0.3796  0.3821
  404TMC3    C5 6033   1.714   0.390  12.966  0.8712 -0.1999 -0.1251
  404TMC3    C6 6034   1.624   0.319  13.038 -0.6890  0.4083 -0.4012
  404TMC3     C 6035   1.957   0.400  13.201 -0.1903  0.2518  0.2967
  404TMC3     O 6036   2.056   0.474  13.217  0.1499 -0.3365 -0.3373
  404TMC3     H 6037   1.740   0.367  13.342 -1.6574  0.8009  0.0208
  404TMC3    H1 6038   1.891   0.494  12.962  1.3242 -2.7232  0.2629
  404TMC3    H2 6039   1.535   0.278  12.991 -0.5738  0.1138 -0.3640
  404TMC3    C7 6040   1.682   0.401  12.828  0.2584  0.3297 -0.3281
  404TMC3    C8 6041   1.632   0.185  13.226 -0.1833 -0.3902 -0.2021
  404TMC3    O1 6042   1.728   0.502  12.771 -0.1783 -0.0524  0.4025
  404TMC3    O2 6043   1.707   0.107  13.175  0.2311  0.4325  0.1613
  405MPD2     C 6044   1.573   0.844  14.829  0.2849 -0.3115 -0.2535
  405MPD2    C1 6045   1.691   0.873  14.779  0.0351  0.2499 -0.0628
  405MPD2    C2 6046   1.721   1.004  14.747  0.2478 -0.6308 -0.3107
  405MPD2    C3 6047   1.618   1.107  14.749  0.5800  0.0620 -0.1987
  405MPD2    C4 6048   1.501   1.072  14.792 -0.3942 -0.6394  0.1141
  405MPD2    C5 6049   1.476   0.944  14.837  0.3241  0.4427  0.2919
  405MPD2     H 6050   1.820   1.036  14.716 -0.7048  0.6391 -2.0086
  405MPD2    H1 6051   1.420   1.143  14.806  0.5602  0.3247  0.7294
  405MPD2    H2 6052   1.546   0.739  14.831  1.4221 -0.5868  1.2870
  405MPD2    H3 6053   1.378   0.916  14.874  0.2470 -0.8409 -0.8726
  405MPD2     N 6054   1.650   1.234  14.700 -0.0367 -0.0253 -0.2279
  405MPD2    H5 6055   1.750   1.240  14.679 -0.0887  0.1556 -0.4203
  405MPD2    N1 6056   1.785   0.772  14.770  0.4366  0.2006  0.6405
  405MPD2    H7 6057   1.741   0.681  14.779  0.4990  0.4245  3.1578
  406TMC3    C1 6058   1.576   1.581  14.396 -0.4205  0.1093  0.4669
  406TMC3    C2 6059   1.645   1.502  14.302 -0.0966 -0.3393 -1.0699
  406TMC3    C3 6060   1.685   1.379  14.330  0.3501  0.1137  0.1631
  406TMC3    C4 6061   1.557   1.534  14.524 -0.2799 -0.1471  0.2981
  406TMC3    C5 6062   1.610   1.407  14.558 -0.4806 -0.3354 -0.2518
  406TMC3    C6 6063   1.675   1.334  14.458 -0.8701  0.1186  0.4036
  406TMC3     C 6064   1.475   1.676  14.344  0.3372  0.5438  0.0526
  406TMC3     O 6065   1.501   1.724  14.235  0.4822 -0.0755  0.4534
  406TMC3     H 6066   1.658   1.539  14.201  1.8891 -1.2278 -1.1266
  406TMC3    H1 6067   1.502   1.583  14.604  1.6877  0.1962  1.4474
  406TMC3    H2 6068   1.718   1.237  14.479 -2.6478  0.2167  4.3556
  406TMC3    C7 6069   1.560   1.340  14.673  0.1055  0.5503  0.0758
  406TMC3    C8 6070   1.765   1.313  14.231  0.3602  0.5150 -0.4833
  406TMC3    O1 6071   1.444   1.364  14.709  0.1880  0.4063 -0.1825
  406TMC3    O2 6072   1.793   1.366  14.130  0.3237 -0.1561  0.4187
  407MPD2     C 6073   0.024   2.953   9.233  0.2958 -0.1686  0.6527
  407MPD2    C1 6074   0.057   2.859   9.329 -0.2935  0.0906  0.7201
  407MPD2    C2 6075   0.048   2.884   9.469  0.1910  1.1224  0.2486
  407MPD2    C3 6076   0.001   3.007   9.509  0.3977 -0.0017 -0.2434
  407MPD2    C4 6077   4.703   3.101   9.410  0.3824 -0.4977 -0.4651
  407MPD2    C5 6078   4.709   3.074   9.274  0.2096  0.4334  0.3001
  407MPD2     H 6079   0.079   2.814   9.545  0.7233  1.1944  0.0994
  407MPD2    H1 6080   4.680   3.206   9.429  1.1719 -0.5029  0.5163
  407MPD2    H2 6081   0.042   2.936   9.127  0.3403  2.1414  0.2850
  407MPD2    H3 6082   4.673   3.153   9.208  2.5995  2.2380  1.1510
  407MPD2     N 6083   4.718   3.047   9.645  0.9557 -0.1592  0.3464
  407MPD2    H5 6084   4.687   3.143   9.662  0.8615 -0.5971  2.6812
  407MPD2    N1 6085   0.105   2.732   9.286 -0.3658  0.5714 -0.2324
  407MPD2    H7 6086   0.144   2.676   9.361  2.2637 -0.5587 -2.4507
  408TMC3    C1 6087   0.149   2.551   9.157 -0.2191 -0.8809 -0.5753
  408TMC3    C2 6088   0.281   2.546   9.187  0.5128 -0.4391 -0.1209
  408TMC3    C3 6089   0.349   2.431   9.220 -0.1214  0.1454 -0.3287
  408TMC3    C4 6090   0.079   2.427   9.154 -0.3109 -0.4019 -0.1472
  408TMC3    C5 6091   0.146   2.322   9.206 -0.4708  0.1793 -0.7402
  408TMC3    C6 6092   0.281   2.315   9.233  0.1603  0.1032 -0.6217
  408TMC3     C 6093   0.080   2.679   9.162 -0.3453 -0.4438 -0.1611
  408TMC3     O 6094   4.712   2.704   9.089  0.2631 -0.0253 -0.2415
  408TMC3     H 6095   0.333   2.642   9.182  1.2825 -0.7969  1.0139
  408TMC3    H1 6096   4.701   2.417   9.121 -0.2197  0.8490 -0.8290
  408TMC3    H2 6097   0.328   2.221   9.257 -0.4828 -0.3455 -1.1114
  408TMC3    C7 6098   0.078   2.194   9.189  0.2282 -0.5033 -0.2542
  408TMC3    C8 6099   0.489   2.415   9.206 -0.1824 -0.0519 -0.1049
  408TMC3    O1 6100   4.716   2.183   9.103 -0.0247  0.2882 -0.6547
  408TMC3    O2 6101   0.548   2.313   9.225  0.1182  0.2708 -0.2211
  409MPD2     C 6102   3.844   3.383  16.741  0.1176 -0.0168 -0.2416
  409MPD2    C1 6103   3.939   3.386  16.838  0.5825  0.4009 -0.1041
  409MPD2    C2 6104   4.049   3.463  16.829  0.4927  0.0889 -0.1999
  409MPD2    C3 6105   4.090   3.527  16.725 -0.2524 -0.2783 -0.6275
  409MPD2    C4 6106   3.997   3.534  16.624 -0.1021  0.3483 -0.4552
  409MPD2    C5 6107   3.878   3.458  16.637  0.0848 -0.5263  0.1674
  409MPD2     H 6108   4.107   3.470  16.920  0.2977 -0.6352 -0.0190
  409MPD2    H1 6109   4.006   3.598  16.537  0.6165  1.7682  0.6665
  409MPD2    H2 6110   3.753   3.324  16.737  1.9356 -2.9168  0.6319
  409MPD2    H3 6111   3.807   3.461  16.555 -1.6089  0.3908  1.6440
  409MPD2     N 6112   4.201   3.609  16.732 -0.0048  0.0991 -0.0297
  409MPD2    H5 6113   4.229   3.666  16.653  1.2378  2.9148  2.4550
  409MPD2    N1 6114   3.933   3.307  16.954  0.4879 -0.0841 -0.0261
  409MPD2    H7 6115   4.011   3.314  17.019 -0.4847  1.3567  0.9920
  410TMC3    C1 6116   4.408   3.692  16.834 -0.4709 -0.0920  0.9238
  410TMC3    C2 6117   4.511   3.672  16.923  0.3697  0.3166 -0.2400
  410TMC3    C3 6118   4.585   3.781  16.961  0.0578 -0.5521 -0.5541
  410TMC3    C4 6119   4.372   3.819  16.788  0.5751  0.3740 -0.0135
  410TMC3    C5 6120   4.433   3.931  16.842 -0.1458 -0.4080 -0.1247
  410TMC3    C6 6121   4.546   3.909  16.917 -0.0880  0.0672 -0.0852
  410TMC3     C 6122   4.303   3.587  16.823 -0.6132  0.0412  0.4491
  410TMC3     O 6123   4.320   3.486  16.893  0.3858 -0.3396  0.3684
  410TMC3     H 6124   4.541   3.573  16.955  1.3176  0.2984 -1.1879
  410TMC3    H1 6125   4.280   3.832  16.731 -0.0868 -2.4418  0.4090
  410TMC3    H2 6126   4.588   3.997  16.964  0.4263  1.1260 -2.4904
  410TMC3    C7 6127   4.430   4.052  16.762 -0.4652  0.8450 -0.3093
  410TMC3    C8 6128   4.712   3.788  17.031  0.2005 -0.5450  0.7071
  410TMC3    O1 6129   4.456   4.156  16.818  0.5987  0.2917 -0.2494
  410TMC3    O2 6130   0.045   3.894  17.047 -0.3458  0.4341 -0.2801
  411MPD2     C 6131   4.590   3.969  14.295 -0.0153  0.8227 -0.1032
  411MPD2    C1 6132   4.454   3.984  14.268  0.1672  0.3544  0.1251
  411MPD2    C2 6133   4.388   3.878  14.191 -0.1799  0.1658 -0.0985
  411MPD2    C3 6134   4.467   3.783  14.133 -0.2563 -0.3453 -1.3594
  411MPD2    C4 6135   4.602   3.776  14.149 -0.2069  0.2662  0.4587
  411MPD2    C5 6136   4.664   3.871  14.230  0.3627 -0.5980  0.2927
  411MPD2     H 6137   4.281   3.878  14.170 -0.3151  3.0715  0.5133
  411MPD2    H1 6138   4.649   3.687  14.111 -1.1594  0.0860 -0.2925
  411MPD2    H2 6139   4.641   4.049  14.348  1.0239 -0.2533  0.5198
  411MPD2    H3 6140   0.047   3.862  14.241  0.6031  0.9512 -0.8558
  411MPD2     N 6141   4.407   3.695  14.035 -0.3878  0.2492 -0.1166
  411MPD2    H5 6142   4.469   3.643  13.974  0.3831  1.4017 -0.3059
  411MPD2    N1 6143   4.388   4.105  14.308  0.1765  0.1368  0.5425
  411MPD2    H7 6144   4.446   4.171  14.359  0.8642  0.8254 -1.1281
  412TMC3    C1 6145   4.244   3.592  13.892 -0.1070 -0.4746  0.3560
  412TMC3    C2 6146   4.126   3.524  13.887 -0.5557 -0.0138 -0.2843
  412TMC3    C3 6147   4.091   3.468  13.764  0.3831  0.1762 -0.9702
  412TMC3    C4 6148   4.320   3.618  13.782  0.4497 -0.2370 -0.4203
  412TMC3    C5 6149   4.296   3.549  13.662  0.4051  0.4254  0.4517
  412TMC3    C6 6150   4.177   3.481  13.655  0.5582 -0.2956 -0.4438
  412TMC3     C 6151   4.271   3.676  14.010  0.7112  0.2886  0.8548
  412TMC3     O 6152   4.171   3.703  14.076  0.6374  0.5230  0.1693
  412TMC3     H 6153   4.069   3.514  13.978 -1.4779 -1.6437 -1.0528
  412TMC3    H1 6154   4.416   3.668  13.781 -0.6269  1.8598  2.5243
  412TMC3    H2 6155   4.141   3.439  13.561  0.8388  0.1483 -0.7503
  412TMC3    C7 6156   4.313   3.637  13.543  0.0636  0.1709  0.7598
  412TMC3    C8 6157   3.954   3.508  13.730  0.0963  0.5403 -0.0948
  412TMC3    O1 6158   4.427   3.670  13.504  0.3731  0.1621 -0.0412
  412TMC3    O2 6159   3.950   3.544  13.613  0.9010 -0.0843  0.1431
  413MPD2     C 6160   1.299   1.730  14.907 -0.1833 -0.2387  0.6725
  413MPD2    C1 6161   1.420   1.742  14.835  0.1044  0.7833 -0.0822
  413MPD2    C2 6162   1.517   1.644  14.858  0.5060  0.2196 -0.2649
  413MPD2    C3 6163   1.505   1.550  14.952 -0.1694 -0.3354 -0.2128
  413MPD2    C4 6164   1.387   1.538  15.020  0.0790 -0.5851 -0.1572
  413MPD2    C5 6165   1.286   1.627  14.994 -0.2198 -0.0811 -0.4807
  413MPD2     H 6166   1.617   1.661  14.819  1.8083 -3.1947  1.5154
  413MPD2    H1 6167   1.365   1.465  15.097  1.3611 -0.3217  0.4587
  413MPD2    H2 6168   1.219   1.802  14.898 -0.8658 -1.2598 -1.4089
  413MPD2    H3 6169   1.193   1.627  15.050 -0.1944  1.2760 -0.4610
  413MPD2     N 6170   1.619   1.470  14.971  0.3192 -0.3262 -0.4763
  413MPD2    H5 6171   1.705   1.482  14.919  0.3189  1.2993 -0.1116
  413MPD2    N1 6172   1.438   1.853  14.751 -0.9835  0.8200 -0.5322
  413MPD2    H7 6173   1.357   1.914  14.740 -1.2400  0.4290 -0.7834
  414TMC3    C1 6174   1.749   1.261  15.036  0.7659  0.6970  0.3377
  414TMC3    C2 6175   1.731   1.132  15.079 -0.4408  0.3668  0.6893
  414TMC3    C3 6176   1.845   1.053  15.073  0.0125 -0.1256 -0.4225
  414TMC3    C4 6177   1.862   1.314  14.994 -0.5757  0.3729  0.6764
  414TMC3    C5 6178   1.974   1.235  14.993 -0.0326 -0.1312 -0.0696
  414TMC3    C6 6179   1.962   1.099  15.020 -0.2712 -0.5393  0.2687
  414TMC3     C 6180   1.623   1.351  15.047 -0.3711 -0.0835 -0.0101
  414TMC3     O 6181   1.535   1.300  15.118  0.0721 -0.2944 -0.0256
  414TMC3     H 6182   1.635   1.098  15.117 -1.8449  1.4529 -1.8911
  414TMC3    H1 6183   1.877   1.414  14.955  1.9480  0.8333  2.8116
  414TMC3    H2 6184   2.044   1.031  15.003 -0.1256 -0.6491  1.4248
  414TMC3    C7 6185   2.112   1.290  14.945 -0.2137 -0.4102  0.4965
  414TMC3    C8 6186   1.842   0.914  15.127 -0.8063 -0.4843 -0.7244
  414TMC3    O1 6187   2.115   1.413  14.924  0.0116  0.6338 -0.4579
  414TMC3    O2 6188   1.735   0.856  15.133  0.3585  0.3178  0.1710
  415TMC3    C1 6189   2.185   4.549   9.607  0.1550 -0.4442  0.2033
  415TMC3    C2 6190   2.201   4.646   9.511 -0.3523  0.0889  0.2657
  415TMC3    C3 6191   2.115   4.655   9.408 -0.1914 -0.7120  0.1245
  415TMC3    C4 6192   2.072   4.466   9.598  0.0410  0.4953 -0.0322
  415TMC3    C5 6193   1.995   4.471   9.488 -0.6001  0.4406 -0.9932
  415TMC3    C6 6194   2.010   4.569   9.395 -0.4026 -0.2109 -0.4569
  415TMC3     C 6195   2.275   4.545   9.727 -0.0924  0.2893  0.3268
  415TMC3     O 6196   2.228   4.487   9.823 -0.1879 -0.0146  0.4936
  415TMC3     H 6197   2.276   4.723   9.529 -1.3452  0.5102  2.5750
  415TMC3    H1 6198   2.061   4.402   9.685 -2.1923  0.6514 -0.2062
  415TMC3    H2 6199   1.959   4.577   9.300 -0.5750 -1.9064 -0.5030
  415TMC3    C7 6200   1.901   4.358   9.475 -0.3819 -0.0365 -0.0394
  415TMC3    C8 6201   2.142   0.034   9.303 -0.3052 -0.2693 -0.7485
  415TMC3    O1 6202   1.796   4.379   9.416  0.3801  0.4610 -0.2537
  415TMC3    O2 6203   2.055   0.046   9.216 -0.2499  0.1148  0.3922
  416MPD2     C 6204   2.713   3.661  11.282 -0.1697 -0.0266 -0.1811
  416MPD2    C1 6205   2.830   3.679  11.360  0.2280  0.2700 -0.2074
  416MPD2    C2 6206   2.919   3.577  11.377 -0.3491  0.3088  0.8945
  416MPD2    C3 6207   2.907   3.466  11.301 -0.1674 -0.0043  0.3380
  416MPD2    C4 6208   2.801   3.446  11.209 -0.7635  0.0482 -0.2328
  416MPD2    C5 6209   2.702   3.539  11.208 -0.2536 -0.4122 -0.2527
  416MPD2     H 6210   3.010   3.584  11.436  2.0183  1.7872 -2.9381
  416MPD2    H1 6211   2.784   3.352  11.156  1.7842 -2.9735  4.3346
  416MPD2    H2 6212   2.645   3.744  11.264  0.0454 -0.1286 -1.4504
  416MPD2    H3 6213   2.615   3.524  11.145 -0.2943  1.8472 -0.7407
  416MPD2     N 6214   3.002   3.361  11.316  0.6614  0.3027  0.3368
  416MPD2    H5 6215   3.007   3.287  11.246  1.0840  1.2655 -0.6559
  416MPD2    N1 6216   2.846   3.806  11.406  0.4411 -0.1737  0.4265
  416MPD2    H7 6217   2.775   3.874  11.381 -1.3324 -1.3020  2.4063
  417TMC3    C1 6218   2.940   3.985  11.541 -0.0004  0.0798  0.5477
  417TMC3    C2 6219   2.966   4.013  11.674 -0.1484 -0.0669  0.1621
  417TMC3    C3 6220   2.977   4.143  11.712 -0.1427  0.4527  0.4755
  417TMC3    C4 6221   2.934   4.086  11.446 -0.9112 -1.0245  0.0668
  417TMC3    C5 6222   2.947   4.215  11.487 -0.1981 -0.0761  0.0992
  417TMC3    C6 6223   2.962   4.250  11.622 -0.2345  0.4376 -0.5866
  417TMC3     C 6224   2.940   3.848  11.498  0.3346  0.4884 -0.1578
  417TMC3     O 6225   3.012   3.777  11.566 -0.2145 -0.3140 -0.4769
  417TMC3     H 6226   2.976   3.930  11.743  1.9043 -1.5309 -1.8957
  417TMC3    H1 6227   2.908   4.056  11.345  0.0654  1.6198 -0.9624
  417TMC3    H2 6228   2.969   4.351  11.659  1.1812 -0.6874  2.1895
  417TMC3    C7 6229   2.941   4.316  11.382 -0.0532 -0.1803  0.3044
  417TMC3    C8 6230   2.998   4.166  11.855 -0.1462 -0.3000 -0.3302
  417TMC3    O1 6231   2.952   4.279  11.267 -0.0342  0.6053  0.1243
  417TMC3    O2 6232   3.086   4.248  11.890  0.3785 -0.2235 -0.3788
  418TMC3    C1 6233   2.121   0.784  17.590  0.3543 -0.3492 -0.1647
  418TMC3    C2 6234   1.988   0.826  17.614  0.0622 -0.0099 -0.6085
  418TMC3    C3 6235   1.934   0.796   0.040  0.5553  0.1424  0.2674
  418TMC3    C4 6236   2.196   0.710  17.682 -0.3499  0.7499 -0.5520
  418TMC3    C5 6237   2.124   0.685   0.099  0.7418 -0.3079 -0.3269
  418TMC3    C6 6238   1.998   0.729   0.134 -0.4864  0.3080  0.1383
  418TMC3     C 6239   2.171   0.798  17.451  0.3936 -0.4579  0.1042
  418TMC3     O 6240   2.125   0.891  17.385  0.4638  0.0668  0.2530
  418TMC3     H 6241   1.925   0.867  17.537 -0.2990 -0.4177 -0.5292
  418TMC3    H1 6242   2.302   0.688  17.673 -0.5313 -0.7433  0.9696
  418TMC3    H2 6243   1.955   0.715   0.233  0.2650  0.6055  0.5118
  418TMC3    C7 6244   2.176   0.586   0.182 -0.2722 -0.3057  0.5031
  418TMC3    C8 6245   1.796   0.760   0.030 -0.1497 -0.1526 -0.3337
  418TMC3    O1 6246   2.088   0.514   0.233  0.2799 -0.0617 -0.0535
  418TMC3    O2 6247   1.722   0.814  17.648  0.0645 -0.0717 -0.2119
  419MPD2     C 6248   0.475   3.476  12.308 -0.3224 -0.4310 -0.0034
  419MPD2    C1 6249   0.431   3.602  12.280 -0.3733  0.2826  0.1177
  419MPD2    C2 6250   0.436   3.688  12.385 -0.2393 -0.3041 -0.0174
  419MPD2    C3 6251   0.481   3.660  12.516  0.2929  0.2737 -1.1449
  419MPD2    C4 6252   0.509   3.521  12.541  0.4147  0.4426  0.4442
  419MPD2    C5 6253   0.507   3.433  12.433 -0.5128 -1.0317 -0.1624
  419MPD2     H 6254   0.409   3.792  12.366  1.9955 -0.3338 -3.2515
  419MPD2    H1 6255   0.557   3.484  12.631 -1.5147 -2.7691  0.1561
  419MPD2    H2 6256   0.465   3.401  12.230  1.5151  1.3259 -1.9348
  419MPD2    H3 6257   0.552   3.336  12.452  0.5878 -0.4911 -0.0141
  419MPD2     N 6258   0.497   3.770  12.609  0.0204 -0.1733  0.2418
  419MPD2    H5 6259   0.468   3.864  12.583 -0.1283 -0.3333 -0.1605
  419MPD2    N1 6260   0.397   3.652  12.151  0.0333 -0.4671  0.2474
  419MPD2    H7 6261   0.366   3.749  12.153 -1.7038 -1.0106 -1.1844
  420TMC3    C1 6262   0.570   3.881  12.798  0.4096 -0.1688  0.0768
  420TMC3    C2 6263   0.607   3.988  12.714 -0.4362  0.1884  0.4494
  420TMC3    C3 6264   0.652   4.100  12.778  0.1906  0.2490 -0.2843
  420TMC3    C4 6265   0.590   3.890  12.934 -0.3910 -0.4390 -0.2547
  420TMC3    C5 6266   0.633   4.009  12.987 -0.0625  0.7033 -0.0422
  420TMC3    C6 6267   0.668   4.113  12.911  0.1144  0.5743 -0.5323
  420TMC3     C 6268   0.554   3.754  12.733 -0.1379  0.0837  0.0196
  420TMC3     O 6269   0.575   3.654  12.801 -0.0054 -0.0725 -0.2992
  420TMC3     H 6270   0.614   3.991  12.605  1.1802  1.8449  0.5964
  420TMC3    H1 6271   0.558   3.809  12.998  2.6921 -0.7132  0.9424
  420TMC3    H2 6272   0.702   4.209  12.945 -1.8171  0.0690  2.8110
  420TMC3    C7 6273   0.680   3.990  13.128  0.7346 -0.4656  0.6539
  420TMC3    C8 6274   0.679   4.215  12.697  0.1427 -0.0037 -0.2947
  420TMC3    O1 6275   0.664   3.879  13.180  0.6142  0.0093 -0.5574
  420TMC3    O2 6276   0.621   4.225  12.588 -0.0543 -0.1255  0.2302
  421TMC3    C1 6277   2.644   0.170  13.417 -0.0404 -0.3610 -0.0834
  421TMC3    C2 6278   2.660   0.302  13.401  0.5158  0.4651 -0.5680
  421TMC3    C3 6279   2.780   0.357  13.445  0.5329  0.3926  0.1349
  421TMC3    C4 6280   2.732   0.086  13.485 -0.1874  0.0647 -0.1489
  421TMC3    C5 6281   2.847   0.139  13.528 -0.2164  0.2912 -0.2345
  421TMC3    C6 6282   2.872   0.275  13.514  0.0544 -0.4766  0.0651
  421TMC3     C 6283   2.514   0.100  13.391  0.0337 -0.3092  0.0813
  421TMC3     O 6284   2.509   4.698  13.405 -0.4718 -0.2076  0.1871
  421TMC3     H 6285   2.588   0.362  13.347  0.7937  2.2627  1.0765
  421TMC3    H1 6286   2.709   4.705  13.479  2.6615 -0.6213  0.9311
  421TMC3    H2 6287   2.962   0.317  13.558  1.2982 -1.2290 -1.7606
  421TMC3    C7 6288   2.945   0.059  13.595  0.9330  0.5122  0.4066
  421TMC3    C8 6289   2.797   0.500  13.438  0.7228  0.3913  0.4288
  421TMC3    O1 6290   3.050   0.117  13.613  0.3998 -0.0820 -0.0727
  421TMC3    O2 6291   2.704   0.563  13.391  0.8213  0.2229 -0.1856
  422TMC3    C1 6292   4.686   1.944  12.222 -0.2342 -0.0119  0.0478
  422TMC3    C2 6293   4.676   2.076  12.261 -0.1200  0.4137 -0.8168
  422TMC3    C3 6294   4.593   2.110  12.357 -0.0743 -0.3366  0.1141
  422TMC3    C4 6295   4.622   1.843  12.284  0.1241 -0.4061  0.4477
  422TMC3    C5 6296   4.531   1.878  12.385  0.2750 -0.6113 -0.2063
  422TMC3    C6 6297   4.519   2.015  12.419  0.2304 -0.4215  0.1545
  422TMC3     C 6298   0.055   1.913  12.109 -0.6761  0.4272 -0.3319
  422TMC3     O 6299   0.067   2.009  12.028  0.1390 -0.3077  0.3205
  422TMC3     H 6300   0.017   2.148  12.214  2.1086 -0.3714  1.0416
  422TMC3    H1 6301   4.631   1.735  12.271 -0.4550 -0.4197  0.1507
  422TMC3    H2 6302   4.450   2.044  12.498  1.2883  1.1523  0.4992
  422TMC3    C7 6303   4.470   1.762  12.446  0.0922  0.4409  0.1360
  422TMC3    C8 6304   4.562   2.249  12.378  0.3700  0.1106 -0.2204
  422TMC3    O1 6305   4.524   1.653  12.440  0.0111  0.1441 -0.2120
  422TMC3    O2 6306   4.517   2.285  12.489 -0.2254  0.2830 -0.2205
  423MPD2     C 6307   0.688   2.727   0.399  0.2040  0.6302  0.0668
  423MPD2    C1 6308   0.798   2.681   0.474 -0.5546 -0.1205  0.8594
  423MPD2    C2 6309   0.917   2.647   0.407  0.4957 -0.1094 -0.8292
  423MPD2    C3 6310   0.913   2.641   0.271  0.4700 -0.6818 -0.3182
  423MPD2    C4 6311   0.801   2.671   0.197  0.6630 -0.4993 -0.3132
  423MPD2    C5 6312   0.694   2.722   0.263 -0.3566 -0.3855  0.2826
  423MPD2     H 6313   1.011   2.621   0.455  0.6956  0.4271 -0.9307
  423MPD2    H1 6314   0.789   2.647   0.092 -0.8253 -0.3074 -0.1862
  423MPD2    H2 6315   0.600   2.773   0.442 -0.7345 -1.1707  0.0400
  423MPD2    H3 6316   0.599   2.721   0.211  0.5545 -0.4942 -1.3977
  423MPD2     N 6317   1.019   2.595   0.188  0.0244 -0.5019  0.1036
  423MPD2    H5 6318   1.006   2.590   0.088 -0.2742  1.4279  0.0427
  423MPD2    N1 6319   0.799   2.671   0.617  0.0724  0.4687 -0.5033
  423MPD2    H7 6320   0.879   2.625   0.660 -1.7040 -1.6872  0.4421
  424TMC3    C1 6321   0.689   2.644   0.817  0.0379 -0.6230 -0.1977
  424TMC3    C2 6322   0.776   2.542   0.847  0.2628 -0.4951 -0.2213
  424TMC3    C3 6323   0.752   2.475   0.959  0.2219 -0.0555 -0.4524
  424TMC3    C4 6324   0.590   2.687   0.902 -0.2445  0.0227 -0.9363
  424TMC3    C5 6325   0.564   2.616   1.020  0.4488 -0.0880  0.3225
  424TMC3    C6 6326   0.645   2.505   1.040 -0.0558  0.4488  0.2700
  424TMC3     C 6327   0.686   2.701   0.687  0.3464  0.1849 -0.4879
  424TMC3     O 6328   0.599   2.779   0.658  0.5550  0.6637 -0.2804
  424TMC3     H 6329   0.850   2.490   0.787  0.3465  0.5369 -1.0068
  424TMC3    H1 6330   0.533   2.776   0.878 -2.0613 -0.3584  2.0077
  424TMC3    H2 6331   0.635   2.449   1.132 -1.8284 -2.1287 -1.5097
  424TMC3    C7 6332   0.436   2.639   1.080  0.2750  0.2654 -0.0604
  424TMC3    C8 6333   0.856   2.393   1.011 -0.5164 -0.0486  0.4861
  424TMC3    O1 6334   0.374   2.729   1.030 -0.4989 -0.3119 -0.1096
  424TMC3    O2 6335   0.827   2.327   1.110  0.0602 -0.1664  0.2506
  425MPD2     C 6336   4.665   2.158  17.449  0.6189 -0.3136  0.1089
  425MPD2    C1 6337   4.617   2.112  17.331  0.1519  0.2448  0.0329
  425MPD2    C2 6338   4.505   2.164  17.277  0.4893  0.2901 -0.1133
  425MPD2    C3 6339   4.431   2.262  17.341 -0.2244 -0.0650 -0.0916
  425MPD2    C4 6340   4.487   2.312  17.462  0.5853  0.0190 -0.1070
  425MPD2    C5 6341   4.601   2.261  17.510 -0.7035 -0.8040  0.1647
  425MPD2     H 6342   4.488   2.142  17.172 -1.5784 -0.6698  0.4181
  425MPD2    H1 6343   4.436   2.395  17.511  0.3063  0.2551 -0.7926
  425MPD2    H2 6344   0.026   2.113  17.498 -0.1652  0.6417  2.3492
  425MPD2    H3 6345   4.645   2.303  17.600 -0.6282 -1.6859  0.5503
  425MPD2     N 6346   4.304   2.300  17.287  0.2508 -0.3835 -0.7345
  425MPD2    H5 6347   4.269   2.257  17.202 -0.9639  1.3096 -1.0968
  425MPD2    N1 6348   4.694   2.004  17.270 -0.1518 -1.1264  0.1277
  425MPD2    H7 6349   0.045   1.960  17.322  0.6911  0.2591  0.0740
  426TMC3    C1 6350   0.004   1.805  17.145 -0.8407 -0.0519  0.1581
  426TMC3    C2 6351   4.655   1.709  17.076  0.3877  0.3545  0.1922
  426TMC3    C3 6352   4.716   1.592  17.073 -1.0580  0.2296  0.1357
  426TMC3    C4 6353   0.116   1.782  17.217  0.1786  0.1856  0.3840
  426TMC3    C5 6354   0.175   1.653  17.210 -0.2806 -0.2625  0.2817
  426TMC3    C6 6355   0.105   1.557  17.142  0.2582 -0.2868 -0.6678
  426TMC3     C 6356   4.654   1.930  17.159 -0.6297  0.0655 -1.1521
  426TMC3     O 6357   4.565   1.960  17.078  0.2654  0.2694  0.8326
  426TMC3     H 6358   4.567   1.733  17.019  0.3655  0.0473  0.0949
  426TMC3    H1 6359   0.166   1.865  17.266  0.6644 -0.9757  1.8654
  426TMC3    H2 6360   0.157   1.467  17.112  1.9940  0.5900 -0.3423
  426TMC3    C7 6361   0.289   1.610  17.296 -0.3479  0.0959 -0.3938
  426TMC3    C8 6362   4.667   1.491  16.986  0.3089  0.6941 -0.0003
  426TMC3    O1 6363   0.339   1.501  17.274 -0.1630  0.1315  0.5340
  426TMC3    O2 6364   0.015   1.390  16.963 -0.3461  0.2501 -0.2965
  427MPD2     C 6365   3.065   3.519  14.715  0.1293 -0.5672  0.4893
  427MPD2    C1 6366   3.104   3.608  14.818 -0.1862  0.2379  0.3645
  427MPD2    C2 6367   3.047   3.737  14.816  0.2305 -0.2262  0.1514
  427MPD2    C3 6368   2.948   3.771  14.724  0.8069  0.3593  0.0520
  427MPD2    C4 6369   2.905   3.678  14.630 -0.5256 -0.3359 -0.0437
  427MPD2    C5 6370   2.972   3.558  14.616 -0.4735  0.4418 -0.3800
  427MPD2     H 6371   3.070   3.807  14.896 -2.8277  0.1497  0.7316
  427MPD2    H1 6372   2.814   3.689  14.572 -0.0066  2.9277 -0.2790
  427MPD2    H2 6373   3.102   3.417  14.708  0.0754 -0.5076 -0.6015
  427MPD2    H3 6374   2.934   3.483  14.547  1.5342 -1.2493  0.3111
  427MPD2     N 6375   2.880   3.897  14.725 -0.1316 -0.0536  0.6284
  427MPD2    H5 6376   2.807   3.907  14.655  1.3777 -1.3534 -1.1479
  427MPD2    N1 6377   3.191   3.581  14.926 -0.7942 -0.7187 -0.0075
  427MPD2    H7 6378   3.200   3.642  15.006 -0.2749 -2.7917  1.5097
  428TMC3    C1 6379   3.358   3.466  15.042 -0.5769  0.0709 -0.6239
  428TMC3    C2 6380   3.414   3.346  15.067 -0.0143  0.4377 -0.5680
  428TMC3    C3 6381   3.519   3.347  15.151  0.6075  0.0259  0.1473
  428TMC3    C4 6382   3.407   3.584  15.093 -0.9919  0.2828 -0.0430
  428TMC3    C5 6383   3.523   3.585  15.168 -0.2479  0.2748  0.5896
  428TMC3    C6 6384   3.577   3.462  15.199 -0.4179  0.0831  0.4637
  428TMC3     C 6385   3.261   3.461  14.935  0.5274 -0.0884  0.1096
  428TMC3     O 6386   3.255   3.360  14.868 -0.1183  0.2006 -0.5052
  428TMC3     H 6387   3.377   3.252  15.028 -0.7773  0.0777  1.0319
  428TMC3    H1 6388   3.371   3.680  15.057  0.0968  0.4708 -0.6199
  428TMC3    H2 6389   3.666   3.467  15.261 -0.1006  1.1592 -0.0917
  428TMC3    C7 6390   3.568   3.698  15.239  0.1374  0.2715 -0.0239
  428TMC3    C8 6391   3.598   3.223  15.167  0.3370 -0.2009  0.1539
  428TMC3    O1 6392   3.675   3.704  15.298 -0.2399  0.0621 -0.0533
  428TMC3    O2 6393   3.576   3.123  15.097 -0.1554 -0.1073 -0.1692
  429MPD2     C 6394   0.084   4.228   0.004  0.3100 -0.3347 -0.2058
  429MPD2    C1 6395   0.075   4.172  17.578 -0.1185 -0.6802 -0.3317
  429MPD2    C2 6396   0.081   4.259  17.465  0.1730  0.0818  0.5269
  429MPD2    C3 6397   0.107   4.397  17.477 -0.1226  0.9814 -0.1881
  429MPD2    C4 6398   0.119   4.450  17.602 -0.2375  0.1777  0.3280
  429MPD2    C5 6399   0.089   4.370   0.015  0.0075  0.3626 -0.2505
  429MPD2     H 6400   0.069   4.224  17.363  2.5314  0.5121  0.1055
  429MPD2    H1 6401   0.137   4.556  17.620  0.4529  0.1347 -0.0962
  429MPD2    H2 6402   0.078   4.162   0.090 -1.5136  1.1384  0.7978
  429MPD2    H3 6403   0.084   4.417   0.112  0.1097  2.7754 -1.4176
  429MPD2     N 6404   0.147   4.459  17.359  0.4379  0.4153 -0.1682
  429MPD2    H5 6405   0.150   4.401  17.276 -0.4301 -2.2173  1.6366
  429MPD2    N1 6406   0.076   4.028  17.559 -0.0208 -0.3431 -0.0541
  429MPD2    H7 6407   0.052   3.989  17.468  0.8767 -1.4140  0.1716
  430TMC3    C1 6408   0.236   4.626  17.221  0.7884 -0.1946  0.3030
  430TMC3    C2 6409   0.223   0.037  17.182 -0.0861 -0.1301  0.6519
  430TMC3    C3 6410   0.274   0.067  17.055  0.5496  0.3549  0.4406
  430TMC3    C4 6411   0.307   4.535  17.153  0.2488  0.1176 -0.3741
  430TMC3    C5 6412   0.361   4.568  17.032 -0.3168  0.2632  0.0530
  430TMC3    C6 6413   0.335   4.690  16.978 -0.2338 -0.6256 -0.9444
  430TMC3     C 6414   0.187   4.592  17.349  0.7398  0.0320  0.4150
  430TMC3     O 6415   0.162   4.682  17.428 -0.1599  0.7279 -0.3070
  430TMC3     H 6416   0.161   0.100  17.244 -1.5837  0.2307 -1.2052
  430TMC3    H1 6417   0.317   4.437  17.200  1.1278  0.0230 -0.7715
  430TMC3    H2 6418   0.384   4.715  16.884 -0.4829  1.2719 -0.5773
  430TMC3    C7 6419   0.332   4.469  16.931 -0.3968 -0.4174 -0.9464
  430TMC3    C8 6420   0.194   0.149  16.967  0.2927 -0.0603 -0.1183
  430TMC3    O1 6421   0.352   4.356  16.962  0.7018  0.0291  0.0886
  430TMC3    O2 6422   0.178   0.114  16.851 -0.2019  0.1322 -0.3763
  431MPD2     C 6423   0.940   4.052  12.514 -0.6091 -0.1700 -0.4557
  431MPD2    C1 6424   0.948   4.102  12.389 -0.7646  0.1420 -0.4084
  431MPD2    C2 6425   0.895   4.031  12.285  0.2945  0.3677  0.2163
  431MPD2    C3 6426   0.822   3.919  12.297 -0.4624  0.8935  0.2540
  431MPD2    C4 6427   0.818   3.868  12.425 -0.2243 -0.5555  0.5442
  431MPD2    C5 6428   0.869   3.932  12.535  1.1772 -0.4657  0.3090
  431MPD2     H 6429   0.901   4.073  12.185 -0.8384 -0.3948 -0.1743
  431MPD2    H1 6430   0.780   3.768  12.440  1.1259 -1.3316 -1.2330
  431MPD2    H2 6431   0.973   4.101  12.605 -1.3022 -2.1331  0.8501
  431MPD2    H3 6432   0.866   3.885  12.632 -0.3852  1.1641  1.0492
  431MPD2     N 6433   0.746   3.866  12.195  0.0073 -0.5390  0.3516
  431MPD2    H5 6434   0.701   3.778  12.217  1.3209 -1.2809  0.0601
  431MPD2    N1 6435   1.026   4.212  12.358  0.2351  0.4630  0.7628
  431MPD2    H7 6436   1.026   4.244  12.262  0.8801  0.2195  0.6839
  432TMC3    C1 6437   0.680   3.808  11.986  1.0349 -0.2363  0.1831
  432TMC3    C2 6438   0.743   3.748  11.882  0.2950 -0.3727  0.7836
  432TMC3    C3 6439   0.678   3.660  11.812  0.0250 -0.3791 -0.2365
  432TMC3    C4 6440   0.550   3.787  12.017 -0.6267 -0.3610 -0.4046
  432TMC3    C5 6441   0.481   3.692  11.947 -0.1226 -0.1613  0.3099
  432TMC3    C6 6442   0.547   3.638  11.843  0.3299  0.3785 -0.4144
  432TMC3     C 6443   0.753   3.900  12.063 -0.2431  0.5023  0.5433
  432TMC3     O 6444   0.817   3.975  11.994 -0.2616 -0.5047 -0.3307
  432TMC3     H 6445   0.848   3.775  11.880 -0.1811  1.4231  0.5479
  432TMC3    H1 6446   0.515   3.849  12.099 -0.2141  0.2355 -0.6738
  432TMC3    H2 6447   0.486   3.577  11.777 -0.2963  0.0220  0.4966
  432TMC3    C7 6448   0.442   3.591  12.036  0.1675 -0.1256  0.5168
  432TMC3    C8 6449   0.726   3.628  11.678  0.2138  0.7537 -0.3559
  432TMC3    O1 6450   0.486   3.481  12.019  0.5071 -0.1192  0.4468
  432TMC3    O2 6451   0.678   3.531  11.617  0.1449  0.5099  0.1501
  433MPD2     C 6452   0.253   3.151  10.695  0.2479 -0.0550 -0.0761
  433MPD2    C1 6453   0.124   3.110  10.720  0.2415 -0.1419 -0.6055
  433MPD2    C2 6454   0.082   3.137  10.849 -0.4238 -0.0135  0.4023
  433MPD2    C3 6455   0.162   3.194  10.946 -0.8719  0.0250 -0.0895
  433MPD2    C4 6456   0.291   3.236  10.911 -0.1493  0.0496 -0.6773
  433MPD2    C5 6457   0.333   3.210  10.787 -0.6387  0.1586  0.1456
  433MPD2     H 6458   4.710   3.103  10.885 -1.1760  2.0500  0.3148
  433MPD2    H1 6459   0.361   3.281  10.981 -2.6707 -2.3144  3.3271
  433MPD2    H2 6460   0.297   3.126  10.599  1.9646 -2.3660  1.3111
  433MPD2    H3 6461   0.437   3.232  10.762 -0.9637  0.6565 -0.7781
  433MPD2     N 6462   0.104   3.205  11.074  0.0370  0.4244  0.0116
  433MPD2    H5 6463   0.016   3.157  11.087  0.6564 -0.6231  0.3235
  433MPD2    N1 6464   0.060   3.027  10.623 -0.0228  0.0632 -0.7751
  433MPD2    H7 6465   0.107   3.004  10.536  0.6196  0.8155 -0.6299
  434TMC3    C1 6466   4.671   2.835  10.563  0.2084 -0.1841  0.2935
  434TMC3    C2 6467   4.685   2.716  10.628  0.6453  0.0689  0.9631
  434TMC3    C3 6468   0.009   2.614  10.550  0.6620 -0.3668  0.1124
  434TMC3    C4 6469   4.702   2.856  10.431 -0.0783 -0.0167  0.4074
  434TMC3    C5 6470   0.018   2.746  10.356  0.3160 -0.7789 -0.4059
  434TMC3    C6 6471   0.042   2.628  10.421  0.3791  0.2919 -0.5318
  434TMC3     C 6472   4.674   2.950  10.649  0.9126 -0.8661  0.1624
  434TMC3     O 6473   4.602   2.945  10.742 -0.4490 -0.3156 -0.2810
  434TMC3     H 6474   4.682   2.713  10.736  1.0161  0.6222  0.9891
  434TMC3    H1 6475   4.675   2.951  10.386  2.8211  0.8844  0.5752
  434TMC3    H2 6476   0.065   2.539  10.364 -1.3558 -1.4075  1.4598
  434TMC3    C7 6477   4.717   2.755  10.211 -0.0787  0.7719  0.4735
  434TMC3    C8 6478   0.076   2.508  10.627 -0.4060  0.2424  0.0307
  434TMC3    O1 6479   4.627   2.824  10.169 -0.0671 -0.1964 -0.2519
  434TMC3    O2 6480   0.021   2.471  10.729 -0.0415 -0.0004 -0.2777
  435MPD2     C 6481   1.453   2.666  15.155 -0.4125  0.2934  0.2902
  435MPD2    C1 6482   1.432   2.722  15.278 -0.2221 -0.5605  0.4929
  435MPD2    C2 6483   1.530   2.706  15.380  0.4757 -0.4274 -0.4143
  435MPD2    C3 6484   1.645   2.645  15.358  0.2246  0.6365 -0.0338
  435MPD2    C4 6485   1.672   2.595  15.232  0.0674  0.0413  0.1034
  435MPD2    C5 6486   1.578   2.601  15.132 -0.1386 -0.5762 -0.3430
  435MPD2     H 6487   1.507   2.742  15.479 -0.9118  0.0409 -0.8970
  435MPD2    H1 6488   1.768   2.549  15.213  0.0074 -0.6679  1.4892
  435MPD2    H2 6489   1.384   2.674  15.071 -1.3998 -1.6775  0.9093
  435MPD2    H3 6490   1.607   2.557  15.037 -0.5728  2.6531 -1.9647
  435MPD2     N 6491   1.742   2.651  15.465 -1.2420 -1.8878 -0.0129
  435MPD2    H5 6492   1.703   2.681  15.554  2.1382 -0.4478  0.9969
  435MPD2    N1 6493   1.309   2.776  15.313  0.1307  0.1013 -0.2885
  435MPD2    H7 6494   1.306   2.806  15.410  1.0740  3.5766 -1.3107
  436TMC3    C1 6495   0.978   2.892  15.500  0.4001  0.8949 -0.5708
  436TMC3    C2 6496   1.084   2.888  15.411 -0.1503 -0.5238  0.1424
  436TMC3    C3 6497   1.071   2.810  15.299 -0.0642 -0.1643  0.3408
  436TMC3    C4 6498   0.859   2.820  15.477 -0.2143  0.4994  0.1739
  436TMC3    C5 6499   0.849   2.746  15.364 -1.0694  0.1299  0.2226
  436TMC3    C6 6500   0.952   2.739  15.274  0.2827  0.3470 -0.3506
  436TMC3     C 6501   0.996   2.989  15.609 -0.7161 -0.2309 -0.6365
  436TMC3     O 6502   1.109   3.030  15.632 -0.0722  0.4703  0.0273
  436TMC3     H 6503   1.160   2.964  15.425 -0.0237 -0.6720  0.2553
  436TMC3    H1 6504   0.784   2.822  15.555 -0.6102  1.7125 -0.2330
  436TMC3    H2 6505   0.944   2.692  15.177  0.3402 -0.4694  0.0413
  436TMC3    C7 6506   0.716   2.700  15.333  0.4854 -0.0721  0.1014
  436TMC3    C8 6507   1.190   2.757  15.242  0.6318  0.2282  0.0874
  436TMC3    O1 6508   0.634   2.730  15.418  0.0386  0.1507 -0.2536
  436TMC3    O2 6509   1.169   2.692  15.141  0.0550  0.2672 -0.0040
  437TMC3    C1 6510   1.019   4.457  11.510 -0.8327 -0.6240  0.1322
  437TMC3    C2 6511   0.944   4.422  11.622  0.0678  0.3211 -0.1342
  437TMC3    C3 6512   0.918   4.517  11.715  0.2557 -0.1062  0.1375
  437TMC3    C4 6513   1.060   4.588  11.488 -0.3521  0.7549  0.5323
  437TMC3    C5 6514   1.043   4.673  11.593  0.4593  0.0141 -0.6698
  437TMC3    C6 6515   0.977   4.640  11.709 -0.0012 -0.2859 -0.5017
  437TMC3     C 6516   1.070   4.351  11.431 -0.3308 -0.0881  0.1831
  437TMC3     O 6517   1.078   4.237  11.480  0.0905 -0.0331  0.3068
  437TMC3     H 6518   0.917   4.318  11.633  2.9879 -0.2761  1.3048
  437TMC3    H1 6519   1.119   4.627  11.405 -0.6916 -1.7635 -0.9200
  437TMC3    H2 6520   0.954   4.710  11.788  1.4725 -0.1082 -0.2278
  437TMC3    C7 6521   1.092   0.087  11.573  0.0655 -0.0597  0.2952
  437TMC3    C8 6522   0.862   4.483  11.843  0.2037  0.1449  0.2139
  437TMC3    O1 6523   1.106   0.110  11.453 -0.0136 -0.4748 -0.1189
  437TMC3    O2 6524   0.877   4.565  11.937 -0.0309 -0.1737 -0.2737
  438MPD2     C 6525   1.960   0.649  16.135 -0.4992 -0.0621  0.2740
  438MPD2    C1 6526   2.041   0.667  16.249 -0.7484  0.1910 -0.8589
  438MPD2    C2 6527   2.000   0.764  16.341 -0.5342 -0.3722 -0.1213
  438MPD2    C3 6528   1.867   0.816  16.330 -0.3718  0.2557 -0.5425
  438MPD2    C4 6529   1.791   0.783  16.225 -0.2211 -0.6476 -0.7127
  438MPD2    C5 6530   1.832   0.699  16.129  0.1397 -0.8635  0.5272
  438MPD2     H 6531   2.065   0.779  16.426  0.2586  0.4987 -0.8832
  438MPD2    H1 6532   1.689   0.818  16.216  0.2359  0.8118 -0.0925
  438MPD2    H2 6533   1.984   0.577  16.057 -0.8101  0.1129  0.0180
  438MPD2    H3 6534   1.763   0.676  16.049 -0.2492  2.3413 -0.0366
  438MPD2     N 6535   1.811   0.907  16.423  0.7141  0.4771 -0.1456
  438MPD2    H5 6536   1.712   0.931  16.430  0.5201  0.3666 -2.4108
  438MPD2    N1 6537   2.159   0.595  16.281 -0.0514  0.0798  0.1540
  438MPD2    H7 6538   2.215   0.625  16.360 -2.1497  0.8665  1.3725
  439TMC3    C1 6539   2.322   0.432  16.263  0.2256 -0.4992 -0.2872
  439TMC3    C2 6540   2.401   0.361  16.176  0.4088 -0.2202  0.1975
  439TMC3    C3 6541   2.532   0.345  16.202 -0.1158 -0.4223  0.9885
  439TMC3    C4 6542   2.385   0.473  16.388  0.1008  0.1060 -0.4704
  439TMC3    C5 6543   2.514   0.437  16.412 -0.3924 -0.1210 -0.0947
  439TMC3    C6 6544   2.595   0.381  16.318 -0.0910  0.0966  0.7058
  439TMC3     C 6545   2.198   0.481  16.214 -1.1325  0.5475  0.0711
  439TMC3     O 6546   2.147   0.416  16.126  0.1167  0.2305  0.0147
  439TMC3     H 6547   2.363   0.337  16.077  0.8623 -1.8450  0.4189
  439TMC3    H1 6548   2.327   0.510  16.471  1.8175 -0.3239  0.9301
  439TMC3    H2 6549   2.699   0.355  16.336  0.4352 -0.0527 -2.5669
  439TMC3    C7 6550   2.576   0.467  16.534 -0.9806 -0.3595  0.2194
  439TMC3    C8 6551   2.625   0.282  16.105  0.2640 -0.2676 -0.3030
  439TMC3    O1 6552   2.664   0.385  16.567  0.5571  0.5663  0.3877
  439TMC3    O2 6553   2.732   0.248  16.153  0.4585 -0.2642  0.4836
  440MPD2     C 6554   1.146   0.794  14.977 -0.0644  0.5415 -0.0620
  440MPD2    C1 6555   1.249   0.773  15.069 -0.2542 -0.5744  0.2827
  440MPD2    C2 6556   1.334   0.665  15.050  0.6625  0.2882  0.3913
  440MPD2    C3 6557   1.320   0.583  14.940 -0.7285  0.1859 -0.1262
  440MPD2    C4 6558   1.224   0.608  14.847  0.2373  0.1520 -0.1431
  440MPD2    C5 6559   1.137   0.712  14.868  0.4523  0.1999 -1.0297
  440MPD2     H 6560   1.418   0.646  15.116  0.7467  0.5648  0.3618
  440MPD2    H1 6561   1.205   0.537  14.767 -2.6310  1.6619 -0.8157
  440MPD2    H2 6562   1.078   0.876  14.994  1.5088  2.0194 -0.8938
  440MPD2    H3 6563   1.064   0.740  14.792  0.1265 -0.2338 -0.8726
  440MPD2     N 6564   1.393   0.456  14.933  0.2497  0.3640 -0.1097
  440MPD2    H5 6565   1.351   0.382  14.880 -0.3946  1.5293 -1.2287
  440MPD2    N1 6566   1.272   0.838  15.189  0.4801 -0.4387 -0.7566
  440MPD2    H7 6567   1.352   0.811  15.245 -0.1740 -0.9867 -0.0785
  441TMC3    C1 6568   1.561   0.300  14.985 -0.0272  0.6329  0.0993
  441TMC3    C2 6569   1.694   0.292  14.976  0.1245  0.0974  0.2543
  441TMC3    C3 6570   1.761   0.213  15.065  0.6116  0.5441  0.1025
  441TMC3    C4 6571   1.496   0.218  15.076  0.3674  0.1068  0.2597
  441TMC3    C5 6572   1.570   0.131  15.159  0.0366 -0.0331 -0.3258
  441TMC3    C6 6573   1.708   0.116  15.147 -0.6649  0.1681 -0.3049
  441TMC3     C 6574   1.517   0.441  14.989 -0.7974 -0.6610 -0.3442
  441TMC3     O 6575   1.609   0.519  15.003  0.7794 -0.4273  0.3361
  441TMC3     H 6576   1.745   0.349  14.899  0.3069  0.1901  0.4429
  441TMC3    H1 6577   1.389   0.233  15.088  0.1364 -1.0104 -0.3164
  441TMC3    H2 6578   1.766   0.067  15.224  0.9514  0.3048 -1.4298
  441TMC3    C7 6579   1.519   0.142  15.298  0.3027  0.1657  0.1550
  441TMC3    C8 6580   1.877   0.278  15.121  0.5367  0.5725  0.2898
  441TMC3    O1 6581   1.453   0.246  15.314 -0.2183 -0.0616 -0.1825
  441TMC3    O2 6582   1.954   0.210  15.187  0.1578  0.6223  0.0880
  442MPD2     C 6583   4.316   1.828  16.707  0.4198  0.4868  0.4869
  442MPD2    C1 6584   4.196   1.811  16.639 -0.1970 -0.5229  0.4356
  442MPD2    C2 6585   4.184   1.712  16.542  0.2163 -0.3934 -0.1245
  442MPD2    C3 6586   4.294   1.642  16.499 -0.2555 -0.1592 -0.1858
  442MPD2    C4 6587   4.415   1.672  16.561 -0.5839 -0.4047 -0.2316
  442MPD2    C5 6588   4.424   1.755  16.668  0.0696  0.4902  0.6041
  442MPD2     H 6589   4.081   1.703  16.510  0.1340  2.0821 -0.5847
  442MPD2    H1 6590   4.494   1.606  16.527 -0.2339 -0.1607  0.1066
  442MPD2    H2 6591   4.326   1.899  16.789 -0.0393 -0.5623  1.4480
  442MPD2    H3 6592   4.518   1.760  16.722  0.2640  2.7764  0.0304
  442MPD2     N 6593   4.285   1.531  16.409 -0.1269 -0.0314  0.4151
  442MPD2    H5 6594   4.373   1.487  16.386  1.1614  1.9278  1.5843
  442MPD2    N1 6595   4.076   1.886  16.671  0.4863  0.5675  0.0061
  442MPD2    H7 6596   3.993   1.880  16.613 -0.8536  1.5233  1.8046
  443TMC3    C1 6597   3.929   1.987  16.803  0.0712 -0.3028  0.4412
  443TMC3    C2 6598   3.860   2.049  16.698  0.6085 -0.3813  0.7589
  443TMC3    C3 6599   3.724   2.060  16.711  0.0949  0.1247 -0.3446
  443TMC3    C4 6600   3.868   1.929  16.910 -0.0475  0.5336 -0.5759
  443TMC3    C5 6601   3.727   1.943  16.920  0.1757  0.1917 -0.1450
  443TMC3    C6 6602   3.658   2.010  16.823 -0.1654 -0.1745 -0.2004
  443TMC3     C 6603   4.065   1.960  16.784  0.5528  0.3873 -0.0865
  443TMC3     O 6604   4.139   1.978  16.878 -0.8965 -0.2845 -0.0648
  443TMC3     H 6605   3.913   2.086  16.611 -1.2687  0.2988 -0.0961
  443TMC3    H1 6606   3.920   1.867  16.982 -2.6150  1.1161  1.8008
  443TMC3    H2 6607   3.550   2.008  16.825 -0.2121  3.5560  1.3477
  443TMC3    C7 6608   3.658   1.830  16.982 -0.2474  0.0875 -0.0240
  443TMC3    C8 6609   3.664   2.018  16.590 -1.1251 -0.4563  0.2537
  443TMC3    O1 6610   3.722   1.722  16.986  0.7214  0.0556  0.2449
  443TMC3    O2 6611   3.612   1.905  16.603  0.2112 -0.1833 -0.4031
  444MPD2     C 6612   4.282   1.186  17.135  0.7072 -0.3825 -1.4765
  444MPD2    C1 6613   4.178   1.160  17.048  0.1920  0.6828 -0.0172
  444MPD2    C2 6614   4.203   1.057  16.963 -0.4492  1.0629 -0.1633
  444MPD2    C3 6615   4.321   0.982  16.958  0.0147  0.3868  0.1114
  444MPD2    C4 6616   4.421   1.014  17.044 -0.6641 -0.1108  0.3544
  444MPD2    C5 6617   4.404   1.119  17.126 -0.1844  0.4154 -0.1025
  444MPD2     H 6618   4.122   1.025  16.898  1.9403  0.2010 -2.7367
  444MPD2    H1 6619   4.518   0.968  17.050 -0.9070 -0.6322  0.2581
  444MPD2    H2 6620   4.275   1.265  17.208  0.8919 -1.7240 -0.0116
  444MPD2    H3 6621   4.475   1.133  17.206 -1.0126  0.8402  0.5613
  444MPD2     N 6622   4.328   0.882  16.858 -0.1108  0.6629 -0.0902
  444MPD2    H5 6623   4.255   0.891  16.788 -0.3149  2.2885  0.3289
  444MPD2    N1 6624   4.046   1.212  17.071 -0.0728 -0.2369 -0.0488
  444MPD2    H7 6625   3.983   1.175  17.001 -1.6039 -1.4223  1.9563
  445TMC3    C1 6626   4.455   0.720  16.721 -0.0971 -0.4296  0.4993
  445TMC3    C2 6627   4.354   0.687  16.638 -0.6205 -0.3536 -0.1269
  445TMC3    C3 6628   4.382   0.610  16.535  0.0472  0.1151  0.1357
  445TMC3    C4 6629   4.575   0.657  16.712  0.4027  0.3897  0.3050
  445TMC3    C5 6630   4.600   0.587  16.599 -0.4057 -0.2271  0.1589
  445TMC3    C6 6631   4.504   0.558  16.508  0.2557  0.1908 -0.3597
  445TMC3     C 6632   4.435   0.800  16.846  0.5290  0.3279 -0.0765
  445TMC3     O 6633   4.515   0.772  16.932  0.0247 -0.3324 -0.3450
  445TMC3     H 6634   4.266   0.749  16.636  0.2006  0.8776  1.1273
  445TMC3    H1 6635   4.649   0.666  16.791  0.7892 -1.0301  0.1040
  445TMC3    H2 6636   4.518   0.488  16.427 -0.0742  0.0530 -0.2989
  445TMC3    C7 6637   0.008   0.524  16.584 -0.1827 -0.6451 -0.0990
  445TMC3    C8 6638   4.274   0.593  16.441  0.0429  0.0067 -0.7327
  445TMC3    O1 6639   0.018   0.464  16.480  0.0570  0.4469 -0.2513
  445TMC3    O2 6640   4.163   0.621  16.483  0.6396 -0.2338  0.3535
  446MPD2     C 6641   4.438   2.414  11.198 -0.2290  0.2640  0.3786
  446MPD2    C1 6642   4.451   2.410  11.055 -0.2273 -0.0835 -0.3831
  446MPD2    C2 6643   4.567   2.450  10.995 -0.0687 -0.2953 -0.1716
  446MPD2    C3 6644   4.673   2.496  11.078 -0.0398  0.1461  0.5412
  446MPD2    C4 6645   4.661   2.487  11.220  0.0832 -0.1556 -0.1859
  446MPD2    C5 6646   4.541   2.454  11.272 -0.8375  0.2146  0.3048
  446MPD2     H 6647   4.568   2.462  10.887 -0.4444  1.3722  0.0102
  446MPD2    H1 6648   0.015   2.509  11.291  0.5957 -0.5159 -0.6474
  446MPD2    H2 6649   4.347   2.389  11.252 -0.8436 -1.5003 -1.4333
  446MPD2    H3 6650   4.524   2.463  11.379 -0.6656  2.1404  0.1652
  446MPD2     N 6651   0.070   2.537  11.014 -0.9266  0.3810  0.3073
  446MPD2    H5 6652   0.060   2.544  10.913  0.8206  1.2716  0.2053
  446MPD2    N1 6653   4.352   2.354  10.972 -0.2179 -0.0372 -0.0271
  446MPD2    H7 6654   4.367   2.352  10.871 -1.3159 -0.2280 -0.1860
  447TMC3    C1 6655   0.297   2.617  10.992  0.3494 -0.2227  0.7115
  447TMC3    C2 6656   0.272   2.705  10.891 -0.5221 -0.1092 -0.2462
  447TMC3    C3 6657   0.372   2.787  10.846 -0.6794 -0.6308  0.5178
  447TMC3    C4 6658   0.411   2.633  11.058 -0.1181 -0.4381 -0.2724
  447TMC3    C5 6659   0.504   2.719  11.013  0.1694  0.1171 -0.0539
  447TMC3    C6 6660   0.498   2.794  10.900 -0.7290  0.0093  0.2289
  447TMC3     C 6661   0.190   2.565  11.078  0.1163  0.0669  0.2698
  447TMC3     O 6662   0.231   2.519  11.187  0.1369  0.3385 -0.1225
  447TMC3     H 6663   0.175   2.707  10.841 -0.2362 -0.5971 -0.8224
  447TMC3    H1 6664   0.435   2.560  11.135  4.7972  0.5357 -0.8662
  447TMC3    H2 6665   0.568   2.875  10.883  0.2975 -0.2172  3.4474
  447TMC3    C7 6666   0.608   2.762  11.104 -0.7387 -0.1174 -0.7819
  447TMC3    C8 6667   0.361   2.829  10.708  0.2663 -0.4225 -0.1114
  447TMC3    O1 6668   0.713   2.807  11.061 -0.1818 -0.4204  0.2925
  447TMC3    O2 6669   0.251   2.822  10.654 -0.5011 -0.1009  0.0452
  448TMC3    C1 6670   2.724   2.338  16.458 -0.0938  0.1711  0.9773
  448TMC3    C2 6671   2.663   2.215  16.445 -0.3485  0.5309 -0.5427
  448TMC3    C3 6672   2.717   2.112  16.518  0.8513  0.5166 -0.2930
  448TMC3    C4 6673   2.832   2.354  16.541  0.6398  0.0454 -0.6369
  448TMC3    C5 6674   2.866   2.250  16.621 -0.1239  0.0268 -0.2454
  448TMC3    C6 6675   2.809   2.126  16.611  0.0922 -0.3489  0.0132
  448TMC3     C 6676   2.662   2.448  16.378 -0.0928 -0.8596 -0.6389
  448TMC3     O 6677   2.595   2.414  16.281  0.1651 -0.1002 -0.2613
  448TMC3     H 6678   2.572   2.209  16.387  0.7298 -1.4583 -2.0320
  448TMC3    H1 6679   2.898   2.439  16.527  2.0844 -0.9187  0.3737
  448TMC3    H2 6680   2.852   2.042  16.663 -0.5101 -0.8184 -0.2456
  448TMC3    C7 6681   2.948   2.279  16.739  0.0436  0.1246 -0.1822
  448TMC3    C8 6682   2.681   1.976  16.482  0.2431 -0.3832 -0.0870
  448TMC3    O1 6683   3.030   2.369  16.726  0.0288  0.1410  0.2048
  448TMC3    O2 6684   2.711   1.887  16.563 -0.0885 -0.3858  0.1643
  449MPD2     C 6685   0.025   0.558  14.074  0.2628 -0.0559  0.4035
  449MPD2    C1 6686   4.698   0.462  13.986 -0.2734  0.3596  0.8546
  449MPD2    C2 6687   4.594   0.389  14.029  0.2702 -0.5210  0.2126
  449MPD2    C3 6688   4.537   0.418  14.149  0.3517  0.2754 -0.1354
  449MPD2    C4 6689   4.591   0.510  14.239  0.1330 -0.1772  0.6124
  449MPD2    C5 6690   4.707   0.573  14.204 -0.4395  0.2654 -0.3384
  449MPD2     H 6691   4.552   0.312  13.965 -1.6272 -0.1781  1.0782
  449MPD2    H1 6692   4.554   0.530  14.339  0.4364 -0.6019  0.8121
  449MPD2    H2 6693   0.111   0.618  14.047 -0.5985  0.7963 -0.4269
  449MPD2    H3 6694   0.041   0.636  14.270 -0.5466 -0.9850  0.9576
  449MPD2     N 6695   4.423   0.346  14.172 -0.3145 -0.4088  0.1188
  449MPD2    H5 6696   4.396   0.283  14.097  1.1574  1.2235 -1.8049
  449MPD2    N1 6697   0.025   0.430  13.853 -0.3546 -0.3722 -0.4482
  449MPD2    H7 6698   4.704   0.356  13.801 -0.6548  0.1170 -0.8838
  450TMC3    C1 6699   0.106   0.471  13.637 -0.1469  0.7189  0.8590
  450TMC3    C2 6700   0.083   0.577  13.558 -0.5177 -0.5448 -0.2164
  450TMC3    C3 6701   4.721   0.563  13.459  0.3850  0.0777  0.3771
  450TMC3    C4 6702   0.038   0.356  13.621 -0.2461  0.3954 -0.4254
  450TMC3    C5 6703   4.672   0.344  13.522  0.1211  0.2542 -0.0130
  450TMC3    C6 6704   4.653   0.447  13.434 -0.0752 -0.3450  0.3519
  450TMC3     C 6705   0.116   0.500  13.777  0.2313 -0.6416 -0.5808
  450TMC3     O 6706   0.164   0.613  13.798 -0.1140  0.4039 -0.7720
  450TMC3     H 6707   0.122   0.677  13.569  1.5004 -1.1641 -1.7110
  450TMC3    H1 6708   0.073   0.264  13.666  0.1286  1.6567  1.8432
  450TMC3    H2 6709   4.570   0.450  13.364  0.2105  0.1769  0.0345
  450TMC3    C7 6710   4.559   0.270  13.577  0.2943  0.0768  0.2303
  450TMC3    C8 6711   0.006   0.650  13.353  0.4628  0.0620 -0.1959
  450TMC3    O1 6712   4.576   0.228  13.691 -0.2569  0.7331 -0.0415
  450TMC3    O2 6713   4.636   0.657  13.276  0.4771 -0.0023 -0.1644
  451MPD2     C 6714   0.230   3.206   0.875 -0.9314 -0.1043  0.2132
  451MPD2    C1 6715   0.311   3.321   0.889 -0.7109  0.6307  0.1071
  451MPD2    C2 6716   0.450   3.306   0.910 -0.5821  0.6581 -0.1849
  451MPD2    C3 6717   0.507   3.182   0.937  0.1708  0.7310 -0.4564
  451MPD2    C4 6718   0.419   3.076   0.943  0.1319 -0.4048  0.2629
  451MPD2    C5 6719   0.286   3.084   0.901 -0.5270  0.0101 -0.4230
  451MPD2     H 6720   0.510   3.396   0.910  0.0662  0.2252 -0.6090
  451MPD2    H1 6721   0.457   2.977   0.968 -0.4531 -0.8001 -0.4179
  451MPD2    H2 6722   0.124   3.204   0.851 -1.0568  1.0417  0.6803
  451MPD2    H3 6723   0.224   2.995   0.893 -1.2475  0.3048  2.1038
  451MPD2     N 6724   0.645   3.157   0.962  0.4286  0.0604  0.2719
  451MPD2    H5 6725   0.667   3.065   0.996  1.1590 -0.1460 -0.7733
  451MPD2    N1 6726   0.254   3.448   0.876  0.0163 -0.2849 -0.0654
  451MPD2    H7 6727   0.153   3.446   0.870  0.1739 -1.9914 -2.2448
  452TMC3    C1 6728   0.876   3.201   0.987 -0.4125 -0.1374  0.5269
  452TMC3    C2 6729   0.891   3.138   1.104 -0.0287  0.0006  1.0000
  452TMC3    C3 6730   1.015   3.117   1.163 -0.9238  0.0211  0.0528
  452TMC3    C4 6731   0.980   3.241   0.914  0.2172 -0.2911 -0.2594
  452TMC3    C5 6732   1.105   3.237   0.975 -0.5629 -0.0011 -0.6715
  452TMC3    C6 6733   1.129   3.169   1.098 -0.0388  0.5288 -0.4502
  452TMC3     C 6734   0.742   3.253   0.947 -0.5442  0.0158 -0.5446
  452TMC3     O 6735   0.733   3.359   0.882 -0.5174  0.0609  0.7394
  452TMC3     H 6736   0.798   3.105   1.149 -0.4431 -2.7211 -1.9025
  452TMC3    H1 6737   0.960   3.287   0.818  1.1173 -0.6200 -0.6048
  452TMC3    H2 6738   1.230   3.163   1.138 -0.6970 -0.9542  0.9455
  452TMC3    C7 6739   1.225   3.240   0.901  0.2373  0.6925 -0.3635
  452TMC3    C8 6740   1.032   3.032   1.276  0.1633 -0.1590  0.1978
  452TMC3    O1 6741   1.335   3.219   0.948 -0.0355  0.8424 -1.1732
  452TMC3    O2 6742   1.127   2.958   1.277  0.6948 -0.2559 -0.1592
  453TMC3    C1 6743   1.980   1.923  11.512 -0.4885 -0.0071  0.0988
  453TMC3    C2 6744   1.862   1.854  11.523 -0.1032 -0.5626  0.7856
  453TMC3    C3 6745   1.852   1.732  11.456  0.2360  0.6626  0.0283
  453TMC3    C4 6746   2.087   1.877  11.436 -0.3567 -0.0803  0.1689
  453TMC3    C5 6747   2.067   1.755  11.365  0.0910  0.0018  0.3794
  453TMC3    C6 6748   1.955   1.677  11.379 -0.8919  0.2384  0.2913
  453TMC3     C 6749   2.014   2.005  11.629 -0.1561 -0.2191  0.5032
  453TMC3     O 6750   1.925   2.081  11.667  0.4500 -0.5161 -0.4519
  453TMC3     H 6751   1.793   1.875  11.604 -0.3935  1.7480 -0.0610
  453TMC3    H1 6752   2.176   1.934  11.414 -0.1277 -1.3039 -2.1493
  453TMC3    H2 6753   1.952   1.581  11.330  0.6138 -0.0995  0.8516
  453TMC3    C7 6754   2.170   1.707  11.278  0.1680 -0.8222  0.3704
  453TMC3    C8 6755   1.734   1.656  11.492  0.9494  0.1193 -0.5933
  453TMC3    O1 6756   2.173   1.587  11.257 -0.3296 -0.6826  0.2164
  453TMC3    O2 6757   1.633   1.716  11.511 -0.2447  0.0686 -0.2229
  454MPD2     C 6758   0.383   0.789  16.207  0.0169  0.7183  0.0863
  454MPD2    C1 6759   0.346   0.888  16.127  0.1368 -0.1913 -0.1797
  454MPD2    C2 6760   0.273   0.994  16.170  0.1879 -0.4905  0.3826
  454MPD2    C3 6761   0.235   1.005  16.299 -0.3877 -0.1560 -0.1796
  454MPD2    C4 6762   0.273   0.903  16.386 -0.4234 -0.3111 -0.4830
  454MPD2    C5 6763   0.347   0.799  16.336 -0.6028 -0.0749  1.0988
  454MPD2     H 6764   0.247   1.067  16.094  1.5185  0.9567  1.3093
  454MPD2    H1 6765   0.237   0.903  16.488  0.5391  0.1337 -0.1387
  454MPD2    H2 6766   0.436   0.702  16.170  1.8379  1.3574  1.1760
  454MPD2    H3 6767   0.370   0.724  16.411 -0.7689 -1.0509  0.1706
  454MPD2     N 6768   0.139   1.094  16.343 -0.9713 -0.4643  0.0671
  454MPD2    H5 6769   0.099   1.074  16.434  0.2114  0.6260  0.8274
  454MPD2    N1 6770   0.384   0.898  15.992 -0.2497 -0.3023  1.1924
  454MPD2    H7 6771   0.363   0.992  15.959 -0.5852 -0.4678  0.9318
  455TMC3    C1 6772   4.664   1.155  16.262  0.3311  0.0786  0.2153
  455TMC3    C2 6773   4.605   1.156  16.391  0.4304  0.2932  0.4311
  455TMC3    C3 6774   4.526   1.053  16.421  0.4856 -0.7548 -0.2741
  455TMC3    C4 6775   4.647   1.041  16.183  0.2514 -0.2824 -0.2414
  455TMC3    C5 6776   4.562   0.938  16.215  0.5987 -0.1459 -0.7092
  455TMC3    C6 6777   4.498   0.948  16.336 -0.6541  0.3896  0.5975
  455TMC3     C 6778   0.083   1.189  16.265 -0.3216 -0.3353  0.1668
  455TMC3     O 6779   0.125   1.232  16.158  0.2233 -0.4702 -0.1005
  455TMC3     H 6780   4.621   1.242  16.455  1.3948 -0.0280  0.6177
  455TMC3    H1 6781   4.690   1.046  16.084  0.2031  0.0563 -0.2459
  455TMC3    H2 6782   4.425   0.874  16.364  0.3997 -1.0265 -0.3981
  455TMC3    C7 6783   4.613   0.804  16.188  0.4608  0.3494  0.2134
  455TMC3    C8 6784   4.425   1.094  16.510  1.1172  0.5338  0.1185
  455TMC3    O1 6785   4.594   0.724  16.280  0.6544  0.1380  0.0615
  455TMC3    O2 6786   4.306   1.073  16.491  0.5027 -0.6373 -0.3490
  456MPD2     C 6787   2.849   0.605  16.229  0.5516  0.3503  0.6020
  456MPD2    C1 6788   2.924   0.614  16.349 -0.0999 -0.2704 -0.1829
  456MPD2    C2 6789   2.884   0.715  16.443 -0.4985 -0.4401  0.0810
  456MPD2    C3 6790   2.785   0.808  16.413 -0.0974  0.3499  0.2784
  456MPD2    C4 6791   2.719   0.788  16.289 -0.2212 -0.6385  0.4758
  456MPD2    C5 6792   2.746   0.690  16.201  0.0131  0.3034 -1.0410
  456MPD2     H 6793   2.941   0.721  16.534 -1.1965 -1.7725  0.6190
  456MPD2    H1 6794   2.637   0.852  16.258 -0.1047 -0.5029  0.4504
  456MPD2    H2 6795   2.878   0.527  16.159 -0.0471  0.4207  0.2787
  456MPD2    H3 6796   2.680   0.674  16.116 -0.7565  0.1076 -0.4034
  456MPD2     N 6797   2.760   0.913  16.508  0.4660 -0.0614 -0.3956
  456MPD2    H5 6798   2.838   0.936  16.569  1.0200 -2.5052 -0.1866
  456MPD2    N1 6799   3.037   0.527  16.364  0.0428 -0.4660 -0.5462
  456MPD2    H7 6800   3.049   0.454  16.294 -0.1192 -1.1234  0.1051
  457TMC3    C1 6801   2.675   1.127  16.562  0.1889  0.8751  0.0009
  457TMC3    C2 6802   2.606   1.234  16.508  0.0671  0.3293 -0.4862
  457TMC3    C3 6803   2.582   1.336  16.607  0.6215 -0.4120  0.1846
  457TMC3    C4 6804   2.715   1.112  16.689 -0.6066 -0.8421 -0.8077
  457TMC3    C5 6805   2.692   1.217  16.775 -0.0371 -0.3809  0.0325
  457TMC3    C6 6806   2.633   1.336  16.730  0.1531 -0.0226  0.0047
  457TMC3     C 6807   2.656   0.997  16.502 -0.4921  0.4803 -1.2596
  457TMC3     O 6808   2.558   0.980  16.435  0.2376 -0.0955 -0.0547
  457TMC3     H 6809   2.571   1.231  16.405 -1.1560 -2.3224  0.0034
  457TMC3    H1 6810   2.765   1.028  16.735 -0.7137 -0.1921  0.5321
  457TMC3    H2 6811   2.607   1.412  16.803  1.5877 -0.3766  0.8915
  457TMC3    C7 6812   2.737   1.213  16.916 -0.3442  0.3962 -0.0261
  457TMC3    C8 6813   2.556   1.470  16.564  0.2526  0.1216 -0.0798
  457TMC3    O1 6814   2.753   1.107  16.970  0.2706  0.1938  0.5089
  457TMC3    O2 6815   2.625   1.546  16.627 -0.5919 -0.3785 -0.1121
  458MPD2     C 6816   1.248   0.566  11.693 -0.4338  0.3833 -0.1507
  458MPD2    C1 6817   1.218   0.502  11.815  0.1960  0.3182 -0.2063
  458MPD2    C2 6818   1.167   0.370  11.811  0.1845 -0.8734 -0.2330
  458MPD2    C3 6819   1.141   0.310  11.688  0.3051 -0.1157 -0.4035
  458MPD2    C4 6820   1.186   0.371  11.572 -0.5851 -0.2249 -0.3837
  458MPD2    C5 6821   1.237   0.503  11.575  0.2711  1.0437  0.8342
  458MPD2     H 6822   1.146   0.306  11.897  1.3029 -1.8446 -0.6906
  458MPD2    H1 6823   1.165   0.325  11.476  1.7601  0.5824 -1.2775
  458MPD2    H2 6824   1.283   0.669  11.697 -0.2536  0.2905  0.5513
  458MPD2    H3 6825   1.251   0.562  11.485  1.4349 -1.3534 -0.5570
  458MPD2     N 6826   1.103   0.169  11.686  0.2964 -0.2152 -0.0783
  458MPD2    H5 6827   1.079   0.133  11.778 -2.3030  2.7654  0.4180
  458MPD2    N1 6828   1.255   0.559  11.934 -0.0700  0.5125  0.0433
  458MPD2    H7 6829   1.314   0.641  11.923 -0.6257  0.7039 -1.6062
  459TMC3    C1 6830   1.282   0.581  12.170 -0.6645 -0.0402  0.2675
  459TMC3    C2 6831   1.385   0.669  12.148  0.0141  0.1862  0.4422
  459TMC3    C3 6832   1.425   0.736  12.257  0.6695  0.1269  0.5679
  459TMC3    C4 6833   1.232   0.554  12.298 -0.0223 -0.2371  0.4161
  459TMC3    C5 6834   1.284   0.621  12.406 -0.4030  1.0736  0.3335
  459TMC3    C6 6835   1.378   0.717  12.385  0.1977 -0.7340  0.1561
  459TMC3     C 6836   1.231   0.496  12.058 -0.2588  0.3008  0.2642
  459TMC3     O 6837   1.180   0.391  12.093 -0.7722  0.2323 -0.3472
  459TMC3     H 6838   1.442   0.682  12.056 -0.1049  0.5664  0.4235
  459TMC3    H1 6839   1.171   0.467  12.319  0.0255 -0.4757 -0.4131
  459TMC3    H2 6840   1.410   0.777  12.470 -0.3071  0.2079 -0.3153
  459TMC3    C7 6841   1.249   0.574  12.541 -0.0192  0.3941  0.3396
  459TMC3    C8 6842   1.560   0.797  12.242 -0.3508  0.2381 -0.3334
  459TMC3    O1 6843   1.147   0.509  12.549 -0.4112 -0.1427 -0.1612
  459TMC3    O2 6844   1.625   0.753  12.147 -0.2208 -0.3039  0.3590
  460MPD2     C 6845   0.620   2.859  10.466  0.0151  0.2160  0.3386
  460MPD2    C1 6846   0.497   2.873  10.509  0.5156 -0.8287  0.5701
  460MPD2    C2 6847   0.398   2.916  10.419 -0.1596  0.6726  0.1072
  460MPD2    C3 6848   0.426   2.934  10.286  0.2179  0.1663  0.4962
  460MPD2    C4 6849   0.559   2.909  10.245  0.2312  0.4449  0.7328
  460MPD2    C5 6850   0.654   2.878  10.337  0.4151  0.5899 -0.9944
  460MPD2     H 6851   0.301   2.914  10.466 -0.3390  2.8231 -0.1582
  460MPD2    H1 6852   0.580   2.910  10.139 -0.4101  0.0545  0.6085
  460MPD2    H2 6853   0.699   2.821  10.530  0.3426  2.0695  1.0257
  460MPD2    H3 6854   0.750   2.840  10.305  0.6110 -0.1038  0.4340
  460MPD2     N 6855   0.334   2.972  10.186  0.1649 -0.2219 -0.2749
  460MPD2    H5 6856   0.369   2.965  10.091  2.5685 -1.2190  0.6790
  460MPD2    N1 6857   0.477   2.854  10.649 -0.2706 -0.2031 -0.3468
  460MPD2    H7 6858   0.560   2.840  10.707 -0.2360 -0.1186 -0.3759
  461TMC3    C1 6859   0.150   3.085  10.088 -0.1425 -0.1748  0.3491
  461TMC3    C2 6860   0.136   3.004   9.979  0.2393  0.9266 -0.3223
  461TMC3    C3 6861   0.040   3.044   9.888 -0.0219  0.8572 -0.5312
  461TMC3    C4 6862   0.068   3.197  10.112 -0.4412 -0.1708  0.2121
  461TMC3    C5 6863   4.702   3.224  10.023 -0.1025 -0.2968 -0.4102
  461TMC3    C6 6864   4.678   3.148   9.914 -0.2846 -0.3242  0.0961
  461TMC3     C 6865   0.212   3.026  10.211  0.6204 -0.2468  0.0567
  461TMC3     O 6866   0.162   3.055  10.321 -0.2913 -0.0499 -0.2876
  461TMC3     H 6867   0.187   2.908   9.976 -1.8769 -0.2185 -0.0616
  461TMC3    H1 6868   0.090   3.253  10.203  0.4692  1.8446 -1.2612
  461TMC3    H2 6869   4.598   3.173   9.845 -1.3740 -3.2199  0.3089
  461TMC3    C7 6870   4.648   3.357  10.022  0.4104  0.1118 -0.0823
  461TMC3    C8 6871   0.039   2.981   9.755  0.1953 -0.0103 -0.0118
  461TMC3    O1 6872   4.602   3.401   9.917 -0.1073 -0.0202  0.5316
  461TMC3    O2 6873   0.087   2.868   9.763  0.0089 -0.1368  0.6268
  462TMC3    C1 6874   0.428   3.836   0.349 -0.1123 -0.0648 -0.8744
  462TMC3    C2 6875   0.503   3.734   0.391 -0.5644  0.1794  0.6050
  462TMC3    C3 6876   0.436   3.612   0.413 -0.3235  0.4997  0.3295
  462TMC3    C4 6877   0.294   3.826   0.319  0.2888  0.5323  0.0538
  462TMC3    C5 6878   0.230   3.707   0.349 -0.3809  0.2339  0.4965
  462TMC3    C6 6879   0.300   3.597   0.403  0.4951 -0.0151 -0.8584
  462TMC3     C 6880   0.505   3.957   0.332 -0.4534 -0.4102  0.0990
  462TMC3     O 6881   0.612   3.978   0.393 -0.3381  0.1669  0.3843
  462TMC3     H 6882   0.611   3.744   0.392 -0.4374 -1.1407 -0.1905
  462TMC3    H1 6883   0.233   3.913   0.297 -0.4256 -0.2488 -1.0497
  462TMC3    H2 6884   0.261   3.496   0.396  1.1663 -0.3571  0.3282
  462TMC3    C7 6885   0.089   3.680   0.312 -1.0927  0.3872 -0.3833
  462TMC3    C8 6886   0.526   3.500   0.411  0.1968  0.0255  0.2305
  462TMC3    O1 6887   0.048   3.574   0.357 -0.4028  0.5600  0.6584
  462TMC3    O2 6888   0.625   3.498   0.480 -0.2006 -0.2610  0.3996
  463MPD2     C 6889   1.111   2.151   1.600 -0.0300  0.2498  0.2400
  463MPD2    C1 6890   0.974   2.166   1.630  0.4683  0.0522 -0.5434
  463MPD2    C2 6891   0.904   2.271   1.578 -0.2335  0.8541  0.7253
  463MPD2    C3 6892   0.963   2.360   1.496 -0.0048  1.1351  0.3542
  463MPD2    C4 6893   1.090   2.333   1.453 -0.5671  0.7026 -0.0625
  463MPD2    C5 6894   1.168   2.241   1.515 -0.5283 -0.1560 -0.5158
  463MPD2     H 6895   0.800   2.282   1.605 -0.5234 -2.9339  1.0853
  463MPD2    H1 6896   1.146   2.403   1.393  1.2622  0.8969  1.8716
  463MPD2    H2 6897   1.172   2.071   1.642 -2.5226 -1.8557 -0.1613
  463MPD2    H3 6898   1.268   2.225   1.478 -1.0331  0.2094 -2.0386
  463MPD2     N 6899   0.896   2.469   1.437 -0.5802  0.1389 -0.8330
  463MPD2    H5 6900   0.952   2.527   1.375 -0.1633  1.5008  0.8196
  463MPD2    N1 6901   0.897   2.072   1.705  0.1626  0.0747  0.1907
  463MPD2    H7 6902   0.798   2.096   1.711  0.0020 -0.6234  0.2688
  464TMC3    C1 6903   0.820   1.880   1.795  0.1602  0.5580 -0.0615
  464TMC3    C2 6904   0.701   1.945   1.795 -0.2943  0.3581  0.5472
  464TMC3    C3 6905   0.593   1.870   1.762  0.7334  0.3467 -0.3677
  464TMC3    C4 6906   0.832   1.744   1.770  0.1318 -1.2490 -0.1729
  464TMC3    C5 6907   0.719   1.673   1.730  0.9263  0.2691 -0.5181
  464TMC3    C6 6908   0.593   1.734   1.732 -0.4874  0.1715  0.5179
  464TMC3     C 6909   0.937   1.957   1.758 -0.5218 -0.3464 -0.2590
  464TMC3     O 6910   1.046   1.906   1.759 -0.0313 -0.6755  0.2237
  464TMC3     H 6911   0.679   2.044   1.832  1.0935  0.5866  0.7602
  464TMC3    H1 6912   0.933   1.705   1.770  0.5120 -0.2402  0.9567
  464TMC3    H2 6913   0.505   1.687   1.689 -0.6004  0.4347  0.4588
  464TMC3    C7 6914   0.745   1.564   1.640  0.8829 -0.8284 -0.0619
  464TMC3    C8 6915   0.492   1.947   1.694  0.5684 -0.6116 -0.0423
  464TMC3    O1 6916   0.859   1.542   1.602 -0.0883  0.1936 -0.1958
  464TMC3    O2 6917   0.526   2.049   1.633 -0.4780 -0.5463  0.3168
  465MPD2     C 6918   2.197   1.689  16.530 -0.3377 -0.3877  0.0075
  465MPD2    C1 6919   2.123   1.586  16.592 -0.1735  0.6245  0.0104
  465MPD2    C2 6920   2.030   1.506  16.529  0.9605  0.6640  0.6866
  465MPD2    C3 6921   2.016   1.523  16.387  0.3230 -0.2995  0.1528
  465MPD2    C4 6922   2.095   1.621  16.328 -0.2607  0.0869 -0.3232
  465MPD2    C5 6923   2.186   1.700  16.395  0.2446  0.1456 -0.3612
  465MPD2     H 6924   1.964   1.441  16.586  1.0791  0.9917  1.1976
  465MPD2    H1 6925   2.086   1.644  16.222 -2.0294 -0.6807 -0.3456
  465MPD2    H2 6926   2.262   1.759  16.582 -0.1520 -2.4490  2.5697
  465MPD2    H3 6927   2.231   1.779  16.337 -0.3493 -0.1073 -1.1646
  465MPD2     N 6928   1.936   1.427  16.325 -0.0331 -0.2400 -0.1281
  465MPD2    H5 6929   1.867   1.377  16.379 -0.4154  0.8834  0.4375
  465MPD2    N1 6930   2.133   1.575  16.734  0.4240 -0.1085 -0.5742
  465MPD2    H7 6931   2.103   1.489  16.779  1.0240 -0.7844 -1.4540
  466TMC3    C1 6932   1.651   1.198  16.154 -0.4718 -0.7037  0.4383
  466TMC3    C2 6933   1.603   1.240  16.031  0.3073 -0.5305  0.1921
  466TMC3    C3 6934   1.691   1.315  15.956  0.0080  0.4345  0.3521
  466TMC3    C4 6935   1.769   1.245  16.201  0.0642  0.2393 -0.3062
  466TMC3    C5 6936   1.850   1.319  16.125 -0.4727 -0.1968  0.3251
  466TMC3    C6 6937   1.817   1.353  15.999 -0.3473  0.5086  0.1668
  466TMC3     C 6938   1.575   1.104  16.240 -0.5444 -0.3499  0.6739
  466TMC3     O 6939   1.605   1.108  16.360  0.1906 -0.0940 -0.2761
  466TMC3     H 6940   1.503   1.226  15.992  1.2123 -0.5369 -2.1305
  466TMC3    H1 6941   1.790   1.222  16.304  0.9362  0.1847 -0.5010
  466TMC3    H2 6942   1.874   1.410  15.927 -0.5468 -0.2086 -0.5712
  466TMC3    C7 6943   1.944   1.402  16.191  0.5056  0.2131  0.1751
  466TMC3    C8 6944   1.626   1.426  15.899  0.0158  0.4357 -0.7031
  466TMC3    O1 6945   2.018   1.455  16.111  0.4629  0.0019 -0.5764
  466TMC3    O2 6946   1.626   1.432  15.779  0.6980 -0.6605 -0.4570
  467TMC3    C1 6947   3.245   4.381  13.514  0.2094 -0.0848  0.1286
  467TMC3    C2 6948   3.188   4.446  13.406 -0.0155 -0.0060  0.0068
  467TMC3    C3 6949   3.047   4.439  13.391  0.4877 -0.0221  0.5668
  467TMC3    C4 6950   3.176   4.274  13.571  0.0724  0.4408  0.3472
  467TMC3    C5 6951   3.043   4.264  13.539  0.4048  0.5377  0.0884
  467TMC3    C6 6952   2.971   4.353  13.463  0.1444  1.2485 -0.4963
  467TMC3     C 6953   3.390   4.358  13.511 -0.2056  0.1548 -0.3775
  467TMC3     O 6954   3.438   4.323  13.615 -0.3176  0.1647 -0.7061
  467TMC3     H 6955   3.237   4.528  13.354  0.0891 -0.9243 -1.3593
  467TMC3    H1 6956   3.227   4.223  13.652  1.2341  0.1685 -0.5598
  467TMC3    H2 6957   2.863   4.350  13.458  0.3513 -0.4178 -4.0347
  467TMC3    C7 6958   2.970   4.170  13.616 -1.0440 -0.0026  0.6033
  467TMC3    C8 6959   2.985   4.547  13.313 -0.7047  0.9270  0.2971
  467TMC3    O1 6960   3.041   4.084  13.660  0.3285 -0.9356 -0.3414
  467TMC3    O2 6961   3.053   4.644  13.291  0.3484  0.1996  0.8508
  468MPD2     C 6962   2.157   2.303  10.218  0.0546  0.1638 -0.5969
  468MPD2    C1 6963   2.152   2.316  10.350  0.3690  0.1520 -0.1904
  468MPD2    C2 6964   2.150   2.191  10.422 -0.3487 -0.4446  0.2369
  468MPD2    C3 6965   2.154   2.070  10.357  0.5964  0.2515 -0.0922
  468MPD2    C4 6966   2.146   2.068  10.223  0.6364  0.0434 -0.3120
  468MPD2    C5 6967   2.150   2.181  10.156 -0.0682  0.2822  0.3619
  468MPD2     H 6968   2.147   2.197  10.531 -0.2207  1.0889  0.1559
  468MPD2    H1 6969   2.142   1.969  10.180 -0.9561  1.9391 -4.5592
  468MPD2    H2 6970   2.166   2.387  10.150 -0.5759 -0.4401 -1.4304
  468MPD2    H3 6971   2.161   2.181  10.048  0.4301  2.2661  0.4151
  468MPD2     N 6972   2.148   1.948  10.422  0.5942 -0.2582 -0.3130
  468MPD2    H5 6973   2.123   1.867  10.366 -0.6044 -2.0127  2.7886
  468MPD2    N1 6974   2.150   2.431  10.421  0.3286  0.4280  0.2320
  468MPD2    H7 6975   2.147   2.422  10.522 -0.0235  1.6711  0.3264
  469TMC3    C1 6976   2.219   2.647  10.479 -0.7399 -0.2903  0.3473
  469TMC3    C2 6977   2.278   2.595  10.590 -0.4797 -0.3066 -0.2486
  469TMC3    C3 6978   2.314   2.687  10.687 -0.5072  0.3252  0.5136
  469TMC3    C4 6979   2.206   2.785  10.458  0.1164 -0.1659  0.1578
  469TMC3    C5 6980   2.251   2.868  10.556  0.3408 -0.5024 -0.0348
  469TMC3    C6 6981   2.302   2.820  10.673  0.6095 -0.1169  0.8280
  469TMC3     C 6982   2.176   2.559  10.373  0.1126 -0.0756  0.0901
  469TMC3     O 6983   2.156   2.600  10.259 -0.1152 -0.0306 -0.3649
  469TMC3     H 6984   2.305   2.491  10.605 -1.0863 -0.6007 -1.1622
  469TMC3    H1 6985   2.155   2.824  10.370 -0.8840  1.5894  1.5147
  469TMC3    H2 6986   2.311   2.887  10.758  1.8348 -2.0354  2.1888
  469TMC3    C7 6987   2.229   3.013  10.552  0.7901  0.1581  0.6545
  469TMC3    C8 6988   2.412   2.640  10.786  0.2333 -0.4804  0.4907
  469TMC3    O1 6989   2.140   3.047  10.473 -0.0465 -0.1086 -0.1967
  469TMC3    O2 6990   2.459   2.528  10.756  0.2799  0.4026  0.4754
  470TMC3    C1 6991   3.935   3.316   0.485  0.8917 -0.7533 -0.0211
  470TMC3    C2 6992   3.963   3.433   0.427  0.1081 -0.8326 -0.0674
  470TMC3    C3 6993   4.064   3.516   0.470 -0.0327  1.2784 -0.4906
  470TMC3    C4 6994   4.015   3.275   0.591 -0.5835  0.0764 -0.8316
  470TMC3    C5 6995   4.110   3.363   0.633 -0.0819  0.3580  0.4003
  470TMC3    C6 6996   4.133   3.488   0.580  0.1527 -0.1487  0.4892
  470TMC3     C 6997   3.863   3.210   0.406 -0.4926  0.0734  0.3662
  470TMC3     O 6998   3.886   3.095   0.433 -0.8829 -0.2117 -0.0766
  470TMC3     H 6999   3.906   3.476   0.346  0.7824 -1.4047 -0.8452
  470TMC3    H1 7000   4.019   3.173   0.628  0.6071  0.8560  1.2056
  470TMC3    H2 7001   4.194   3.565   0.627  2.4439  0.0277 -2.7302
  470TMC3    C7 7002   4.188   3.325   0.747 -0.1830 -0.2439 -0.3387
  470TMC3    C8 7003   4.062   3.649   0.430  0.3429  0.2861 -0.1817
  470TMC3    O1 7004   4.297   3.387   0.757 -0.2548 -0.0872 -0.1699
  470TMC3    O2 7005   3.964   3.698   0.378  0.2808 -0.7219  0.1519
  471MPD2     C 7006   4.485   0.427  16.937  0.2583  0.3522  0.0455
  471MPD2    C1 7007   4.533   0.314  16.868  0.7452  0.2484 -0.2686
  471MPD2    C2 7008   4.656   0.258  16.902  0.3533 -0.6366 -0.3542
  471MPD2    C3 7009   0.010   0.308  16.999  0.0296 -0.3093 -0.5835
  471MPD2    C4 7010   4.689   0.424  17.057  0.4891  0.3859 -0.3842
  471MPD2    C5 7011   4.570   0.486  17.027 -0.3322 -0.6448 -0.0387
  471MPD2     H 7012   4.685   0.166  16.851  1.1742  0.3636 -1.6958
  471MPD2    H1 7013   0.024   0.487  17.123 -0.4531  1.0834 -0.2093
  471MPD2    H2 7014   4.387   0.472  16.925  0.3314 -0.0008 -1.8916
  471MPD2    H3 7015   4.549   0.586  17.062 -0.2389 -0.7778  0.3994
  471MPD2     N 7016   0.128   0.250  17.037  0.2514  0.2950 -0.7232
  471MPD2    H5 7017   0.167   0.274  17.127  1.7181  0.0204 -1.2972
  471MPD2    N1 7018   4.471   0.250  16.758  0.5896 -0.5592  0.4237
  471MPD2    H7 7019   4.524   0.174  16.717 -1.5079 -2.1812  0.6621
  472TMC3    C1 7020   4.318   0.176  16.605 -0.4634  0.1879 -0.0589
  472TMC3    C2 7021   4.254   0.200  16.488  0.3845  0.0213  0.4833
  472TMC3    C3 7022   4.221   0.091  16.408 -0.1519  0.4703 -0.0479
  472TMC3    C4 7023   4.365   0.052  16.633  0.3109  0.0657 -0.8415
  472TMC3    C5 7024   4.332   4.676  16.549 -0.0462 -0.4498 -0.0488
  472TMC3    C6 7025   4.260   4.687  16.435 -0.5983  0.2808 -0.0622
  472TMC3     C 7026   4.342   0.283  16.706  0.1489  0.0091 -0.1026
  472TMC3     O 7027   4.267   0.377  16.729 -0.5217  0.0690 -0.8372
  472TMC3     H 7028   4.202   0.294  16.471  1.4705  0.2215 -1.7656
  472TMC3    H1 7029   4.419   0.028  16.724 -0.0566  1.9837 -0.1130
  472TMC3    H2 7030   4.232   4.602  16.373 -1.9134  0.9016 -0.3305
  472TMC3    C7 7031   4.379   4.545  16.582 -0.1744 -0.6565 -0.6469
  472TMC3    C8 7032   4.165   0.122  16.279  0.4381  0.2380  0.3033
  472TMC3    O1 7033   4.392   4.513  16.699  0.3728  0.5155  0.4602
  472TMC3    O2 7034   4.192   0.228  16.222  0.3177 -0.5509  0.2282
  473MPD2     C 7035   0.265   2.137  13.249  0.3272 -0.7569 -0.3177
  473MPD2    C1 7036   0.142   2.207  13.255 -0.1654 -0.1735  0.1786
  473MPD2    C2 7037   0.130   2.287  13.362 -0.0181 -0.6424  0.0299
  473MPD2    C3 7038   0.229   2.319  13.452  0.1901 -0.3658 -0.7874
  473MPD2    C4 7039   0.355   2.259  13.441 -0.1728  0.3000  0.0055
  473MPD2    C5 7040   0.374   2.167  13.337  0.6934  0.2970  0.5122
  473MPD2     H 7041   0.034   2.337  13.369  1.3886  2.0598 -0.3125
  473MPD2    H1 7042   0.438   2.286  13.505  1.5974 -1.0242 -1.7827
  473MPD2    H2 7043   0.299   2.078  13.165  1.0661  0.4960 -0.9061
  473MPD2    H3 7044   0.462   2.106  13.320 -2.6797 -3.8337 -2.5165
  473MPD2     N 7045   0.217   2.415  13.547 -0.5654 -0.1326  0.2931
  473MPD2    H5 7046   0.294   2.421  13.612 -0.3133 -0.1707 -0.0015
  473MPD2    N1 7047   0.049   2.229  13.151  0.2873  0.1025 -0.3854
  473MPD2    H7 7048   4.711   2.309  13.161  1.4039  0.9186  0.1155
  474TMC3    C1 7049   0.097   2.535  13.713  0.2776 -0.2733 -0.3738
  474TMC3    C2 7050   4.713   2.612  13.742  0.2169 -0.8155 -0.3438
  474TMC3    C3 7051   4.709   2.665  13.865  0.0169  0.5190  0.5907
  474TMC3    C4 7052   0.208   2.519  13.797 -0.0296  0.0508  0.1185
  474TMC3    C5 7053   0.185   2.571  13.925  0.2298 -0.2738 -0.0605
  474TMC3    C6 7054   0.079   2.648  13.962 -0.2845  0.4978 -0.1689
  474TMC3     C 7055   0.100   2.491  13.573 -0.0497  0.8285  0.0397
  474TMC3     O 7056   4.723   2.516  13.503  0.2540 -0.4420  0.2343
  474TMC3     H 7057   4.634   2.640  13.673 -0.7633 -0.0732  1.0729
  474TMC3    H1 7058   0.288   2.451  13.772 -0.5605 -0.3455 -0.5071
  474TMC3    H2 7059   0.075   2.693  14.061  0.2314  0.7686 -0.2753
  474TMC3    C7 7060   0.295   2.544  14.020 -0.3429  0.0200  0.0721
  474TMC3    C8 7061   4.596   2.757  13.884  0.2139  0.1447 -0.6118
  474TMC3    O1 7062   0.395   2.488  13.975 -0.1427 -0.3942 -0.3479
  474TMC3    O2 7063   4.492   2.730  13.823 -0.0221 -0.1659  0.1006
  475MPD2     C 7064   2.780   0.428  10.425 -0.2459 -0.1128 -0.6415
  475MPD2    C1 7065   2.794   0.373  10.298 -0.0673 -0.7453 -0.0383
  475MPD2    C2 7066   2.686   0.301  10.242 -0.4976 -0.3460  0.5476
  475MPD2    C3 7067   2.574   0.296  10.317  0.5029  0.4247 -0.3338
  475MPD2    C4 7068   2.556   0.357  10.439 -0.4094 -0.2224  0.4725
  475MPD2    C5 7069   2.667   0.418  10.494 -0.1556  0.4054 -0.3731
  475MPD2     H 7070   2.686   0.245  10.149 -0.1826  0.1657  0.2395
  475MPD2    H1 7071   2.456   0.366  10.481 -1.0378 -1.0805 -0.8363
  475MPD2    H2 7072   2.867   0.473  10.473 -0.8264  1.3336 -0.9392
  475MPD2    H3 7073   2.655   0.458  10.594 -0.3791 -0.5422 -0.0197
  475MPD2     N 7074   2.468   0.231  10.248 -0.2102  0.5140 -0.0101
  475MPD2    H5 7075   2.476   0.217  10.148 -3.3349  1.5024 -0.3868
  475MPD2    N1 7076   2.921   0.363  10.230  0.1742 -0.1680 -0.3139
  475MPD2    H7 7077   3.008   0.390  10.274 -0.4854 -0.4041  1.1376
  476TMC3    C1 7078   3.075   0.308  10.056 -0.3932 -0.4143 -0.5021
  476TMC3    C2 7079   3.102   0.191   9.996  0.0775  0.3063 -0.3921
  476TMC3    C3 7080   3.232   0.151   9.997 -0.8945  0.1436 -0.0620
  476TMC3    C4 7081   3.175   0.389  10.108  0.0811  0.6610 -0.7285
  476TMC3    C5 7082   3.308   0.348  10.101  0.4584  0.6305  0.9007
  476TMC3    C6 7083   3.336   0.224  10.037 -0.4093  0.2502  0.4249
  476TMC3     C 7084   2.938   0.321  10.100  0.9457 -0.1474 -0.3805
  476TMC3     O 7085   2.859   0.290  10.014 -0.5508 -0.1685 -0.1400
  476TMC3     H 7086   3.019   0.126   9.971 -0.4392  1.2926 -1.2606
  476TMC3    H1 7087   3.139   0.486  10.140 -1.2644  0.0300 -0.3378
  476TMC3    H2 7088   3.433   0.176  10.034  0.3540  1.6876  2.1996
  476TMC3    C7 7089   3.421   0.431  10.124 -0.4911 -0.0680  0.7755
  476TMC3    C8 7090   3.261   0.031   9.909 -0.1377  0.6121 -0.1646
  476TMC3    O1 7091   3.533   0.402  10.082 -0.0619 -0.5658  0.1725
  476TMC3    O2 7092   3.366   4.693   9.925  0.0163  0.1863 -0.6370
  477MPD2     C 7093   0.994   1.920  11.396 -0.3865 -0.2786 -0.3508
  477MPD2    C1 7094   0.868   1.911  11.457  0.2229  0.2519  0.8437
  477MPD2    C2 7095   0.865   1.860  11.587  0.6591  0.4891 -0.1544
  477MPD2    C3 7096   0.982   1.811  11.644 -0.4763 -0.3851  0.7413
  477MPD2    C4 7097   1.097   1.797  11.572 -0.3391 -0.4940 -0.3238
  477MPD2    C5 7098   1.103   1.865  11.456  0.5878 -0.7795 -0.0133
  477MPD2     H 7099   0.779   1.868  11.651  0.1610 -0.3918 -0.7094
  477MPD2    H1 7100   1.194   1.762  11.606 -0.3952  0.1728  0.5275
  477MPD2    H2 7101   0.998   1.944  11.290 -2.2909  0.3119 -0.2820
  477MPD2    H3 7102   1.200   1.884  11.412  0.7834 -1.1144  0.2686
  477MPD2     N 7103   0.986   1.762  11.779  0.5359  0.2336 -0.1143
  477MPD2    H5 7104   1.078   1.722  11.800 -0.5706 -1.4872  1.4750
  477MPD2    N1 7105   0.753   1.963  11.383 -0.4125  0.1078  0.2725
  477MPD2    H7 7106   0.774   1.999  11.291 -1.3412  0.4918  0.2130
  478TMC3    C1 7107   0.524   2.003  11.338  0.3561  0.5706  0.3695
  478TMC3    C2 7108   0.422   2.058  11.404 -0.1773  0.4494  0.1327
  478TMC3    C3 7109   0.354   2.164  11.353 -0.5963  0.3084 -0.7536
  478TMC3    C4 7110   0.561   2.045  11.214  0.3633 -0.7003 -0.2645
  478TMC3    C5 7111   0.485   2.143  11.160  0.7260  0.4716  0.0201
  478TMC3    C6 7112   0.388   2.207  11.232  0.1016  0.1940 -0.0985
  478TMC3     C 7113   0.623   1.949  11.427  0.7072 -0.1247 -0.1365
  478TMC3     O 7114   0.590   1.886  11.528 -0.1237  0.4841 -0.0255
  478TMC3     H 7115   0.413   2.019  11.505 -1.8717 -1.2810 -0.7044
  478TMC3    H1 7116   0.642   1.996  11.162 -1.0409 -0.9890 -2.1603
  478TMC3    H2 7117   0.332   2.294  11.200 -1.0968  0.4123  2.5945
  478TMC3    C7 7118   0.523   2.186  11.032  0.0823 -0.4464  0.2843
  478TMC3    C8 7119   0.278   2.245  11.448 -0.6331  0.5625  0.5790
  478TMC3    O1 7120   0.631   2.151  10.988 -0.5388  0.3216 -0.4081
  478TMC3    O2 7121   0.257   2.186  11.554  0.3484  0.0699 -0.0145
  479MPD2     C 7122   3.361   3.946  15.401  0.6123 -0.5446  0.3184
  479MPD2    C1 7123   3.474   3.907  15.336  0.2133  1.0264 -0.1705
  479MPD2    C2 7124   3.595   3.977  15.334 -0.7095 -0.1795 -0.4022
  479MPD2    C3 7125   3.607   4.092  15.415 -0.0506 -0.6009  0.3488
  479MPD2    C4 7126   3.497   4.124  15.496  0.3309 -0.1665  0.0675
  479MPD2    C5 7127   3.379   4.054  15.490 -0.1291 -1.0229 -0.2301
  479MPD2     H 7128   3.683   3.946  15.279 -0.4229  0.0239 -0.0642
  479MPD2    H1 7129   3.502   4.201  15.571 -1.8488 -0.5359  0.5835
  479MPD2    H2 7130   3.268   3.889  15.402 -1.3480  2.6486  0.4698
  479MPD2    H3 7131   3.299   4.077  15.560  1.0285 -0.7405  1.0164
  479MPD2     N 7132   3.735   4.158  15.427  0.7704 -0.1068 -0.0696
  479MPD2    H5 7133   3.744   4.219  15.508 -1.8648 -1.4604  1.2633
  479MPD2    N1 7134   3.462   3.785  15.262 -0.5447  0.8706  1.0115
  479MPD2    H7 7135   3.367   3.749  15.256  0.6102 -1.8244 -1.5397
  480TMC3    C1 7136   4.106   4.210  15.590  0.1234 -0.6874 -0.5838
  480TMC3    C2 7137   4.210   4.249  15.505  0.3685 -0.1119  0.6204
  480TMC3    C3 7138   4.190   4.258  15.368  0.2595 -0.2220 -0.2347
  480TMC3    C4 7139   3.981   4.178  15.542  1.1962 -0.0245 -0.1775
  480TMC3    C5 7140   3.970   4.175  15.409  0.1202 -0.4535  0.7432
  480TMC3    C6 7141   4.070   4.213  15.319 -0.2134  0.4747 -0.8108
  480TMC3     C 7142   4.149   4.108  15.688  0.2717  1.0536  0.1674
  480TMC3     O 7143   4.096   3.996  15.675 -0.0301  0.1906  0.2241
  480TMC3     H 7144   4.305   4.296  15.533  0.8251 -0.1122 -0.9435
  480TMC3    H1 7145   3.911   4.122  15.603  1.7723  3.3700  3.6046
  480TMC3    H2 7146   4.048   4.226  15.214  1.3185 -0.5886 -1.2552
  480TMC3    C7 7147   3.844   4.138  15.345 -0.6159  0.2511  0.4055
  480TMC3    C8 7148   4.289   4.318  15.283 -0.1184 -0.3664 -0.0657
  480TMC3    O1 7149   3.840   4.121  15.226 -0.1806  0.3791 -0.3039
  480TMC3    O2 7150   4.374   4.389  15.333  0.0132 -0.5958 -0.0151
  481MPD2     C 7151   1.350   3.729  14.213 -0.0021 -0.2387  0.1997
  481MPD2    C1 7152   1.220   3.680  14.214  0.4726 -0.9369 -0.5975
  481MPD2    C2 7153   1.176   3.630  14.335  0.0956 -0.0104 -0.4121
  481MPD2    C3 7154   1.251   3.626  14.453  0.5186 -1.1190  0.3131
  481MPD2    C4 7155   1.379   3.678  14.442  0.3016  0.4246  0.1497
  481MPD2    C5 7156   1.435   3.725  14.324 -0.5052 -0.3012 -0.0949
  481MPD2     H 7157   1.071   3.603  14.335 -0.0261  0.4997  2.6806
  481MPD2    H1 7158   1.439   3.690  14.532 -0.0552  0.4835  0.3811
  481MPD2    H2 7159   1.395   3.769  14.122  0.6323 -1.7584 -0.1653
  481MPD2    H3 7160   1.541   3.749  14.322 -0.6484  0.4294  0.8428
  481MPD2     N 7161   1.203   3.585  14.580 -0.2374  0.8587 -0.6199
  481MPD2    H5 7162   1.274   3.592  14.652 -1.7900 -1.6365  1.1442
  481MPD2    N1 7163   1.139   3.684  14.100 -0.0165  0.5294  0.9091
  481MPD2    H7 7164   1.164   3.747  14.024 -0.3755  0.1373  0.4681
  482TMC3    C1 7165   0.953   3.627  13.966 -0.1681  0.4710  0.2338
  482TMC3    C2 7166   0.857   3.540  13.918  0.2303  0.1557  0.4590
  482TMC3    C3 7167   0.764   3.577  13.826  0.1148 -0.6144  0.0069
  482TMC3    C4 7168   0.941   3.759  13.934 -0.2505  0.3555  0.1728
  482TMC3    C5 7169   0.840   3.793  13.846 -0.5959 -0.0701  0.1085
  482TMC3    C6 7170   0.746   3.710  13.802 -1.0439 -0.1612  0.1724
  482TMC3     C 7171   1.032   3.599  14.081 -1.0468  0.7290  0.6388
  482TMC3     O 7172   1.004   3.498  14.144 -0.0042  0.2461 -0.4279
  482TMC3     H 7173   0.865   3.435  13.945  0.0678 -0.1256 -0.5798
  482TMC3    H1 7174   1.015   3.834  13.958 -0.0976  0.3558 -0.3123
  482TMC3    H2 7175   0.678   3.744  13.725 -0.1673 -1.6197 -1.2574
  482TMC3    C7 7176   0.858   3.921  13.766  0.5922  0.1423  0.2473
  482TMC3    C8 7177   0.651   3.482  13.800  0.1926  0.0718  0.4625
  482TMC3    O1 7178   0.950   3.993  13.810 -0.2672  0.7882 -0.1386
  482TMC3    O2 7179   0.676   3.365  13.829  0.3732 -0.3891  0.1399
  483TMC3    C1 7180   3.570   2.724   0.964  0.1233 -0.2227 -0.0594
  483TMC3    C2 7181   3.659   2.793   0.899 -0.9662  0.3479 -0.0331
  483TMC3    C3 7182   3.789   2.776   0.930 -0.2003 -0.4332  0.4327
  483TMC3    C4 7183   3.600   2.638   1.069 -0.4656  0.2442  0.2048
  483TMC3    C5 7184   3.736   2.628   1.103 -0.2261 -0.2116 -0.3779
  483TMC3    C6 7185   3.828   2.686   1.023 -0.5576 -0.3239 -0.0294
  483TMC3     C 7186   3.431   2.734   0.933  0.5693 -0.7869  0.5507
  483TMC3     O 7187   3.399   2.849   0.905 -0.1000  0.4978  0.1449
  483TMC3     H 7188   3.620   2.856   0.820  0.2171  2.0519  0.7310
  483TMC3    H1 7189   3.525   2.593   1.133  0.7392 -1.2975  0.5152
  483TMC3    H2 7190   3.931   2.651   1.023 -0.1012  1.0119  0.1634
  483TMC3    C7 7191   3.770   2.510   1.179  0.1145 -0.1095 -0.2960
  483TMC3    C8 7192   3.883   2.832   0.832  0.3251  0.4116 -0.2956
  483TMC3    O1 7193   3.877   2.463   1.151  0.2736 -0.0335 -0.4360
  483TMC3    O2 7194   3.835   2.917   0.760 -0.1566  0.7085  0.4415
  484MPD2     C 7195   1.709   1.079  12.436 -0.3850 -0.6523  0.5101
  484MPD2    C1 7196   1.701   0.968  12.347 -0.1401  0.0868  0.2671
  484MPD2    C2 7197   1.814   0.933  12.280 -0.0493  0.7096 -0.0508
  484MPD2    C3 7198   1.933   1.000  12.288  0.1907  0.1169  0.3757
  484MPD2    C4 7199   1.945   1.095  12.385 -0.7261 -0.3310 -0.4728
  484MPD2    C5 7200   1.833   1.129  12.453  0.7835  0.5697  0.1695
  484MPD2     H 7201   1.812   0.845  12.216  0.5651 -0.0289  0.9536
  484MPD2    H1 7202   2.031   1.160  12.397 -0.6146 -0.6108  0.2299
  484MPD2    H2 7203   1.627   1.130  12.485 -1.5635 -1.3262 -0.7683
  484MPD2    H3 7204   1.851   1.216  12.515 -1.2245  0.5710  0.7303
  484MPD2     N 7205   2.047   0.963  12.211  0.0192 -0.2834  0.1322
  484MPD2    H5 7206   2.136   0.996  12.246  1.1457 -1.3149 -1.7875
  484MPD2    N1 7207   1.580   0.901  12.331 -0.1255  0.4261 -0.3417
  484MPD2    H7 7208   1.512   0.934  12.399  0.8289 -0.9249  1.2977
  485TMC3    C1 7209   2.171   0.852  12.053 -0.7490 -0.1040  0.4588
  485TMC3    C2 7210   2.254   0.807  12.145  0.0268  1.4504 -0.2953
  485TMC3    C3 7211   2.391   0.835  12.145  0.5665  0.0993 -0.1027
  485TMC3    C4 7212   2.221   0.919  11.945 -0.5071  0.5298 -0.3638
  485TMC3    C5 7213   2.357   0.943  11.934  0.3558  0.9346  0.5076
  485TMC3    C6 7214   2.443   0.905  12.030 -0.6684 -0.4027 -0.6172
  485TMC3     C 7215   2.037   0.880  12.098  0.0065 -0.5753  0.0822
  485TMC3     O 7216   1.947   0.872  12.020 -0.0656 -0.4798  0.5102
  485TMC3     H 7217   2.203   0.750  12.222  1.1280 -0.2701 -0.8445
  485TMC3    H1 7218   2.153   0.954  11.868 -2.0355 -0.2557  0.6356
  485TMC3    H2 7219   2.537   0.958  12.030 -1.1934  0.5163  1.5828
  485TMC3    C7 7220   2.415   0.926  11.798  0.1485 -0.2468  0.0945
  485TMC3    C8 7221   2.480   0.721  12.169 -0.0729 -0.2022 -0.2387
  485TMC3    O1 7222   2.359   0.979  11.701 -0.8670 -0.2432  0.3345
  485TMC3    O2 7223   2.570   0.713  12.085  0.1343  0.1736 -0.2391
  486MPD2     C 7224   3.529   4.156  12.698  0.7907 -1.1317 -0.6028
  486MPD2    C1 7225   3.500   4.194  12.573 -0.2561  0.4099  0.0794
  486MPD2    C2 7226   3.506   4.327  12.543 -0.6214  0.0100  0.1774
  486MPD2    C3 7227   3.548   4.426  12.632  0.1333 -0.0731 -0.3807
  486MPD2    C4 7228   3.579   4.384  12.764 -0.7557 -0.3812  0.4731
  486MPD2    C5 7229   3.562   4.249  12.790 -0.4080  0.0227 -0.3485
  486MPD2     H 7230   3.485   4.357  12.441  3.1640 -1.0974 -0.9234
  486MPD2    H1 7231   3.622   4.448  12.839 -0.5683 -0.3128  0.3068
  486MPD2    H2 7232   3.522   4.050  12.722  2.1376 -0.7369  1.5131
  486MPD2    H3 7233   3.588   4.204  12.885 -0.9751  0.8494  0.2070
  486MPD2     N 7234   3.569   4.558  12.587 -0.3878 -0.6093  0.5648
  486MPD2    H5 7235   3.555   4.581  12.489  0.9147 -3.1963 -0.2279
  486MPD2    N1 7236   3.476   4.098  12.476 -0.4635  0.0571  0.0968
  486MPD2    H7 7237   3.483   4.001  12.502  1.8180  0.5507  1.2983
  487TMC3    C1 7238   3.385   3.992  12.281  0.4655  0.3816  1.0844
  487TMC3    C2 7239   3.249   3.977  12.241  0.4642 -0.0392  0.6079
  487TMC3    C3 7240   3.205   3.847  12.232 -0.7051  0.3590 -0.5071
  487TMC3    C4 7241   3.468   3.890  12.319 -0.4592 -0.3623  0.5232
  487TMC3    C5 7242   3.401   3.771  12.336  0.6226  0.0403 -0.4471
  487TMC3    C6 7243   3.289   3.745  12.275  0.1700 -0.0216  0.5866
  487TMC3     C 7244   3.415   4.112  12.353  0.1880 -0.1567 -0.2014
  487TMC3     O 7245   3.377   4.217  12.298 -0.1352  0.0796  0.4795
  487TMC3     H 7246   3.185   4.061  12.216 -0.1107 -1.0194 -1.1449
  487TMC3    H1 7247   3.564   3.902  12.368 -0.3346  0.2120  0.1405
  487TMC3    H2 7248   3.237   3.652  12.290  3.0290 -1.6831  0.1902
  487TMC3    C7 7249   3.414   3.731  12.477  0.2042  0.0954 -0.3542
  487TMC3    C8 7250   3.080   3.829  12.302 -0.1127 -1.1399 -0.7692
  487TMC3    O1 7251   3.490   3.801  12.539  0.6497 -0.1830 -0.3292
  487TMC3    O2 7252   3.072   3.899  12.402 -0.1936 -0.4073  0.3248
  488MPD2     C 7253   3.386   0.959  16.253 -0.0159 -0.2346 -0.3951
  488MPD2    C1 7254   3.448   1.059  16.328 -0.1841 -0.0290 -0.1606
  488MPD2    C2 7255   3.400   1.075  16.453  0.2762  0.0013 -0.2800
  488MPD2    C3 7256   3.279   1.024  16.499 -0.5382  0.1000 -0.2316
  488MPD2    C4 7257   3.199   0.948  16.411  0.3225  0.3548  0.3089
  488MPD2    C5 7258   3.264   0.912  16.292  0.0330 -0.0813  0.1086
  488MPD2     H 7259   3.461   1.133  16.520  0.4038 -0.1840 -0.2376
  488MPD2    H1 7260   3.101   0.907  16.431  0.2843  0.3772  0.1636
  488MPD2    H2 7261   3.434   0.931  16.160  1.3648  3.2693 -0.7225
  488MPD2    H3 7262   3.220   0.839  16.226  1.2936 -0.3281 -0.4726
  488MPD2     N 7263   3.241   1.072  16.624  0.0236 -0.0858  0.4526
  488MPD2    H5 7264   3.311   1.132  16.667  0.3179  0.8327 -1.2839
  488MPD2    N1 7265   3.559   1.136  16.286  0.0645  0.1164 -0.0474
  488MPD2    H7 7266   3.597   1.200  16.354  0.5905 -0.2650  0.0184
  489TMC3    C1 7267   3.118   1.135  16.814  0.1032  0.0505 -0.0727
  489TMC3    C2 7268   3.213   1.229  16.836 -0.6177  0.4626  0.3174
  489TMC3    C3 7269   3.238   1.269  16.962  0.4925  0.2112 -0.2342
  489TMC3    C4 7270   3.041   1.087  16.908  0.1779 -0.5067  0.0970
  489TMC3    C5 7271   3.078   1.118  17.039 -0.4028  0.5437 -0.0539
  489TMC3    C6 7272   3.173   1.215  17.067  0.4776 -0.5646 -0.1959
  489TMC3     C 7273   3.122   1.055  16.691  0.1266 -0.3674  0.1538
  489TMC3     O 7274   3.027   0.981  16.669 -0.0202 -0.2836 -0.1143
  489TMC3     H 7275   3.268   1.280  16.758  0.1765  1.5659  1.6095
  489TMC3    H1 7276   2.978   0.999  16.896 -0.4797 -0.1202  0.6305
  489TMC3    H2 7277   3.198   1.231  17.172 -0.6587  2.3146 -0.3747
  489TMC3    C7 7278   3.058   1.015  17.142  1.2152 -0.8583  0.6974
  489TMC3    C8 7279   3.329   1.382  16.975  0.4310 -0.0857  0.2247
  489TMC3    O1 7280   3.151   1.007  17.221 -0.3769  0.5796 -0.1090
  489TMC3    O2 7281   3.385   1.429  16.877 -0.3315 -0.1909 -0.2189
  490MPD2     C 7282   4.315   1.143  17.514 -0.4662 -0.1485 -0.2638
  490MPD2    C1 7283   4.429   1.070  17.484  0.2226  0.2679  0.4343
  490MPD2    C2 7284   4.557   1.112  17.515  0.2708 -0.2541 -0.7031
  490MPD2    C3 7285   4.588   1.228  17.584  0.3461 -0.0123 -0.6580
  490MPD2    C4 7286   4.477   1.308  17.601  0.0243  1.0735  0.3474
  490MPD2    C5 7287   4.349   1.261  17.572 -0.4180 -0.1847  0.4722
  490MPD2     H 7288   4.639   1.052  17.477  0.9741 -0.3708  1.0051
  490MPD2    H1 7289   4.486   1.409  17.638 -1.4150  0.5901  2.0011
  490MPD2    H2 7290   4.215   1.108  17.496 -0.9087  0.0685  1.8030
  490MPD2    H3 7291   4.273   1.329  17.609 -0.5658 -0.9563  1.5825
  490MPD2     N 7292   4.718   1.268  17.611 -0.2859  0.6079  0.1148
  490MPD2    H5 7293   0.060   1.194  17.592  0.7993  1.8709 -1.0258
  490MPD2    N1 7294   4.393   0.938  17.427  0.1631 -0.4540 -0.5179
  490MPD2    H7 7295   4.299   0.923  17.391 -1.1873  3.9815  1.2816
  491TMC3    C1 7296   4.411   0.715  17.357  0.5859  0.4036 -0.3136
  491TMC3    C2 7297   4.450   0.593  17.410  0.0238 -0.7794  0.3478
  491TMC3    C3 7298   4.386   0.485  17.355  0.2049 -0.9403  0.0960
  491TMC3    C4 7299   4.318   0.730  17.252  0.6715 -0.0927  0.5216
  491TMC3    C5 7300   4.268   0.614  17.197  0.2837  0.6516  0.4661
  491TMC3    C6 7301   4.303   0.493  17.250 -0.2524  0.5367 -0.5362
  491TMC3     C 7302   4.476   0.831  17.414 -0.5279  0.1086  0.4719
  491TMC3     O 7303   4.587   0.815  17.463  0.0168 -0.1713 -0.1276
  491TMC3     H 7304   4.516   0.580  17.495 -0.7708 -1.8579  0.8047
  491TMC3    H1 7305   4.294   0.828  17.211 -0.0780  0.0846  1.3838
  491TMC3    H2 7306   4.248   0.407  17.213  0.2628 -0.5828  1.3165
  491TMC3    C7 7307   4.146   0.617  17.117 -0.1837  0.0488  0.1684
  491TMC3    C8 7308   4.339   0.389  17.458 -0.2031  0.0964 -0.3844
  491TMC3    O1 7309   4.116   0.515  17.056 -0.8595  0.3247  0.0094
  491TMC3    O2 7310   4.363   0.417  17.579 -0.6096 -0.2110 -0.4907
  492MPD2     C 7311   0.575   0.786  11.321  0.6260 -0.3336 -0.1357
  492MPD2    C1 7312   0.505   0.698  11.238  0.3465 -0.3959  0.5381
  492MPD2    C2 7313   0.419   0.605  11.295 -0.8208 -0.3923  0.7745
  492MPD2    C3 7314   0.396   0.600  11.434 -0.1148 -0.0978 -0.2298
  492MPD2    C4 7315   0.468   0.692  11.514  0.1684 -0.2681  0.1702
  492MPD2    C5 7316   0.553   0.789  11.461 -0.1102 -0.2454  0.4292
  492MPD2     H 7317   0.360   0.542  11.231 -0.1461 -0.0488 -0.1871
  492MPD2    H1 7318   0.439   0.678  11.618  1.5373 -1.2099  0.4148
  492MPD2    H2 7319   0.640   0.861  11.277  1.5212 -0.6591  0.6185
  492MPD2    H3 7320   0.608   0.856  11.525  1.7823  1.4502 -2.9325
  492MPD2     N 7321   0.309   0.503  11.499  0.1265 -0.4575 -0.3688
  492MPD2    H5 7322   0.300   0.508  11.600  0.0800  2.6118 -0.5368
  492MPD2    N1 7323   0.521   0.710  11.097 -0.9680  0.3333  0.4289
  492MPD2    H7 7324   0.590   0.777  11.067 -0.3030  0.4168  2.1531
  493TMC3    C1 7325   0.503   0.664  10.864  0.0905  0.4230 -0.0899
  493TMC3    C2 7326   0.578   0.780  10.835  0.6366 -0.2233  0.3157
  493TMC3    C3 7327   0.592   0.819  10.708  0.3362  0.5855  0.2119
  493TMC3    C4 7328   0.425   0.606  10.764  0.5834 -0.2478  0.5350
  493TMC3    C5 7329   0.452   0.642  10.639 -0.4008 -0.9506  0.5531
  493TMC3    C6 7330   0.524   0.757  10.603 -0.2985 -0.0939  0.4724
  493TMC3     C 7331   0.470   0.625  11.004 -0.1455 -0.0851  0.1432
  493TMC3     O 7332   0.391   0.529  11.016  0.1257  0.2857 -0.4302
  493TMC3     H 7333   0.640   0.829  10.909  1.1391  0.1681 -0.3704
  493TMC3    H1 7334   0.351   0.532  10.790 -1.8263  0.6761 -3.6442
  493TMC3    H2 7335   0.545   0.762  10.497  0.3920 -0.5833  0.5850
  493TMC3    C7 7336   0.365   0.582  10.543  0.8332 -0.3387 -0.1252
  493TMC3    C8 7337   0.720   0.877  10.672 -0.1245 -0.1153 -0.0907
  493TMC3    O1 7338   0.312   0.653  10.456 -0.4952 -0.2012 -0.2303
  493TMC3    O2 7339   0.811   0.865  10.750  0.5814 -0.0136 -0.1322
  494TMC3    C1 7340   0.998   2.220   0.516  0.3141  1.2909  0.2795
  494TMC3    C2 7341   1.087   2.118   0.505  0.0753  0.3319 -0.6024
  494TMC3    C3 7342   1.135   2.079   0.383 -0.3991 -0.2448 -0.7438
  494TMC3    C4 7343   0.943   2.282   0.410 -0.6158 -0.3098  0.0177
  494TMC3    C5 7344   0.980   2.229   0.290  0.0272 -0.1700  0.9716
  494TMC3    C6 7345   1.077   2.130   0.274  0.0376  0.0429 -0.6670
  494TMC3     C 7346   0.920   2.224   0.632  0.5832  0.0489  0.1349
  494TMC3     O 7347   0.832   2.309   0.639  0.0924  0.0371 -0.0039
  494TMC3     H 7348   1.146   2.078   0.586 -2.0509 -0.0285  0.7677
  494TMC3    H1 7349   0.865   2.356   0.420  0.6060  1.0011 -0.0455
  494TMC3    H2 7350   1.101   2.080   0.181 -2.2830 -1.2768 -0.5397
  494TMC3    C7 7351   0.893   2.258   0.174  0.7263  0.2677 -1.2413
  494TMC3    C8 7352   1.186   1.944   0.381  0.6419  0.3706 -0.2565
  494TMC3    O1 7353   0.944   2.225   0.067  0.1571  0.4767 -0.3964
  494TMC3    O2 7354   1.167   1.879   0.483 -0.1419 -0.0398  0.6377
  495TMC3    C1 7355   4.217   4.262  14.311 -0.1001 -0.0534  0.1227
  495TMC3    C2 7356   4.101   4.274  14.244  0.3485 -0.6981  0.0589
  495TMC3    C3 7357   3.985   4.283  14.314 -0.2613  0.0932  0.1965
  495TMC3    C4 7358   4.220   4.286  14.447  0.8881  0.1979  0.1738
  495TMC3    C5 7359   4.101   4.311  14.510 -0.2004  0.3503 -0.4757
  495TMC3    C6 7360   3.982   4.310  14.452  0.0867 -0.3135 -0.3396
  495TMC3     C 7361   4.261   4.135  14.264 -0.0698  0.3761  0.1770
  495TMC3     O 7362   4.172   4.061  14.219  0.1293 -0.5485  0.0630
  495TMC3     H 7363   4.102   4.253  14.138 -0.5869  1.3547 -0.3487
  495TMC3    H1 7364   4.315   4.275  14.498  1.0717  2.6322  0.3189
  495TMC3    H2 7365   3.893   4.312  14.515  0.8342 -0.8637  0.7264
  495TMC3    C7 7366   4.100   4.342  14.658  0.5530  0.0699  0.0061
  495TMC3    C8 7367   3.868   4.217  14.261 -0.0805 -0.0471  0.3380
  495TMC3    O1 7368   4.030   4.277  14.737  0.6080 -0.1917 -0.0682
  495TMC3    O2 7369   3.782   4.164  14.337  0.0049 -0.6526 -0.5026
  496MPD2     C 7370   1.511   4.261  14.883 -0.2569  0.2776  0.1331
  496MPD2    C1 7371   1.455   4.138  14.854  0.0483  0.0617  0.3453
  496MPD2    C2 7372   1.334   4.094  14.898 -0.2900 -0.0884  0.2702
  496MPD2    C3 7373   1.263   4.179  14.974  0.1704  0.5796 -0.2812
  496MPD2    C4 7374   1.318   4.303  15.002  0.0526 -0.2400  0.0637
  496MPD2    C5 7375   1.437   4.351  14.960 -0.1116 -0.6774  0.5091
  496MPD2     H 7376   1.285   4.002  14.867  1.9284 -1.0375 -0.4225
  496MPD2    H1 7377   1.262   4.367  15.069  0.5824 -1.1532  1.3651
  496MPD2    H2 7378   1.613   4.286  14.857 -0.5995  0.5718 -0.9597
  496MPD2    H3 7379   1.472   4.450  14.987 -0.4867 -0.1152 -1.0687
  496MPD2     N 7380   1.149   4.144  15.038 -0.1998  0.1513 -0.1891
  496MPD2    H5 7381   1.095   4.219  15.079 -2.8185 -1.4577 -0.6870
  496MPD2    N1 7382   1.539   4.052  14.776  0.1952 -0.6536  0.4117
  496MPD2    H7 7383   1.619   4.103  14.740 -0.5321 -1.3771 -2.2330
  497TMC3    C1 7384   0.993   4.012  15.165  0.5020 -0.2404 -0.5829
  497TMC3    C2 7385   0.930   3.894  15.196 -0.6163 -0.3873 -0.5756
  497TMC3    C3 7386   0.851   3.889  15.305 -0.0077 -0.3147  0.5773
  497TMC3    C4 7387   0.978   4.117  15.258 -0.3424 -0.3867 -0.2230
  497TMC3    C5 7388   0.904   4.106  15.368 -0.0325 -0.0785 -0.3391
  497TMC3    C6 7389   0.843   3.988  15.397  0.9975 -0.0693  0.5754
  497TMC3     C 7390   1.101   4.021  15.061  0.0479 -0.3125  0.5805
  497TMC3     O 7391   1.159   3.918  15.048  0.6070  0.1446 -0.1903
  497TMC3     H 7392   0.931   3.813  15.123 -1.1950 -1.3901  0.5453
  497TMC3    H1 7393   1.024   4.215  15.248 -1.3468  0.2603  1.6267
  497TMC3    H2 7394   0.771   3.986  15.478 -1.6788 -1.2322 -1.8819
  497TMC3    C7 7395   0.904   4.215  15.459  0.6234  0.0063 -0.4353
  497TMC3    C8 7396   0.805   3.760  15.343  0.4557 -0.2229 -0.1181
  497TMC3    O1 7397   0.927   4.326  15.412 -0.0932 -0.4229 -0.1621
  497TMC3    O2 7398   0.812   3.668  15.264  0.0014 -0.2719 -0.1270
  498MPD2     C 7399   2.398   0.422   9.085 -0.1540  0.3721 -0.4598
  498MPD2    C1 7400   2.486   0.372   9.183 -0.1613 -0.3478 -0.1189
  498MPD2    C2 7401   2.440   0.257   9.252  0.9110  0.2938 -0.4966
  498MPD2    C3 7402   2.306   0.205   9.236  0.2915 -0.5994  0.3828
  498MPD2    C4 7403   2.232   0.259   9.135  0.0929  0.7620  0.3290
  498MPD2    C5 7404   2.269   0.365   9.069  0.0308  0.0125 -0.4351
  498MPD2     H 7405   2.503   0.212   9.328 -0.1592  2.5854  1.7330
  498MPD2    H1 7406   2.127   0.233   9.130  0.2483  0.2989 -0.5532
  498MPD2    H2 7407   2.425   0.515   9.035  2.7617  0.9904  2.3284
  498MPD2    H3 7408   2.205   0.409   8.994 -1.7579 -1.2708  0.3384
  498MPD2     N 7409   2.262   0.098   9.319  0.2331 -0.1498 -0.4482
  498MPD2    H5 7410   2.332   0.076   9.389 -0.8552 -0.2414  0.6083
  498MPD2    N1 7411   2.612   0.424   9.221 -1.2284  0.1441  0.1074
  498MPD2    H7 7412   2.659   0.364   9.289  1.1302  0.7289 -1.0173
  499TMC3    C1 7413   2.804   0.572   9.214  0.3443  0.1693  0.4071
  499TMC3    C2 7414   2.868   0.488   9.293  0.4675 -0.0305  0.0111
  499TMC3    C3 7415   2.989   0.519   9.330 -0.6595 -1.1216  0.3442
  499TMC3    C4 7416   2.843   0.694   9.181  0.0357 -0.4663 -0.3334
  499TMC3    C5 7417   2.967   0.731   9.237  0.3154 -0.1174  0.2902
  499TMC3    C6 7418   3.046   0.644   9.301 -0.2981  0.0160 -0.0268
  499TMC3     C 7419   2.677   0.535   9.162  0.2674 -0.5926 -0.3577
  499TMC3     O 7420   2.646   0.594   9.061 -0.5022  0.1527 -0.1303
  499TMC3     H 7421   2.837   0.386   9.313 -0.8123  0.1917 -0.8162
  499TMC3    H1 7422   2.778   0.761   9.125  1.3333  0.5944 -0.5812
  499TMC3    H2 7423   3.148   0.668   9.330 -0.1352 -0.3825 -0.2782
  499TMC3    C7 7424   3.023   0.854   9.173  0.4939  0.4757  0.2692
  499TMC3    C8 7425   3.056   0.433   9.427  0.2624 -0.3219 -0.3984
  499TMC3    O1 7426   2.962   0.905   9.080  0.5980  0.3723  0.0975
  499TMC3    O2 7427   3.027   0.316   9.422  0.3667  0.2061  0.4108
  500MPD2     C 7428   4.178   1.690  10.293 -0.1427 -0.9414 -0.5519
  500MPD2    C1 7429   4.227   1.774  10.192 -0.0789 -0.0821  0.8853
  500MPD2    C2 7430   4.144   1.796  10.080  0.2558  0.7025 -0.3242
  500MPD2    C3 7431   4.027   1.727  10.064 -0.0603 -0.1918  0.4054
  500MPD2    C4 7432   3.986   1.640  10.163  0.1830 -0.5408  0.2718
  500MPD2    C5 7433   4.059   1.629  10.279  0.7769 -0.5312 -0.4545
  500MPD2     H 7434   4.177   1.857   9.997  0.3295 -0.2743 -1.0222
  500MPD2    H1 7435   3.891   1.587  10.167 -2.0605  3.4120 -1.6464
  500MPD2    H2 7436   4.226   1.674  10.389 -0.0524  1.2926 -0.2379
  500MPD2    H3 7437   4.011   1.567  10.354 -0.6199 -0.3612 -1.1968
  500MPD2     N 7438   3.942   1.738   9.948  0.2622  0.6617 -0.0330
  500MPD2    H5 7439   3.867   1.670   9.952  0.7442  0.1223 -0.2470
  500MPD2    N1 7440   4.359   1.824  10.195  0.4177 -0.1797  0.0912
  500MPD2    H7 7441   4.385   1.901  10.134  0.7982  0.1900  0.7281
  501TMC3    C1 7442   4.585   1.823  10.229 -0.4471  0.8447 -0.3406
  501TMC3    C2 7443   4.594   1.950  10.166 -0.3714 -0.5863 -0.1399
  501TMC3    C3 7444   4.723   1.994  10.133 -0.2111  0.5642 -0.0691
  501TMC3    C4 7445   4.692   1.766  10.285 -0.5501  0.6285 -0.1966
  501TMC3    C5 7446   0.094   1.813  10.254 -0.1759  0.2658 -0.4808
  501TMC3    C6 7447   0.106   1.923  10.177  0.5361 -0.3912 -0.2650
  501TMC3     C 7448   4.458   1.766  10.268 -0.3466 -0.5423 -0.5633
  501TMC3     O 7449   4.455   1.656  10.324 -0.1318 -0.0132 -0.1676
  501TMC3     H 7450   4.510   2.013  10.142 -0.5389 -1.2910 -1.3976
  501TMC3    H1 7451   4.692   1.670  10.335 -3.1775  1.1700  0.8617
  501TMC3    H2 7452   0.203   1.966  10.153  1.3607 -1.4680  1.1051
  501TMC3    C7 7453   0.207   1.736  10.296 -0.2033  0.4136 -0.3862
  501TMC3    C8 7454   0.016   2.134  10.120  0.0143 -0.2656 -0.1033
  501TMC3    O1 7455   0.190   1.619  10.328  0.5263 -0.6675 -0.2300
  501TMC3    O2 7456   0.112   2.181  10.177  0.5516 -0.1271  0.0732
  502TMC3    C1 7457   3.691   0.272  14.980  0.5607 -0.0118  0.2414
  502TMC3    C2 7458   3.721   0.388  14.916 -0.4221 -0.6256  0.1685
  502TMC3    C3 7459   3.663   0.395  14.788  0.4229  0.5687  0.8840
  502TMC3    C4 7460   3.617   0.173  14.926  0.4394  0.1297  0.1578
  502TMC3    C5 7461   3.562   0.184  14.804  0.6806 -0.5045  0.5823
  502TMC3    C6 7462   3.585   0.301  14.734 -0.2725  0.1464 -0.1726
  502TMC3     C 7463   3.747   0.262  15.121 -0.5882  0.5183 -0.4769
  502TMC3     O 7464   3.846   0.327  15.148  0.1280  0.0141 -0.0459
  502TMC3     H 7465   3.799   0.456  14.949 -0.0288 -0.8196 -0.3601
  502TMC3    H1 7466   3.594   0.089  14.989 -1.1728  1.6020  1.5354
  502TMC3    H2 7467   3.552   0.305  14.631  0.7925  1.1778 -0.4719
  502TMC3    C7 7468   3.434   0.123  14.794  0.7482  0.2694 -0.4665
  502TMC3    C8 7469   3.659   0.529  14.727 -0.8456  0.0185 -0.2055
  502TMC3    O1 7470   3.429   4.723  14.802 -0.6513  0.0722 -0.0773
  502TMC3    O2 7471   3.637   0.540  14.606 -0.0323  0.7156 -0.6217
  503MPD2     C 7472   0.727   1.167  16.863 -0.0642  0.3772 -0.3288
  503MPD2    C1 7473   0.768   1.161  16.996  0.3912  0.1618 -0.1735
  503MPD2    C2 7474   0.825   1.041  17.045 -0.8195  0.0646  0.2100
  503MPD2    C3 7475   0.839   0.934  16.964 -0.4969 -0.9178 -1.1161
  503MPD2    C4 7476   0.801   0.945  16.834  0.6478  0.7662 -0.0445
  503MPD2    C5 7477   0.753   1.062  16.782 -0.5907  0.2562 -0.1430
  503MPD2     H 7478   0.833   1.032  17.153  1.5642 -0.1211  0.0262
  503MPD2    H1 7479   0.817   0.863  16.765  1.1197  2.5163 -2.0295
  503MPD2    H2 7480   0.673   1.252  16.822  0.7696  0.9196 -0.3113
  503MPD2    H3 7481   0.728   1.061  16.677 -0.3553 -0.3022 -0.1921
  503MPD2     N 7482   0.890   0.820  17.028 -0.2958  0.2924 -0.1810
  503MPD2    H5 7483   0.894   0.820  17.129 -2.1533  0.1404 -0.1062
  503MPD2    N1 7484   0.731   1.263  17.085 -0.1511 -0.7742 -0.1765
  503MPD2    H7 7485   0.760   1.263  17.182 -0.5508 -1.2485 -0.0605
  504TMC3    C1 7486   0.994   0.624  17.055  0.3135 -0.0536 -0.0894
  504TMC3    C2 7487   0.928   0.600  17.170  0.0735 -0.2440  0.4878
  504TMC3    C3 7488   0.981   0.507  17.260 -0.1747 -0.1726 -0.0682
  504TMC3    C4 7489   1.097   0.547  17.012  0.8722  0.2074 -0.6096
  504TMC3    C5 7490   1.143   0.450  17.102  1.0554 -0.0041  0.0673
  504TMC3    C6 7491   1.095   0.432  17.228 -0.2018  0.5871  0.6401
  504TMC3     C 7492   0.951   0.722  16.963 -0.1387 -0.7270 -0.0792
  504TMC3     O 7493   0.976   0.719  16.843 -0.3229  0.3824  0.4546
  504TMC3     H 7494   0.833   0.641  17.202 -1.1378 -1.8198 -1.0692
  504TMC3    H1 7495   1.131   0.576  16.914 -1.2573  0.8018 -1.1685
  504TMC3    H2 7496   1.122   0.352  17.297  2.4201 -0.3814 -1.5568
  504TMC3    C7 7497   1.282   0.414  17.053 -0.6284 -0.5885 -0.1766
  504TMC3    C8 7498   0.915   0.501  17.389 -0.7312  0.3121  0.0426
  504TMC3    O1 7499   1.322   0.427  16.939  0.5185  0.2832 -0.0436
  504TMC3    O2 7500   0.799   0.538  17.389 -0.6033  0.1808 -0.0289
  505MPD2     C 7501   1.971   3.872  10.462  0.3446  0.1920 -0.3055
  505MPD2    C1 7502   2.081   3.833  10.384  0.9342 -0.2712  0.6012
  505MPD2    C2 7503   2.193   3.910  10.403  0.2349 -0.4291  0.0312
  505MPD2    C3 7504   2.200   4.022  10.478 -0.4672 -0.4126 -0.5468
  505MPD2    C4 7505   2.096   4.061  10.559  0.0792  0.9314  0.0711
  505MPD2    C5 7506   1.984   3.978  10.555  0.4961  0.6659 -0.4707
  505MPD2     H 7507   2.266   3.890  10.326  1.4935  2.5904  0.4557
  505MPD2    H1 7508   2.095   4.145  10.627  2.2372 -0.4791  1.8216
  505MPD2    H2 7509   1.878   3.817  10.455  0.8896 -0.7342 -0.2360
  505MPD2    H3 7510   1.909   3.994  10.632  0.7686 -0.3810  0.0131
  505MPD2     N 7511   2.319   4.094  10.476  0.3001 -0.0986 -0.3898
  505MPD2    H5 7512   2.400   4.046  10.437 -0.7489 -1.1507 -1.2832
  505MPD2    N1 7513   2.065   3.739  10.281  0.5197 -0.0370  0.7392
  505MPD2    H7 7514   1.974   3.695  10.274  0.1653  1.1965 -2.5636
  506TMC3    C1 7515   2.120   3.600  10.101 -0.0313  0.4477 -0.2214
  506TMC3    C2 7516   2.008   3.652  10.037 -0.7612 -0.3995  0.1150
  506TMC3    C3 7517   2.013   3.669   9.903  0.1324 -0.1352  0.6395
  506TMC3    C4 7518   2.227   3.569  10.024  0.4396 -0.6403  0.0957
  506TMC3    C5 7519   2.235   3.587   9.889  0.7292  0.4677  0.2599
  506TMC3    C6 7520   2.127   3.643   9.829  0.2550  0.2782 -0.4114
  506TMC3     C 7521   2.164   3.689  10.203  0.1609 -0.0667 -0.2546
  506TMC3     O 7522   2.286   3.707  10.204  0.8717 -0.3259 -0.4209
  506TMC3     H 7523   1.910   3.672  10.080 -1.0449 -1.3732 -0.0860
  506TMC3    H1 7524   2.315   3.531  10.075 -0.6364 -2.0680  0.8855
  506TMC3    H2 7525   2.134   3.654   9.722  1.7535 -0.4465 -0.3841
  506TMC3    C7 7526   2.356   3.651   9.844 -0.3809 -0.1235 -0.3628
  506TMC3    C8 7527   1.903   3.739   9.842  0.7298 -0.2503 -0.0116
  506TMC3    O1 7528   2.376   3.660   9.728 -0.2460  0.1713  0.0500
  506TMC3    O2 7529   1.788   3.721   9.884  0.0532  0.7752 -0.1584
  507TMC3    C1 7530   1.863   0.504  14.578 -0.5366  0.1226  0.0562
  507TMC3    C2 7531   1.939   0.523  14.464  0.5832 -0.3242 -0.2276
  507TMC3    C3 7532   2.024   0.627  14.459  0.4561 -0.3610 -0.2795
  507TMC3    C4 7533   1.892   0.559  14.700  0.0369  0.1223  0.4959
  507TMC3    C5 7534   1.983   0.665  14.691  0.8459  0.6366  0.3450
  507TMC3    C6 7535   2.051   0.697  14.574 -0.2671 -0.2268  0.2600
  507TMC3     C 7536   1.728   0.456  14.569 -0.4861 -0.4614 -0.1872
  507TMC3     O 7537   1.683   0.408  14.669  0.0045  0.0015 -0.2496
  507TMC3     H 7538   1.923   0.466  14.374  1.5565 -0.9184 -0.0275
  507TMC3    H1 7539   1.831   0.535  14.786  0.1473  0.3144  0.6275
  507TMC3    H2 7540   2.095   0.795  14.557 -1.2967  0.5355  2.0267
  507TMC3    C7 7541   1.921   0.785  14.749 -0.1524 -0.8854  0.3250
  507TMC3    C8 7542   1.978   0.718  14.362 -0.3332 -0.2894  0.2561
  507TMC3    O1 7543   1.993   0.883  14.767 -0.0983  0.4408 -0.1162
  507TMC3    O2 7544   1.857   0.709  14.348 -0.4776 -0.2824  0.3959
  508MPD2     C 7545   2.562   3.070  15.733  0.0088  0.4072 -0.2067
  508MPD2    C1 7546   2.695   3.047  15.737 -0.1936 -0.0239 -0.2237
  508MPD2    C2 7547   2.766   2.996  15.624  0.5202 -0.1537  0.0242
  508MPD2    C3 7548   2.702   2.981  15.506 -0.1862 -0.0662  0.0471
  508MPD2    C4 7549   2.567   3.014  15.496 -0.2492  0.1291  0.3807
  508MPD2    C5 7550   2.499   3.054  15.611 -0.8343 -0.9724  0.5639
  508MPD2     H 7551   2.871   2.973  15.638  0.3753 -0.3369  0.8058
  508MPD2    H1 7552   2.516   3.012  15.401  0.7794 -2.2412 -0.1230
  508MPD2    H2 7553   2.489   3.106  15.804 -0.6710  1.1744 -1.3059
  508MPD2    H3 7554   2.397   3.089  15.607 -0.5093 -0.1511 -0.6411
  508MPD2     N 7555   2.792   2.969  15.396  0.2316  0.6511 -0.1060
  508MPD2    H5 7556   2.890   2.979  15.419  0.7803 -1.2170 -1.6484
  508MPD2    N1 7557   2.749   3.076  15.858  0.1516  0.3558 -0.2890
  508MPD2    H7 7558   2.686   3.119  15.925 -0.1284 -0.9488  0.2675
  509TMC3    C1 7559   2.835   3.230  15.026 -0.1430 -0.3966  0.0355
  509TMC3    C2 7560   2.933   3.305  15.093  0.2034 -0.4500  0.9163
  509TMC3    C3 7561   2.994   3.242  15.197 -0.1624 -0.6363  0.1271
  509TMC3    C4 7562   2.817   3.100  15.060  0.1980  0.0715 -0.0969
  509TMC3    C5 7563   2.863   3.048  15.175  1.2536 -0.2477 -0.1216
  509TMC3    C6 7564   2.957   3.121  15.241  0.1052  0.9610 -0.6010
  509TMC3     C 7565   2.782   3.281  14.908  0.5916 -0.8878  0.1209
  509TMC3     O 7566   2.784   3.200  14.817  0.6827 -0.4187  0.3207
  509TMC3     H 7567   2.955   3.405  15.059  0.1041 -0.5703  0.5019
  509TMC3    H1 7568   2.739   3.050  15.004  0.2810 -1.2583  0.9879
  509TMC3    H2 7569   3.005   3.093  15.334 -2.0030 -0.0608  0.1826
  509TMC3    C7 7570   2.756   2.987  15.262 -0.4417  0.0959 -0.0711
  509TMC3    C8 7571   3.089   3.315  15.283 -0.5926 -0.0231  0.0856
  509TMC3    O1 7572   2.647   2.974  15.209  0.4560  0.2542 -0.4042
  509TMC3    O2 7573   3.175   3.244  15.339 -0.3584 -0.0165 -0.0890
  510MPD2     C 7574   0.749   0.194  14.390  0.8206  0.1047 -0.4200
  510MPD2    C1 7575   0.823   0.112  14.471  0.2295  0.2445  0.6434
  510MPD2    C2 7576   0.963   0.089  14.442 -0.3243 -0.4381  0.1071
  510MPD2    C3 7577   1.019   0.144  14.330  0.4506 -0.6105  0.6448
  510MPD2    C4 7578   0.936   0.220  14.245  0.3490 -0.7324 -0.9660
  510MPD2    C5 7579   0.807   0.251  14.277 -0.0141 -0.2307  0.4455
  510MPD2     H 7580   1.028   0.027  14.503  0.4330  0.3329  0.0913
  510MPD2    H1 7581   0.968   0.255  14.148  0.6750 -0.9976 -0.9530
  510MPD2    H2 7582   0.642   0.200  14.406  1.0404 -1.9408  1.8101
  510MPD2    H3 7583   0.754   0.310  14.203 -1.4516 -2.7954 -0.5896
  510MPD2     N 7584   1.151   0.110  14.297  0.1515 -0.0193 -0.9520
  510MPD2    H5 7585   1.208   0.061  14.365  1.0901  0.0412 -1.6942
  510MPD2    N1 7586   0.748   0.042  14.566 -0.2644  0.7647  0.0973
  510MPD2    H7 7587   0.650   0.064  14.580 -0.4265 -1.7280  2.8737
  511TMC3    C1 7588   0.686   4.586  14.697  0.1174 -0.3461  0.4415
  511TMC3    C2 7589   0.579   4.633  14.768 -1.0036  0.2528 -0.1483
  511TMC3    C3 7590   0.474   4.544  14.783 -0.4416  0.2026 -0.0106
  511TMC3    C4 7591   0.689   4.459  14.653 -0.1859 -0.7826  0.2422
  511TMC3    C5 7592   0.588   4.374  14.682  0.0374  0.5758  0.9402
  511TMC3    C6 7593   0.477   4.410  14.749 -0.0163 -0.1441  0.3052
  511TMC3     C 7594   0.799   4.666  14.645 -0.1242 -0.0054 -0.3160
  511TMC3     O 7595   0.907   4.611  14.656  0.0918 -0.2457 -0.5705
  511TMC3     H 7596   0.576   0.009  14.809  1.1895 -0.1959  1.0933
  511TMC3    H1 7597   0.774   4.432  14.590 -1.4396 -0.5716 -1.5635
  511TMC3    H2 7598   0.387   4.351  14.758  0.6452 -1.2781 -0.5142
  511TMC3    C7 7599   0.582   4.250  14.607  0.2253  0.0589 -0.4049
  511TMC3    C8 7600   0.368   4.594  14.864  0.3095  0.0354  0.6151
  511TMC3    O1 7601   0.648   4.242  14.504  0.1511 -0.3318  0.1076
  511TMC3    O2 7602   0.343   4.715  14.865  0.5491  0.4053  0.4169
  512TMC3    C1 7603   4.505   4.043  13.419  0.7442  0.3090 -1.0734
  512TMC3    C2 7604   4.594   3.984  13.501 -0.0617  0.3582 -0.4572
  512TMC3    C3 7605   4.700   3.921  13.438  0.2685  0.4994  0.3615
  512TMC3    C4 7606   4.498   4.020  13.280  0.0267 -0.3950  0.3264
  512TMC3    C5 7607   4.581   3.919  13.238 -0.0129  0.5233  0.2047
  512TMC3    C6 7608   4.683   3.864  13.310 -0.4567 -0.4040  0.1248
  512TMC3     C 7609   4.379   4.092  13.469  0.1593 -0.1279 -0.5508
  512TMC3     O 7610   4.313   4.163  13.388  0.4142  0.3264  0.5353
  512TMC3     H 7611   4.612   4.015  13.603 -0.1114  1.4274 -0.7715
  512TMC3    H1 7612   4.416   4.065  13.226 -0.5424 -1.9993 -0.1664
  512TMC3    H2 7613   0.039   3.816  13.256  0.6119 -0.5198  1.8096
  512TMC3    C7 7614   4.577   3.903  13.096 -0.9771 -0.3418 -0.5341
  512TMC3    C8 7615   0.101   3.894  13.511 -0.5669  0.2623 -0.3839
  512TMC3    O1 7616   4.525   3.992  13.030 -0.3814  0.6259 -0.0386
  512TMC3    O2 7617   0.153   3.783  13.522 -0.5117  0.5174  0.3321
  513MPD2     C 7618   1.016   3.799  13.130  0.5582 -0.4128  0.3088
  513MPD2    C1 7619   1.129   3.786  13.051  0.4136  0.6840 -1.2299
  513MPD2    C2 7620   1.243   3.842  13.105 -0.4455  0.1712  0.0440
  513MPD2    C3 7621   1.250   3.890  13.237 -0.2585  0.2518 -0.2878
  513MPD2    C4 7622   1.137   3.908  13.305  0.2399  0.7442  0.4189
  513MPD2    C5 7623   1.018   3.868  13.249  0.1957  0.3256  0.1737
  513MPD2     H 7624   1.333   3.864  13.048 -0.9111  3.6714  0.7133
  513MPD2    H1 7625   1.137   3.966  13.397 -0.3787 -1.1945  1.6510
  513MPD2    H2 7626   0.914   3.782  13.098  0.6179  4.2441 -2.4025
  513MPD2    H3 7627   0.919   3.891  13.286  0.1224  1.0705 -0.5124
  513MPD2     N 7628   1.379   3.934  13.284 -0.3557 -0.1450  0.2267
  513MPD2    H5 7629   1.446   3.924  13.208 -0.0342 -2.2244  0.7670
  513MPD2    N1 7630   1.114   3.742  12.912  0.6834 -0.4160 -0.1957
  513MPD2    H7 7631   1.026   3.722  12.868  1.2094 -1.1616 -0.8978
  514TMC3    C1 7632   1.204   3.644  12.713 -0.1159  0.0457 -0.2404
  514TMC3    C2 7633   1.182   3.752  12.626 -0.5718  0.8162  0.1621
  514TMC3    C3 7634   1.260   3.765  12.509  0.6499 -0.1164  0.4779
  514TMC3    C4 7635   1.306   3.555  12.683  0.2758  0.3802  0.4173
  514TMC3    C5 7636   1.382   3.571  12.570 -0.6436 -1.6142  0.4956
  514TMC3    C6 7637   1.352   3.668  12.476 -0.3604 -1.0496  0.8239
  514TMC3     C 7638   1.225   3.702  12.846 -0.2827  0.8410  0.9346
  514TMC3     O 7639   1.342   3.692  12.884  0.6088  0.6103  0.2946
  514TMC3     H 7640   1.137   3.835  12.677  0.2121  0.1121  1.9996
  514TMC3    H1 7641   1.335   3.477  12.752  0.2931 -0.9233 -1.0703
  514TMC3    H2 7642   1.405   3.663  12.382 -1.2862 -0.1774  0.2641
  514TMC3    C7 7643   1.525   3.561  12.592  0.0180  0.6302 -0.0701
  514TMC3    C8 7644   1.294   3.899  12.473  0.3654 -0.3941 -0.6333
  514TMC3    O1 7645   1.603   3.551  12.500 -0.3785 -0.2440  0.5160
  514TMC3    O2 7646   1.288   3.980  12.564  0.7438  0.1342 -0.3089
  515MPD2     C 7647   4.118   1.066  14.795  0.0598  0.8287  0.0304
  515MPD2    C1 7648   4.175   1.006  14.680  0.2711 -0.1664  0.0700
  515MPD2    C2 7649   4.293   1.057  14.633  0.4768  0.8613  0.0037
  515MPD2    C3 7650   4.360   1.152  14.712 -0.1123  0.4865  0.1181
  515MPD2    C4 7651   4.308   1.209  14.826  0.6290  0.5648 -0.3209
  515MPD2    C5 7652   4.185   1.163  14.862  0.3255 -0.0802  0.0778
  515MPD2     H 7653   4.340   1.016  14.544 -0.2985  0.0094 -0.0062
  515MPD2    H1 7654   4.362   1.278  14.891  1.5062  1.2312 -1.7442
  515MPD2    H2 7655   4.029   1.030  14.846  0.2102  1.8489  1.0111
  515MPD2    H3 7656   4.134   1.200  14.951 -0.2441  1.4042 -0.8726
  515MPD2     N 7657   4.491   1.210  14.676 -0.0337  0.4585 -0.5086
  515MPD2    H5 7658   4.534   1.267  14.747 -0.4342  2.1852 -1.6574
  515MPD2    N1 7659   4.116   0.892  14.619 -0.3637  0.8194  0.6397
  515MPD2    H7 7660   4.146   0.865  14.526  0.8877  1.9639  0.7166
  516TMC3    C1 7661   3.999   0.699  14.594 -0.7570  0.3240 -0.2787
  516TMC3    C2 7662   4.008   0.711  14.457  0.1590  0.2267 -0.1544
  516TMC3    C3 7663   3.998   0.590  14.392 -0.1318  0.6882  0.4175
  516TMC3    C4 7664   3.995   0.581  14.659 -0.0010 -0.0443 -0.0829
  516TMC3    C5 7665   3.987   0.464  14.590 -0.1647  0.2049  0.4699
  516TMC3    C6 7666   3.995   0.467  14.457  0.2974  0.5371 -0.0851
  516TMC3     C 7667   4.034   0.811  14.685 -0.0283 -0.0191  0.1485
  516TMC3     O 7668   4.017   0.798  14.806  0.0175 -0.0861 -0.2035
  516TMC3     H 7669   4.004   0.804  14.402  1.8354  1.6685  2.1777
  516TMC3    H1 7670   3.994   0.582  14.768 -1.0823  1.6498 -0.1062
  516TMC3    H2 7671   3.987   0.377  14.396  0.6510  1.0236 -0.8469
  516TMC3    C7 7672   4.011   0.340  14.659 -0.4357  0.2414  0.1917
  516TMC3    C8 7673   4.032   0.583  14.255 -0.0023 -0.3161  0.7248
  516TMC3    O1 7674   4.054   0.360  14.774  0.0261  0.3067 -0.4961
  516TMC3    O2 7675   3.969   0.508  14.180  0.4475 -0.5142  0.1946
  517MPD2     C 7676   3.689   2.855  17.419  0.2977  0.1287 -0.2215
  517MPD2    C1 7677   3.812   2.807  17.453  0.1391 -0.0769 -0.5816
  517MPD2    C2 7678   3.898   2.884  17.529  0.2678 -0.2790 -0.3014
  517MPD2    C3 7679   3.875   3.014  17.555  0.3358  0.3171 -0.3110
  517MPD2    C4 7680   3.756   3.063  17.510  0.4125  0.4868 -0.3238
  517MPD2    C5 7681   3.662   2.987  17.440 -0.7504 -0.0100 -0.0977
  517MPD2     H 7682   3.985   2.840  17.575  0.1136  0.7419  0.9757
  517MPD2    H1 7683   3.726   3.166  17.529 -0.3638  0.0827  0.6298
  517MPD2    H2 7684   3.621   2.785  17.372  0.7622 -0.4707 -0.0056
  517MPD2    H3 7685   3.566   3.026  17.410 -0.4465  0.7356 -0.1010
  517MPD2     N 7686   3.950   3.095  17.642 -0.1933  0.7639 -0.1049
  517MPD2    H5 7687   3.936   3.196  17.641 -2.6748  0.3960 -0.8944
  517MPD2    N1 7688   3.858   2.676  17.428 -0.7105  0.1619  0.3357
  517MPD2    H7 7689   3.944   2.656  17.478 -1.0645  1.6988  1.5662
  518TMC3    C1 7690   3.878   2.483  17.304 -0.3757  0.1104  0.9287
  518TMC3    C2 7691   3.819   2.366  17.268 -0.1916 -0.4702  0.3938
  518TMC3    C3 7692   3.903   2.257  17.245 -0.2373  0.0934  0.2210
  518TMC3    C4 7693   4.011   2.501  17.308 -0.2405 -0.2526 -0.2489
  518TMC3    C5 7694   4.089   2.393  17.280  0.2408  0.1673 -0.6944
  518TMC3    C6 7695   4.039   2.264  17.245  0.3462 -0.1633 -0.0412
  518TMC3     C 7696   3.794   2.590  17.339  0.3798  0.5741 -0.3531
  518TMC3     O 7697   3.693   2.589  17.277 -0.8071 -0.5630 -0.1101
  518TMC3     H 7698   3.713   2.355  17.251 -0.4697  0.3249  1.6625
  518TMC3    H1 7699   4.065   2.595  17.308 -2.2170  0.8962 -3.6928
  518TMC3    H2 7700   4.096   2.172  17.258  2.4427  0.9670 -1.1801
  518TMC3    C7 7701   4.224   2.397  17.337  0.1822  0.4035 -0.1951
  518TMC3    C8 7702   3.861   2.123  17.267  0.2796  0.0590 -0.4508
  518TMC3    O1 7703   4.239   2.479  17.428 -0.1735 -0.4828  0.4106
  518TMC3    O2 7704   3.928   2.033  17.219 -0.3197  0.2639 -0.2688
  519MPD2     C 7705   1.055   0.975  14.432  0.3152  0.3101  0.7081
  519MPD2    C1 7706   1.044   1.054  14.316 -0.5776 -0.1341  0.2489
  519MPD2    C2 7707   1.111   1.011  14.204 -0.1655 -0.1687 -0.1673
  519MPD2    C3 7708   1.196   0.896  14.209  0.3486  0.1553  0.1817
  519MPD2    C4 7709   1.205   0.825  14.328  0.1948  0.0715 -0.1660
  519MPD2    C5 7710   1.137   0.864  14.440 -0.4866 -0.0431  0.4656
  519MPD2     H 7711   1.105   1.068  14.112 -3.3088  0.8988  0.7130
  519MPD2    H1 7712   1.266   0.736  14.318  2.1077  1.3006  0.5867
  519MPD2    H2 7713   1.002   1.006  14.522 -0.0404  4.3522 -0.9052
  519MPD2    H3 7714   1.124   0.796  14.523 -0.2628  1.6604  1.8749
  519MPD2     N 7715   1.254   0.838  14.089 -0.8731  0.2116  0.1740
  519MPD2    H5 7716   1.306   0.752  14.105 -0.6036 -0.1149 -2.4312
  519MPD2    N1 7717   0.954   1.167  14.313 -0.1785  0.3901 -0.3161
  519MPD2    H7 7718   0.906   1.184  14.401 -0.6043  1.9949 -0.8525
  520TMC3    C1 7719   1.304   0.815  13.864  0.6867  0.0105 -0.4329
  520TMC3    C2 7720   1.264   0.835  13.735  0.0008 -0.3137 -0.3626
  520TMC3    C3 7721   1.303   0.741  13.646  0.7488  0.0962 -0.5266
  520TMC3    C4 7722   1.403   0.727  13.896 -0.0766  0.7267 -0.1295
  520TMC3    C5 7723   1.457   0.654  13.796  0.0569 -0.3322  0.9033
  520TMC3    C6 7724   1.397   0.645  13.679 -0.0063 -0.1054 -0.4595
  520TMC3     C 7725   1.238   0.890  13.965 -0.3944 -0.2825 -0.3044
  520TMC3     O 7726   1.193   1.000  13.929 -0.5417 -0.4804 -0.1678
  520TMC3     H 7727   1.198   0.917  13.707  0.7136 -0.0409 -1.2489
  520TMC3    H1 7728   1.449   0.718  13.993  0.2683 -1.6891 -0.5173
  520TMC3    H2 7729   1.430   0.577  13.601 -0.4033 -1.4393  0.5339
  520TMC3    C7 7730   1.567   0.561  13.818  0.1729  0.6542  0.6739
  520TMC3    C8 7731   1.233   0.719  13.524  0.6580  0.3687 -0.7666
  520TMC3    O1 7732   1.586   0.521  13.931  0.1366  0.2728 -0.2496
  520TMC3    O2 7733   1.300   0.676  13.432 -0.3663 -0.4383  0.5489
  521MPD2     C 7734   1.527   3.829  17.076 -0.2130 -0.4371 -0.2258
  521MPD2    C1 7735   1.552   3.698  17.086 -0.6582 -0.0169 -0.9420
  521MPD2    C2 7736   1.676   3.652  17.038 -0.0513  0.3541 -0.4326
  521MPD2    C3 7737   1.769   3.735  16.982  0.4412 -0.3504  0.3064
  521MPD2    C4 7738   1.742   3.866  16.970 -0.1342  0.0403  0.1239
  521MPD2    C5 7739   1.617   3.913  17.021  0.2951 -0.4521  0.2019
  521MPD2     H 7740   1.698   3.547  17.049  0.1473  0.4296 -0.1015
  521MPD2    H1 7741   1.806   3.943  16.928  0.3592  1.2798  3.1441
  521MPD2    H2 7742   1.441   3.873  17.126  0.2376  1.8418 -1.4678
  521MPD2    H3 7743   1.601   4.020  17.025  0.0268 -0.4915  0.1798
  521MPD2     N 7744   1.875   3.672  16.921  0.7143  0.3917  0.5147
  521MPD2    H5 7745   1.874   3.571  16.919  1.9601  0.3584  1.2465
  521MPD2    N1 7746   1.458   3.624  17.163 -0.6120 -0.1150  0.6318
  521MPD2    H7 7747   1.373   3.676  17.185 -0.0610  1.7224 -1.6279
  522TMC3    C1 7748   2.061   3.646  16.781  0.3048 -0.2097 -0.5397
  522TMC3    C2 7749   2.194   3.654  16.812  0.2026 -0.3447  0.0813
  522TMC3    C3 7750   2.273   3.563  16.745  0.3411 -0.3548  0.6032
  522TMC3    C4 7751   2.003   3.557  16.697  0.1287  0.3237 -0.3853
  522TMC3    C5 7752   2.085   3.461  16.641 -0.2476  0.2229  1.0574
  522TMC3    C6 7753   2.224   3.462  16.668  0.0107  0.1086 -0.4815
  522TMC3     C 7754   1.982   3.739  16.859  0.2466 -0.2872 -0.2882
  522TMC3     O 7755   2.021   3.851  16.866  0.3571  0.3008  0.2761
  522TMC3     H 7756   2.232   3.720  16.889 -0.6742  0.5150 -0.2233
  522TMC3    H1 7757   1.895   3.559  16.684 -0.0150 -2.1969  0.4038
  522TMC3    H2 7758   2.277   3.382  16.617 -0.3316  0.8509 -1.9950
  522TMC3    C7 7759   2.021   3.346  16.600  0.5063  0.2279 -0.6024
  522TMC3    C8 7760   2.413   3.561  16.773 -0.4378  0.4685  0.9465
  522TMC3    O1 7761   2.062   3.238  16.636  0.2924  0.0034 -0.1114
  522TMC3    O2 7762   2.443   3.592  16.890  0.1191  0.4263  0.3941
  523MPD2     C 7763   4.579   3.589  10.304  0.1003 -0.1014  0.1512
  523MPD2    C1 7764   4.605   3.548  10.175  0.0762 -0.7760  0.1205
  523MPD2    C2 7765   4.579   3.637  10.074 -0.0316 -0.1558  0.3986
  523MPD2    C3 7766   4.531   3.766  10.094  0.0384 -0.2776  0.1533
  523MPD2    C4 7767   4.492   3.803  10.224 -0.7534 -0.0194 -0.4243
  523MPD2    C5 7768   4.510   3.709  10.323  0.5375 -0.3722 -0.2764
  523MPD2     H 7769   4.610   3.615   9.973  0.6648  0.5097  0.4643
  523MPD2    H1 7770   4.459   3.904  10.244  1.6664  0.6603  0.1655
  523MPD2    H2 7771   4.581   3.522  10.390 -1.0640 -0.5493 -0.1778
  523MPD2    H3 7772   4.497   3.745  10.425 -0.4930  0.8659 -0.8534
  523MPD2     N 7773   4.503   3.861   9.994 -0.4011 -0.1898 -0.0475
  523MPD2    H5 7774   4.470   3.952  10.025  2.4932  0.8110  0.0527
  523MPD2    N1 7775   4.647   3.413  10.151 -0.3684 -0.8039 -0.1392
  523MPD2    H7 7776   4.662   3.357  10.234 -1.5339 -0.4968  0.2795
  524TMC3    C1 7777   4.476   3.953   9.769 -0.0653  0.2353 -0.3916
  524TMC3    C2 7778   4.519   3.954   9.639 -0.0096  0.1604  0.6504
  524TMC3    C3 7779   4.503   4.069   9.563 -0.1123  0.2495  0.3833
  524TMC3    C4 7780   4.383   4.047   9.813  0.0408  0.0010 -0.3919
  524TMC3    C5 7781   4.356   4.155   9.727  0.0139 -0.3536  0.7412
  524TMC3    C6 7782   4.424   4.177   9.608  0.3405 -0.3224  0.3733
  524TMC3     C 7783   4.519   3.843   9.857 -0.2502  0.2442 -0.2386
  524TMC3     O 7784   4.569   3.745   9.801  0.4629  0.6661  0.3864
  524TMC3     H 7785   4.605   3.890   9.620 -0.6536 -0.5081 -0.0525
  524TMC3    H1 7786   4.339   4.029   9.911 -0.1480  0.2257 -0.4341
  524TMC3    H2 7787   4.427   4.274   9.560 -4.0865 -1.2075 -1.7059
  524TMC3    C7 7788   4.247   4.233   9.771 -0.1479  0.2640 -0.5111
  524TMC3    C8 7789   4.589   4.099   9.449 -0.0446  0.7397 -0.2915
  524TMC3    O1 7790   4.193   4.200   9.876  0.0223 -0.3976 -0.3356
  524TMC3    O2 7791   4.586   4.210   9.404  0.1177  0.8267  0.7628
  525MPD2     C 7792   2.577   0.139  13.812  0.4356 -0.3560 -0.0281
  525MPD2    C1 7793   2.675   0.142  13.896  0.1801  0.3263  0.3020
  525MPD2    C2 7794   2.773   0.246  13.887 -0.2421 -0.2295 -0.2221
  525MPD2    C3 7795   2.751   0.356  13.801  0.3350 -0.0255 -0.9393
  525MPD2    C4 7796   2.631   0.357  13.743 -0.2521 -0.2942 -0.0814
  525MPD2    C5 7797   2.554   0.248  13.736 -0.2634  0.9648  0.8522
  525MPD2     H 7798   2.860   0.235  13.951 -0.8242 -2.2806  0.2198
  525MPD2    H1 7799   2.605   0.443  13.683  3.4168  1.1935  0.5017
  525MPD2    H2 7800   2.509   0.054  13.818  1.3236 -1.0055  0.9009
  525MPD2    H3 7801   2.462   0.240  13.678  1.3680 -0.9953 -1.4841
  525MPD2     N 7802   2.837   0.468  13.796  0.0789  0.0844 -0.0365
  525MPD2    H5 7803   2.795   0.553  13.758  0.6994  0.0741 -0.7548
  525MPD2    N1 7804   2.682   0.044  14.005 -0.9265  0.4051  0.2633
  525MPD2    H7 7805   2.773   0.038  14.050 -2.1429 -2.0871  2.3569
  526TMC3    C1 7806   2.607   4.660  14.196  0.3390  0.0612  0.1914
  526TMC3    C2 7807   2.531   4.690  14.302  0.2912  0.2639  0.3323
  526TMC3    C3 7808   2.536   4.609  14.417  0.4934 -0.3597  0.2476
  526TMC3    C4 7809   2.694   4.555  14.203 -0.0273 -0.5978 -0.4459
  526TMC3    C5 7810   2.710   4.491  14.321  0.2767 -0.0493  0.2202
  526TMC3    C6 7811   2.619   4.506  14.422  0.2904 -0.1434 -0.6021
  526TMC3     C 7812   2.572   4.715  14.070  0.1924  0.4070  0.6253
  526TMC3     O 7813   2.451   0.011  14.051  0.1300 -0.3180 -0.0444
  526TMC3     H 7814   2.471   0.055  14.293  1.7243  0.8787 -3.2694
  526TMC3    H1 7815   2.726   4.527  14.103 -2.6793  0.5343 -1.6074
  526TMC3    H2 7816   2.630   4.465  14.522 -0.4415  2.1196  0.4254
  526TMC3    C7 7817   2.826   4.401  14.340  0.0462  0.4373  0.3633
  526TMC3    C8 7818   2.458   4.648  14.528  0.5499 -0.3473  0.3627
  526TMC3    O1 7819   2.876   4.358  14.238  0.1175 -0.5450 -0.0006
  526TMC3    O2 7820   2.431   0.043  14.528  0.0476  0.2798 -0.1272
  527MPD2     C 7821   0.039   2.528   1.397  0.4814  0.4674  0.9732
  527MPD2    C1 7822   0.156   2.463   1.436 -0.3501  0.4752 -0.0210
  527MPD2    C2 7823   0.271   2.493   1.369  0.1567  0.5582  0.1499
  527MPD2    C3 7824   0.272   2.560   1.250  0.1713 -0.0740 -0.0513
  527MPD2    C4 7825   0.153   2.616   1.205 -0.8352  0.1282  0.3451
  527MPD2    C5 7826   0.042   2.601   1.284  0.3415 -0.0277  0.3410
  527MPD2     H 7827   0.365   2.466   1.417 -0.2200  0.6429  0.9339
  527MPD2    H1 7828   0.131   2.664   1.110  2.2737  0.8328  0.0016
  527MPD2    H2 7829   4.675   2.521   1.459 -1.6393 -1.7746 -2.3358
  527MPD2    H3 7830   4.676   2.649   1.249 -0.5747 -0.8351  1.6221
  527MPD2     N 7831   0.400   2.561   1.190 -0.3982 -0.1646  0.1804
  527MPD2    H5 7832   0.470   2.504   1.236  0.7539  0.6233 -0.6018
  527MPD2    N1 7833   0.163   2.388   1.550 -0.2790 -0.0205  0.2126
  527MPD2    H7 7834   0.259   2.373   1.581  0.0094  0.2202 -0.5533
  528TMC3    C1 7835   0.086   2.278   1.741 -0.0068  0.2875 -0.1234
  528TMC3    C2 7836   0.206   2.308   1.799  0.9089  0.0155  0.3458
  528TMC3    C3 7837   0.250   2.222   1.893  0.0178  0.2049 -0.8619
  528TMC3    C4 7838   0.005   2.177   1.791  0.2840  0.3576 -1.0753
  528TMC3    C5 7839   0.053   2.107   1.896  0.2773  0.0277 -0.3134
  528TMC3    C6 7840   0.180   2.121   1.943 -0.3518  0.2301  0.9628
  528TMC3     C 7841   0.051   2.331   1.609 -1.2542  0.3080 -0.1956
  528TMC3     O 7842   4.658   2.311   1.570  0.6463  0.4638 -0.5855
  528TMC3     H 7843   0.269   2.391   1.769  2.2744 -1.3965 -0.7005
  528TMC3    H1 7844   4.644   2.151   1.728  0.7775  0.9312 -1.9867
  528TMC3    H2 7845   0.218   2.055   2.021 -1.6876  0.6785  2.0012
  528TMC3    C7 7846   0.000   1.971   1.921 -0.2444  0.2452  0.1103
  528TMC3    C8 7847   0.393   2.246   1.934 -0.6083 -0.1246 -1.3047
  528TMC3    O1 7848   0.078   1.887   1.961 -0.3363 -0.9470 -0.1001
  528TMC3    O2 7849   0.444   2.343   1.878  0.3073  0.4280 -0.1739
  529MPD2     C 7850   2.671   1.797   0.637  0.6079  0.3455 -0.2120
  529MPD2    C1 7851   2.733   1.698   0.565  0.0244  0.0428  0.2697
  529MPD2    C2 7852   2.739   1.697   0.427  0.1429 -0.2692 -0.1267
  529MPD2    C3 7853   2.693   1.799   0.363 -0.0251 -0.0657 -0.1967
  529MPD2    C4 7854   2.616   1.894   0.428  0.4791 -0.1110  0.4612
  529MPD2    C5 7855   2.616   1.900   0.566  0.6344  0.6340  0.2732
  529MPD2     H 7856   2.791   1.619   0.371  1.3386 -0.1255  0.7798
  529MPD2    H1 7857   2.583   1.984   0.378  0.8965 -1.4008 -2.1434
  529MPD2    H2 7858   2.647   1.785   0.742  1.5813 -0.7666 -0.1120
  529MPD2    H3 7859   2.564   1.981   0.617  0.5954 -0.2704  1.6804
  529MPD2     N 7860   2.710   1.819   0.221  0.2177  0.3105  0.0109
  529MPD2    H5 7861   2.661   1.904   0.195  0.0979  0.8270  1.9248
  529MPD2    N1 7862   2.791   1.591   0.628  0.2481 -0.6582 -0.1969
  529MPD2    H7 7863   2.827   1.519   0.566  0.5760  1.7033 -2.7602
  530TMC3    C1 7864   2.885   1.462   0.815  0.5748  0.5099 -0.3027
  530TMC3    C2 7865   2.976   1.467   0.912 -0.3295  0.6410  0.6045
  530TMC3    C3 7866   3.039   1.348   0.959  0.2952  0.1147 -0.9943
  530TMC3    C4 7867   2.841   1.337   0.765  0.2036  0.0911  0.1195
  530TMC3    C5 7868   2.888   1.228   0.829 -0.1222 -0.6337  0.1675
  530TMC3    C6 7869   2.984   1.228   0.927 -0.4305  0.2308 -0.1867
  530TMC3     C 7870   2.827   1.587   0.766  0.2050  0.1173  0.4701
  530TMC3     O 7871   2.824   1.681   0.847 -0.0536 -0.1196 -0.0397
  530TMC3     H 7872   2.997   1.564   0.957 -1.4481 -0.4176  3.4020
  530TMC3    H1 7873   2.768   1.321   0.686  1.3817  1.1859 -1.1910
  530TMC3    H2 7874   3.035   1.134   0.950 -0.2060  0.6953  1.2306
  530TMC3    C7 7875   2.837   1.103   0.778 -0.1257 -0.5945  0.5959
  530TMC3    C8 7876   3.067   1.368   1.106  0.6428  0.2966  0.1267
  530TMC3    O1 7877   2.779   1.094   0.669  0.5090 -0.0618 -0.1005
  530TMC3    O2 7878   3.006   1.452   1.167 -0.0729  0.2778  0.6035
  531MPD2     C 7879   1.911   3.745  12.873  0.3541 -0.6209 -0.3087
  531MPD2    C1 7880   1.789   3.779  12.930 -0.8424  0.1394  0.5432
  531MPD2    C2 7881   1.672   3.733  12.871 -0.0580  0.1317  1.0878
  531MPD2    C3 7882   1.679   3.655  12.757 -0.2144 -0.4232 -0.2949
  531MPD2    C4 7883   1.798   3.611  12.707 -0.2439 -0.7465  0.0319
  531MPD2    C5 7884   1.907   3.654  12.771  0.1470  0.0143  0.8318
  531MPD2     H 7885   1.575   3.756  12.913 -0.0969  2.9484 -0.5988
  531MPD2    H1 7886   1.802   3.539  12.626  0.6180  0.5353 -1.0590
  531MPD2    H2 7887   2.006   3.784  12.908  0.2291 -0.8369  0.2678
  531MPD2    H3 7888   2.004   3.620  12.737 -0.4805 -0.3286 -0.6373
  531MPD2     N 7889   1.551   3.622  12.712 -0.2470 -0.5230 -0.2851
  531MPD2    H5 7890   1.477   3.650  12.776 -0.5306  0.8989 -1.2355
  531MPD2    N1 7891   1.788   3.857  13.045 -0.0736 -0.8242 -0.1151
  531MPD2    H7 7892   1.874   3.874  13.096  1.4164 -2.9079 -1.9860
  532TMC3    C1 7893   1.686   3.982  13.234  0.2870 -0.2928  0.3876
  532TMC3    C2 7894   1.584   4.060  13.269 -0.0920 -1.1867  0.5786
  532TMC3    C3 7895   1.543   4.050  13.397 -0.2948  0.3105  0.0570
  532TMC3    C4 7896   1.765   3.918  13.322  0.2848 -0.5154  0.4376
  532TMC3    C5 7897   1.727   3.920  13.453  0.6285 -0.1246  0.5332
  532TMC3    C6 7898   1.621   3.987  13.494 -0.4457 -0.1915  0.2162
  532TMC3     C 7899   1.678   3.931  13.097  0.0496 -0.0847  0.5778
  532TMC3     O 7900   1.567   3.946  13.046  0.0174  0.2780  0.2711
  532TMC3     H 7901   1.536   4.132  13.203  2.4510 -0.2139 -0.2181
  532TMC3    H1 7902   1.849   3.857  13.289 -0.1929 -0.4924 -0.8371
  532TMC3    H2 7903   1.579   3.970  13.592  1.2556 -2.7584  0.4933
  532TMC3    C7 7904   1.821   3.886  13.561 -0.0148 -0.3186 -0.1365
  532TMC3    C8 7905   1.407   3.998  13.401  0.2008  0.5953 -0.8176
  532TMC3    O1 7906   1.793   3.915  13.678 -0.0463 -0.1389 -0.2160
  532TMC3    O2 7907   1.342   4.011  13.503  0.4577  0.9106  0.4187
  533TMC3    C1 7908   3.014   0.611  13.831  0.1054 -1.0570  0.9855
  533TMC3    C2 7909   3.149   0.626  13.808  0.2003  0.3875 -0.2808
  533TMC3    C3 7910   3.195   0.755  13.810  0.2914 -0.1351 -0.5289
  533TMC3    C4 7911   2.927   0.712  13.863 -0.0776 -0.1440 -0.4686
  533TMC3    C5 7912   2.983   0.837  13.871 -0.3155 -0.0977 -0.1636
  533TMC3    C6 7913   3.113   0.862  13.833  0.5638 -0.7958  0.1174
  533TMC3     C 7914   2.959   0.476  13.851 -0.0128  0.1053 -0.4608
  533TMC3     O 7915   3.036   0.385  13.875  0.7800 -0.0531  0.0664
  533TMC3     H 7916   3.219   0.544  13.800 -0.7903 -0.4490 -0.3544
  533TMC3    H1 7917   2.829   0.684  13.899 -1.0613  2.4838 -1.1162
  533TMC3    H2 7918   3.144   0.965  13.817  2.1422 -1.2235  0.3731
  533TMC3    C7 7919   2.923   0.933  13.959 -0.6267 -0.3336  0.1788
  533TMC3    C8 7920   3.320   0.780  13.881 -0.3410 -1.2810 -0.4730
  533TMC3    O1 7921   2.955   1.049  13.950 -0.0940  0.5033  0.0489
  533TMC3    O2 7922   3.313   0.859  13.969 -0.2352 -0.6227 -0.3562
  534MPD2     C 7923   0.709   1.342   1.451 -0.4139 -0.2735 -1.1619
  534MPD2    C1 7924   0.609   1.394   1.526 -0.6095 -0.5010  0.2898
  534MPD2    C2 7925   0.476   1.367   1.486 -0.5515  0.3294 -0.3792
  534MPD2    C3 7926   0.449   1.292   1.375 -0.5772  0.2215 -0.2552
  534MPD2    C4 7927   0.559   1.249   1.303  0.1657  0.0917  0.3872
  534MPD2    C5 7928   0.688   1.262   1.345  0.9622 -1.1329  0.3872
  534MPD2     H 7929   0.399   1.416   1.545  1.8360  2.8756  0.6426
  534MPD2    H1 7930   0.534   1.190   1.215  1.2255 -0.8071  0.6866
  534MPD2    H2 7931   0.812   1.375   1.457 -0.7145  0.4036  0.3084
  534MPD2    H3 7932   0.765   1.205   1.293  1.7753 -0.2235  0.5834
  534MPD2     N 7933   0.317   1.271   1.323  0.7140  0.5154  0.0453
  534MPD2    H5 7934   0.308   1.234   1.229 -0.1700  1.5197 -0.2582
  534MPD2    N1 7935   0.628   1.493   1.620  0.1356  0.0883 -0.0170
  534MPD2    H7 7936   0.548   1.522   1.676  1.0496  1.4102  0.6223
  535TMC3    C1 7937   0.087   1.345   1.287  0.3304 -0.0040 -0.1371
  535TMC3    C2 7938   4.717   1.411   1.359  0.3824  0.2243 -0.7664
  535TMC3    C3 7939   4.666   1.526   1.318 -0.7480 -0.3262 -0.6612
  535TMC3    C4 7940   0.138   1.411   1.174 -0.1530  0.1153 -0.5753
  535TMC3    C5 7941   0.081   1.527   1.126 -0.0532  0.3152  0.3354
  535TMC3    C6 7942   4.701   1.586   1.197 -0.1588 -0.4075  0.5177
  535TMC3     C 7943   0.201   1.332   1.379 -0.1222  0.4838  0.0717
  535TMC3     O 7944   0.190   1.391   1.487 -0.0060  0.5121  0.1671
  535TMC3     H 7945   4.667   1.359   1.440  1.2627 -1.0620 -1.0397
  535TMC3    H1 7946   0.205   1.358   1.106  1.0827 -0.7675  1.3381
  535TMC3    H2 7947   4.645   1.668   1.154  0.2020  0.2210  1.2535
  535TMC3    C7 7948   0.175   1.602   1.042  0.6261  0.3868 -0.1278
  535TMC3    C8 7949   4.537   1.564   1.377  0.0002 -0.2930 -0.3155
  535TMC3    O1 7950   0.289   1.564   1.032  0.3173 -0.5923  0.0835
  535TMC3    O2 7951   4.478   1.475   1.443 -0.4706  0.5791 -0.0155
  536MPD2     C 7952   3.740   0.223  16.459 -0.3075  0.4430  0.0177
  536MPD2    C1 7953   3.604   0.223  16.484  0.6836 -0.9291  0.4628
  536MPD2    C2 7954   3.517   0.199  16.376  0.2582  0.0872 -0.4492
  536MPD2    C3 7955   3.565   0.168  16.240  0.3829  0.5264  0.2910
  536MPD2    C4 7956   3.701   0.173  16.225  0.7189  0.1837  0.3729
  536MPD2    C5 7957   3.783   0.204  16.334  0.3843 -0.0379 -0.4381
  536MPD2     H 7958   3.411   0.207  16.397  0.1984  2.6314 -1.7098
  536MPD2    H1 7959   3.756   0.153  16.134  0.1117  2.1435 -0.4232
  536MPD2    H2 7960   3.812   0.267  16.527 -0.0471 -2.2747  1.5296
  536MPD2    H3 7961   3.888   0.225  16.315  0.1315  1.9476  0.3627
  536MPD2     N 7962   3.479   0.141  16.129 -0.3043  0.4258 -0.8962
  536MPD2    H5 7963   3.520   0.111  16.041  0.3367 -1.5973  0.0986
  536MPD2    N1 7964   3.560   0.245  16.618  0.4135 -0.4035 -0.2333
  536MPD2    H7 7965   3.627   0.285  16.683  1.2200  0.7153 -1.7824
  537TMC3    C1 7966   3.435   0.230  16.818 -0.0198 -0.0232 -0.1161
  537TMC3    C2 7967   3.513   0.329  16.859  0.1565  0.1676 -0.0257
  537TMC3    C3 7968   3.555   0.327  16.985 -0.4075  1.0028 -0.3789
  537TMC3    C4 7969   3.405   0.122  16.897 -0.5633  0.7676  0.3162
  537TMC3    C5 7970   3.462   0.119  17.019 -0.5236 -0.7777 -0.0988
  537TMC3    C6 7971   3.529   0.228  17.069  0.2688 -0.2377  0.3510
  537TMC3     C 7972   3.430   0.214  16.674 -0.1112  0.7672 -0.0074
  537TMC3     O 7973   3.348   0.139  16.628 -0.3732  0.3197  0.1904
  537TMC3     H 7974   3.546   0.412  16.798  3.3833 -1.4598 -0.4989
  537TMC3    H1 7975   3.349   0.044  16.847  1.0946  0.1923 -0.6385
  537TMC3    H2 7976   3.583   0.205  17.160 -2.2594 -1.1402  1.6418
  537TMC3    C7 7977   3.455   0.005  17.110 -0.3181 -0.6887 -0.5903
  537TMC3    C8 7978   3.669   0.408  17.023 -0.2068 -0.0725 -0.2534
  537TMC3    O1 7979   3.469   0.030  17.234 -0.4189 -0.4097 -0.8485
  537TMC3    O2 7980   3.728   0.372  17.121  0.1819  0.8457  0.0119
  538TMC3    C1 7981   0.700   3.225  10.327  0.0258  0.0840 -0.1776
  538TMC3    C2 7982   0.722   3.224  10.193  0.7737  0.0713  0.3999
  538TMC3    C3 7983   0.609   3.277  10.123  0.5621  0.0373  0.4820
  538TMC3    C4 7984   0.578   3.245  10.383 -0.4181  0.1414  0.0363
  538TMC3    C5 7985   0.469   3.289  10.310  0.3500  0.3722 -0.6203
  538TMC3    C6 7986   0.484   3.317  10.178  0.9820 -0.2144  0.8231
  538TMC3     C 7987   0.808   3.153  10.404  0.1610  0.5538  0.0342
  538TMC3     O 7988   0.908   3.113  10.344  0.3641  0.1640 -0.1428
  538TMC3     H 7989   0.817   3.196  10.149  0.6808 -1.6273  1.2825
  538TMC3    H1 7990   0.556   3.210  10.483  0.5537 -0.4251  0.0596
  538TMC3    H2 7991   0.404   3.363  10.120 -1.2233 -1.9277  2.5138
  538TMC3    C7 7992   0.383   3.382  10.380 -1.3734  0.0592 -0.2759
  538TMC3    C8 7993   0.626   3.333   9.991  0.3966 -0.3092  0.3372
  538TMC3    O1 7994   0.431   3.494  10.393 -0.3508  0.0136  0.3347
  538TMC3    O2 7995   0.531   3.332   9.911  0.7208 -0.2164  0.7677
  539MPD2     C 7996   0.273   2.455  11.653 -0.1308  0.2829 -0.2847
  539MPD2    C1 7997   0.244   2.477  11.519 -0.2154 -0.1638 -0.1248
  539MPD2    C2 7998   0.212   2.609  11.482 -0.5998 -0.1488  0.1706
  539MPD2    C3 7999   0.184   2.699  11.583  0.2669 -0.3253  0.1143
  539MPD2    C4 8000   0.199   2.676  11.717  0.0376  0.3320  0.0702
  539MPD2    C5 8001   0.248   2.552  11.750 -0.5260 -0.3477 -0.0797
  539MPD2     H 8002   0.188   2.643  11.382 -1.6314 -0.5781  0.2684
  539MPD2    H1 8003   0.169   2.744  11.795  0.2751  2.1079 -1.3733
  539MPD2    H2 8004   0.300   2.360  11.698  2.1208  0.6831 -0.8254
  539MPD2    H3 8005   0.266   2.530  11.855 -0.4867  1.9369  0.3900
  539MPD2     N 8006   0.130   2.826  11.548  0.0663  0.2840  0.0197
  539MPD2    H5 8007   0.102   2.886  11.625  0.2022 -0.0530  0.3308
  539MPD2    N1 8008   0.256   2.379  11.419 -0.0454  0.1223 -1.0712
  539MPD2    H7 8009   0.244   2.405  11.321 -1.2284 -3.0924 -1.8050
  540TMC3    C1 8010   0.085   3.023  11.430  0.6774  0.5845  0.4634
  540TMC3    C2 8011   0.085   3.084  11.308 -0.4320 -0.2981 -0.2424
  540TMC3    C3 8012   0.106   3.216  11.301 -0.6429 -0.5347 -1.1738
  540TMC3    C4 8013   0.108   3.091  11.543 -0.3552 -0.0894 -0.3019
  540TMC3    C5 8014   0.150   3.220  11.534  0.3042 -0.0910  0.0312
  540TMC3    C6 8015   0.149   3.289  11.414  0.1255  0.3561  0.7041
  540TMC3     C 8016   0.125   2.884  11.420 -1.0579  0.1973  0.0366
  540TMC3     O 8017   0.139   2.840  11.302 -0.1128 -0.1294 -0.1476
  540TMC3     H 8018   0.035   3.028  11.230 -1.3980 -1.7353  1.4086
  540TMC3    H1 8019   0.112   3.043  11.640  0.5198 -0.4932 -0.5364
  540TMC3    H2 8020   0.173   3.395  11.412  3.2403 -0.3606  0.0019
  540TMC3    C7 8021   0.188   3.300  11.650  0.2146  0.1697  0.6330
  540TMC3    C8 8022   0.148   3.274  11.179 -0.1321  0.1522  0.2732
  540TMC3    O1 8023   0.259   3.398  11.644  0.3743 -0.3076  0.5610
  540TMC3    O2 8024   0.227   3.366  11.186 -0.3310  0.1909 -0.0821
  541MPD2     C 8025   3.021   4.057  13.190 -0.0529  0.2359 -0.6285
  541MPD2    C1 8026   2.937   4.052  13.077 -0.1962 -0.8238  0.2657
  541MPD2    C2 8027   2.961   4.135  12.970  0.1714 -0.2851  1.0382
  541MPD2    C3 8028   3.061   4.233  12.971  0.1208  0.3282  0.0056
  541MPD2    C4 8029   3.148   4.229  13.078 -0.2965  0.6209  0.0964
  541MPD2    C5 8030   3.130   4.148  13.182  0.0207 -0.5870 -0.1801
  541MPD2     H 8031   2.899   4.124  12.882 -0.0113  1.6452  0.9368
  541MPD2    H1 8032   3.237   4.291  13.084  0.5797 -0.6301  0.0076
  541MPD2    H2 8033   3.009   3.993  13.277  3.1428 -1.0550 -1.1323
  541MPD2    H3 8034   3.191   4.150  13.271 -0.8819  2.1500  0.3956
  541MPD2     N 8035   3.079   4.306  12.852 -0.1111 -0.1001 -0.2379
  541MPD2    H5 8036   3.017   4.296  12.773  2.1186 -3.1914 -1.5908
  541MPD2    N1 8037   2.834   3.959  13.089 -0.3778  0.5096  0.0371
  541MPD2    H7 8038   2.847   3.893  13.165  4.6241 -0.9064 -2.0385
  542TMC3    C1 8039   3.180   4.451  12.705 -0.9414  0.0917 -0.2596
  542TMC3    C2 8040   3.147   4.374  12.598 -0.3412  0.9643 -0.0242
  542TMC3    C3 8041   3.141   4.427  12.473 -0.1712 -0.3729  0.4527
  542TMC3    C4 8042   3.223   4.574  12.691  0.2002 -0.4965  0.5601
  542TMC3    C5 8043   3.227   4.631  12.564  0.5017 -0.1993  0.6075
  542TMC3    C6 8044   3.192   4.551  12.456  0.8492 -0.2326 -0.0485
  542TMC3     C 8045   3.175   4.402  12.836  0.0412  0.5348  0.4662
  542TMC3     O 8046   3.233   4.459  12.927  0.1679  0.2297 -0.0910
  542TMC3     H 8047   3.118   4.273  12.626  0.0138  1.3631  1.7740
  542TMC3    H1 8048   3.247   4.628  12.782  0.4900 -0.9979  0.7762
  542TMC3    H2 8049   3.179   4.598  12.359  1.1119 -0.2782 -0.1054
  542TMC3    C7 8050   3.262   0.051  12.559  0.8512  0.1121  0.2801
  542TMC3    C8 8051   3.077   4.364  12.358 -0.9376 -0.0089 -0.8066
  542TMC3    O1 8052   3.257   0.119  12.662  0.0570 -0.4028  0.4894
  542TMC3    O2 8053   3.103   4.414  12.248 -0.6458  0.1426 -0.6901
  543TMC3    C1 8054   1.828   1.046  16.616  0.1715  0.5121 -0.2386
  543TMC3    C2 8055   1.763   0.949  16.689  0.5227 -0.8648  0.7242
  543TMC3    C3 8056   1.764   0.948  16.828  0.1604 -0.6301 -0.3927
  543TMC3    C4 8057   1.893   1.143  16.686 -0.0945  0.2980  0.1212
  543TMC3    C5 8058   1.905   1.135  16.820  0.0743  0.1672 -0.2361
  543TMC3    C6 8059   1.836   1.047  16.895 -0.4404 -0.5910 -0.0514
  543TMC3     C 8060   1.896   0.986  16.506  0.3857 -0.3427  0.2461
  543TMC3     O 8061   2.018   0.999  16.513 -0.0444 -0.6150  0.0511
  543TMC3     H 8062   1.706   0.868  16.644  0.9151 -0.3983 -0.6104
  543TMC3    H1 8063   1.957   1.212  16.631 -1.1255  0.9774 -0.2331
  543TMC3    H2 8064   1.837   1.054  17.003 -2.4215  1.8222 -0.2002
  543TMC3    C7 8065   2.017   1.207  16.880 -0.4004  0.0896 -0.0199
  543TMC3    C8 8066   1.779   0.817  16.884  0.7125 -0.4509 -0.4494
  543TMC3    O1 8067   2.068   1.300  16.815  0.7537  0.3367  0.5208
  543TMC3    O2 8068   1.796   0.726  16.807 -0.0758  0.3456 -0.0161
  544MPD2     C 8069   1.973   0.531  17.255  0.0246  0.4670 -0.8670
  544MPD2    C1 8070   2.010   0.538  17.120 -0.1821 -0.3614  0.4106
  544MPD2    C2 8071   1.939   0.624  17.046 -0.9803 -0.3871  0.5583
  544MPD2    C3 8072   1.837   0.706  17.098 -0.0884 -0.2637 -0.1308
  544MPD2    C4 8073   1.813   0.704  17.230  0.2863  0.2512 -0.3496
  544MPD2    C5 8074   1.877   0.615  17.314  1.1543 -1.4752  0.1307
  544MPD2     H 8075   1.965   0.632  16.941 -0.2401 -2.0908  0.6285
  544MPD2    H1 8076   1.727   0.760  17.264  1.1187 -0.5574  3.0863
  544MPD2    H2 8077   2.008   0.451  17.320 -1.9830  0.5133  0.2883
  544MPD2    H3 8078   1.857   0.608  17.420 -1.7478 -0.4795 -0.3511
  544MPD2     N 8079   1.784   0.816  17.022  0.1782  0.2412 -0.1051
  544MPD2    H5 8080   1.731   0.888  17.069  0.5515  0.3851  0.0894
  544MPD2    N1 8081   2.094   0.437  17.069  0.1902 -0.1064  0.0849
  544MPD2    H7 8082   2.127   0.366  17.134 -2.0836  0.1365  1.5173
  545TMC3    C1 8083   2.227   0.309  16.924  0.1015  0.3555 -0.0145
  545TMC3    C2 8084   2.286   0.305  16.802  0.2084 -0.8336 -0.1518
  545TMC3    C3 8085   2.372   0.208  16.775 -0.9720 -0.3284  0.2663
  545TMC3    C4 8086   2.247   0.214  17.018  1.0124  0.1651  0.5302
  545TMC3    C5 8087   2.324   0.101  16.982  0.3679  0.2216 -0.3901
  545TMC3    C6 8088   2.391   0.102  16.863  0.1553  0.1577 -0.0611
  545TMC3     C 8089   2.144   0.425  16.941 -0.2908 -0.1496 -0.1491
  545TMC3     O 8090   2.140   0.503  16.848 -0.3090 -0.5141  0.7043
  545TMC3     H 8091   2.269   0.385  16.731  1.1709 -0.7392 -0.2799
  545TMC3    H1 8092   2.190   0.213  17.110 -0.6545  0.1300 -0.5041
  545TMC3    H2 8093   2.435   0.010  16.826 -0.5370  0.2444 -1.0957
  545TMC3    C7 8094   2.292   4.704  17.054 -0.0048 -0.5291 -0.0492
  545TMC3    C8 8095   2.395   0.189  16.628  0.2104  0.6082 -0.7636
  545TMC3    O1 8096   2.194   4.723  17.125 -0.1571 -0.2978 -0.5441
  545TMC3    O2 8097   2.300   0.220  16.556  0.3622  0.1963  0.2203
  546MPD2     C 8098   3.641   0.556  17.362  0.3725  0.2046  0.3563
  546MPD2    C1 8099   3.534   0.634  17.318 -0.1947 -0.3643 -0.3110
  546MPD2    C2 8100   3.557   0.770  17.304 -0.3857 -0.0904 -0.0303
  546MPD2    C3 8101   3.674   0.828  17.348 -0.2104  0.1131 -1.1419
  546MPD2    C4 8102   3.771   0.750  17.402 -0.2029  0.3230 -0.4168
  546MPD2    C5 8103   3.758   0.612  17.410 -0.4993 -0.3951 -0.4412
  546MPD2     H 8104   3.491   0.823  17.236  0.3345  0.2066 -0.5045
  546MPD2    H1 8105   3.864   0.798  17.430 -0.4137  0.9855 -0.8570
  546MPD2    H2 8106   3.633   0.448  17.354 -2.4260  0.4967 -0.7069
  546MPD2    H3 8107   3.841   0.551  17.444  1.6209  0.5781 -3.8612
  546MPD2     N 8108   3.705   0.963  17.308 -0.0118 -0.5042  0.0738
  546MPD2    H5 8109   3.800   0.996  17.324 -0.0062 -0.8581  0.7835
  546MPD2    N1 8110   3.423   0.558  17.276 -0.4408 -0.1213 -0.3303
  546MPD2    H7 8111   3.442   0.459  17.267 -0.3015 -0.2090  0.9546
  547TMC3    C1 8112   3.202   0.510  17.172  0.4746 -0.5705  0.0409
  547TMC3    C2 8113   3.098   0.551  17.099  0.3751  0.2134 -0.0208
  547TMC3    C3 8114   3.016   0.456  17.046  0.6608 -0.3070  0.2407
  547TMC3    C4 8115   3.231   0.380  17.199 -0.7726 -0.2751  0.0479
  547TMC3    C5 8116   3.144   0.285  17.149 -0.3863  0.2577  0.5697
  547TMC3    C6 8117   3.043   0.319  17.067 -0.0479  0.0603 -0.1065
  547TMC3     C 8118   3.299   0.606  17.229 -1.2341 -0.6727  0.0768
  547TMC3     O 8119   3.279   0.729  17.223 -0.6848 -0.1409  0.1301
  547TMC3     H 8120   3.094   0.655  17.067  0.2068  0.4209  0.6744
  547TMC3    H1 8121   3.311   0.352  17.266 -2.8850 -1.2121  2.2140
  547TMC3    H2 8122   2.979   0.237  17.038 -0.0288 -0.6144  1.7548
  547TMC3    C7 8123   3.117   0.187  17.252 -0.4219  0.1546 -0.2974
  547TMC3    C8 8124   2.919   0.482  16.946  0.3625  0.1657 -0.6846
  547TMC3    O1 8125   3.137   0.234  17.365  0.2747 -0.1755  0.1714
  547TMC3    O2 8126   2.876   0.384  16.885 -0.3527  0.5305  0.1982
  548MPD2     C 8127   4.057   1.333  12.150  0.2182 -0.2954 -0.7354
  548MPD2    C1 8128   4.024   1.233  12.234  0.7564  0.1845 -0.0282
  548MPD2    C2 8129   4.086   1.110  12.220  0.6333 -0.3562 -0.2528
  548MPD2    C3 8130   4.191   1.087  12.130  0.4767 -0.4199  0.1154
  548MPD2    C4 8131   4.216   1.192  12.041  0.3786  0.2843  0.4458
  548MPD2    C5 8132   4.150   1.310  12.056 -0.0165 -0.0157 -0.0533
  548MPD2     H 8133   4.061   1.030  12.289 -0.3158  0.6733  0.5724
  548MPD2    H1 8134   4.287   1.189  11.959 -0.4328 -2.8581 -0.1223
  548MPD2    H2 8135   4.021   1.435  12.137 -3.0250 -1.2441  0.8643
  548MPD2    H3 8136   4.169   1.396  11.992  1.7376 -1.3338 -1.3187
  548MPD2     N 8137   4.247   0.964  12.139  0.4195  0.2670 -0.3131
  548MPD2    H5 8138   4.219   0.908  12.218 -2.2776  0.0291 -1.4281
  548MPD2    N1 8139   3.908   1.252  12.319 -0.2561  0.2454  0.6139
  548MPD2    H7 8140   3.868   1.345  12.310 -2.6185 -0.6044  2.0768
  549TMC3    C1 8141   3.717   1.189  12.446 -0.2674  0.7176 -0.1099
  549TMC3    C2 8142   3.641   1.282  12.375 -0.2858 -0.2993 -0.5647
  549TMC3    C3 8143   3.513   1.288  12.412 -0.3448  0.7916  0.2362
  549TMC3    C4 8144   3.663   1.103  12.536  1.0810  0.3536 -0.8616
  549TMC3    C5 8145   3.529   1.117  12.570 -0.0644 -0.6129  0.1442
  549TMC3    C6 8146   3.452   1.207  12.506  0.0283 -0.0818 -0.0807
  549TMC3     C 8147   3.851   1.159  12.404  0.0829  0.4149 -0.4825
  549TMC3     O 8148   3.899   1.054  12.447  0.5573  0.1283 -0.4370
  549TMC3     H 8149   3.675   1.335  12.287 -1.2557  0.2851 -0.5903
  549TMC3    H1 8150   3.732   1.040  12.590  0.4947  1.0558  0.7014
  549TMC3    H2 8151   3.353   1.233  12.540 -0.6010 -0.6769 -1.4618
  549TMC3    C7 8152   3.456   1.018  12.656 -0.1950 -0.0022 -0.0018
  549TMC3    C8 8153   3.420   1.389  12.364  0.3129  0.6129 -0.4810
  549TMC3    O1 8154   3.337   1.040  12.683  0.2375  0.1112 -0.4734
  549TMC3    O2 8155   3.297   1.370  12.365  0.2674 -0.3790  0.1193
  550TMC3    C1 8156   1.790   3.678  12.219 -0.4778 -0.5973 -0.1597
  550TMC3    C2 8157   1.783   3.744  12.339 -0.1132  0.4442 -0.2944
  550TMC3    C3 8158   1.898   3.790  12.397 -0.6612  0.7667 -0.4251
  550TMC3    C4 8159   1.916   3.657  12.163  0.4233 -0.1038  0.4565
  550TMC3    C5 8160   2.024   3.717  12.211 -0.3549 -0.3822  0.1256
  550TMC3    C6 8161   2.019   3.791  12.331  0.0765 -0.0935 -0.3003
  550TMC3     C 8162   1.671   3.690  12.134 -0.8337 -0.6362 -0.5041
  550TMC3     O 8163   1.580   3.710  12.205 -0.0853  0.1337  0.0329
  550TMC3     H 8164   1.694   3.761  12.398 -0.7314 -1.1187 -0.7564
  550TMC3    H1 8165   1.932   3.608  12.068 -3.2038  1.6169 -1.0623
  550TMC3    H2 8166   2.105   3.852  12.352  0.7609  0.0541 -3.4837
  550TMC3    C7 8167   2.107   3.769  12.102  0.3374 -0.5275  0.0899
  550TMC3    C8 8168   1.874   3.904  12.481 -0.0422 -0.4015  0.3000
  550TMC3    O1 8169   2.180   3.683  12.052  0.4253 -0.4557 -0.2256
  550TMC3    O2 8170   1.780   3.978  12.441 -0.1977  0.4391 -0.1108
  551TMC3    C1 8171   0.332   1.408  13.051 -0.2140  0.2755  0.0551
  551TMC3    C2 8172   0.437   1.403  12.956 -0.5477  0.4259  0.7721
  551TMC3    C3 8173   0.542   1.491  12.975 -0.2055 -0.5631  0.3860
  551TMC3    C4 8174   0.329   1.489  13.161  0.4264  0.2078  0.0835
  551TMC3    C5 8175   0.452   1.552  13.183  0.8525 -0.3819 -0.8795
  551TMC3    C6 8176   0.556   1.567  13.087  0.5642 -0.5202  0.2693
  551TMC3     C 8177   0.210   1.346  12.992 -0.2356  0.0137  0.2049
  551TMC3     O 8178   0.209   1.318  12.871  0.3136  0.2844  0.0817
  551TMC3     H 8179   0.440   1.327  12.879  2.0452  1.1762  0.1458
  551TMC3    H1 8180   0.244   1.495  13.228 -1.0199 -1.4664 -1.6140
  551TMC3    H2 8181   0.643   1.626  13.110  1.1443 -1.1198 -0.3954
  551TMC3    C7 8182   0.466   1.636  13.294  0.0518 -0.0719 -0.1847
  551TMC3    C8 8183   0.646   1.494  12.874 -0.0221 -0.1085  0.0824
  551TMC3    O1 8184   0.578   1.684  13.319 -0.6447 -0.7180  0.2187
  551TMC3    O2 8185   0.681   1.391  12.820  0.5029 -0.3144  0.2001
  552MPD2     C 8186   1.677   3.709  13.998 -0.0165  0.0215  0.8912
  552MPD2    C1 8187   1.708   3.601  13.919  0.0857 -0.2515  0.2960
  552MPD2    C2 8188   1.819   3.528  13.953  0.7567 -0.7492 -0.0561
  552MPD2    C3 8189   1.896   3.556  14.061 -0.3081  0.1043 -0.9187
  552MPD2    C4 8190   1.857   3.656  14.143 -0.0918 -0.7055 -0.4107
  552MPD2    C5 8191   1.747   3.731  14.114 -0.5317  0.2154  0.5721
  552MPD2     H 8192   1.839   3.440  13.894 -0.2498 -2.3865  2.0352
  552MPD2    H1 8193   1.909   3.678  14.235  0.1854  1.0936 -1.0025
  552MPD2    H2 8194   1.600   3.780  13.971  0.0075 -0.5241 -0.6057
  552MPD2    H3 8195   1.731   3.817  14.178 -3.1813  0.0242  0.1963
  552MPD2     N 8196   1.998   3.475  14.120 -0.2029  0.5347  0.9956
  552MPD2    H5 8197   2.053   3.509  14.199  1.2475  0.0289  0.1899
  552MPD2    N1 8198   1.644   3.572  13.799  0.0071  0.1938 -0.3206
  552MPD2    H7 8199   1.677   3.487  13.753  0.1230 -0.5637  1.1583
  553TMC3    C1 8200   1.471   3.559  13.633 -0.1379  0.5174 -0.1353
  553TMC3    C2 8201   1.430   3.624  13.523 -0.0704 -1.0291 -0.3854
  553TMC3    C3 8202   1.417   3.556  13.405  0.3009  0.1277 -0.0932
  553TMC3    C4 8203   1.496   3.427  13.630 -0.2201 -0.3844  0.1570
  553TMC3    C5 8204   1.473   3.363  13.513  0.1588 -0.2239 -0.0480
  553TMC3    C6 8205   1.402   3.423  13.412  0.1970  0.3646 -0.1030
  553TMC3     C 8206   1.537   3.641  13.742  0.1098 -0.3776  0.1410
  553TMC3     O 8207   1.513   3.760  13.754 -0.2452 -0.2929  0.2944
  553TMC3     H 8208   1.463   3.727  13.519 -1.0006 -0.7189 -0.0941
  553TMC3    H1 8209   1.526   3.372  13.719 -0.5599  0.9652  1.1032
  553TMC3    H2 8210   1.362   3.356  13.336 -1.1340  1.1060 -0.0510
  553TMC3    C7 8211   1.534   3.229  13.479  0.6773  0.2096  0.4632
  553TMC3    C8 8212   1.525   3.596  13.311 -0.1341  0.3015  0.1894
  553TMC3    O1 8213   1.452   3.147  13.438 -0.1540 -0.1223 -0.0134
  553TMC3    O2 8214   1.622   3.653  13.355 -0.1663 -0.6518  0.0327
  554TMC3    C1 8215   3.594   2.388  11.353  0.4027 -0.1188  0.7889
  554TMC3    C2 8216   3.534   2.392  11.228 -0.2984 -0.8431  0.0531
  554TMC3    C3 8217   3.512   2.513  11.161 -0.3908 -0.0535 -0.5729
  554TMC3    C4 8218   3.663   2.499  11.393 -0.4376  0.6257 -0.0127
  554TMC3    C5 8219   3.654   2.617  11.327  0.4796  0.1457 -0.0692
  554TMC3    C6 8220   3.580   2.623  11.206 -0.1044 -0.2082  0.2487
  554TMC3     C 8221   3.603   2.261  11.415 -0.0827  0.4746 -0.1537
  554TMC3     O 8222   3.521   2.176  11.378  0.0155  0.1083 -0.0470
  554TMC3     H 8223   3.503   2.296  11.189  0.6110 -0.6784 -1.0790
  554TMC3    H1 8224   3.724   2.489  11.482 -1.6051  2.7839  1.0303
  554TMC3    H2 8225   3.574   2.719  11.156 -0.5666 -0.0677  0.5824
  554TMC3    C7 8226   3.767   2.711  11.353  0.1095  0.7819 -0.2939
  554TMC3    C8 8227   3.478   2.523  11.018  0.0303  0.1850 -0.0704
  554TMC3    O1 8228   3.829   2.698  11.454  0.0554 -0.6696  0.4613
  554TMC3    O2 8229   3.526   2.615  10.953 -0.8390  0.1381  0.0651
  555TMC3    C1 8230   3.066   2.401  15.134  0.0631 -0.4431 -0.6558
  555TMC3    C2 8231   3.064   2.476  15.250  0.1936  0.3200  0.3297
  555TMC3    C3 8232   3.014   2.416  15.367 -0.6459 -0.3201  0.2797
  555TMC3    C4 8233   3.030   2.271  15.136 -0.0509  0.1623 -0.3829
  555TMC3    C5 8234   2.998   2.215  15.263 -0.3258 -0.7259 -0.0516
  555TMC3    C6 8235   2.971   2.287  15.375  0.2641 -0.8229 -0.2216
  555TMC3     C 8236   3.111   2.463  15.013 -0.0822  0.3691 -0.0921
  555TMC3     O 8237   3.187   2.560  15.035  0.5555 -0.2437 -0.2323
  555TMC3     H 8238   3.099   2.578  15.246  1.0239  0.0349  0.2664
  555TMC3    H1 8239   3.038   2.209  15.047 -2.1493  0.7586 -0.9968
  555TMC3    H2 8240   2.936   2.240  15.466  2.1927 -0.5030  0.6838
  555TMC3    C7 8241   2.948   2.081  15.262 -0.4861 -0.1369 -0.6902
  555TMC3    C8 8242   3.035   2.491  15.493 -0.2437  0.1750  0.6233
  555TMC3    O1 8243   2.862   2.044  15.343 -0.7741 -0.1341 -0.0098
  555TMC3    O2 8244   3.025   2.612  15.484 -0.2144  0.1337 -0.0737
  556MPD2     C 8245   1.891   3.510  10.455 -0.2121 -0.5377  0.2629
  556MPD2    C1 8246   1.769   3.564  10.428  0.0052  0.7584 -0.4743
  556MPD2    C2 8247   1.699   3.532  10.313 -0.3859  0.0471 -0.1672
  556MPD2    C3 8248   1.754   3.450  10.214 -0.1955 -0.9124  0.2242
  556MPD2    C4 8249   1.885   3.404  10.231 -0.4657  0.0266  0.5498
  556MPD2    C5 8250   1.950   3.438  10.350 -0.0519  0.1038 -0.2964
  556MPD2     H 8251   1.601   3.576  10.299  1.3314  3.3357 -1.8403
  556MPD2    H1 8252   1.928   3.343  10.153  1.7864  1.7655  0.4220
  556MPD2    H2 8253   1.953   3.546  10.536  0.3747 -0.9038 -0.0248
  556MPD2    H3 8254   2.048   3.393  10.364  0.0086  0.5567  0.7223
  556MPD2     N 8255   1.678   3.439  10.089 -0.3319  0.1914  0.5314
  556MPD2    H5 8256   1.580   3.469  10.088  0.1612  1.7365 -0.8013
  556MPD2    N1 8257   1.692   3.635  10.526  0.3108 -0.3649  0.6577
  556MPD2    H7 8258   1.597   3.661  10.502  1.4833  4.7080  1.5441
  557TMC3    C1 8259   1.624   3.367   9.864 -0.7733 -0.1187  0.3581
  557TMC3    C2 8260   1.660   3.352   9.738  0.5684  0.1368  0.7201
  557TMC3    C3 8261   1.563   3.339   9.643 -0.4241 -0.1147  0.7437
  557TMC3    C4 8262   1.487   3.386   9.889 -0.0441 -0.0868  0.3347
  557TMC3    C5 8263   1.395   3.385   9.788  0.2594  0.8524  0.5823
  557TMC3    C6 8264   1.429   3.371   9.658 -0.2552  0.7556  0.1620
  557TMC3     C 8265   1.730   3.404   9.966 -0.2068 -0.6809 -0.7658
  557TMC3     O 8266   1.850   3.374   9.940 -0.5622  0.4348  0.5220
  557TMC3     H 8267   1.766   3.338   9.721  0.0629 -0.5343 -1.8377
  557TMC3    H1 8268   1.451   3.405   9.989 -0.6780 -2.6065  0.5580
  557TMC3    H2 8269   1.355   3.364   9.580  3.6362 -0.3108 -3.4153
  557TMC3    C7 8270   1.258   3.411   9.830 -1.9027 -0.1203  0.7150
  557TMC3    C8 8271   1.617   3.306   9.512  1.0378 -0.2725  0.1051
  557TMC3    O1 8272   1.239   3.433   9.950  0.0651 -0.4229  0.4300
  557TMC3    O2 8273   1.736   3.315   9.506  0.7493  0.4986  0.1641
  558TMC3    C1 8274   3.863   1.801   9.741  0.3066 -0.3989  0.1726
  558TMC3    C2 8275   3.757   1.721   9.768 -0.6849  1.1482  0.3990
  558TMC3    C3 8276   3.667   1.690   9.665  0.3381  0.1420 -0.2261
  558TMC3    C4 8277   3.884   1.838   9.615  0.1488  0.6746  0.0164
  558TMC3    C5 8278   3.804   1.799   9.513 -0.2014 -0.6607  0.2910
  558TMC3    C6 8279   3.683   1.739   9.536 -0.2721 -0.2747 -0.5757
  558TMC3     C 8280   3.968   1.817   9.840 -0.3502 -0.3586  0.2718
  558TMC3     O 8281   4.058   1.893   9.807 -0.5616  0.1221 -0.6763
  558TMC3     H 8282   3.726   1.692   9.867  0.6190 -0.0566  0.4475
  558TMC3    H1 8283   3.981   1.886   9.604 -1.0258  2.4495 -2.5105
  558TMC3    H2 8284   3.622   1.700   9.456 -0.6025 -0.5807 -0.1721
  558TMC3    C7 8285   3.859   1.822   9.377  0.2782 -0.0802 -0.0554
  558TMC3    C8 8286   3.535   1.658   9.709  0.2544 -0.2070 -0.2021
  558TMC3    O1 8287   3.944   1.908   9.375  0.0714  1.1458  0.1475
  558TMC3    O2 8288   3.452   1.719   9.642  0.1679  0.6208 -0.6191
  559MPD2     C 8289   3.666   2.327  10.206 -1.0597  0.4776 -0.3664
  559MPD2    C1 8290   3.607   2.245  10.300 -0.0052 -0.4793  0.5667
  559MPD2    C2 8291   3.682   2.217  10.413 -0.1902 -0.0287  0.0602
  559MPD2    C3 8292   3.811   2.264  10.434  0.4222  0.0573 -0.2451
  559MPD2    C4 8293   3.867   2.344  10.335 -0.1645 -0.1326  0.6336
  559MPD2    C5 8294   3.801   2.364  10.218 -0.1225  0.7096  0.3278
  559MPD2     H 8295   3.636   2.149  10.484 -0.4971 -0.3309 -0.4296
  559MPD2    H1 8296   3.970   2.377  10.347 -0.3475  1.3027 -1.8106
  559MPD2    H2 8297   3.618   2.346  10.110  1.0591  0.2406 -1.4675
  559MPD2    H3 8298   3.854   2.429  10.149  3.6727 -0.8555  1.7928
  559MPD2     N 8299   3.866   2.230  10.559 -0.1833  0.5891  0.5423
  559MPD2    H5 8300   3.818   2.163  10.618 -0.6204  0.1318 -0.3431
  559MPD2    N1 8301   3.476   2.188  10.272 -0.0405  0.2305  0.3049
  559MPD2    H7 8302   3.445   2.206  10.177 -2.2606  0.5523  1.0804
  560TMC3    C1 8303   4.018   2.218  10.740  0.6327 -0.4556  0.5003
  560TMC3    C2 8304   3.976   2.091  10.770 -0.3433 -0.0547  0.2416
  560TMC3    C3 8305   4.008   2.033  10.891 -0.5056  0.4849 -0.4352
  560TMC3    C4 8306   4.116   2.276  10.816 -0.4291 -0.2209  0.1108
  560TMC3    C5 8307   4.156   2.212  10.930 -0.4246 -0.7757  0.3509
  560TMC3    C6 8308   4.105   2.090  10.971  0.7823  0.8114  0.3150
  560TMC3     C 8309   3.980   2.284  10.617  0.4293 -0.8406 -0.0043
  560TMC3     O 8310   4.054   2.370  10.570 -0.2906 -0.2536 -0.6227
  560TMC3     H 8311   3.911   2.035  10.704  1.0518  0.2100 -1.3306
  560TMC3    H1 8312   4.147   2.377  10.792 -3.6849  1.2374  2.1192
  560TMC3    H2 8313   4.133   2.043  11.065  0.3446  2.4587  1.2734
  560TMC3    C7 8314   4.245   2.283  11.024  1.4952  0.2472  0.1148
  560TMC3    C8 8315   4.027   1.891  10.889  0.4349  0.1535 -0.0803
  560TMC3    O1 8316   4.217   2.253  11.143  0.3435 -0.0368 -0.5844
  560TMC3    O2 8317   4.128   1.850  10.943  0.5848  0.0170 -0.1311
  561TMC3    C1 8318   1.517   1.011  11.131  0.1666  0.0626 -0.1833
  561TMC3    C2 8319   1.452   0.950  11.231  0.3955  0.3911  0.0405
  561TMC3    C3 8320   1.395   1.035  11.323  0.3263 -0.2024 -0.1004
  561TMC3    C4 8321   1.542   1.149  11.129 -0.3776  0.0088  0.0639
  561TMC3    C5 8322   1.503   1.235  11.232  0.2191  0.2281 -0.3213
  561TMC3    C6 8323   1.420   1.178  11.326  0.2669  0.4286 -0.2471
  561TMC3     C 8324   1.559   0.930  11.015  0.0504 -0.7413  0.0816
  561TMC3     O 8325   1.511   0.813  11.011 -0.0551  0.5429 -0.0671
  561TMC3     H 8326   1.437   0.842  11.225  1.4428  0.2361  0.1428
  561TMC3    H1 8327   1.590   1.189  11.041  1.3822  0.8362  1.4118
  561TMC3    H2 8328   1.385   1.252  11.396 -3.0958 -0.8590 -0.5453
  561TMC3    C7 8329   1.523   1.375  11.235  0.0933 -0.0210  1.0347
  561TMC3    C8 8330   1.374   0.990  11.457  0.2568  0.2792 -0.3632
  561TMC3    O1 8331   1.440   1.451  11.288  0.1852 -0.4923 -0.0719
  561TMC3    O2 8332   1.420   0.881  11.495 -0.2115  0.0256 -0.3629
  562TMC3    C1 8333   2.790   2.378  16.000 -0.3458  0.2262 -0.3044
  562TMC3    C2 8334   2.687   2.459  15.957 -0.4457  0.1498  0.6470
  562TMC3    C3 8335   2.597   2.420  15.862 -0.5214  0.1566 -0.6732
  562TMC3    C4 8336   2.813   2.253  15.952  0.1894 -0.3714 -0.1937
  562TMC3    C5 8337   2.724   2.220  15.852  0.1253  0.1320  0.9083
  562TMC3    C6 8338   2.616   2.297  15.799 -0.0326 -0.7701  1.1886
  562TMC3     C 8339   2.870   2.417  16.107  0.1538 -1.3783 -0.2434
  562TMC3     O 8340   2.922   2.323  16.163  0.1258 -0.2466  0.3941
  562TMC3     H 8341   2.677   2.552  16.012 -2.1067  0.4124 -0.1228
  562TMC3    H1 8342   2.903   2.197  15.976 -0.4793 -1.2777  0.2274
  562TMC3    H2 8343   2.553   2.248  15.725  0.2206  1.4275 -0.4774
  562TMC3    C7 8344   2.720   2.079  15.818 -0.5819 -0.1127  0.4769
  562TMC3    C8 8345   2.491   2.519  15.828 -0.3938 -1.1187 -0.1276
  562TMC3    O1 8346   2.693   2.041  15.705  0.0328 -0.0221 -0.1130
  562TMC3    O2 8347   2.455   2.591  15.918 -0.3806  0.5129  0.1975
  563MPD2     C 8348   4.718   4.378  15.534  0.1634 -0.2240  0.2911
  563MPD2    C1 8349   4.688   4.245  15.547 -1.0077  0.8943 -0.2081
  563MPD2    C2 8350   0.058   4.160  15.593 -0.1103 -0.0594 -1.1323
  563MPD2    C3 8351   0.188   4.205  15.627  0.4950  0.2275  1.1342
  563MPD2    C4 8352   0.221   4.338  15.592 -0.3665  0.2952  0.7514
  563MPD2    C5 8353   0.117   4.423  15.574  0.9830  0.0007 -0.5194
  563MPD2     H 8354   0.051   4.052  15.594  0.9806 -0.1204 -0.4570
  563MPD2    H1 8355   0.311   4.388  15.624  0.2103 -1.0991  1.3080
  563MPD2    H2 8356   4.637   4.447  15.510  0.8494  1.0367  1.6345
  563MPD2    H3 8357   0.125   4.531  15.563 -2.1649  0.5408  2.3323
  563MPD2     N 8358   0.275   4.121  15.691  0.7459  0.3552  0.3114
  563MPD2    H5 8359   0.241   4.027  15.711  0.1844  0.1362 -1.6412
  563MPD2    N1 8360   4.557   4.203  15.511  0.5493 -0.9436 -0.1393
  563MPD2    H7 8361   4.503   4.271  15.457  0.5067  0.5760  1.8206
  564TMC3    C1 8362   4.511   3.983  15.615  0.0735 -0.0324  0.2266
  564TMC3    C2 8363   4.459   3.858  15.592 -0.9778  1.1399 -0.0757
  564TMC3    C3 8364   4.434   3.779  15.703 -0.6237  0.1387  0.2691
  564TMC3    C4 8365   4.542   4.028  15.740 -0.1213  1.1336 -0.5293
  564TMC3    C5 8366   4.537   3.930  15.840 -0.7886  0.2469 -0.3052
  564TMC3    C6 8367   4.477   3.814  15.826  0.0508  0.5603  0.0978
  564TMC3     C 8368   4.510   4.073  15.498 -0.2429 -0.0543  0.0368
  564TMC3     O 8369   4.436   4.037  15.406  0.4961 -0.3909  1.0397
  564TMC3     H 8370   4.421   3.828  15.495  0.7710  0.7942 -0.6498
  564TMC3    H1 8371   4.572   4.129  15.768 -1.4144  1.2558  0.4002
  564TMC3    H2 8372   4.457   3.747  15.909 -2.7742  1.5215  0.1659
  564TMC3    C7 8373   4.625   3.946  15.958 -0.0440  0.1758  0.5776
  564TMC3    C8 8374   4.363   3.653  15.688 -0.1652 -1.0761  0.1845
  564TMC3    O1 8375   4.644   4.063  15.985  0.0777  0.0141 -0.2966
  564TMC3    O2 8376   4.321   3.609  15.792  0.0469 -0.3358 -0.2212
  565TMC3    C1 8377   0.820   1.590   9.210 -0.5761 -0.3137 -0.1466
  565TMC3    C2 8378   0.754   1.542   9.322 -0.4877 -0.1841 -0.6720
  565TMC3    C3 8379   0.617   1.525   9.310  0.0280 -0.1582 -0.3919
  565TMC3    C4 8380   0.754   1.626   9.100 -0.2611  0.6549  0.2049
  565TMC3    C5 8381   0.620   1.598   9.092  0.3002 -0.2845  0.1474
  565TMC3    C6 8382   0.555   1.529   9.187  0.7941  0.5395 -0.1530
  565TMC3     C 8383   0.948   1.659   9.228 -0.5915  0.8937  0.1701
  565TMC3     O 8384   0.970   1.753   9.158  0.4771  0.5775  0.0562
  565TMC3     H 8385   0.809   1.530   9.414  0.5223  2.9402 -0.8722
  565TMC3    H1 8386   0.810   1.673   9.019 -3.3700  0.0555 -2.2916
  565TMC3    H2 8387   0.447   1.516   9.177  0.7055  0.9446  0.2755
  565TMC3    C7 8388   0.531   1.638   8.984  0.6089  0.8018  0.8596
  565TMC3    C8 8389   0.550   1.477   9.433 -0.4031  1.1706  0.0849
  565TMC3    O1 8390   0.418   1.594   8.971  0.0422 -0.2618 -0.4874
  565TMC3    O2 8391   0.616   1.452   9.532 -0.5110 -0.7027  0.1494
  566MPD2     C 8392   2.447   1.604  13.844  0.3814 -0.4176 -0.1197
  566MPD2    C1 8393   2.456   1.733  13.805  0.4791 -0.2524  0.0524
  566MPD2    C2 8394   2.349   1.774  13.721 -0.1008  0.7560  0.3262
  566MPD2    C3 8395   2.246   1.691  13.681 -0.2353  0.1128  0.0104
  566MPD2    C4 8396   2.260   1.561  13.718 -0.0010 -0.2265 -0.0385
  566MPD2    C5 8397   2.355   1.515  13.799 -0.6796 -0.7361  0.2229
  566MPD2     H 8398   2.344   1.880  13.699 -0.0848  0.3539 -1.6057
  566MPD2    H1 8399   2.185   1.485  13.701  0.4638 -0.2988 -1.7958
  566MPD2    H2 8400   2.519   1.568  13.916 -0.6886  1.0843  1.6785
  566MPD2    H3 8401   2.355   1.415  13.841 -0.9603 -1.3669 -1.3079
  566MPD2     N 8402   2.130   1.729  13.607 -0.6479 -0.0491  0.7291
  566MPD2    H5 8403   2.058   1.657  13.597  1.7380 -2.3462  0.0680
  566MPD2    N1 8404   2.562   1.825  13.845  0.1555 -0.0151  0.3252
  566MPD2    H7 8405   2.632   1.791  13.911  0.1848  0.1728  0.3910
  567TMC3    C1 8406   2.685   2.018  13.874 -0.3132  0.7657 -0.7015
  567TMC3    C2 8407   2.729   2.137  13.822  0.4569  0.8762 -0.4656
  567TMC3    C3 8408   2.798   2.232  13.896 -0.1482 -0.0384 -0.5762
  567TMC3    C4 8409   2.722   1.984  14.004  0.2310 -0.8562 -0.1077
  567TMC3    C5 8410   2.788   2.078  14.074  0.3269  0.0484  0.0330
  567TMC3    C6 8411   2.831   2.202  14.029  0.7839  0.4615 -0.0118
  567TMC3     C 8412   2.583   1.956  13.804 -0.2427 -1.1501 -0.9268
  567TMC3     O 8413   2.507   2.021  13.729  0.2435  0.1881 -0.4939
  567TMC3     H 8414   2.698   2.155  13.720  0.4965 -1.2977 -0.8637
  567TMC3    H1 8415   2.691   1.901  14.065  1.1336  1.8907  4.0453
  567TMC3    H2 8416   2.876   2.279  14.091 -1.9580 -0.0070  2.5443
  567TMC3    C7 8417   2.796   2.061  14.220  0.4742 -0.3743  0.3905
  567TMC3    C8 8418   2.815   2.363  13.830  0.2383  0.0548  1.1054
  567TMC3    O1 8419   2.711   1.990  14.276 -0.9416  0.4407  0.1598
  567TMC3    O2 8420   2.775   2.366  13.713  0.2015 -0.0869 -0.7077
  568MPD2     C 8421   0.068   2.478  16.308 -0.3274 -0.1965 -0.2286
  568MPD2    C1 8422   4.718   2.550  16.389  0.5596  0.4927 -1.0882
  568MPD2    C2 8423   4.633   2.649  16.333 -0.1921 -0.4529 -0.3091
  568MPD2    C3 8424   4.629   2.661  16.199 -0.2331  0.5449  0.5771
  568MPD2    C4 8425   4.707   2.578  16.117  0.0518 -0.0273  0.6692
  568MPD2    C5 8426   0.062   2.488  16.175  0.0525 -0.7363  0.3897
  568MPD2     H 8427   4.566   2.707  16.396 -0.8545 -0.6586 -0.8290
  568MPD2    H1 8428   0.000   2.585  16.010 -1.3754  0.2620  0.4522
  568MPD2    H2 8429   0.144   2.408  16.341 -1.9698 -2.5426 -1.4871
  568MPD2    H3 8430   0.133   2.429  16.117 -0.9253 -2.8527  1.3740
  568MPD2     N 8431   4.550   2.761  16.143  0.3016  0.2864 -0.3668
  568MPD2    H5 8432   4.492   2.819  16.202 -2.3044  0.2071 -2.8626
  568MPD2    N1 8433   0.001   2.533  16.531  0.4561  0.0935  0.2892
  568MPD2    H7 8434   4.675   2.601  16.588 -1.4083 -3.0667  2.3879
  569TMC3    C1 8435   4.450   2.882  15.958 -0.0268 -0.3908 -0.2192
  569TMC3    C2 8436   4.419   2.973  16.054  0.1086 -0.2643 -0.4284
  569TMC3    C3 8437   4.308   3.055  16.036 -0.7337  0.0258 -0.6562
  569TMC3    C4 8438   4.373   2.856  15.845 -0.1259  0.5169 -0.9108
  569TMC3    C5 8439   4.277   2.952  15.823  0.3746 -0.1706  0.6502
  569TMC3    C6 8440   4.232   3.039  15.922  0.3546  0.3103 -0.1395
  569TMC3     C 8441   4.536   2.774  16.003  1.5390 -0.1232 -0.4601
  569TMC3     O 8442   4.576   2.704  15.911  0.0972 -0.1932  0.4951
  569TMC3     H 8443   4.486   2.991  16.137  0.4873  0.0864 -0.8102
  569TMC3    H1 8444   4.416   2.799  15.763 -2.3409  0.3756 -1.9547
  569TMC3    H2 8445   4.136   3.088  15.911  0.3885  0.7196  1.4095
  569TMC3    C7 8446   4.276   3.003  15.688  0.0570 -0.2574  0.7921
  569TMC3    C8 8447   4.326   3.196  16.050  0.1865  1.3333  0.6176
  569TMC3    O1 8448   4.312   2.927  15.599 -0.3318  0.3001  0.0191
  569TMC3    O2 8449   4.268   3.266  15.966 -0.2804  0.1112 -0.0031
  570TMC3    C1 8450   3.709   1.255  16.144 -0.1965 -0.0728 -0.2563
  570TMC3    C2 8451   3.782   1.262  16.028 -0.3073  0.2090 -0.5999
  570TMC3    C3 8452   3.877   1.359  16.021  0.4885 -0.2409  0.2838
  570TMC3    C4 8453   3.702   1.366  16.225 -0.0820  0.3290  0.1532
  570TMC3    C5 8454   3.791   1.470  16.208 -0.3948 -0.2253  0.2634
  570TMC3    C6 8455   3.889   1.464  16.112 -0.3367 -0.0963  0.1751
  570TMC3     C 8456   3.614   1.148  16.159  0.2444 -0.1247  0.4728
  570TMC3     O 8457   3.597   1.078  16.061 -0.0988 -0.9949 -0.0863
  570TMC3     H 8458   3.771   1.186  15.952 -0.4776  0.4638 -0.8312
  570TMC3    H1 8459   3.620   1.377  16.295 -0.2124 -3.2114  0.5307
  570TMC3    H2 8460   3.972   1.534  16.116 -1.8889  1.7224  0.6924
  570TMC3    C7 8461   3.765   1.599  16.270 -0.2689  0.0593  0.8574
  570TMC3    C8 8462   3.985   1.353  15.926  0.8509 -0.2631  0.7767
  570TMC3    O1 8463   3.713   1.607  16.382  0.6622  0.0895 -0.1625
  570TMC3    O2 8464   4.062   1.447  15.931  0.3162 -0.1021 -0.7779
  571MPD2     C 8465   1.633   2.431  17.457  0.4155  0.9318  0.0512
  571MPD2    C1 8466   1.669   2.486  17.574  0.2272 -0.2076  0.0728
  571MPD2    C2 8467   1.747   2.601  17.579  0.0505  0.6192  0.2095
  571MPD2    C3 8468   1.794   2.657  17.460 -0.2610  0.2466  0.5816
  571MPD2    C4 8469   1.744   2.603  17.345  0.0285 -0.3833  1.0442
  571MPD2    C5 8470   1.669   2.491  17.345 -0.1195 -0.4052 -0.3415
  571MPD2     H 8471   1.774   2.640  17.676  1.6361 -0.6823  0.2979
  571MPD2    H1 8472   1.769   2.640  17.247 -2.0816  0.5166  0.8363
  571MPD2    H2 8473   1.580   2.338  17.443 -1.9113  2.1566  0.7691
  571MPD2    H3 8474   1.628   2.449  17.254  0.8541 -2.0508 -0.0079
  571MPD2     N 8475   1.896   2.753  17.452  0.4259 -0.0707  0.7198
  571MPD2    H5 8476   1.926   2.783  17.359 -1.2531 -1.7243 -0.3520
  571MPD2    N1 8477   1.620   2.423  17.693 -0.0516 -0.1485 -0.7164
  571MPD2    H7 8478   1.609   2.323  17.693  2.2544 -0.3831  0.3776
  572TMC3    C1 8479   2.065   2.900  17.522  0.0590  1.2120 -0.6715
  572TMC3    C2 8480   2.158   2.912  17.625 -0.0729 -0.1052  0.4452
  572TMC3    C3 8481   2.231   3.026  17.638 -0.6451  0.1884  0.6156
  572TMC3    C4 8482   2.057   2.999  17.428 -0.0165 -0.0940  0.2484
  572TMC3    C5 8483   2.134   3.113  17.443 -0.3686  0.4484 -0.6062
  572TMC3    C6 8484   2.236   3.121  17.540  0.1394  0.7085 -0.2646
  572TMC3     C 8485   1.963   2.811  17.562  0.4862 -0.3401  0.1229
  572TMC3     O 8486   1.949   2.797  17.683 -0.2994  0.7918  0.0017
  572TMC3     H 8487   2.158   2.838   0.005  1.6992  0.9109  1.3848
  572TMC3    H1 8488   1.983   3.001  17.349  0.5728 -1.7867 -0.3509
  572TMC3    H2 8489   2.289   3.215  17.556  1.4488  0.6924 -4.5245
  572TMC3    C7 8490   2.074   3.236  17.408  0.7784  0.1471  0.3739
  572TMC3    C8 8491   2.265   3.078   0.069 -0.3581 -0.4978  0.3281
  572TMC3    O1 8492   1.952   3.235  17.409  0.3863 -0.3339  0.8314
  572TMC3    O2 8493   2.363   3.150   0.065  0.6144 -0.5814  0.1799
  573MPD2     C 8494   2.633   3.842   0.405  0.2238 -0.4302  0.3132
  573MPD2    C1 8495   2.756   3.882   0.347 -0.9517  0.4548  0.4863
  573MPD2    C2 8496   2.768   3.902   0.211  0.2964  0.4425  0.5445
  573MPD2    C3 8497   2.662   3.869   0.129 -0.3379 -0.4504 -0.3201
  573MPD2    C4 8498   2.537   3.835   0.176 -0.4140  0.1650 -0.7913
  573MPD2    C5 8499   2.522   3.827   0.313 -0.0045  0.1942  0.0027
  573MPD2     H 8500   2.865   3.932   0.172  2.3813 -3.2937  2.8822
  573MPD2    H1 8501   2.452   3.807   0.116  0.2164 -0.4054 -1.4136
  573MPD2    H2 8502   2.613   3.830   0.511 -0.0566  0.3055  0.3440
  573MPD2    H3 8503   2.427   3.790   0.350  0.2259 -0.5152 -0.1130
  573MPD2     N 8504   2.685   3.870  17.686 -0.4090 -0.0191  0.0399
  573MPD2    H5 8505   2.606   3.840  17.630  0.0414 -1.0639 -0.0294
  573MPD2    N1 8506   2.864   3.899   0.437  0.1058  0.1296  0.1353
  573MPD2    H7 8507   2.840   3.872   0.532  2.1993  2.4365  1.3278
  574TMC3    C1 8508   2.773   3.913  17.472  0.7071  0.0545  0.1997
  574TMC3    C2 8509   2.647   3.921  17.422 -0.5121  0.4170 -0.2441
  574TMC3    C3 8510   2.627   3.977  17.294  0.0000 -0.2074 -0.4793
  574TMC3    C4 8511   2.878   3.953  17.393  0.1383  0.1547  0.0275
  574TMC3    C5 8512   2.854   3.993  17.263 -0.0731 -0.2650 -0.5891
  574TMC3    C6 8513   2.729   4.011  17.207 -0.0465 -0.4302  0.5527
  574TMC3     C 8514   2.792   3.910  17.617 -0.3300  0.3016  0.0734
  574TMC3     O 8515   2.905   3.949  17.650 -0.2666  0.4171  0.6862
  574TMC3     H 8516   2.559   3.922  17.485  0.9690 -2.6119  1.8610
  574TMC3    H1 8517   2.981   3.952  17.425  0.5251 -0.4180 -1.2495
  574TMC3    H2 8518   2.722   4.065  17.113  0.9885 -0.8911  0.2157
  574TMC3    C7 8519   2.968   4.034  17.180  0.1554  1.0992 -0.7677
  574TMC3    C8 8520   2.496   4.038  17.280 -0.4087 -0.0762 -0.2826
  574TMC3    O1 8521   3.065   4.093  17.231  0.2841 -0.1054  0.5000
  574TMC3    O2 8522   2.407   4.013  17.358 -0.4920 -0.6342  0.2033
  575TMC3    C1 8523   0.453   0.868  10.077 -0.4967 -0.0501 -0.1794
  575TMC3    C2 8524   0.340   0.792  10.061 -0.7171 -0.3085  0.3529
  575TMC3    C3 8525   0.262   0.824   9.954 -0.6236  0.4227 -0.2303
  575TMC3    C4 8526   0.467   0.978   9.996 -0.1572  0.3472 -0.1855
  575TMC3    C5 8527   0.380   1.001   9.890  0.0034  0.6209 -0.7147
  575TMC3    C6 8528   0.274   0.926   9.863  0.3956  0.3065 -0.1963
  575TMC3     C 8529   0.570   0.820  10.148  0.5724 -0.4032  0.2489
  575TMC3     O 8530   0.672   0.890  10.156 -0.1679 -0.2738 -0.0820
  575TMC3     H 8531   0.312   0.700  10.112 -1.1339  0.3771  1.3481
  575TMC3    H1 8532   0.557   1.038  10.004  0.3739 -0.1819 -2.1266
  575TMC3    H2 8533   0.222   0.938   9.769  0.4260 -0.1646 -0.2752
  575TMC3    C7 8534   0.409   1.107   9.798 -0.4564 -0.1535 -0.7852
  575TMC3    C8 8535   0.171   0.722   9.913 -0.2943 -0.1215 -0.0287
  575TMC3    O1 8536   0.520   1.122   9.742 -0.0514 -0.3342  0.3326
  575TMC3    O2 8537   0.196   0.608   9.946 -0.7173  0.1173 -0.2988
  576MPD2     C 8538   0.550   1.643  12.519  0.2112 -0.1597 -0.7361
  576MPD2    C1 8539   0.608   1.738  12.437 -0.3600 -0.7262  0.6077
  576MPD2    C2 8540   0.603   1.870  12.483  0.1014  0.4065 -0.0939
  576MPD2    C3 8541   0.530   1.911  12.601 -0.7980  0.0740  0.1344
  576MPD2    C4 8542   0.464   1.811  12.667  0.2849  0.4333  0.4866
  576MPD2    C5 8543   0.475   1.683  12.623 -0.1550  0.2331  1.0739
  576MPD2     H 8544   0.660   1.939  12.422 -0.3714 -0.5841 -1.6588
  576MPD2    H1 8545   0.413   1.826  12.761 -0.7334 -1.4369  0.2140
  576MPD2    H2 8546   0.542   1.537  12.498  1.2671 -0.1587 -1.1174
  576MPD2    H3 8547   0.431   1.602  12.679 -1.0397 -0.6344 -0.8928
  576MPD2     N 8548   0.531   2.040  12.646  0.1124 -0.2018  0.2879
  576MPD2    H5 8549   0.570   2.111  12.585 -3.7308  1.4702 -0.2028
  576MPD2    N1 8550   0.681   1.703  12.322 -0.4878 -0.2666 -0.4029
  576MPD2    H7 8551   0.722   1.782  12.273 -0.4118  0.5889  1.0422
  577TMC3    C1 8552   0.803   1.569  12.168 -0.4407 -0.3709  0.6748
  577TMC3    C2 8553   0.867   1.452  12.140  0.2200  0.4135 -0.0189
  577TMC3    C3 8554   0.952   1.446  12.031  0.0784  0.2534 -0.7428
  577TMC3    C4 8555   0.807   1.667  12.077  0.4153  0.0531  0.2141
  577TMC3    C5 8556   0.906   1.672  11.986 -0.1505 -0.1574 -0.3430
  577TMC3    C6 8557   0.975   1.556  11.949 -0.7506  0.2691 -0.0123
  577TMC3     C 8558   0.710   1.575  12.286 -0.6061 -0.0856  1.0460
  577TMC3     O 8559   0.688   1.472  12.351  0.0789 -0.2245 -0.4250
  577TMC3     H 8560   0.848   1.374  12.213  1.1382 -1.2682 -1.5582
  577TMC3    H1 8561   0.743   1.754  12.091 -0.0684 -0.0466 -1.3245
  577TMC3    H2 8562   1.056   1.548  11.878 -1.0551  0.3307 -0.3630
  577TMC3    C7 8563   0.885   1.760  11.871 -0.4965 -0.0755 -0.4703
  577TMC3    C8 8564   1.016   1.312  12.015 -0.0477  0.4234 -0.0861
  577TMC3    O1 8565   0.774   1.810  11.865  0.0435 -0.1411  0.1863
  577TMC3    O2 8566   1.037   1.250  12.119  0.1685 -0.0300 -0.6128
  578MPD2     C 8567   3.059   1.830   1.155 -0.1840  0.4945  0.2058
  578MPD2    C1 8568   3.153   1.792   1.059  0.1938  0.4771 -0.8330
  578MPD2    C2 8569   3.271   1.731   1.098 -0.4509  0.2444 -0.3488
  578MPD2    C3 8570   3.293   1.704   1.232  0.3398  0.5851  0.0010
  578MPD2    C4 8571   3.202   1.744   1.323 -0.2223 -0.1353  0.7697
  578MPD2    C5 8572   3.087   1.812   1.284 -0.8282  0.9542 -0.5904
  578MPD2     H 8573   3.340   1.700   1.021  0.5621  2.3403 -0.2952
  578MPD2    H1 8574   3.211   1.727   1.430 -0.9751  0.0691  0.8669
  578MPD2    H2 8575   2.965   1.878   1.128  0.6880  1.8269 -0.5163
  578MPD2    H3 8576   3.013   1.832   1.360 -1.5583  1.8927 -1.5365
  578MPD2     N 8577   3.410   1.633   1.263  0.3289 -0.6634  0.2073
  578MPD2    H5 8578   3.468   1.598   1.188  0.4511 -1.5446  0.7138
  578MPD2    N1 8579   3.118   1.824   0.928  0.2156 -0.3327 -0.5745
  578MPD2    H7 8580   3.031   1.877   0.922  0.3071  0.0783  1.7823
  579TMC3    C1 8581   3.596   1.588   1.410  0.2610  0.6729 -0.3876
  579TMC3    C2 8582   3.680   1.660   1.488 -0.5111 -0.0218 -0.2312
  579TMC3    C3 8583   3.807   1.614   1.496  1.1363  0.3239  0.2072
  579TMC3    C4 8584   3.624   1.478   1.338  0.2055  0.2371  0.4339
  579TMC3    C5 8585   3.754   1.442   1.344 -0.5855  0.1356  0.9081
  579TMC3    C6 8586   3.846   1.506   1.424  0.6769 -0.0988 -0.7145
  579TMC3     C 8587   3.461   1.637   1.390  0.0240  0.2058  0.5489
  579TMC3     O 8588   3.427   1.704   1.492  0.3143 -0.3846 -0.2306
  579TMC3     H 8589   3.639   1.744   1.544  1.6014  0.3674  0.7347
  579TMC3    H1 8590   3.543   1.417   1.298  1.7398 -0.0215 -2.2529
  579TMC3    H2 8591   3.945   1.464   1.432  0.2755 -0.4192  2.3747
  579TMC3    C7 8592   3.802   1.317   1.294  0.1404  0.6666 -0.2364
  579TMC3    C8 8593   3.906   1.716   1.514  0.5303  0.2973 -0.1225
  579TMC3    O1 8594   3.906   1.267   1.329 -0.0000  0.2290  0.2239
  579TMC3    O2 8595   3.870   1.830   1.502  0.0212  0.2145 -0.4934
  580TMC3    C1 8596   4.060   0.985  11.835  0.8433 -0.0787  0.4782
  580TMC3    C2 8597   4.178   0.967  11.768  0.4144 -0.3831 -0.6757
  580TMC3    C3 8598   4.225   0.843  11.741 -0.5170  0.6881 -0.0538
  580TMC3    C4 8599   4.012   0.878  11.908  0.0495 -0.2730 -0.1106
  580TMC3    C5 8600   4.061   0.757  11.878  0.0342  0.3506  0.2594
  580TMC3    C6 8601   4.165   0.738  11.795 -0.6997  0.1575 -0.4465
  580TMC3     C 8602   3.984   1.104  11.804  0.2056 -0.6447 -0.1519
  580TMC3     O 8603   4.033   1.173  11.713 -0.6039  0.6185 -0.9793
  580TMC3     H 8604   4.229   1.049  11.719  1.5626 -0.9452 -0.4206
  580TMC3    H1 8605   3.929   0.881  11.978  1.6475 -0.4356  1.7647
  580TMC3    H2 8606   4.189   0.635  11.770  1.3286  0.8895 -1.5108
  580TMC3    C7 8607   4.000   0.644  11.940 -0.0291  0.2065 -0.0915
  580TMC3    C8 8608   4.324   0.813  11.638 -0.2462  0.6568 -0.0892
  580TMC3    O1 8609   3.961   0.650  12.058  0.1719  0.3338 -0.3969
  580TMC3    O2 8610   4.300   0.702  11.588 -0.4401  0.2274  0.5696
  581MPD2     C 8611   1.051   0.538  15.388  0.1705  0.1017 -0.8932
  581MPD2    C1 8612   1.044   0.461  15.273 -0.8432 -1.1858  0.4954
  581MPD2    C2 8613   0.961   0.510  15.174 -0.2947 -0.6019  0.0132
  581MPD2    C3 8614   0.896   0.634  15.179  0.3836 -0.0673 -0.1352
  581MPD2    C4 8615   0.915   0.701  15.296 -0.3410 -0.2502  0.2021
  581MPD2    C5 8616   0.987   0.656  15.399 -0.1640  0.8791 -0.6266
  581MPD2     H 8617   0.961   0.455  15.080 -1.2415 -3.1620  1.5045
  581MPD2    H1 8618   0.864   0.797  15.299 -1.1704 -0.6809 -0.0933
  581MPD2    H2 8619   1.120   0.512  15.467 -0.7029  0.7742  0.0887
  581MPD2    H3 8620   1.003   0.720  15.485 -0.4260 -1.2507  1.0162
  581MPD2     N 8621   0.827   0.695  15.072 -0.8158  0.1250  0.3884
  581MPD2    H5 8622   0.799   0.791  15.089 -0.0624  0.8088 -2.1406
  581MPD2    N1 8623   1.100   0.333  15.272  0.3476  0.7624 -0.3220
  581MPD2    H7 8624   1.167   0.322  15.348 -1.1810  0.3296  0.9526
  582TMC3    C1 8625   1.158   0.108  15.223  0.3102  0.1586 -0.7392
  582TMC3    C2 8626   1.183   0.114  15.359 -0.1830 -0.0935  0.5788
  582TMC3    C3 8627   1.115   0.022  15.438 -0.0017 -0.4271  0.8034
  582TMC3    C4 8628   1.086   0.005  15.165  0.2431 -0.2444  0.3753
  582TMC3    C5 8629   1.014   4.650  15.251  1.0049  0.8860  0.3571
  582TMC3    C6 8630   1.029   4.651  15.386 -0.5899  0.2559  0.4791
  582TMC3     C 8631   1.095   0.234  15.171 -0.7360  0.2102 -0.0361
  582TMC3     O 8632   1.032   0.228  15.069  1.0657  0.5165 -0.5712
  582TMC3     H 8633   1.245   0.189  15.407  1.4973 -0.5031 -0.9914
  582TMC3    H1 8634   1.076   4.720  15.058  0.4582  1.1284  0.2337
  582TMC3    H2 8635   0.984   4.584  15.459  0.1440  0.6071  1.2511
  582TMC3    C7 8636   0.872   4.634  15.213 -0.8162  0.1925  0.8266
  582TMC3    C8 8637   1.064   0.056  15.573  0.1657  0.1696  0.0691
  582TMC3    O1 8638   0.843   4.678  15.103 -0.3871 -0.0386 -0.7072
  582TMC3    O2 8639   1.010   0.165  15.585 -0.5545  0.2782  0.6099
  583MPD2     C 8640   1.079   1.995  16.539 -0.6193 -0.2317  0.3385
  583MPD2    C1 8641   1.046   2.123  16.515 -0.0735 -0.6076 -0.0425
  583MPD2    C2 8642   1.000   2.204  16.612  0.4687  0.8925 -0.2185
  583MPD2    C3 8643   0.978   2.155  16.735  0.8291 -0.1287  0.0756
  583MPD2    C4 8644   1.027   2.035  16.772  0.2947  0.0221 -0.2243
  583MPD2    C5 8645   1.070   1.951  16.672 -0.1792 -1.1206  0.1091
  583MPD2     H 8646   0.974   2.307  16.593  1.5302  0.5826 -3.3455
  583MPD2    H1 8647   1.033   2.002  16.875  1.3065 -0.0929 -0.3142
  583MPD2    H2 8648   1.120   1.925  16.467  1.3073  1.1071  0.1344
  583MPD2    H3 8649   1.105   1.853  16.701 -2.2597 -1.4072  1.6374
  583MPD2     N 8650   0.907   2.234  16.824 -0.5457 -0.1412  0.7660
  583MPD2    H5 8651   0.894   2.331  16.796 -0.0191 -0.8323 -1.8692
  583MPD2    N1 8652   1.058   2.180  16.381  0.3600  0.2524  0.1864
  583MPD2    H7 8653   1.022   2.275  16.377 -1.6303 -0.4994 -0.0692
  584TMC3    C1 8654   0.825   2.295  17.039 -0.5666 -0.7606  0.5292
  584TMC3    C2 8655   0.871   2.426  17.022 -0.8212  0.5501  0.6370
  584TMC3    C3 8656   0.827   2.518  17.118  1.1475  0.0969  0.3693
  584TMC3    C4 8657   0.747   2.249  17.146  0.0796  0.0321  0.1074
  584TMC3    C5 8658   0.717   2.348  17.234 -0.5803  0.1664 -0.2063
  584TMC3    C6 8659   0.759   2.473  17.229  0.5560  0.2681  0.1261
  584TMC3     C 8660   0.875   2.191  16.948  0.1311 -0.1120  0.5485
  584TMC3     O 8661   0.852   2.077  16.991 -0.0039  0.3415  0.0580
  584TMC3     H 8662   0.938   2.464  16.946  0.3175 -0.2091  1.2687
  584TMC3    H1 8663   0.729   2.143  17.159  3.0279 -0.2815  1.6291
  584TMC3    H2 8664   0.742   2.539  17.313 -1.3135 -0.2776  0.1758
  584TMC3    C7 8665   0.696   2.303  17.369 -0.0395  0.0691  0.5945
  584TMC3    C8 8666   0.802   2.653  17.074  1.1030  0.0600 -0.0402
  584TMC3    O1 8667   0.759   2.208  17.405 -0.9126  0.1902  0.7638
  584TMC3    O2 8668   0.803   2.664  16.953 -0.3271  0.6337  0.6879
  585MPD2     C 8669   0.426   1.415   0.769 -0.1791 -0.5538 -0.2546
  585MPD2    C1 8670   0.521   1.440   0.673  0.2445 -0.4376 -0.3153
  585MPD2    C2 8671   0.492   1.404   0.550 -0.5552  0.1069 -0.1618
  585MPD2    C3 8672   0.374   1.349   0.508 -0.2035 -0.1488 -0.2710
  585MPD2    C4 8673   0.281   1.322   0.605 -0.8096 -0.0596  0.3783
  585MPD2    C5 8674   0.307   1.361   0.736  0.2059  0.1976 -0.3532
  585MPD2     H 8675   0.553   1.446   0.469  0.9593 -0.3499  0.7421
  585MPD2    H1 8676   0.185   1.273   0.591  0.1244 -1.5775 -0.7065
  585MPD2    H2 8677   0.447   1.448   0.870  1.9746  2.2247 -1.6155
  585MPD2    H3 8678   0.228   1.353   0.810 -0.5762  1.8537 -1.0089
  585MPD2     N 8679   0.338   1.328   0.370 -0.1136  0.4014 -0.4640
  585MPD2    H5 8680   0.245   1.304   0.338  0.0138  0.3731 -0.8096
  585MPD2    N1 8681   0.628   1.525   0.709 -0.1000 -0.3672 -0.3341
  585MPD2    H7 8682   0.625   1.573   0.798  2.6323 -1.5306  0.3899
  586TMC3    C1 8683   0.362   1.311   0.144 -0.1406 -0.7036  0.0300
  586TMC3    C2 8684   0.440   1.265   0.043  0.2089 -0.2081 -0.2050
  586TMC3    C3 8685   0.383   1.259  17.625 -0.1601  0.9129 -0.0914
  586TMC3    C4 8686   0.238   1.362   0.126  0.1792 -0.1088  0.2677
  586TMC3    C5 8687   0.181   1.349   0.002  0.1094  0.8115  0.4776
  586TMC3    C6 8688   0.253   1.308  17.594  0.3175  0.6367 -0.4140
  586TMC3     C 8689   0.429   1.333   0.268 -0.1618  0.5164  0.1701
  586TMC3     O 8690   0.550   1.331   0.273 -0.0876 -0.2972  0.0164
  586TMC3     H 8691   0.534   1.219   0.069  1.7048  1.6846 -2.2983
  586TMC3    H1 8692   0.170   1.395   0.203  1.5925  0.0549  1.4382
  586TMC3    H2 8693   0.212   1.296  17.494  1.4585  0.5815 -0.8796
  586TMC3    C7 8694   0.038   1.368  17.686 -0.9575  0.0487  0.5167
  586TMC3    C8 8695   0.456   1.179  17.526 -0.1038 -0.1844  0.3620
  586TMC3    O1 8696   4.702   1.470   0.022  0.5928  0.1449 -0.4053
  586TMC3    O2 8697   0.548   1.111  17.570 -0.0908 -0.4437  0.3554
  587TMC3    C1 8698   2.102   3.987  16.156  0.6163 -0.1745  0.1573
  587TMC3    C2 8699   2.134   4.117  16.180  0.5400  0.0001 -0.2798
  587TMC3    C3 8700   2.265   4.149  16.161 -0.9955  0.7719 -0.8358
  587TMC3    C4 8701   2.194   3.893  16.117  0.2076 -0.7655 -0.1250
  587TMC3    C5 8702   2.326   3.928  16.100 -0.1050  0.5734 -0.2437
  587TMC3    C6 8703   2.361   4.059  16.111 -0.4671  0.9843  0.0199
  587TMC3     C 8704   1.966   3.942  16.170 -0.6018 -0.7784  0.2406
  587TMC3     O 8705   1.954   3.818  16.174  0.2902  0.0330 -0.0163
  587TMC3     H 8706   2.062   4.194  16.207  0.4931 -0.0185 -0.3523
  587TMC3    H1 8707   2.154   3.803  16.073 -0.0433  0.0916 -1.6724
  587TMC3    H2 8708   2.455   4.098  16.075  0.5561  0.0573  1.7274
  587TMC3    C7 8709   2.419   3.853  16.020 -0.9456  0.4667 -0.0875
  587TMC3    C8 8710   2.293   4.291  16.124 -0.0116 -0.6263  0.0992
  587TMC3    O1 8711   2.374   3.786  15.933 -0.2718 -0.2370 -0.0811
  587TMC3    O2 8712   2.372   4.319  16.035 -0.4748 -0.7666  0.5386
  588TMC3    C1 8713   0.497   2.544   9.543 -0.3081  0.2230 -0.7205
  588TMC3    C2 8714   0.441   2.422   9.530  0.0002  0.8979 -0.0778
  588TMC3    C3 8715   0.522   2.319   9.580 -0.2318 -0.7443 -0.3155
  588TMC3    C4 8716   0.619   2.576   9.595 -0.1828 -0.7364 -0.5805
  588TMC3    C5 8717   0.689   2.472   9.649 -0.0827  0.2314  0.4233
  588TMC3    C6 8718   0.644   2.341   9.646 -0.2990 -0.0098 -0.1072
  588TMC3     C 8719   0.434   2.654   9.476  0.5500 -0.2134 -0.6726
  588TMC3     O 8720   0.313   2.668   9.472 -0.0672  0.5827  0.2443
  588TMC3     H 8721   0.349   2.409   9.476  0.5238  0.4016 -0.8553
  588TMC3    H1 8722   0.647   2.679   9.614  0.4159 -1.0108  0.0011
  588TMC3    H2 8723   0.707   2.256   9.670 -1.8356 -1.4030 -1.0627
  588TMC3    C7 8724   0.828   2.502   9.697  0.1059  1.0017 -0.0539
  588TMC3    C8 8725   0.473   2.183   9.563  0.5110  0.2996 -0.0609
  588TMC3    O1 8726   0.894   2.431   9.773  0.0302  0.4635  0.0207
  588TMC3    O2 8727   0.380   2.156   9.483 -0.0896 -0.0436 -0.1176
  589TMC3    C1 8728   3.772   4.364   0.869  0.0159  0.0766 -0.6925
  589TMC3    C2 8729   3.855   4.333   0.978  0.2298  0.0810  0.8027
  589TMC3    C3 8730   3.966   4.258   0.964 -0.5130  0.6208  0.6779
  589TMC3    C4 8731   3.807   4.315   0.751  0.3578  0.2440 -0.0474
  589TMC3    C5 8732   3.924   4.248   0.732  0.6440 -0.2107 -0.4610
  589TMC3    C6 8733   4.009   4.232   0.834 -0.1514  0.1450 -0.6604
  589TMC3     C 8734   3.665   4.465   0.875 -0.4960  0.6404 -0.0798
  589TMC3     O 8735   3.581   4.463   0.786  0.0268 -0.2693  0.2906
  589TMC3     H 8736   3.799   4.338   1.071  0.7250  0.4500  1.0845
  589TMC3    H1 8737   3.755   4.342   0.660 -0.8913  0.7700  0.8276
  589TMC3    H2 8738   4.097   4.180   0.799 -0.8741 -0.4436 -1.6090
  589TMC3    C7 8739   3.936   4.158   0.620 -0.6365  0.5399  1.4387
  589TMC3    C8 8740   4.012   4.164   1.068  0.0788 -0.4115  0.2238
  589TMC3    O1 8741   3.868   4.054   0.630  0.2548  0.8810 -0.4616
  589TMC3    O2 8742   3.954   4.153   1.179  0.1845  0.4852 -0.0207
  590MPD2     C 8743   3.452   3.122  16.495  0.2170 -0.1037 -0.5643
  590MPD2    C1 8744   3.419   3.157  16.362  0.1083  0.0388 -1.1114
  590MPD2    C2 8745   3.529   3.199  16.278  0.0322 -0.0323 -0.3389
  590MPD2    C3 8746   3.659   3.202  16.327 -0.8947  0.2304  0.0087
  590MPD2    C4 8747   3.676   3.178  16.463  0.0992  0.6756  0.2171
  590MPD2    C5 8748   3.575   3.140  16.540  0.3577  0.0825 -0.6404
  590MPD2     H 8749   3.514   3.225  16.174 -0.4411  0.3507 -0.1707
  590MPD2    H1 8750   3.777   3.162  16.500  0.1284 -1.9443 -0.9845
  590MPD2    H2 8751   3.375   3.087  16.563 -0.7367  1.6837 -0.7372
  590MPD2    H3 8752   3.596   3.098  16.637  1.3968  0.7745 -0.5652
  590MPD2     N 8753   3.765   3.243  16.243 -0.6966  0.4135 -0.4741
  590MPD2    H5 8754   3.753   3.241  16.142 -0.1446  3.5506 -0.6038
  590MPD2    N1 8755   3.280   3.144  16.323 -0.9136 -0.0762  0.0183
  590MPD2    H7 8756   3.216   3.129  16.400  1.0574  1.9602  2.0718
  591TMC3    C1 8757   3.957   3.342  16.180  0.4670 -0.1548  0.3358
  591TMC3    C2 8758   3.949   3.303  16.046 -0.0593  0.0124  0.0743
  591TMC3    C3 8759   3.994   3.404  15.958  0.0864  0.2972 -0.3138
  591TMC3    C4 8760   4.013   3.462  16.223 -0.4280 -0.1815 -0.1405
  591TMC3    C5 8761   4.058   3.553  16.124  0.3853 -0.1629  0.7445
  591TMC3    C6 8762   4.056   3.522  15.995  0.4533 -0.7188 -0.5755
  591TMC3     C 8763   3.887   3.279  16.283 -0.0197  0.2245 -0.4880
  591TMC3     O 8764   3.943   3.279  16.394 -0.1125  0.4719  0.3832
  591TMC3     H 8765   3.907   3.209  16.011  0.8777 -0.5659  0.5197
  591TMC3    H1 8766   4.004   3.495  16.326  0.3130  0.6334 -0.3380
  591TMC3    H2 8767   4.110   3.578  15.919  1.5809  0.4363  1.0832
  591TMC3    C7 8768   4.106   3.683  16.165 -0.0500  0.0017  0.3448
  591TMC3    C8 8769   3.961   3.384  15.820  0.2868 -0.6388  0.2415
  591TMC3    O1 8770   4.105   3.715  16.284  0.2798 -0.9904 -0.7726
  591TMC3    O2 8771   3.949   3.270  15.780  0.4108 -0.1361  0.0196
  592MPD2     C 8772   4.424   0.211  11.099  0.7995 -1.4167 -0.0134
  592MPD2    C1 8773   4.430   0.259  11.225 -0.5234  0.3333 -0.0246
  592MPD2    C2 8774   4.351   0.198  11.316  0.2549  0.0820 -0.5031
  592MPD2    C3 8775   4.263   0.096  11.281  0.0537 -0.2435 -0.2405
  592MPD2    C4 8776   4.253   0.058  11.147 -0.0554 -0.5468 -0.3697
  592MPD2    C5 8777   4.337   0.113  11.063  0.2913  0.1013  0.4625
  592MPD2     H 8778   4.342   0.240  11.416 -2.9564 -0.0671 -0.7219
  592MPD2    H1 8779   4.181   4.711  11.109 -0.1002 -1.1163  0.8011
  592MPD2    H2 8780   4.492   0.250  11.024 -3.3003  0.1175 -2.9233
  592MPD2    H3 8781   4.340   0.079  10.960  2.3034  1.3786  0.1063
  592MPD2     N 8782   4.174   0.056  11.385 -0.1914  0.6119  0.0894
  592MPD2    H5 8783   4.195   0.091  11.478  0.8724  2.5522 -0.8917
  592MPD2    N1 8784   4.521   0.363  11.261 -0.5393  0.2754  0.1243
  592MPD2    H7 8785   4.565   0.404  11.179 -0.3494  1.1170  0.6501
  593TMC3    C1 8786   4.628   0.522  11.392  0.0714  0.2182 -0.1552
  593TMC3    C2 8787   4.643   0.580  11.513 -0.5143  0.0813  0.3905
  593TMC3    C3 8788   4.705   0.699  11.518  0.6676  0.0012 -0.1177
  593TMC3    C4 8789   4.668   0.584  11.275  0.1373 -0.0628  0.2709
  593TMC3    C5 8790   0.013   0.697  11.290  0.2699 -0.5980 -1.2904
  593TMC3    C6 8791   0.042   0.755  11.410  0.2081  0.3872 -0.5716
  593TMC3     C 8792   4.541   0.407  11.387 -0.0038  0.3630 -0.2534
  593TMC3     O 8793   4.498   0.379  11.493 -0.6208 -0.0421 -0.1801
  593TMC3     H 8794   4.601   0.540  11.606 -0.7976 -0.1918  0.1464
  593TMC3    H1 8795   4.684   0.525  11.185 -0.7822  0.3731 -0.1660
  593TMC3    H2 8796   0.084   0.855  11.402 -2.0935  1.3862 -0.0450
  593TMC3    C7 8797   0.079   0.761  11.179 -0.0706 -0.5733  0.8321
  593TMC3    C8 8798   4.722   0.762  11.649 -0.2162 -0.1298  0.3345
  593TMC3    O1 8799   0.164   0.850  11.206  0.1331 -0.0846 -0.3105
  593TMC3    O2 8800   4.665   0.716  11.743  0.8330 -0.2910  0.1636
  594MPD2     C 8801   2.577   3.514  13.802 -0.4180  0.4557 -0.6210
  594MPD2    C1 8802   2.589   3.492  13.932  0.5992  0.0287 -0.5714
  594MPD2    C2 8803   2.704   3.528  13.995 -0.1116 -0.0462  0.3837
  594MPD2    C3 8804   2.815   3.582  13.932  0.3728 -0.0034 -0.3171
  594MPD2    C4 8805   2.805   3.591  13.795 -0.1052  0.5815 -0.3180
  594MPD2    C5 8806   2.689   3.562  13.731  0.3425 -0.0864  0.8918
  594MPD2     H 8807   2.721   3.496  14.098  1.6561  1.2971  0.4914
  594MPD2    H1 8808   2.887   3.630  13.736 -1.8134  1.8875 -1.8359
  594MPD2    H2 8809   2.497   3.467  13.745 -0.6434  2.3084 -1.8290
  594MPD2    H3 8810   2.696   3.553  13.624  2.9371  0.3061  1.0253
  594MPD2     N 8811   2.923   3.625  14.013  0.4061  0.0433 -0.0830
  594MPD2    H5 8812   2.913   3.597  14.111 -0.9761  2.4537  0.4671
  594MPD2    N1 8813   2.483   3.422  13.994 -0.1508  0.4666  0.5829
  594MPD2    H7 8814   2.403   3.419  13.933  0.8884 -0.1567 -0.7521
  595TMC3    C1 8815   3.330   3.830  14.153 -0.6474 -0.6523 -0.5644
  595TMC3    C2 8816   3.254   3.783  14.050  0.1513 -0.1027  0.1090
  595TMC3    C3 8817   3.123   3.742  14.078  0.4208  0.9448 -0.0216
  595TMC3    C4 8818   3.288   3.851  14.281 -0.8719  0.7259 -0.0539
  595TMC3    C5 8819   3.148   3.832  14.298 -0.1362  1.0293 -0.1814
  595TMC3    C6 8820   3.074   3.769  14.207 -0.3791 -0.1734  0.0935
  595TMC3     C 8821   3.449   3.899  14.131 -0.8309 -0.0162 -0.0038
  595TMC3     O 8822   3.537   3.879  14.214  0.5512  0.4996  0.0330
  595TMC3     H 8823   3.286   3.786  13.947 -0.0535 -0.9041  0.0256
  595TMC3    H1 8824   3.342   3.906  14.356 -0.1703 -0.1958  0.1247
  595TMC3    H2 8825   2.970   3.748  14.228 -0.7262 -2.2290 -3.6152
  595TMC3    C7 8826   3.075   3.937  14.360 -0.6398  0.8582 -0.4191
  595TMC3    C8 8827   3.027   3.702  13.971 -0.4042 -0.2180  0.4893
  595TMC3    O1 8828   2.966   3.960  14.310 -0.4985 -0.0683  0.7508
  595TMC3    O2 8829   3.049   3.748  13.854  0.4722 -0.2583 -0.2866
  596MPD2     C 8830   1.781   1.958  16.489 -0.0345 -0.7505 -0.9007
  596MPD2    C1 8831   1.760   2.086  16.441  0.0486 -0.3746  0.1766
  596MPD2    C2 8832   1.766   2.104  16.307  0.2211  0.1596  0.1874
  596MPD2    C3 8833   1.800   2.005  16.215  0.0020 -0.3194 -0.3574
  596MPD2    C4 8834   1.804   1.872  16.260  0.4460  0.7042 -0.3725
  596MPD2    C5 8835   1.806   1.859  16.397  0.1432  0.0282 -0.1950
  596MPD2     H 8836   1.747   2.200  16.262 -3.8389  0.1093  1.8254
  596MPD2    H1 8837   1.831   1.792  16.191 -0.0609 -2.0180  2.5516
  596MPD2    H2 8838   1.787   1.929  16.593 -2.2617  0.5989 -0.3948
  596MPD2    H3 8839   1.833   1.763  16.438  0.4837  1.8060  3.7706
  596MPD2     N 8840   1.791   2.024  16.071 -0.5996  0.1166 -0.3619
  596MPD2    H5 8841   1.798   1.935  16.023 -1.4735  0.3578 -0.9339
  596MPD2    N1 8842   1.766   2.197  16.523  0.1212  0.1308  0.2704
  596MPD2    H7 8843   1.744   2.286  16.479 -0.7743  0.3995  1.2588
  597TMC3    C1 8844   1.752   2.332  16.701 -0.1050  0.0780 -0.5109
  597TMC3    C2 8845   1.811   2.426  16.623 -0.0278 -0.2780 -0.4899
  597TMC3    C3 8846   1.764   2.550  16.646  0.6331  0.0951  0.5743
  597TMC3    C4 8847   1.657   2.344  16.796 -0.0904 -0.2165  0.0834
  597TMC3    C5 8848   1.618   2.471  16.813  0.3122  0.4070  0.3915
  597TMC3    C6 8849   1.658   2.574  16.731  0.7953 -0.2382  0.3384
  597TMC3     C 8850   1.758   2.194  16.664 -0.7568 -0.3318 -0.2454
  597TMC3     O 8851   1.759   2.105  16.748 -0.0142  0.4199  0.1273
  597TMC3     H 8852   1.901   2.407  16.566  0.3614  2.5294 -0.7787
  597TMC3    H1 8853   1.631   2.270  16.871 -0.5717  0.3364  0.4587
  597TMC3    H2 8854   1.629   2.675  16.754  0.6134  0.2119 -1.8181
  597TMC3    C7 8855   1.521   2.492  16.922  0.3351  0.2675  0.3768
  597TMC3    C8 8856   1.837   2.666  16.588  0.5865  0.2601  0.2956
  597TMC3    O1 8857   1.507   2.400  17.000  0.0535 -0.0901  0.3567
  597TMC3    O2 8858   1.811   2.783  16.628  0.0226  0.2637 -0.2208
  598TMC3    C1 8859   0.316   3.467  15.080 -0.1251  0.0532 -0.5884
  598TMC3    C2 8860   0.265   3.343  15.067 -0.0596 -0.0019 -0.4751
  598TMC3    C3 8861   0.269   3.287  14.944 -0.2174  0.4068 -1.0730
  598TMC3    C4 8862   0.368   3.536  14.969 -0.2847  0.4733 -0.5101
  598TMC3    C5 8863   0.384   3.471  14.852 -0.1798 -1.2708 -1.2162
  598TMC3    C6 8864   0.328   3.348  14.840 -0.0585  0.8347  0.0422
  598TMC3     C 8865   0.318   3.533  15.212 -0.4095 -0.2503  0.3346
  598TMC3     O 8866   0.390   3.632  15.221  0.1500 -0.2341 -0.0168
  598TMC3     H 8867   0.211   3.300  15.151  0.7522  0.0715  0.0802
  598TMC3    H1 8868   0.403   3.638  14.986 -0.9680  0.6586 -0.2154
  598TMC3    H2 8869   0.347   3.295  14.748 -0.1357 -3.1284  2.2886
  598TMC3    C7 8870   0.420   3.543  14.733 -0.1312 -0.8280  1.0852
  598TMC3    C8 8871   0.200   3.165  14.904  0.0037 -0.4053 -0.3887
  598TMC3    O1 8872   0.409   3.480  14.630  0.2381 -0.0721 -0.3819
  598TMC3    O2 8873   0.193   3.137  14.785  0.1140  0.6160  0.0747
  599MPD2     C 8874   0.061   1.327  15.745  0.7117 -0.3061 -0.2233
  599MPD2    C1 8875   0.026   1.200  15.789  0.4326 -0.6377 -0.2087
  599MPD2    C2 8876   4.631   1.182  15.855  0.6000  0.0659 -0.1113
  599MPD2    C3 8877   4.561   1.298  15.884 -0.5935  0.1990 -0.2062
  599MPD2    C4 8878   4.604   1.425  15.848  0.3996  0.4375 -0.1943
  599MPD2    C5 8879   4.713   1.438  15.782 -0.5989 -0.2172  0.2392
  599MPD2     H 8880   4.594   1.083  15.879 -2.0221  0.7619 -1.2865
  599MPD2    H1 8881   4.549   1.514  15.877 -2.1009 -0.3368 -2.4985
  599MPD2    H2 8882   0.156   1.338  15.695  0.4845 -1.8393 -0.9673
  599MPD2    H3 8883   0.022   1.536  15.752 -2.2288 -0.1551 -1.3184
  599MPD2     N 8884   4.439   1.300  15.958  0.4827 -0.2346  0.3656
  599MPD2    H5 8885   4.398   1.392  15.967  1.0503  0.2214 -1.7202
  599MPD2    N1 8886   0.114   1.096  15.744 -0.0357  0.0822  0.4661
  599MPD2    H7 8887   0.197   1.119  15.690 -0.0617  1.6292  1.0851
  600TMC3    C1 8888   4.254   1.233  16.099 -0.1316  0.0081 -0.0681
  600TMC3    C2 8889   4.182   1.122  16.135  0.2929  0.5268  0.1894
  600TMC3    C3 8890   4.107   1.138  16.246 -0.2832 -0.2781 -0.2844
  600TMC3    C4 8891   4.271   1.343  16.181  0.2393 -1.2757  0.2602
  600TMC3    C5 8892   4.190   1.353  16.293 -0.0014  0.8813  0.1155
  600TMC3    C6 8893   4.106   1.251  16.319 -0.2431 -0.5116  0.3082
  600TMC3     C 8894   4.368   1.192  16.013 -0.3098  0.4081 -0.4887
  600TMC3     O 8895   4.390   1.070  15.995  0.3894 -0.0655  0.3070
  600TMC3     H 8896   4.196   1.022  16.097  3.1079  0.4100  1.5270
  600TMC3    H1 8897   4.328   1.430  16.153 -0.1321 -1.1082  0.0301
  600TMC3    H2 8898   4.026   1.269  16.390 -0.5853  1.8606 -0.6546
  600TMC3    C7 8899   4.172   1.470  16.371 -0.3559 -0.0702  0.0432
  600TMC3    C8 8900   4.020   1.030  16.284 -0.2868  0.1068  0.0678
  600TMC3    O1 8901   4.055   1.496  16.403  0.0601  0.1911 -0.3256
  600TMC3    O2 8902   3.951   0.978  16.199  0.4073  0.1371 -0.0013
  601MPD2     C 8903   2.099   3.724  17.277  0.0815  0.8188  0.7221
  601MPD2    C1 8904   1.997   3.660  17.338  0.3988  0.4667 -0.4886
  601MPD2    C2 8905   2.009   3.523  17.362 -0.1801 -0.2353  0.4235
  601MPD2    C3 8906   2.134   3.462  17.339 -0.4309  0.4752  0.3889
  601MPD2    C4 8907   2.240   3.529  17.280  0.4337 -0.9214 -0.0422
  601MPD2    C5 8908   2.218   3.662  17.248  0.0850  0.4700 -0.2702
  601MPD2     H 8909   1.928   3.467  17.405 -0.7029  0.0644 -0.1733
  601MPD2    H1 8910   2.325   3.479  17.235  0.0504  0.0928 -1.8647
  601MPD2    H2 8911   2.083   3.826  17.247 -1.7029  0.2204 -0.3532
  601MPD2    H3 8912   2.296   3.716  17.194  1.7206 -0.9321  0.7070
  601MPD2     N 8913   2.166   3.333  17.383  0.1596 -0.6046  0.0118
  601MPD2    H5 8914   2.263   3.305  17.376  0.5972  0.9177  0.0489
  601MPD2    N1 8915   1.880   3.738  17.372 -0.3454  0.5878 -0.0675
  601MPD2    H7 8916   1.806   3.684  17.418 -1.2385  0.9647 -1.0748
  602TMC3    C1 8917   1.753   3.922  17.446  0.2943 -0.1419 -0.4160
  602TMC3    C2 8918   1.765   4.038  17.523 -0.6347 -0.1501  1.0771
  602TMC3    C3 8919   1.655   4.118  17.539  0.7532 -0.4623 -0.3194
  602TMC3    C4 8920   1.634   3.864  17.412  0.2489 -0.7895  0.2593
  602TMC3    C5 8921   1.530   3.951  17.427  0.0581  0.8263  0.2241
  602TMC3    C6 8922   1.539   4.076  17.489 -0.0435  0.1662 -0.2233
  602TMC3     C 8923   1.871   3.877  17.384 -0.0649 -0.4976 -0.8185
  602TMC3     O 8924   1.955   3.968  17.368 -0.0214 -0.1512  0.0955
  602TMC3     H 8925   1.864   4.075  17.548  0.0758  0.1122 -2.0716
  602TMC3    H1 8926   1.613   3.783  17.343 -1.2752 -1.3768  1.4081
  602TMC3    H2 8927   1.451   4.131  17.518 -1.9353 -1.7154 -2.3226
  602TMC3    C7 8928   1.394   3.918  17.381 -0.6962 -0.2666 -0.8141
  602TMC3    C8 8929   1.678   4.256  17.548 -0.4005  0.1053 -0.0994
  602TMC3    O1 8930   1.360   3.800  17.398  0.5395  0.5864 -0.2793
  602TMC3    O2 8931   1.773   4.302  17.611 -0.6510  0.1651  0.7893
  603TMC3    C1 8932   1.002   4.381  10.479  0.2046  0.0627 -0.4271
  603TMC3    C2 8933   1.013   4.377  10.616 -0.1248  0.5538 -0.3652
  603TMC3    C3 8934   0.969   4.485  10.682  0.3068  0.0931 -0.0997
  603TMC3    C4 8935   0.965   4.491  10.412  0.2347  0.1366 -0.3719
  603TMC3    C5 8936   0.941   4.610  10.476 -0.2166  0.9635  0.8205
  603TMC3    C6 8937   0.935   4.602  10.616 -0.6278 -0.4921 -0.3941
  603TMC3     C 8938   1.082   4.275  10.411 -0.3466 -0.5801 -0.9565
  603TMC3     O 8939   1.083   4.160  10.458  0.4277  0.4987  0.4338
  603TMC3     H 8940   1.067   4.293  10.657 -0.6492  0.5231  0.2656
  603TMC3    H1 8941   0.981   4.492  10.305  2.0259 -2.4676 -0.1398
  603TMC3    H2 8942   0.885   4.678  10.675  3.2776  1.4047  0.4771
  603TMC3    C7 8943   0.843   4.694  10.420 -0.1340  0.2969 -0.2741
  603TMC3    C8 8944   0.932   4.455  10.820 -1.2239 -0.5232  0.3803
  603TMC3    O1 8945   0.852   0.084  10.467 -0.0792  0.0758  0.0535
  603TMC3    O2 8946   0.953   4.340  10.858 -0.3339 -0.5563  0.0448
  604MPD2     C 8947   0.839   3.213  16.044 -1.0234  0.2865 -0.6562
  604MPD2    C1 8948   0.729   3.157  15.983  0.2547  0.4334 -0.0745
  604MPD2    C2 8949   0.755   3.097  15.865 -0.2666 -0.4175  0.2158
  604MPD2    C3 8950   0.880   3.084  15.810  0.7271 -0.7836 -0.0533
  604MPD2    C4 8951   0.989   3.156  15.868 -0.1839 -0.1505  1.1254
  604MPD2    C5 8952   0.965   3.208  15.987 -0.0301 -0.2677  0.3192
  604MPD2     H 8953   0.674   3.050  15.810 -0.5515  0.0459  0.2349
  604MPD2    H1 8954   1.084   3.163  15.817 -1.2739  1.9438 -0.6057
  604MPD2    H2 8955   0.814   3.259  16.139  0.0662 -0.8256  0.1588
  604MPD2    H3 8956   1.049   3.244  16.045  0.3562  0.3990 -0.6447
  604MPD2     N 8957   0.888   3.015  15.688 -0.1235  0.3974  0.8148
  604MPD2    H5 8958   0.801   2.983  15.647 -1.0259 -1.1948  4.0490
  604MPD2    N1 8959   0.615   3.156  16.057  0.7394  0.0574  0.2181
  604MPD2    H7 8960   0.614   3.199  16.150 -3.3124 -1.7505  1.0052
  605TMC3    C1 8961   0.403   3.116  16.124  0.6817  0.1147  0.5856
  605TMC3    C2 8962   0.445   3.091  16.251  0.6161 -0.3332 -0.2838
  605TMC3    C3 8963   0.416   3.187  16.343  0.7921  0.3100 -0.2025
  605TMC3    C4 8964   0.315   3.222  16.097 -0.5367 -0.1856 -0.0369
  605TMC3    C5 8965   0.277   3.309  16.200 -0.2336 -0.0946 -0.0199
  605TMC3    C6 8966   0.326   3.294  16.326  0.0265 -0.1642 -0.4185
  605TMC3     C 8967   0.501   3.085  16.028  0.0897 -0.0222 -0.3417
  605TMC3     O 8968   0.470   3.047  15.913 -0.4280 -0.2826  0.0570
  605TMC3     H 8969   0.516   3.012  16.267  0.5371 -0.1801  0.8237
  605TMC3    H1 8970   0.319   3.260  15.996 -0.3937  2.3222  0.9159
  605TMC3    H2 8971   0.287   3.354  16.407 -2.6020  0.2772 -2.0012
  605TMC3    C7 8972   0.206   3.435  16.162  1.0410  0.3533  0.3926
  605TMC3    C8 8973   0.535   3.220  16.408 -0.3223 -0.6491  0.1881
  605TMC3    O1 8974   0.165   3.450  16.044  0.0133  0.4678 -0.7289
  605TMC3    O2 8975   0.635   3.192  16.344 -0.7367  0.0430  0.0203
  606TMC3    C1 8976   1.994   1.945  16.864  0.6250 -0.0120 -0.1853
  606TMC3    C2 8977   1.964   1.966  16.995  0.3060  0.2732 -0.4415
  606TMC3    C3 8978   1.870   1.882  17.052 -0.4587  0.0262 -0.1933
  606TMC3    C4 8979   1.938   1.848  16.788  0.4781 -0.1455 -0.1509
  606TMC3    C5 8980   1.849   1.765  16.854 -0.3282 -0.8000  0.0027
  606TMC3    C6 8981   1.805   1.787  16.981 -0.2884 -0.2399  0.5845
  606TMC3     C 8982   2.072   2.046  16.796 -0.3535 -0.4047 -0.3410
  606TMC3     O 8983   2.130   2.123  16.870  0.8085  0.5129 -0.0779
  606TMC3     H 8984   2.002   2.053  17.046 -0.3318  0.9357 -1.0859
  606TMC3    H1 8985   1.969   1.821  16.688  0.7696  0.6923 -0.2811
  606TMC3    H2 8986   1.730   1.724  17.029  0.0694  1.8515  3.8591
  606TMC3    C7 8987   1.788   1.663  16.768  0.0642  0.3493  0.0922
  606TMC3    C8 8988   1.890   1.842  17.187 -1.0927  0.2526 -0.6035
  606TMC3    O1 8989   1.781   1.681  16.651  0.4090  0.0261 -0.4193
  606TMC3    O2 8990   1.795   1.797  17.250  0.1975  0.4125  0.1128
  607MPD2     C 8991   4.421   4.562  11.542 -0.2428  0.6490  0.0794
  607MPD2    C1 8992   4.501   4.595  11.653  0.3741 -0.0384  0.7201
  607MPD2    C2 8993   4.484   4.532  11.774 -0.1222 -0.3161  0.0490
  607MPD2    C3 8994   4.392   4.430  11.784  0.0243 -0.3934 -0.1391
  607MPD2    C4 8995   4.303   4.394  11.678  0.3022 -0.3262  0.2711
  607MPD2    C5 8996   4.322   4.461  11.553 -0.0729 -0.0867 -0.1799
  607MPD2     H 8997   4.553   4.551  11.855  0.6393  1.0762 -0.9287
  607MPD2    H1 8998   4.227   4.317  11.681  1.6302 -1.6962 -1.4474
  607MPD2    H2 8999   4.430   4.621  11.452 -0.9391 -0.4393 -0.7051
  607MPD2    H3 9000   4.268   4.424  11.466 -1.3697 -0.7322  0.8989
  607MPD2     N 9001   4.388   4.363  11.906  0.2854  0.1618  0.5795
  607MPD2    H5 9002   4.439   4.401  11.985  1.1102  1.0363 -0.3586
  607MPD2    N1 9003   4.600   4.695  11.641 -0.1658  0.0783 -0.1704
  607MPD2    H7 9004   4.662   4.707  11.720 -0.2207 -3.8753  0.4983
  608TMC3    C1 9005   0.005   0.148  11.570 -0.2346 -0.2702  0.4985
  608TMC3    C2 9006   0.031   0.153  11.704  0.0888  0.2501  0.0815
  608TMC3    C3 9007   0.143   0.216  11.746  0.7836 -0.1175  0.0650
  608TMC3    C4 9008   0.084   0.207  11.481 -0.3583  0.0807  0.1155
  608TMC3    C5 9009   0.182   0.300  11.529 -0.7655  0.1383  0.4755
  608TMC3    C6 9010   0.216   0.298  11.659  0.2411  0.4646  0.2680
  608TMC3     C 9011   4.619   0.056  11.533  0.1950  0.0564 -0.0969
  608TMC3     O 9012   4.573   0.070  11.422 -0.2337 -0.7878  0.3252
  608TMC3     H 9013   4.691   0.124  11.786 -1.3624 -0.8653 -1.4624
  608TMC3    H1 9014   0.054   0.209  11.377 -1.4131  1.5161  0.4374
  608TMC3    H2 9015   0.296   0.350  11.710 -0.3792  0.7055  0.9950
  608TMC3    C7 9016   0.234   0.406  11.436  0.2297  0.1875  0.8891
  608TMC3    C8 9017   0.231   0.137  11.842 -0.4846  0.0523  0.0691
  608TMC3    O1 9018   0.213   0.387  11.317  0.0549  0.8627 -0.2649
  608TMC3    O2 9019   0.353   0.165  11.839  0.1671  0.1847 -0.5790
  609TMC3    C1 9020   3.791   3.769   9.236  0.6142  0.3386 -0.2574
  609TMC3    C2 9021   3.836   3.890   9.185  0.2469 -0.3282 -0.2751
  609TMC3    C3 9022   3.968   3.900   9.152  0.2142  0.4497 -0.3705
  609TMC3    C4 9023   3.878   3.667   9.245 -0.1826 -0.0651 -0.0270
  609TMC3    C5 9024   4.007   3.685   9.209  0.4656  0.6312  0.3667
  609TMC3    C6 9025   4.060   3.798   9.158 -0.2897  0.3009 -0.3558
  609TMC3     C 9026   3.675   3.770   9.322  0.7487  1.1009 -0.6786
  609TMC3     O 9027   3.655   3.673   9.401 -0.1291 -0.2103  0.6124
  609TMC3     H 9028   3.772   3.974   9.159  0.7498 -0.1852 -1.0673
  609TMC3    H1 9029   3.855   3.574   9.296  1.0172 -0.0855  0.4815
  609TMC3    H2 9030   4.165   3.820   9.140 -0.1829  0.5768  0.6079
  609TMC3    C7 9031   4.096   3.574   9.221 -0.9097 -0.9038  0.4626
  609TMC3    C8 9032   4.002   4.033   9.105  0.4253 -0.2230  0.5624
  609TMC3    O1 9033   4.085   3.497   9.320  0.3675 -0.4043  0.0490
  609TMC3    O2 9034   3.932   4.128   9.133  0.1037  0.2487 -0.1877
  610TMC3    C1 9035   0.517   0.149  12.202 -0.4074 -0.3429 -0.2651
  610TMC3    C2 9036   0.555   0.193  12.078  0.2347  0.4204  0.1208
  610TMC3    C3 9037   0.683   0.163  12.034  0.1710  0.0398  0.5036
  610TMC3    C4 9038   0.607   0.085  12.281  0.2056  0.6546 -0.0086
  610TMC3    C5 9039   0.736   0.072  12.235  0.6915  0.4725 -0.3930
  610TMC3    C6 9040   0.774   0.103  12.112  0.3663 -0.1081 -1.0368
  610TMC3     C 9041   0.372   0.152  12.230 -0.0792  0.4260 -0.0781
  610TMC3     O 9042   0.308   0.256  12.203  0.6136 -0.5056 -0.3814
  610TMC3     H 9043   0.478   0.245  12.022  1.2885  1.7574 -0.0641
  610TMC3    H1 9044   0.573   0.040  12.374 -1.1985  3.0787  0.6861
  610TMC3    H2 9045   0.879   0.108  12.084  0.2636  2.5904 -0.8916
  610TMC3    C7 9046   0.838   0.009  12.319 -0.2767 -0.5538  0.3534
  610TMC3    C8 9047   0.728   0.187  11.900  0.6153 -0.2043 -0.4991
  610TMC3    O1 9048   0.955   0.041  12.297  0.2350  0.4738 -0.5218
  610TMC3    O2 9049   0.840   0.228  11.877 -0.2073  0.9698 -0.2400
  611MPD2     C 9050   4.331   0.127   9.753  0.8436  0.1449 -0.1986
  611MPD2    C1 9051   4.343   0.007   9.825 -0.3659 -0.0372 -0.1564
  611MPD2    C2 9052   4.452   4.654   9.785 -0.6111 -0.9020  0.0593
  611MPD2    C3 9053   4.546   4.698   9.697 -0.3412  0.0078 -0.8146
  611MPD2    C4 9054   4.524   0.091   9.630 -0.4028 -0.3364 -0.5158
  611MPD2    C5 9055   4.418   0.168   9.662 -0.2814  0.2961 -0.2090
  611MPD2     H 9056   4.457   4.551   9.820 -1.2282 -0.4519  1.4794
  611MPD2    H1 9057   4.590   0.133   9.554 -0.8590 -2.5357 -2.1301
  611MPD2    H2 9058   4.254   0.198   9.780  2.5772  0.5641  3.5706
  611MPD2    H3 9059   4.399   0.262   9.612 -0.8312  0.7587  0.8687
  611MPD2     N 9060   4.665   4.626   9.670 -0.3019  0.1360  0.8841
  611MPD2    H5 9061   0.010   4.674   9.613 -2.0336  0.3037 -1.1155
  611MPD2    N1 9062   4.239   4.688   9.917  0.0811 -0.3420  0.0789
  611MPD2    H7 9063   4.155   0.021   9.922 -1.1433 -1.8688 -2.8701
  612TMC3    C1 9064   0.112   4.463   9.693  0.2411 -0.5187  0.0580
  612TMC3    C2 9065   0.195   4.564   9.724  0.2837  0.6179  0.2300
  612TMC3    C3 9066   0.317   4.532   9.777 -0.5661 -0.1725  0.0991
  612TMC3    C4 9067   0.149   4.330   9.702  0.0002  0.1968  0.0788
  612TMC3    C5 9068   0.272   4.298   9.749  0.7659 -0.3751 -0.1037
  612TMC3    C6 9069   0.357   4.399   9.790 -0.3755  0.0168  0.0025
  612TMC3     C 9070   4.692   4.493   9.704  0.6334 -0.5149 -0.1827
  612TMC3     O 9071   4.618   4.397   9.734 -0.0264 -0.1087  0.1148
  612TMC3     H 9072   0.180   4.672   9.727 -2.8284  0.1906  0.1438
  612TMC3    H1 9073   0.078   4.249   9.698 -0.0442  0.2815 -0.8861
  612TMC3    H2 9074   0.457   4.381   9.827 -0.3551  0.2532  0.0625
  612TMC3    C7 9075   0.293   4.166   9.793 -0.5617  0.1935 -0.3047
  612TMC3    C8 9076   0.386   4.643   9.846 -0.1033 -0.3299  0.2569
  612TMC3    O1 9077   0.191   4.100   9.820  0.0689  0.1603  0.4362
  612TMC3    O2 9078   0.368   0.029   9.808  0.5478  0.1349  0.5017
  613MPD2     C 9079   3.199   1.933  16.825 -0.0909  0.0951 -0.0834
  613MPD2    C1 9080   3.168   1.960  16.692 -0.4860 -0.5604  0.8673
  613MPD2    C2 9081   3.083   1.874  16.623  0.3633  0.4031 -0.0056
  613MPD2    C3 9082   3.048   1.754  16.681 -0.1845  0.3224 -0.2154
  613MPD2    C4 9083   3.075   1.730  16.815  0.0328  0.3409 -0.2395
  613MPD2    C5 9084   3.147   1.827  16.887 -0.5272  0.6476  0.8697
  613MPD2     H 9085   3.066   1.888  16.517 -1.2496 -0.2209  0.1789
  613MPD2    H1 9086   3.041   1.642  16.869  0.5816  1.0306  1.2279
  613MPD2    H2 9087   3.258   2.001  16.886  1.0269 -1.1605  0.2259
  613MPD2    H3 9088   3.161   1.803  16.992  1.1411 -0.9096  0.3047
  613MPD2     N 9089   2.987   1.663  16.595  0.2954  0.4207 -0.0389
  613MPD2    H5 9090   2.987   1.687  16.496  1.2960  1.0059  0.1082
  613MPD2    N1 9091   3.241   2.055  16.619 -0.3205  0.4112 -0.5763
  613MPD2    H7 9092   3.329   2.082  16.662 -0.3631 -0.4498  0.0562
  614TMC3    C1 9093   3.313   2.124  16.402 -0.3202  0.0190  0.2577
  614TMC3    C2 9094   3.386   2.010  16.385  0.3834  0.5579 -0.2360
  614TMC3    C3 9095   3.404   1.948  16.264 -0.4130  0.0090  0.2132
  614TMC3    C4 9096   3.265   2.182  16.288 -0.1253 -0.5004  0.2382
  614TMC3    C5 9097   3.290   2.123  16.169  1.1124 -0.4749  0.0540
  614TMC3    C6 9098   3.356   2.005  16.148  0.6347  0.1170  0.8426
  614TMC3     C 9099   3.204   2.113  16.499 -0.9415 -0.4886  0.0881
  614TMC3     O 9100   3.089   2.117  16.454 -0.9730  0.8232  0.1698
  614TMC3     H 9101   3.422   1.954  16.470  1.3149  1.3201 -0.1354
  614TMC3    H1 9102   3.207   2.274  16.290 -0.1545 -0.4967 -0.6009
  614TMC3    H2 9103   3.362   1.963  16.048  2.0909  0.1458  0.9197
  614TMC3    C7 9104   3.247   2.195  16.047 -0.9471  0.4432 -0.1754
  614TMC3    C8 9105   3.439   1.805  16.263  0.4137 -0.2211 -0.3021
  614TMC3    O1 9106   3.232   2.133  15.946 -1.0737 -0.5291  0.2956
  614TMC3    O2 9107   3.419   1.749  16.372  0.4025 -0.4376 -0.0622
  615MPD2     C 9108   2.962   3.323  15.716  0.2764 -0.1548  0.1493
  615MPD2    C1 9109   2.867   3.388  15.792 -0.1800 -0.0724  0.2152
  615MPD2    C2 9110   2.744   3.423  15.739  0.8584  0.7704  0.0694
  615MPD2    C3 9111   2.706   3.392  15.607  0.0312  0.5347 -0.1122
  615MPD2    C4 9112   2.806   3.329  15.529  0.0848  0.1861 -0.0031
  615MPD2    C5 9113   2.931   3.303  15.581 -0.4902  0.1337 -0.0821
  615MPD2     H 9114   2.685   3.481  15.808 -0.0697  1.9691 -1.7292
  615MPD2    H1 9115   2.794   3.308  15.423 -2.0398 -1.7693  0.6235
  615MPD2    H2 9116   3.068   3.311  15.738  0.8831  1.6614 -1.7102
  615MPD2    H3 9117   3.008   3.258  15.519 -0.6345 -0.4864  0.1870
  615MPD2     N 9118   2.574   3.416  15.557  0.4074  0.0419 -0.5006
  615MPD2    H5 9119   2.568   3.395  15.458  0.7039 -0.0362 -0.5009
  615MPD2    N1 9120   2.889   3.433  15.928 -0.0794 -0.3361  0.2587
  615MPD2    H7 9121   2.809   3.466  15.981 -0.6118  1.1540 -1.4693
  616TMC3    C1 9122   2.994   3.531  16.110  0.0804 -0.1942 -0.0779
  616TMC3    C2 9123   3.112   3.579  16.160  0.7972 -0.2976 -0.0075
  616TMC3    C3 9124   3.111   3.642  16.279  0.5071 -0.0240  0.5394
  616TMC3    C4 9125   2.881   3.534  16.191 -0.1074  0.3237 -0.0517
  616TMC3    C5 9126   2.883   3.597  16.311 -0.5771  0.6267  0.2910
  616TMC3    C6 9127   3.003   3.655  16.356  0.2406 -0.5554  0.0741
  616TMC3     C 9128   3.007   3.464  15.978  0.0273  0.0215  0.4089
  616TMC3     O 9129   3.113   3.459  15.918 -0.1238 -0.3029 -0.4980
  616TMC3     H 9130   3.203   3.576  16.102 -0.4039 -0.0458 -1.9196
  616TMC3    H1 9131   2.785   3.502  16.153 -0.7575  0.5813  1.3570
  616TMC3    H2 9132   3.007   3.713  16.447  0.6381 -0.2769 -0.1229
  616TMC3    C7 9133   2.766   3.668  16.371 -0.1897  0.6617  0.0855
  616TMC3    C8 9134   3.227   3.723  16.308 -0.7606 -0.1101  0.1392
  616TMC3    O1 9135   2.782   3.767  16.443  0.4330  0.1335  0.0360
  616TMC3    O2 9136   3.219   3.754  16.425  0.8477 -0.2393  0.1998
  617MPD2     C 9137   0.825   1.642  13.811  0.1918  0.6333 -0.0302
  617MPD2    C1 9138   0.849   1.655  13.945 -0.9000 -0.0493  0.0435
  617MPD2    C2 9139   0.742   1.690  14.020  0.8581 -0.0888  0.0633
  617MPD2    C3 9140   0.620   1.722  13.969 -0.0335 -0.0895 -0.5879
  617MPD2    C4 9141   0.603   1.709  13.832  0.4901  0.3144  0.4536
  617MPD2    C5 9142   0.704   1.669  13.757  0.5078  0.8264 -1.1805
  617MPD2     H 9143   0.753   1.692  14.128  2.6231 -1.4802 -0.1044
  617MPD2    H1 9144   0.505   1.726  13.789  0.7177  3.0647  0.9838
  617MPD2    H2 9145   0.892   1.592  13.741  0.2942  1.0149 -0.2064
  617MPD2    H3 9146   0.677   1.657  13.652  0.1061  2.8251 -1.3210
  617MPD2     N 9147   0.496   1.755  14.033 -0.1628 -0.0186 -0.3461
  617MPD2    H5 9148   0.415   1.772  13.974 -0.7598 -0.9728  0.1896
  617MPD2    N1 9149   0.978   1.624  13.996 -0.4557 -0.4385  0.1467
  617MPD2    H7 9150   1.045   1.596  13.925  0.2830  2.0993 -0.1462
  618TMC3    C1 9151   1.160   1.622  14.117  0.5345  0.4956  0.3074
  618TMC3    C2 9152   1.199   1.524  14.194 -0.0983 -0.6303  0.3672
  618TMC3    C3 9153   1.297   1.437  14.151 -0.3947 -0.0558  0.2264
  618TMC3    C4 9154   1.227   1.648  13.998 -0.7956 -0.0734  0.2548
  618TMC3    C5 9155   1.329   1.567  13.953  0.1841  0.4412  0.8048
  618TMC3    C6 9156   1.368   1.455  14.030  0.4390 -0.1293 -0.2043
  618TMC3     C 9157   1.022   1.643  14.123 -0.5493  0.2645 -0.3247
  618TMC3     O 9158   0.960   1.643  14.229 -0.6683 -0.1118 -0.5064
  618TMC3     H 9159   1.147   1.512  14.289 -0.9446 -1.3941 -0.1879
  618TMC3    H1 9160   1.195   1.733  13.939 -0.6394  0.0563  0.3564
  618TMC3    H2 9161   1.462   1.402  14.016 -0.8172 -2.3786 -0.1459
  618TMC3    C7 9162   1.330   1.544  13.811 -0.2385  0.6495 -0.9398
  618TMC3    C8 9163   1.330   1.328  14.246 -0.4783 -0.1689  0.2386
  618TMC3    O1 9164   1.235   1.578  13.738  0.3385  0.7700  0.1795
  618TMC3    O2 9165   1.300   1.344  14.364 -0.7334 -0.1410 -0.0409
  619MPD2     C 9166   2.294   2.979  13.528  0.5652  0.5126  0.0345
  619MPD2    C1 9167   2.187   3.039  13.468 -0.2575  0.2521  0.8463
  619MPD2    C2 9168   2.062   2.978  13.492  0.4221 -0.0929 -0.6215
  619MPD2    C3 9169   2.054   2.873  13.593 -0.0040  0.6163  0.0581
  619MPD2    C4 9170   2.169   2.826  13.654 -0.4685 -0.2601 -0.5351
  619MPD2    C5 9171   2.289   2.876  13.617  0.1728 -0.1237 -0.4040
  619MPD2     H 9172   1.977   3.026  13.445 -0.0614  0.9822  1.3670
  619MPD2    H1 9173   2.167   2.755  13.736 -0.5485  2.5311  1.8723
  619MPD2    H2 9174   2.395   3.005  13.496  0.7821 -1.4246 -0.8670
  619MPD2    H3 9175   2.378   2.838  13.664  0.6753 -0.7184 -1.8460
  619MPD2     N 9176   1.927   2.819  13.640 -0.7901  0.1217  0.2818
  619MPD2    H5 9177   1.937   2.753  13.715 -1.9002  0.4979  0.7586
  619MPD2    N1 9178   2.190   3.160  13.395  0.1575 -0.0079 -0.6282
  619MPD2    H7 9179   2.103   3.197  13.359 -0.6647 -2.7276 -1.3943
  620TMC3    C1 9180   2.261   3.377  13.347  0.4055  0.3401  0.2968
  620TMC3    C2 9181   2.202   3.385  13.224 -0.0099 -0.1091  0.1569
  620TMC3    C3 9182   2.187   3.508  13.174 -0.3727  0.0802 -0.1093
  620TMC3    C4 9183   2.330   3.483  13.399 -0.2026  0.2587  0.0385
  620TMC3    C5 9184   2.320   3.603  13.340 -0.5022 -0.3380 -0.2916
  620TMC3    C6 9185   2.257   3.617  13.220 -1.0142  0.3356 -0.6938
  620TMC3     C 9186   2.299   3.240  13.388 -0.1366  0.2447  0.4774
  620TMC3     O 9187   2.414   3.220  13.420 -0.2384  0.0913  0.2212
  620TMC3     H 9188   2.157   3.304  13.167  0.8070 -1.2139  1.0759
  620TMC3    H1 9189   2.394   3.465  13.484  1.2197  0.5420 -0.9641
  620TMC3    H2 9190   2.265   3.715  13.175 -0.8047  1.1458  1.0875
  620TMC3    C7 9191   2.409   3.704  13.388 -0.4584 -0.1839  0.1288
  620TMC3    C8 9192   2.043   3.535  13.162  0.4392 -0.3881 -0.3260
  620TMC3    O1 9193   2.493   3.747  13.312 -0.1691 -0.0233  0.4442
  620TMC3    O2 9194   1.994   3.619  13.237 -0.8507 -0.2696  0.0394
  621MPD2     C 9195   3.595   3.080   9.476 -0.8141 -0.1651  0.4179
  621MPD2    C1 9196   3.477   3.102   9.533  0.1266  0.2725  0.2701
  621MPD2    C2 9197   3.483   3.145   9.666 -0.4868 -0.6648  0.1386
  621MPD2    C3 9198   3.601   3.162   9.734  0.4676 -0.3833 -0.4116
  621MPD2    C4 9199   3.723   3.147   9.667 -0.2330  0.7146  0.0077
  621MPD2    C5 9200   3.714   3.101   9.540 -0.2743  0.5122 -0.1022
  621MPD2     H 9201   3.386   3.169   9.709 -0.1294 -2.2234  1.8174
  621MPD2    H1 9202   3.826   3.158   9.697 -0.2948  2.6907 -0.5109
  621MPD2    H2 9203   3.602   3.047   9.373  0.8461  0.5218  0.3177
  621MPD2    H3 9204   3.807   3.095   9.485  1.5393  1.2284  2.8956
  621MPD2     N 9205   3.598   3.211   9.865  0.2068  0.9350  0.5493
  621MPD2    H5 9206   3.509   3.210   9.915  0.3167 -1.5909  0.6797
  621MPD2    N1 9207   3.350   3.090   9.470 -0.2531  0.9848 -0.5812
  621MPD2    H7 9208   3.268   3.106   9.528  0.6380  0.9576  0.6834
  622TMC3    C1 9209   3.200   3.099   9.287  0.2283 -0.4790 -0.3338
  622TMC3    C2 9210   3.086   3.079   9.373 -0.6132  0.3161  0.0966
  622TMC3    C3 9211   2.967   3.101   9.313 -0.6672 -0.3295  0.2669
  622TMC3    C4 9212   3.189   3.143   9.151  0.1125 -0.5187 -0.5629
  622TMC3    C5 9213   3.067   3.179   9.103 -0.4543  0.4631  0.5313
  622TMC3    C6 9214   2.956   3.162   9.189 -0.0699  0.1391  0.0876
  622TMC3     C 9215   3.335   3.075   9.337  0.2217  0.3918 -0.1602
  622TMC3     O 9216   3.418   3.053   9.252  0.9186  0.5705  0.3890
  622TMC3     H 9217   3.096   3.036   9.472 -0.9078  1.4588  0.6247
  622TMC3    H1 9218   3.281   3.145   9.094  0.8114 -0.5246  0.5637
  622TMC3    H2 9219   2.855   3.172   9.151 -0.2802  1.2669  0.9539
  622TMC3    C7 9220   3.076   3.314   9.044 -0.0238 -0.8049 -0.3152
  622TMC3    C8 9221   2.846   3.054   9.383 -0.0974  0.3730 -0.1750
  622TMC3    O1 9222   3.185   3.348   9.001  0.1454  0.4978  0.1726
  622TMC3    O2 9223   2.737   3.106   9.361 -0.0021 -0.3549  0.2203
  623MPD2     C 9224   0.755   4.125  16.279 -0.6488  0.8086 -0.5205
  623MPD2    C1 9225   0.803   4.041  16.181  0.1916 -0.9546  0.2912
  623MPD2    C2 9226   0.900   3.958  16.209  0.3619  0.2572  0.2985
  623MPD2    C3 9227   0.945   3.939  16.336 -0.0971 -0.4260  0.2610
  623MPD2    C4 9228   0.895   4.026  16.432 -0.2368 -0.1646  0.0382
  623MPD2    C5 9229   0.800   4.114  16.408 -0.8027  1.0993  0.2018
  623MPD2     H 9230   0.934   3.889  16.133  1.6634 -0.1335  1.2309
  623MPD2    H1 9231   0.924   4.005  16.534 -0.6241  0.8557  0.3535
  623MPD2    H2 9232   0.679   4.201  16.261 -2.3487 -0.9105 -0.6110
  623MPD2    H3 9233   0.755   4.185  16.477 -2.5035 -2.5600  2.8051
  623MPD2     N 9234   1.047   3.848  16.373 -0.1560  0.0411  0.7550
  623MPD2    H5 9235   1.061   3.828  16.471 -1.9449 -0.7979  0.8377
  623MPD2    N1 9236   0.741   4.041  16.058 -0.2084  0.0052 -0.6121
  623MPD2    H7 9237   0.655   4.095  16.054 -0.7376 -0.7663  0.3803
  624TMC3    C1 9238   1.328   3.492  16.301  0.0440 -0.2015 -0.1827
  624TMC3    C2 9239   1.257   3.412  16.392  0.3488  0.8678  0.5372
  624TMC3    C3 9240   1.165   3.476  16.465 -1.0392  0.1221  0.4339
  624TMC3    C4 9241   1.291   3.622  16.287  0.0605 -0.0720 -0.2399
  624TMC3    C5 9242   1.192   3.679  16.363 -0.6574 -0.6770 -0.2794
  624TMC3    C6 9243   1.125   3.602  16.456 -0.6909 -0.2321 -0.4907
  624TMC3     C 9244   1.465   3.452  16.264  0.7041  0.4653  0.2702
  624TMC3     O 9245   1.543   3.545  16.240 -0.4649 -0.2677  0.2173
  624TMC3     H 9246   1.270   3.304  16.391 -2.0523  0.6110 -3.0588
  624TMC3    H1 9247   1.342   3.677  16.208  2.2632  0.9737  1.9205
  624TMC3    H2 9248   1.024   3.628  16.484  0.7499  0.5651  4.0137
  624TMC3    C7 9249   1.120   3.775  16.283 -0.0435 -0.5394  0.2848
  624TMC3    C8 9250   1.049   3.395  16.493 -0.4155  0.0294  0.0309
  624TMC3    O1 9251   1.156   3.794  16.168 -0.2427  0.6938 -0.4006
  624TMC3    O2 9252   1.020   3.304  16.413 -0.4033 -0.3125  0.2356
  625MPD2     C 9253   1.635   4.566   0.514 -0.0573 -0.3886  0.2214
  625MPD2    C1 9254   1.699   4.685   0.527 -0.4840  0.1438  0.8773
  625MPD2    C2 9255   1.839   4.696   0.529  0.3796  0.0504 -0.7230
  625MPD2    C3 9256   1.916   4.584   0.518  0.3347  0.3831 -0.7803
  625MPD2    C4 9257   1.851   4.458   0.517 -0.1086  0.0334  0.0952
  625MPD2    C5 9258   1.716   4.451   0.518 -0.1035  0.1795 -0.1937
  625MPD2     H 9259   1.886   0.069   0.535 -0.1446  0.3707 -1.6349
  625MPD2    H1 9260   1.906   4.364   0.510 -0.1598 -0.0408  0.7337
  625MPD2    H2 9261   1.529   4.545   0.506 -0.2472  0.5350  0.3685
  625MPD2    H3 9262   1.677   4.351   0.508  0.5852 -0.0819 -0.2388
  625MPD2     N 9263   2.058   4.593   0.510  0.4556  0.3782  0.3207
  625MPD2    H5 9264   2.099   4.683   0.486  1.9722 -0.8345 -1.5883
  625MPD2    N1 9265   1.629   0.079   0.522 -0.2906  0.3752  0.8198
  625MPD2    H7 9266   1.670   0.168   0.549  0.3293  0.0395  0.9801
  626TMC3    C1 9267   1.450   0.235   0.496 -0.7244  0.3664 -0.6487
  626TMC3    C2 9268   1.351   0.279   0.407  0.0876 -0.6702 -0.0016
  626TMC3    C3 9269   1.275   0.384   0.440 -0.3357  0.5842  0.2495
  626TMC3    C4 9270   1.454   0.282   0.622  0.4212  0.2353 -0.6059
  626TMC3    C5 9271   1.370   0.384   0.658 -0.2103 -0.2087  0.1109
  626TMC3    C6 9272   1.278   0.437   0.568  1.3252 -0.0686 -0.9931
  626TMC3     C 9273   1.495   0.099   0.484 -0.2419 -0.3525 -0.0302
  626TMC3     O 9274   1.406   0.024   0.435  0.2293 -0.0510 -0.7525
  626TMC3     H 9275   1.342   0.232   0.310 -0.9231  1.7156 -1.0462
  626TMC3    H1 9276   1.525   0.230   0.686 -0.2845 -0.4146 -0.3460
  626TMC3    H2 9277   1.221   0.527   0.590  2.3491 -0.0396  1.5609
  626TMC3    C7 9278   1.313   0.371   0.793 -0.3464 -0.3265  0.1622
  626TMC3    C8 9279   1.140   0.384   0.376 -0.4103  0.4876  0.1498
  626TMC3    O1 9280   1.391   0.353   0.885 -0.7677 -0.2836 -0.7307
  626TMC3    O2 9281   1.047   0.355   0.448  0.0828  0.2923  0.4780
  627MPD2     C 9282   0.635   0.561  14.232  0.2023 -0.4311 -0.9264
  627MPD2    C1 9283   0.571   0.520  14.350  0.0475 -0.3491 -0.6445
  627MPD2    C2 9284   0.477   0.419  14.345  0.0920  0.0627 -0.3581
  627MPD2    C3 9285   0.433   0.363  14.225 -0.1914  0.1694  0.5566
  627MPD2    C4 9286   0.509   0.390  14.111  0.2260  0.4683 -0.3239
  627MPD2    C5 9287   0.602   0.492  14.112  0.0751 -0.5256 -0.4590
  627MPD2     H 9288   0.427   0.381  14.434 -0.2729 -0.3219 -0.7285
  627MPD2    H1 9289   0.476   0.359  14.012  0.3008 -1.4810  0.2621
  627MPD2    H2 9290   0.711   0.638  14.232 -0.2367  0.0009  0.5533
  627MPD2    H3 9291   0.648   0.527  14.020  0.3211 -0.4763 -0.3169
  627MPD2     N 9292   0.322   0.281  14.230 -0.3076 -0.8348 -0.0002
  627MPD2    H5 9293   0.267   0.300  14.314  0.5048 -0.4106  0.4330
  627MPD2    N1 9294   0.603   0.576  14.475 -0.4356 -0.3252  0.4890
  627MPD2    H7 9295   0.571   0.519  14.553  0.1866 -0.7525  0.4348
  628TMC3    C1 9296   0.659   0.750  14.636 -0.0783 -0.0869  1.1890
  628TMC3    C2 9297   0.705   0.664  14.728 -0.6840  0.0959 -0.2609
  628TMC3    C3 9298   0.740   0.719  14.848 -0.1113 -0.1958  0.6122
  628TMC3    C4 9299   0.654   0.886  14.650  0.3030 -0.3290 -0.2096
  628TMC3    C5 9300   0.699   0.934  14.769 -0.9754 -0.6683  0.1427
  628TMC3    C6 9301   0.732   0.854  14.870  0.1372  0.6554 -0.2170
  628TMC3     C 9302   0.658   0.704  14.502 -0.5113  0.0224  0.4037
  628TMC3     O 9303   0.696   0.787  14.419  0.3174  0.0742  0.1361
  628TMC3     H 9304   0.721   0.559  14.706 -1.1870  0.0991 -0.6418
  628TMC3    H1 9305   0.647   0.948  14.562 -0.1206  0.1418  0.1511
  628TMC3    H2 9306   0.777   0.893  14.960 -0.0132 -1.3483  0.7250
  628TMC3    C7 9307   0.701   1.069  14.802  0.4462  0.7668  0.2557
  628TMC3    C8 9308   0.786   0.627  14.951  0.0263 -0.6254  0.1749
  628TMC3    O1 9309   0.774   1.108  14.895  0.3482  0.3893  0.5337
  628TMC3    O2 9310   0.793   0.505  14.928 -0.3005 -1.2445  0.3211
  629MPD2     C 9311   3.504   4.153  16.218 -0.2630 -0.4653  0.0815
  629MPD2    C1 9312   3.493   4.085  16.095 -0.0857 -0.2274 -0.3134
  629MPD2    C2 9313   3.431   3.962  16.097 -0.9653  0.5744  0.2006
  629MPD2    C3 9314   3.379   3.903  16.213 -0.7054  0.1425  0.2818
  629MPD2    C4 9315   3.395   3.968  16.327 -0.5675  0.4812 -0.6981
  629MPD2    C5 9316   3.461   4.090  16.332  0.2832  0.6312  0.0148
  629MPD2     H 9317   3.420   3.908  16.003 -2.5007  1.5417 -0.1752
  629MPD2    H1 9318   3.360   3.928  16.421  2.7975 -0.8497 -0.0234
  629MPD2    H2 9319   3.563   4.244  16.227  0.2089 -0.6506 -1.0363
  629MPD2    H3 9320   3.476   4.133  16.430 -1.1245  0.3726  0.3439
  629MPD2     N 9321   3.293   3.789  16.205  0.0361  0.4857  0.0984
  629MPD2    H5 9322   3.280   3.760  16.108 -1.2002 -0.0450  0.4235
  629MPD2    N1 9323   3.554   4.146  15.981  0.2053 -0.4259 -0.1763
  629MPD2    H7 9324   3.615   4.226  15.995 -0.2014  0.0404 -1.0998
  630TMC3    C1 9325   3.692   4.118  15.805  0.1153 -0.2089  0.5556
  630TMC3    C2 9326   3.747   4.230  15.852  0.3656  0.2907  0.1378
  630TMC3    C3 9327   3.861   4.211  15.919  0.4100  0.3301  0.8727
  630TMC3    C4 9328   3.753   4.001  15.803 -0.1270  0.0827 -0.7983
  630TMC3    C5 9329   3.854   3.986  15.884  0.7927 -0.1087 -0.5514
  630TMC3    C6 9330   3.910   4.093  15.951  0.6127  1.5733 -0.2336
  630TMC3     C 9331   3.561   4.089  15.859 -0.9397 -0.8701 -0.4821
  630TMC3     O 9332   3.497   3.998  15.809  0.1268  0.4321  0.2759
  630TMC3     H 9333   3.692   4.323  15.850  0.3492  0.3118  1.5748
  630TMC3    H1 9334   3.692   3.914  15.780 -0.5060 -0.4200  2.1408
  630TMC3    H2 9335   3.994   4.081  16.018 -1.3723  1.2360  2.2132
  630TMC3    C7 9336   3.854   3.854  15.948 -0.1584 -0.1221 -0.3260
  630TMC3    C8 9337   3.916   4.321  15.998 -0.0466 -0.7426 -0.1068
  630TMC3    O1 9338   3.868   3.762  15.870  1.1386 -0.1897 -0.3886
  630TMC3    O2 9339   3.956   4.302  16.109 -0.5036  0.1517  0.6221
  631MPD2     C 9340   1.817   3.313  14.894  0.6093  0.4200  1.1621
  631MPD2    C1 9341   1.857   3.447  14.883  0.3197 -0.2197 -0.0637
  631MPD2    C2 9342   1.946   3.494  14.971  0.7653  0.8698  0.0422
  631MPD2    C3 9343   2.007   3.413  15.065 -1.0438 -0.3492 -0.3038
  631MPD2    C4 9344   1.957   3.282  15.077  0.2945 -0.7144 -0.6109
  631MPD2    C5 9345   1.862   3.231  14.990 -0.1109  0.4368  0.0938
  631MPD2     H 9346   1.962   3.602  14.971  1.2908  0.7893 -0.8144
  631MPD2    H1 9347   1.983   3.205  15.150 -0.8254 -0.2679  0.2616
  631MPD2    H2 9348   1.747   3.276  14.820  0.4641  1.3707  0.8125
  631MPD2    H3 9349   1.833   3.127  14.993  0.2748  0.2715 -2.1233
  631MPD2     N 9350   2.081   3.470  15.168  0.4982 -0.3579 -0.5459
  631MPD2    H5 9351   2.066   3.571  15.171  3.8975  0.1280 -0.5523
  631MPD2    N1 9352   1.803   3.525  14.780 -0.3354 -0.5513 -0.0311
  631MPD2    H7 9353   1.722   3.488  14.732 -1.0285 -1.6221  1.9525
  632TMC3    C1 9354   1.778   3.710  14.635 -0.4371  1.3823  0.3830
  632TMC3    C2 9355   1.664   3.749  14.691  0.4372  0.4858 -0.3526
  632TMC3    C3 9356   1.624   3.869  14.661  0.7331 -0.1154 -0.5398
  632TMC3    C4 9357   1.843   3.784  14.550 -0.4324  0.6606  0.4233
  632TMC3    C5 9358   1.809   3.909  14.527  0.4037  0.2733 -0.1308
  632TMC3    C6 9359   1.699   3.963  14.590  0.5701  0.0500  0.0645
  632TMC3     C 9360   1.861   3.634  14.725 -0.0756  0.1373  1.2196
  632TMC3     O 9361   1.975   3.673  14.747  0.1939  0.3189 -0.1180
  632TMC3     H 9362   1.613   3.676  14.753  0.6133 -0.2694 -1.0905
  632TMC3    H1 9363   1.932   3.745  14.501 -1.1801  0.2764 -0.6083
  632TMC3    H2 9364   1.658   4.061  14.568  2.6216  1.2800  1.7383
  632TMC3    C7 9365   1.873   3.982  14.420  0.4628  0.3949 -0.3731
  632TMC3    C8 9366   1.524   3.923  14.748  1.0095 -0.1884  0.1637
  632TMC3    O1 9367   1.930   3.919  14.331 -1.0276  0.0243 -0.1309
  632TMC3    O2 9368   1.457   3.835  14.799 -0.3160 -0.9408  0.0083
  633MPD2     C 9369   1.461   1.791  17.030  0.3631  0.2730  0.5554
  633MPD2    C1 9370   1.379   1.761  16.925 -0.4709 -0.2021 -0.3719
  633MPD2    C2 9371   1.294   1.649  16.923 -0.2185 -0.2726  0.0313
  633MPD2    C3 9372   1.301   1.558  17.032  0.5113  0.6116 -0.2520
  633MPD2    C4 9373   1.385   1.595  17.139  0.1721 -0.4627  0.3089
  633MPD2    C5 9374   1.469   1.709  17.136 -0.3445 -0.1754  0.2283
  633MPD2     H 9375   1.234   1.631  16.834 -1.7435 -0.9343  1.2034
  633MPD2    H1 9376   1.385   1.535  17.229  0.6615  2.0515  1.9993
  633MPD2    H2 9377   1.533   1.871  17.022 -0.4510  1.0114  0.6797
  633MPD2    H3 9378   1.542   1.726  17.214  1.7709 -0.3369 -1.7045
  633MPD2     N 9379   1.259   1.423  17.028 -0.2215  0.2578 -0.5212
  633MPD2    H5 9380   1.261   1.376  17.118 -0.7641  2.4321  0.6228
  633MPD2    N1 9381   1.385   1.839  16.802  0.4364 -0.1456 -0.0816
  633MPD2    H7 9382   1.349   1.804  16.714 -0.1595 -1.1541  0.5583
  634TMC3    C1 9383   1.456   2.015  16.656 -0.3814  0.1004  1.3528
  634TMC3    C2 9384   1.442   1.928  16.549  0.1450  0.0685  0.7841
  634TMC3    C3 9385   1.424   1.975  16.426  1.0128 -0.0519  0.5419
  634TMC3    C4 9386   1.441   2.153  16.641 -0.3299 -0.2111  0.7176
  634TMC3    C5 9387   1.401   2.193  16.519 -0.0823 -0.1419 -0.1938
  634TMC3    C6 9388   1.405   2.102  16.405  0.1315 -0.2896 -0.5963
  634TMC3     C 9389   1.443   1.966  16.794 -0.1180 -0.4626  0.3016
  634TMC3     O 9390   1.459   2.044  16.883 -0.1064 -0.4734 -0.1773
  634TMC3     H 9391   1.472   1.826  16.567  1.1523  0.1250 -0.6485
  634TMC3    H1 9392   1.435   2.217  16.728 -0.2820  0.1358  0.4630
  634TMC3    H2 9393   1.353   2.127  16.313 -0.1694 -0.2968 -0.4284
  634TMC3    C7 9394   1.350   2.329  16.500 -0.1218  0.0752 -0.2292
  634TMC3    C8 9395   1.434   1.880  16.321  0.0580  0.1525 -0.5705
  634TMC3    O1 9396   1.353   2.368  16.381  0.4417 -0.2015  0.2787
  634TMC3    O2 9397   1.403   1.763  16.343 -0.1603 -0.1285  0.4217
  635TMC3    C1 9398   1.608   2.398   0.228 -0.1542  0.0586 -0.2571
  635TMC3    C2 9399   1.583   2.265   0.205 -1.2574  0.0030 -0.1500
  635TMC3    C3 9400   1.588   2.179   0.310 -0.2370 -0.5859 -0.0866
  635TMC3    C4 9401   1.633   2.441   0.354  0.2256  0.6645  0.6947
  635TMC3    C5 9402   1.623   2.353   0.459 -0.2922  0.1841 -0.3604
  635TMC3    C6 9403   1.602   2.218   0.442  1.5601 -0.5530 -0.3642
  635TMC3     C 9404   1.624   2.484   0.117 -0.2308 -0.2495  0.1868
  635TMC3     O 9405   1.627   2.607   0.143  0.3838 -0.1263 -0.6250
  635TMC3     H 9406   1.554   2.224   0.109  1.0687  0.6240 -1.1223
  635TMC3    H1 9407   1.638   2.548   0.372  2.1753  0.4023  1.7293
  635TMC3    H2 9408   1.613   2.154   0.529  2.4285  0.2263  0.1042
  635TMC3    C7 9409   1.646   2.397   0.595  0.7879  0.2277 -0.9232
  635TMC3    C8 9410   1.613   2.035   0.305  0.1015 -0.2694 -0.0153
  635TMC3    O1 9411   1.597   2.334   0.691 -0.1733  0.3228  0.1533
  635TMC3    O2 9412   1.590   1.968   0.407 -0.3528 -0.0138  0.0252
  636MPD2     C 9413   2.660   1.785  15.827 -0.1073 -0.1347 -0.0582
  636MPD2    C1 9414   2.732   1.863  15.927  0.1204  0.7021  0.3892
  636MPD2    C2 9415   2.784   1.796  16.035 -0.5173 -0.2854  0.1679
  636MPD2    C3 9416   2.774   1.660  16.044  0.5326  0.4535  0.9427
  636MPD2    C4 9417   2.703   1.588  15.947  0.5539  0.6112 -0.1879
  636MPD2    C5 9418   2.655   1.651  15.838  0.2105  0.1309  0.1322
  636MPD2     H 9419   2.836   1.852  16.112  2.4223 -2.7072 -0.0819
  636MPD2    H1 9420   2.678   1.483  15.960 -0.1859  0.5466 -2.0184
  636MPD2    H2 9421   2.633   1.826  15.730 -2.3111 -3.1703 -0.7224
  636MPD2    H3 9422   2.592   1.591  15.773  4.3731 -4.7619  0.5718
  636MPD2     N 9423   2.816   1.591  16.157  0.4161 -0.4807  0.0684
  636MPD2    H5 9424   2.869   1.634  16.232  1.7174  0.0338 -1.1336
  636MPD2    N1 9425   2.756   2.001  15.923  0.1255 -0.2533 -0.4305
  636MPD2    H7 9426   2.787   2.038  16.012 -1.1703  1.7688 -0.8424
  637TMC3    C1 9427   2.907   1.422  16.284 -0.3250 -0.6808 -0.2221
  637TMC3    C2 9428   2.885   1.490  16.399  0.4901 -0.9531 -0.0424
  637TMC3    C3 9429   2.957   1.450  16.506  0.0745  0.7834  0.0609
  637TMC3    C4 9430   3.016   1.342  16.267  0.1641  0.9623 -0.6233
  637TMC3    C5 9431   3.097   1.316  16.376 -0.4510 -0.0727 -0.5209
  637TMC3    C6 9432   3.056   1.362  16.497 -0.1624  0.2318  0.7376
  637TMC3     C 9433   2.845   1.455  16.161  0.5678 -0.3625  0.1989
  637TMC3     O 9434   2.821   1.368  16.079  0.0869 -0.1917 -0.8729
  637TMC3     H 9435   2.806   1.564  16.405  1.4139  0.1363 -1.1236
  637TMC3    H1 9436   3.041   1.303  16.169 -0.4274 -0.0894 -0.3653
  637TMC3    H2 9437   3.126   1.353  16.580  0.4574  1.5134  0.3540
  637TMC3    C7 9438   3.235   1.342  16.353  0.3260  0.0935  0.2068
  637TMC3    C8 9439   2.958   1.531  16.625 -0.1585  0.2640 -0.1597
  637TMC3    O1 9440   3.297   1.391  16.444 -0.8863 -1.0587  0.0281
  637TMC3    O2 9441   2.960   1.466  16.731 -0.4649 -0.1070  0.2101
  638MPD2     C 9442   2.829   1.071  14.208  0.1575  0.2848 -0.7278
  638MPD2    C1 9443   2.816   0.936  14.188 -0.0740  0.4992 -0.3640
  638MPD2    C2 9444   2.763   0.854  14.283 -0.6550 -0.0498  0.0846
  638MPD2    C3 9445   2.730   0.910  14.404 -0.0591  0.1749  0.1256
  638MPD2    C4 9446   2.740   1.048  14.428 -0.7927 -0.6103  0.1898
  638MPD2    C5 9447   2.790   1.129  14.324  0.0638  0.6325  0.3630
  638MPD2     H 9448   2.757   0.746  14.276  1.4514 -0.2083  0.7184
  638MPD2    H1 9449   2.701   1.092  14.519  0.2996 -1.3424  1.0115
  638MPD2    H2 9450   2.866   1.140  14.134  1.2647  0.7438  0.2531
  638MPD2    H3 9451   2.789   1.236  14.339 -2.2478  0.6586  0.0816
  638MPD2     N 9452   2.693   0.821  14.503  0.3685  0.1018 -0.2764
  638MPD2    H5 9453   2.722   0.726  14.480  0.6871  0.4513 -1.3119
  638MPD2    N1 9454   2.860   0.875  14.063 -0.2598 -0.0242 -0.1324
  638MPD2    H7 9455   2.864   0.774  14.061 -0.8749 -0.0767  1.4645
  639TMC3    C1 9456   2.607   0.724  14.687  0.4801 -0.1031  0.8091
  639TMC3    C2 9457   2.483   0.709  14.745  0.4624  0.1492 -0.4144
  639TMC3    C3 9458   2.448   0.577  14.772 -0.1986 -0.7928 -0.1932
  639TMC3    C4 9459   2.696   0.621  14.667 -0.0812  0.2897  0.2075
  639TMC3    C5 9460   2.660   0.496  14.721  0.0670 -0.0367 -0.0046
  639TMC3    C6 9461   2.537   0.472  14.766  0.0061 -0.0504  0.2204
  639TMC3     C 9462   2.623   0.855  14.617  0.2550 -0.3363  0.6723
  639TMC3     O 9463   2.565   0.955  14.650  0.5921  0.4026  0.0228
  639TMC3     H 9464   2.416   0.794  14.738 -0.5414 -0.4595  1.8742
  639TMC3    H1 9465   2.799   0.636  14.637 -0.0135  0.4576  0.5283
  639TMC3    H2 9466   2.507   0.377  14.809 -1.0578 -1.2647 -3.1878
  639TMC3    C7 9467   2.733   0.372  14.692 -0.3848  0.0650 -0.2418
  639TMC3    C8 9468   2.313   0.537  14.777  0.4262  0.2075 -0.1184
  639TMC3    O1 9469   2.667   0.270  14.676  0.5431  0.7262  0.5550
  639TMC3    O2 9470   2.235   0.593  14.850  0.1980 -0.8066  0.1384
  640MPD2     C 9471   4.189   3.810   9.640  0.1297  0.1836  0.4901
  640MPD2    C1 9472   4.117   3.882   9.729 -0.2891 -0.3425  0.2267
  640MPD2    C2 9473   4.046   3.989   9.678 -0.1016 -0.0278 -0.4758
  640MPD2    C3 9474   4.055   4.029   9.543 -0.5736  0.4441 -0.5303
  640MPD2    C4 9475   4.144   3.966   9.454  0.2544 -0.1282  0.0975
  640MPD2    C5 9476   4.204   3.854   9.510  0.4313  0.0921  0.2478
  640MPD2     H 9477   3.976   4.037   9.746  0.2150  0.5702 -0.5682
  640MPD2    H1 9478   4.149   3.985   9.348  0.0516 -2.2730 -0.2961
  640MPD2    H2 9479   4.248   3.726   9.675 -2.7679 -1.1911  2.0072
  640MPD2    H3 9480   4.270   3.802   9.441  0.5590  1.9869 -1.0665
  640MPD2     N 9481   3.979   4.138   9.489  0.2063  0.2341 -0.6783
  640MPD2    H5 9482   4.009   4.182   9.403  1.2081  1.2221  0.1767
  640MPD2    N1 9483   4.111   3.835   9.866 -0.0908 -0.4844  0.1362
  640MPD2    H7 9484   4.152   3.744   9.879 -1.0406 -1.3083 -2.6929
  641TMC3    C1 9485   4.042   3.821  10.094  0.1172  0.1250 -0.0990
  641TMC3    C2 9486   4.138   3.725  10.115 -0.5151 -0.2971  0.0899
  641TMC3    C3 9487   4.139   3.663  10.242 -0.0688 -0.3092  0.9130
  641TMC3    C4 9488   3.966   3.868  10.199  0.1437  0.1918  0.0204
  641TMC3    C5 9489   3.977   3.804  10.325 -0.1535 -0.4656  0.2662
  641TMC3    C6 9490   4.069   3.705  10.350 -0.4413  0.2905 -0.5660
  641TMC3     C 9491   4.034   3.893   9.966  0.7995 -0.0589 -0.4220
  641TMC3     O 9492   3.957   3.989   9.963 -0.1066  0.1675 -0.2020
  641TMC3     H 9493   4.208   3.697  10.036 -1.0323 -1.6366  0.0970
  641TMC3    H1 9494   3.884   3.934  10.174  0.4968  0.7974  0.4528
  641TMC3    H2 9495   4.081   3.651  10.443  0.4322  0.2700 -0.6911
  641TMC3    C7 9496   3.910   3.866  10.437 -0.1739 -0.2733  0.8949
  641TMC3    C8 9497   4.204   3.535  10.249 -0.8063  0.0973 -0.0811
  641TMC3    O1 9498   3.906   3.796  10.539 -0.1437  0.5999  0.1455
  641TMC3    O2 9499   4.211   3.487  10.363 -0.6271 -0.4530 -0.0698
  642TMC3    C1 9500   4.398   0.794  12.097 -0.1093 -0.1421  0.6336
  642TMC3    C2 9501   4.528   0.799  12.117 -0.0050 -0.6510  0.3951
  642TMC3    C3 9502   4.585   0.683  12.158  0.2312 -0.2218 -0.1994
  642TMC3    C4 9503   4.320   0.686  12.122  0.2457  1.3180 -0.3610
  642TMC3    C5 9504   4.385   0.569  12.138  0.4198 -0.7681 -0.0804
  642TMC3    C6 9505   4.517   0.568  12.169 -0.0062 -0.2718 -0.0263
  642TMC3     C 9506   4.349   0.923  12.056  0.3280 -0.5811  0.4656
  642TMC3     O 9507   4.420   0.996  11.990  0.0820  0.5659 -0.7120
  642TMC3     H 9508   4.588   0.889  12.105  0.5186 -0.7853  2.0194
  642TMC3    H1 9509   4.212   0.686  12.109  0.2830 -0.5071 -0.7505
  642TMC3    H2 9510   4.566   0.476  12.201  0.5464  0.1998  0.4903
  642TMC3    C7 9511   4.335   0.457  12.072 -0.0389 -0.8045 -0.0650
  642TMC3    C8 9512   0.002   0.680  12.212  0.0651 -0.0365  0.0383
  642TMC3    O1 9513   4.276   0.470  11.967 -0.1164  0.1233 -0.0285
  642TMC3    O2 9514   0.060   0.568  12.206  0.2264 -0.4530  0.2009
  643TMC3    C1 9515   3.058   0.086   0.336 -0.1000 -0.9070 -0.0207
  643TMC3    C2 9516   2.927   0.097   0.345  0.0383 -0.0233  0.2320
  643TMC3    C3 9517   2.846   0.029   0.259  0.0014 -0.8324  0.2807
  643TMC3    C4 9518   3.114   0.009   0.233  0.7411 -0.7030 -0.0252
  643TMC3    C5 9519   3.033   4.662   0.152  0.5936  0.1705  0.0149
  643TMC3    C6 9520   2.902   4.671   0.164 -0.3728  0.9472 -0.1555
  643TMC3     C 9521   3.135   0.187   0.400 -0.0555 -0.1777 -0.6089
  643TMC3     O 9522   3.079   0.295   0.400  0.0733 -0.2914  0.5905
  643TMC3     H 9523   2.893   0.154   0.431 -2.2546  0.2373 -0.8689
  643TMC3    H1 9524   3.220   0.010   0.209  0.4903  0.0746 -1.0901
  643TMC3    H2 9525   2.828   4.637   0.092 -0.2815 -1.9869  1.1307
  643TMC3    C7 9526   3.073   4.664   0.017  0.2837 -0.2981  0.0429
  643TMC3    C8 9527   2.740   0.111   0.211 -0.1061 -0.1781  0.3239
  643TMC3    O1 9528   3.133   0.040  17.681 -0.6706  0.0041 -0.3442
  643TMC3    O2 9529   2.637   0.063   0.158 -0.2874  0.1510 -0.0180
  644MPD2     C 9530   3.458   0.373   9.292  0.6263 -0.2957 -0.6017
  644MPD2    C1 9531   3.568   0.454   9.266 -0.5648  0.6801  0.0800
  644MPD2    C2 9532   3.555   0.561   9.180 -0.0183  0.8631  0.0235
  644MPD2    C3 9533   3.437   0.592   9.109  0.4127  0.3826 -0.0616
  644MPD2    C4 9534   3.327   0.515   9.139 -0.6855 -0.2655  0.0570
  644MPD2    C5 9535   3.341   0.410   9.231  0.1513  0.0738 -0.4758
  644MPD2     H 9536   3.640   0.626   9.162  2.5742 -2.3781  0.7131
  644MPD2    H1 9537   3.233   0.530   9.088 -0.8225  1.1323  0.7341
  644MPD2    H2 9538   3.461   0.295   9.367  0.0835 -0.4625 -0.7561
  644MPD2    H3 9539   3.253   0.352   9.257  1.2784 -1.2113  0.4590
  644MPD2     N 9540   3.433   0.701   9.017 -0.5578 -0.3810 -0.1257
  644MPD2    H5 9541   3.519   0.754   9.019 -1.8045  1.4969  2.7728
  644MPD2    N1 9542   3.685   0.423   9.338 -0.8329  0.8567 -0.0918
  644MPD2    H7 9543   3.681   0.334   9.387  0.4819 -0.0488 -1.6099
  645TMC3    C1 9544   3.335   0.858   8.871 -0.3602  0.7081  0.0901
  645TMC3    C2 9545   3.446   0.934   8.893  0.2058  0.3057 -0.0031
  645TMC3    C3 9546   3.505   1.005   8.785 -0.2944 -1.0361  0.7507
  645TMC3    C4 9547   3.289   0.840   8.743  0.2359 -0.3108 -0.1729
  645TMC3    C5 9548   3.338   0.923   8.644  0.3664 -1.0842 -0.0469
  645TMC3    C6 9549   3.450   0.996   8.662 -0.1295  0.1498 -0.5627
  645TMC3     C 9550   3.323   0.731   8.936  0.3373 -0.1783  0.3670
  645TMC3     O 9551   3.234   0.650   8.905  0.2030 -0.3359  0.3763
  645TMC3     H 9552   3.469   0.950   8.997  2.1016 -0.6648 -0.2762
  645TMC3    H1 9553   3.211   0.769   8.718  0.1173 -0.8532  1.7764
  645TMC3    H2 9554   3.481   1.064   8.584  0.1185 -1.5775 -1.9798
  645TMC3    C7 9555   3.306   0.886   8.504 -0.0512  0.2417 -0.4355
  645TMC3    C8 9556   3.597   1.114   8.810  0.0902  0.1518 -0.3002
  645TMC3    O1 9557   3.198   0.837   8.485 -0.3371 -0.1665 -0.0322
  645TMC3    O2 9558   3.617   1.194   8.723 -0.7845 -0.2887 -0.1945
  646MPD2     C 9559   2.628   4.163  14.191  0.1923 -0.8169 -0.1705
  646MPD2    C1 9560   2.548   4.195  14.305 -0.4154  0.1251 -0.3312
  646MPD2    C2 9561   2.428   4.261  14.284 -0.0234  0.1575  0.7623
  646MPD2    C3 9562   2.384   4.301  14.162  0.3121 -0.0226  0.3261
  646MPD2    C4 9563   2.460   4.269  14.050  0.4082 -0.7885 -0.1869
  646MPD2    C5 9564   2.575   4.191  14.064 -0.7560  0.2976 -0.7013
  646MPD2     H 9565   2.379   4.288  14.377 -1.3281  0.3771  0.0083
  646MPD2    H1 9566   2.427   4.289  13.949  0.2920 -1.6632 -0.3159
  646MPD2    H2 9567   2.719   4.104  14.198  0.6934 -0.0867 -0.6037
  646MPD2    H3 9568   2.626   4.167  13.972 -0.2119  0.8241 -0.5353
  646MPD2     N 9569   2.285   4.406  14.159  0.4919  0.0468  0.1537
  646MPD2    H5 9570   2.238   4.420  14.249 -0.6702  1.7351 -0.7151
  646MPD2    N1 9571   2.599   4.155  14.436 -0.8697 -0.1371 -0.2945
  646MPD2    H7 9572   2.664   4.079  14.449 -0.7217 -0.0290 -0.4036
  647TMC3    C1 9573   2.599   4.111  14.666 -0.5269 -0.3834  0.1592
  647TMC3    C2 9574   2.516   4.075  14.768  0.1058  0.3781  0.0025
  647TMC3    C3 9575   2.577   4.040  14.885  0.1655  0.4197 -0.0799
  647TMC3    C4 9576   2.737   4.109  14.681  0.1482 -0.1964  0.0907
  647TMC3    C5 9577   2.788   4.092  14.804  0.4230  0.0959  0.1451
  647TMC3    C6 9578   2.700   4.070  14.906 -0.2624  0.5799 -0.3650
  647TMC3     C 9579   2.535   4.185  14.556 -0.5413  0.9495 -0.0030
  647TMC3     O 9580   2.450   4.268  14.583  0.1668 -0.0918 -0.2125
  647TMC3     H 9581   2.412   4.060  14.741 -0.8360  1.1063  3.2384
  647TMC3    H1 9582   2.795   4.137  14.593  1.5652  0.7900  1.3385
  647TMC3    H2 9583   2.728   4.055  15.009  1.6035  1.9356 -0.6790
  647TMC3    C7 9584   2.898   3.998  14.821 -0.2782 -1.6151 -0.5504
  647TMC3    C8 9585   2.568   3.898  14.915  0.6260  0.2454  0.0604
  647TMC3    O1 9586   2.965   4.004  14.924 -0.3678 -0.0499  0.2718
  647TMC3    O2 9587   2.597   3.859  15.027 -0.4088  0.4116 -0.4970
  648TMC3    C1 9588   1.792   2.141  15.857 -0.4278  0.1882  0.3922
  648TMC3    C2 9589   1.868   2.037  15.808  0.0907  0.0441  0.0947
  648TMC3    C3 9590   1.867   2.033  15.674 -0.3698  0.2628 -0.0635
  648TMC3    C4 9591   1.739   2.245  15.784  0.2149  0.3178  0.0648
  648TMC3    C5 9592   1.746   2.231  15.647  0.4915 -0.7880 -0.6447
  648TMC3    C6 9593   1.814   2.127  15.587 -0.8117 -0.3884  0.7206
  648TMC3     C 9594   1.797   2.148  16.002 -0.4663  0.1193 -0.0206
  648TMC3     O 9595   1.788   2.261  16.045 -0.1482 -0.0057 -0.0190
  648TMC3     H 9596   1.913   1.966  15.877 -1.8144 -1.8650 -0.6394
  648TMC3    H1 9597   1.689   2.315  15.850 -1.4947  0.8532 -1.8169
  648TMC3    H2 9598   1.827   2.109  15.481  0.2411 -0.2252  0.8197
  648TMC3    C7 9599   1.653   2.297  15.561  0.0366  0.3525 -0.3965
  648TMC3    C8 9600   1.933   1.917  15.619 -0.6407  0.7769 -0.0516
  648TMC3    O1 9601   1.629   2.247  15.451  0.2896 -0.2847  0.5281
  648TMC3    O2 9602   2.009   1.854  15.691 -0.1493  0.1713  0.2283
  649TMC3    C1 9603   0.796   3.101  12.876  0.5740 -0.7401  0.0146
  649TMC3    C2 9604   0.911   3.164  12.840  0.2371 -0.0747 -0.3655
  649TMC3    C3 9605   1.031   3.102  12.865 -0.0130  0.4629  0.4608
  649TMC3    C4 9606   0.798   2.980  12.931  0.0361 -0.4637 -0.3715
  649TMC3    C5 9607   0.921   2.929  12.975 -0.2844 -0.0979  0.4981
  649TMC3    C6 9608   1.038   2.985  12.938 -0.5123 -0.2854  0.8058
  649TMC3     C 9609   0.667   3.153  12.830  0.9147  0.6467  0.1532
  649TMC3     O 9610   0.654   3.273  12.826 -0.5130 -0.2546 -0.0109
  649TMC3     H 9611   0.896   3.266  12.805  1.1516  0.7989  1.7319
  649TMC3    H1 9612   0.711   2.940  12.981 -0.7697  1.3686 -0.3096
  649TMC3    H2 9613   1.127   2.962  12.996 -0.6749  0.8082  1.4960
  649TMC3    C7 9614   0.903   2.929  13.117  0.9802  0.4916  0.1303
  649TMC3    C8 9615   1.149   3.150  12.787  0.5472  0.2938 -0.8827
  649TMC3    O1 9616   0.857   3.027  13.174 -0.2079 -0.5733 -0.0388
  649TMC3    O2 9617   1.127   3.253  12.719  0.0342 -0.5125  0.4586
  650TMC3    C1 9618   3.672   0.044  12.563  0.2877 -0.0726  0.2474
  650TMC3    C2 9619   3.668   0.166  12.615  0.0541  0.0759  0.0506
  650TMC3    C3 9620   3.710   0.270  12.537 -0.5393  0.1865 -0.0988
  650TMC3    C4 9621   3.700   0.022  12.433 -0.7486  0.3597  0.2719
  650TMC3    C5 9622   3.753   0.127  12.358 -0.4364 -0.6973 -1.0493
  650TMC3    C6 9623   3.761   0.257  12.408 -0.9510 -0.2426  0.1168
  650TMC3     C 9624   3.637   4.661  12.653  0.1804  0.1063  0.6493
  650TMC3     O 9625   3.640   4.666  12.774  0.3278 -0.0919  0.1491
  650TMC3     H 9626   3.644   0.175  12.720 -2.1493  0.9689 -0.5385
  650TMC3    H1 9627   3.695   4.647  12.388 -1.4983  0.2741  0.5273
  650TMC3    H2 9628   3.782   0.340  12.341 -0.5887 -0.6848 -0.3264
  650TMC3    C7 9629   3.752   0.112  12.213  0.6939  0.1280  0.6356
  650TMC3    C8 9630   3.665   0.401  12.575  0.4096  0.2682 -0.1320
  650TMC3    O1 9631   3.653   0.055  12.163  0.4159 -0.1890 -0.5986
  650TMC3    O2 9632   3.718   0.491  12.510  0.0883  0.4679 -0.2807
  651MPD2     C 9633   2.690   1.454  10.497  0.3429  0.5425  0.7745
  651MPD2    C1 9634   2.633   1.578  10.462  0.0149 -0.2296 -0.1159
  651MPD2    C2 9635   2.715   1.671  10.410  0.2608 -0.0247 -0.2200
  651MPD2    C3 9636   2.849   1.651  10.387 -0.0694 -0.4349  0.2494
  651MPD2    C4 9637   2.903   1.525  10.420 -0.2311 -0.0912  0.4293
  651MPD2    C5 9638   2.823   1.431  10.473 -0.5224 -0.1471 -0.1688
  651MPD2     H 9639   2.683   1.770  10.380 -0.8767 -0.7030 -1.2567
  651MPD2    H1 9640   3.006   1.501  10.399 -0.1632  0.3268  0.2778
  651MPD2    H2 9641   2.624   1.379  10.538  0.6372  0.2098  0.6462
  651MPD2    H3 9642   2.871   1.338  10.497 -1.1489 -0.5134 -0.3400
  651MPD2     N 9643   2.926   1.758  10.331  0.9379 -0.2257  0.5216
  651MPD2    H5 9644   2.868   1.835  10.300  0.5142 -0.2618  1.2175
  651MPD2    N1 9645   2.497   1.611  10.480 -0.3275 -0.0906 -0.2878
  651MPD2    H7 9646   2.464   1.705  10.456 -1.3297 -0.1776  0.7178
  652TMC3    C1 9647   3.301   2.040  10.281 -0.1334 -0.0150  0.1084
  652TMC3    C2 9648   3.251   1.915  10.316  0.7864  1.1170 -0.1106
  652TMC3    C3 9649   3.126   1.877  10.259  0.4002  0.0174 -0.1425
  652TMC3    C4 9650   3.214   2.134  10.230 -0.0201  0.2606 -0.6614
  652TMC3    C5 9651   3.090   2.095  10.183 -0.1802  0.4074  0.0458
  652TMC3    C6 9652   3.047   1.958  10.192 -0.3231 -0.1143  0.5956
  652TMC3     C 9653   3.423   2.080  10.345  0.2467  0.1849 -0.2932
  652TMC3     O 9654   3.458   2.022  10.450 -0.0278 -0.5849  0.7991
  652TMC3     H 9655   3.322   1.834  10.326  1.9845  1.8413 -2.5815
  652TMC3    H1 9656   3.263   2.220  10.187 -1.9245  1.7882  0.2488
  652TMC3    H2 9657   2.945   1.931  10.166  0.0144 -0.0265 -0.8193
  652TMC3    C7 9658   2.983   2.178  10.236  0.0815 -0.2693 -0.9222
  652TMC3    C8 9659   3.065   1.765  10.338 -1.1537  0.4470 -0.2900
  652TMC3    O1 9660   2.873   2.155  10.196  0.0569 -0.0117 -0.2104
  652TMC3    O2 9661   3.148   1.687  10.387 -0.0302 -0.1860  0.3108
  653MPD2     C 9662   1.321   1.937  17.529  0.9331 -0.7458  1.0851
  653MPD2    C1 9663   1.211   2.013  17.516  0.2934 -0.2885  0.3028
  653MPD2    C2 9664   1.100   1.963  17.451  0.0232  0.6343  0.1512
  653MPD2    C3 9665   1.108   1.837  17.392 -0.0834 -0.4457 -0.2466
  653MPD2    C4 9666   1.226   1.767  17.400  0.9318 -0.1937  0.7442
  653MPD2    C5 9667   1.335   1.821  17.461  0.6036 -0.7975  0.6089
  653MPD2     H 9668   1.005   2.016  17.449 -0.1462  0.2589 -2.1991
  653MPD2    H1 9669   1.230   1.669  17.353  1.1106  1.0372 -1.8224
  653MPD2    H2 9670   1.387   1.963  17.611  1.0360  0.8237  0.5002
  653MPD2    H3 9671   1.426   1.763  17.470  1.6006  0.0027 -3.9632
  653MPD2     N 9672   0.996   1.792  17.325 -0.2017  0.2787 -0.2987
  653MPD2    H5 9673   0.915   1.854  17.324 -0.0247  0.5281  2.7846
  653MPD2    N1 9674   1.200   2.140  17.582 -0.5316  0.1112  0.1818
  653MPD2    H7 9675   1.131   2.204  17.544  0.2426 -0.4757 -2.1913
  654TMC3    C1 9676   0.847   1.652  17.211 -0.6663 -0.9015 -0.3356
  654TMC3    C2 9677   0.759   1.756  17.208 -0.3809  0.0739  0.4122
  654TMC3    C3 9678   0.631   1.725  17.165  0.0314 -0.1896  0.2546
  654TMC3    C4 9679   0.817   1.523  17.163  0.1512  0.1406 -0.5256
  654TMC3    C5 9680   0.685   1.496  17.141  0.4602  0.0179  0.5471
  654TMC3    C6 9681   0.592   1.603  17.129 -0.0151 -0.1824 -0.0140
  654TMC3     C 9682   0.981   1.670  17.264  0.2347 -0.6073 -0.3110
  654TMC3     O 9683   1.045   1.567  17.259  0.6117 -0.1875  0.1697
  654TMC3     H 9684   0.795   1.857  17.196  0.0757  0.0978  2.1059
  654TMC3    H1 9685   0.891   1.446  17.146 -1.8137 -1.2483 -2.7948
  654TMC3    H2 9686   0.495   1.601  17.082 -0.9338 -0.7535  1.8952
  654TMC3    C7 9687   0.669   1.384  17.046 -0.1725 -0.5026  0.3122
  654TMC3    C8 9688   0.532   1.831  17.159  0.2907  0.1943 -0.3940
  654TMC3    O1 9689   0.608   1.426  16.952  0.0978  0.2641 -0.0113
  654TMC3    O2 9690   0.463   1.830  17.059  0.4919 -0.0861  0.3232
  655MPD2     C 9691   2.239   2.064  15.713 -0.4657  0.2709 -0.0758
  655MPD2    C1 9692   2.253   2.166  15.625  0.1748  0.1657  0.3275
  655MPD2    C2 9693   2.334   2.136  15.511 -0.2557  0.0019  0.3497
  655MPD2    C3 9694   2.406   2.019  15.496 -0.2787 -0.4191  0.8339
  655MPD2    C4 9695   2.391   1.922  15.595 -0.3168 -0.9230  0.0699
  655MPD2    C5 9696   2.307   1.942  15.694  0.4892  0.0754 -0.9063
  655MPD2     H 9697   2.354   2.223  15.449 -0.6533 -1.0188 -1.1913
  655MPD2    H1 9698   2.454   1.834  15.603  1.9036  0.6930  0.2078
  655MPD2    H2 9699   2.164   2.078  15.789 -1.8479 -2.4855 -0.9402
  655MPD2    H3 9700   2.297   1.862  15.767 -1.8552  1.0411 -0.1675
  655MPD2     N 9701   2.484   1.985  15.383 -0.4246  0.7879 -0.0180
  655MPD2    H5 9702   2.507   1.886  15.377 -3.4785 -0.0407  2.0520
  655MPD2    N1 9703   2.182   2.287  15.649 -0.1507 -0.4677  0.4694
  655MPD2    H7 9704   2.178   2.353  15.572  0.2631 -1.7387 -0.6660
  656TMC3    C1 9705   2.040   2.449  15.743  0.0028 -0.3864 -0.4763
  656TMC3    C2 9706   1.983   2.516  15.844  0.4812 -0.1060 -0.7751
  656TMC3    C3 9707   1.911   2.636  15.823 -0.7072 -0.3249  0.2640
  656TMC3    C4 9708   2.019   2.491  15.614  0.1229 -0.0417  0.7497
  656TMC3    C5 9709   1.938   2.605  15.588 -0.2769  0.1930  0.0804
  656TMC3    C6 9710   1.887   2.680  15.691 -0.1068  1.3467 -0.7462
  656TMC3     C 9711   2.116   2.325  15.764 -0.1088  0.2080 -0.0435
  656TMC3     O 9712   2.137   2.298  15.882 -0.1705 -0.8484  0.1812
  656TMC3     H 9713   1.996   2.479  15.945 -0.4775  1.1885 -0.1800
  656TMC3    H1 9714   2.056   2.434  15.530 -1.0005 -0.4600  0.5408
  656TMC3    H2 9715   1.825   2.768  15.672  1.5389  2.7646  0.4160
  656TMC3    C7 9716   1.871   2.615  15.456 -0.3562 -0.2322 -0.4214
  656TMC3    C8 9717   1.782   2.621  15.887  0.2876 -0.4083 -0.4767
  656TMC3    O1 9718   1.917   2.545  15.365 -0.3935 -0.1566 -0.5242
  656TMC3    O2 9719   1.701   2.564  15.816  0.3672 -0.0294 -0.1106
  657TMC3    C1 9720   1.221   0.952  15.392 -0.6997 -0.6402 -0.2133
  657TMC3    C2 9721   1.298   0.858  15.459  0.1284 -0.1734 -0.4511
  657TMC3    C3 9722   1.318   0.876  15.594 -0.9976  0.0581  0.5101
  657TMC3    C4 9723   1.174   1.060  15.458  0.7506  0.2910  0.7256
  657TMC3    C5 9724   1.181   1.068  15.594 -0.2178  0.4420 -0.2625
  657TMC3    C6 9725   1.260   0.981  15.659 -0.3464 -0.1425  0.8901
  657TMC3     C 9726   1.194   0.938  15.250  0.0882 -0.1372  0.6883
  657TMC3     O 9727   1.091   0.983  15.199  0.1777 -0.5876 -0.4866
  657TMC3     H 9728   1.316   0.759  15.418  2.6314 -1.3298  3.3557
  657TMC3    H1 9729   1.116   1.127  15.396  1.7158 -0.1767 -0.6903
  657TMC3    H2 9730   1.288   0.988  15.763  0.6314 -0.5312  0.6618
  657TMC3    C7 9731   1.101   1.177  15.657  0.5257  0.0821  0.2973
  657TMC3    C8 9732   1.412   0.791  15.668  0.3799 -0.7485  0.5742
  657TMC3    O1 9733   1.070   1.274  15.590 -0.1599 -0.2149  0.1946
  657TMC3    O2 9734   1.403   0.785  15.791 -0.4213  0.3634 -0.5607
  658MPD2     C 9735   3.022   2.076  14.687 -0.5796 -0.5137  0.2259
  658MPD2    C1 9736   2.889   2.046  14.652 -0.1091  0.2139 -0.1852
  658MPD2    C2 9737   2.856   2.050  14.515  0.4408 -0.3713 -1.0902
  658MPD2    C3 9738   2.944   2.097  14.419 -0.2477 -0.2466  0.0842
  658MPD2    C4 9739   3.070   2.141  14.461  0.2229 -0.1145 -0.3961
  658MPD2    C5 9740   3.111   2.128  14.595  0.2111  1.1532 -0.7229
  658MPD2     H 9741   2.755   2.025  14.484  0.5523  0.5057 -2.1370
  658MPD2    H1 9742   3.142   2.179  14.389  0.5753 -1.6760 -0.8581
  658MPD2    H2 9743   3.065   2.077  14.786  0.0202  1.4064 -0.0626
  658MPD2    H3 9744   3.215   2.142  14.625 -0.0552  1.2913  0.1233
  658MPD2     N 9745   2.910   2.115  14.281  0.7399  0.1771 -0.0582
  658MPD2    H5 9746   2.974   2.176  14.231 -0.3911  1.2997 -0.1377
  658MPD2    N1 9747   2.786   2.009  14.752 -0.1266 -0.4906 -0.2862
  658MPD2    H7 9748   2.707   1.951  14.725  1.4149 -2.9309  0.4295
  659TMC3    C1 9749   2.678   1.993  14.963  0.2010  0.0975 -0.3039
  659TMC3    C2 9750   2.653   2.060  15.083 -0.0435  0.0289  0.1539
  659TMC3    C3 9751   2.567   1.993  15.168  0.0893 -0.2294  0.3964
  659TMC3    C4 9752   2.638   1.866  14.941  0.4924 -0.2632  0.2622
  659TMC3    C5 9753   2.564   1.798  15.031  0.0700 -0.1031 -0.4902
  659TMC3    C6 9754   2.527   1.869  15.143 -1.0922  0.6864  0.0008
  659TMC3     C 9755   2.790   2.040  14.880  0.4370  0.0983 -0.1337
  659TMC3     O 9756   2.864   2.124  14.931 -0.4289  0.4216 -0.1423
  659TMC3     H 9757   2.692   2.157  15.112 -1.7238  0.7093  0.1738
  659TMC3    H1 9758   2.659   1.813  14.848 -1.1615 -0.3621 -0.0620
  659TMC3    H2 9759   2.459   1.827  15.216  0.3772 -0.8815  0.4653
  659TMC3    C7 9760   2.498   1.670  15.004 -0.5318 -0.2686  0.6300
  659TMC3    C8 9761   2.522   2.063  15.282  0.7349  0.4362  0.7734
  659TMC3    O1 9762   2.412   1.640  15.085 -0.4279  0.3441 -0.1404
  659TMC3    O2 9763   2.524   2.185  15.269 -0.6013  0.1916 -0.2551
  660MPD2     C 9764   0.882   0.554  12.083  0.0198 -0.1876 -0.1256
  660MPD2    C1 9765   0.855   0.671  12.154  0.9240 -0.2467 -0.2744
  660MPD2    C2 9766   0.830   0.665  12.295 -0.0381 -0.0869  0.3543
  660MPD2    C3 9767   0.835   0.540  12.359 -0.5709  0.2381  0.3455
  660MPD2    C4 9768   0.876   0.426  12.288  0.0771 -0.0751 -0.4877
  660MPD2    C5 9769   0.891   0.432  12.153  0.6689  0.4331 -0.4500
  660MPD2     H 9770   0.811   0.754  12.353 -0.6982 -1.1637  1.7900
  660MPD2    H1 9771   0.892   0.331  12.337  0.0834 -0.6548 -1.6180
  660MPD2    H2 9772   0.908   0.567  11.979 -0.7258  1.3708 -0.1083
  660MPD2    H3 9773   0.928   0.346  12.098 -3.1316 -2.2322  1.1838
  660MPD2     N 9774   0.789   0.525  12.487 -0.1563  0.8522  0.7405
  660MPD2    H5 9775   0.807   0.437  12.534  0.0132  0.1136 -0.7009
  660MPD2    N1 9776   0.833   0.793  12.078  0.2796  0.4965  0.1488
  660MPD2    H7 9777   0.833   0.783  11.977 -2.4100  0.0468  0.2026
  661TMC3    C1 9778   0.789   1.006  12.016  0.1368 -0.0273 -0.4535
  661TMC3    C2 9779   0.836   0.977  11.892  0.8511  0.4384  0.2944
  661TMC3    C3 9780   0.787   1.056  11.784  0.2837 -0.2354 -0.2992
  661TMC3    C4 9781   0.698   1.111  12.031 -0.1238  0.0560 -0.1028
  661TMC3    C5 9782   0.642   1.172  11.921 -0.0626  0.0567  0.7095
  661TMC3    C6 9783   0.690   1.146  11.793  0.2603 -0.0586 -0.0559
  661TMC3     C 9784   0.805   0.916  12.125  0.1336  0.2147 -0.4530
  661TMC3     O 9785   0.794   0.957  12.240 -0.4221  0.0202  0.4284
  661TMC3     H 9786   0.920   0.912  11.869  1.1687  1.1394 -0.5416
  661TMC3    H1 9787   0.658   1.126  12.130  0.3821 -2.9904  0.5530
  661TMC3    H2 9788   0.656   1.209  11.713 -0.1626  1.2173  1.1246
  661TMC3    C7 9789   0.501   1.217  11.931  0.3005  0.1147  0.6777
  661TMC3    C8 9790   0.832   1.032  11.651 -0.4968 -0.4097  0.8385
  661TMC3    O1 9791   0.467   1.244  12.047 -0.5112  0.3440  0.0421
  661TMC3    O2 9792   0.828   1.129  11.577 -0.0089 -0.4850  0.0241
  662MPD2     C 9793   0.488   0.958  17.068  0.1146  0.6694  0.9223
  662MPD2    C1 9794   0.509   0.909  17.196  0.2051 -0.0682 -0.2495
  662MPD2    C2 9795   0.497   1.004  17.296 -0.4571 -0.2919 -0.3130
  662MPD2    C3 9796   0.457   1.136  17.279  0.2950  0.2112 -0.3872
  662MPD2    C4 9797   0.417   1.171  17.150 -0.4254  0.7480 -0.0606
  662MPD2    C5 9798   0.440   1.081  17.043  0.0245 -0.6617  0.2633
  662MPD2     H 9799   0.508   0.960  17.395  1.1501 -1.0261 -0.8256
  662MPD2    H1 9800   0.384   1.271  17.122 -2.9747  0.4485  1.9154
  662MPD2    H2 9801   0.491   0.900  16.977  0.2328  1.2349  0.5712
  662MPD2    H3 9802   0.411   1.111  16.943  1.7494 -0.8851 -0.2975
  662MPD2     N 9803   0.429   1.223  17.393  0.4079  0.6605 -0.3832
  662MPD2    H5 9804   0.378   1.307  17.371 -0.8556 -0.2924 -1.0419
  662MPD2    N1 9805   0.541   0.778  17.230  0.1259  0.6412  0.1679
  662MPD2    H7 9806   0.537   0.765  17.331 -1.0791  1.7112  0.2699
  663TMC3    C1 9807   0.562   0.550  17.202  0.3542  0.5120 -1.1063
  663TMC3    C2 9808   0.491   0.540  17.320 -0.1481  0.8479  0.7341
  663TMC3    C3 9809   0.473   0.415  17.366  0.8914 -0.7346  0.9376
  663TMC3    C4 9810   0.616   0.446  17.131 -0.1624 -0.6410 -0.0929
  663TMC3    C5 9811   0.622   0.328  17.199 -0.3775 -0.1729  0.7172
  663TMC3    C6 9812   0.549   0.313  17.313 -0.2675  0.4510 -0.2683
  663TMC3     C 9813   0.561   0.678  17.138 -0.7159 -0.4221  0.1072
  663TMC3     O 9814   0.592   0.689  17.022  0.0711 -1.2384  0.1967
  663TMC3     H 9815   0.413   0.613  17.340 -3.3605 -2.3130 -0.2866
  663TMC3    H1 9816   0.669   0.462  17.038 -2.2564  1.4940 -0.9420
  663TMC3    H2 9817   0.513   0.213  17.335  0.7343  0.4792  1.4750
  663TMC3    C7 9818   0.657   0.209  17.117  0.4057  0.3493 -0.1757
  663TMC3    C8 9819   0.334   0.375  17.337 -0.0121 -0.6386 -0.4070
  663TMC3    O1 9820   0.683   0.233  17.001 -0.1175  0.1020  0.4312
  663TMC3    O2 9821   0.297   0.382  17.221  0.0868 -0.2809 -0.1366
  664MPD2     C 9822   3.002   3.664  16.975  0.2817 -0.0654  0.3049
  664MPD2    C1 9823   3.125   3.691  17.039 -0.7458 -0.4855  0.5332
  664MPD2    C2 9824   3.147   3.674  17.175 -0.0755  0.2986  0.0674
  664MPD2    C3 9825   3.037   3.645  17.253  0.0720 -0.3071 -0.5857
  664MPD2    C4 9826   2.920   3.619  17.190 -1.1759 -0.5169 -1.1297
  664MPD2    C5 9827   2.896   3.629  17.053  0.5371 -0.1939  0.1565
  664MPD2     H 9828   3.240   3.706  17.220 -0.4223 -0.0771  1.0348
  664MPD2    H1 9829   2.832   3.601  17.251  0.0019 -1.6319  0.2638
  664MPD2    H2 9830   2.977   3.692  16.873 -0.6533 -0.4115  0.4331
  664MPD2    H3 9831   2.795   3.614  17.018 -0.0830  0.0131  1.8324
  664MPD2     N 9832   3.057   3.642  17.391  0.4439 -0.0335 -0.5487
  664MPD2    H5 9833   3.149   3.671  17.424 -0.3226 -0.4795  2.0330
  664MPD2    N1 9834   3.244   3.724  16.974 -0.2614 -0.0815  0.3693
  664MPD2    H7 9835   3.333   3.737  17.020  1.1654  1.1405 -2.7108
  665TMC3    C1 9836   2.999   3.639  17.616 -0.2254 -0.1533  1.1883
  665TMC3    C2 9837   2.929   3.578   0.019  0.2705  0.0761  0.8740
  665TMC3    C3 9838   2.969   3.614   0.148  0.4774  0.0210 -0.0571
  665TMC3    C4 9839   3.104   3.727  17.640 -0.6053 -0.6383  0.2264
  665TMC3    C5 9840   3.149   3.744   0.072 -0.5682  0.2681 -0.8666
  665TMC3    C6 9841   3.086   3.686   0.175  0.2057 -0.1088 -0.3366
  665TMC3     C 9842   2.967   3.602  17.484  0.3223  0.1476 -0.0066
  665TMC3     O 9843   2.861   3.537  17.474 -0.1700 -0.5799 -0.9061
  665TMC3     H 9844   2.853   3.501   0.012 -0.7731  1.1610  0.2609
  665TMC3    H1 9845   3.155   3.787  17.566  0.9578 -0.4225  1.4803
  665TMC3    H2 9846   3.137   3.690   0.271 -1.3266 -2.6031  0.5832
  665TMC3    C7 9847   3.279   3.815   0.091  0.0010  0.2657  0.2396
  665TMC3    C8 9848   2.896   3.561   0.274  0.6908 -0.1788 -0.2656
  665TMC3    O1 9849   3.354   3.791  17.698 -0.2113 -0.2581 -0.3183
  665TMC3    O2 9850   2.946   3.563   0.384 -0.0129 -0.1651  0.6015
  666TMC3    C1 9851   3.645   3.340  10.043 -0.4405  0.2607  0.0134
  666TMC3    C2 9852   3.625   3.247  10.140 -0.2717  0.6774 -0.3623
  666TMC3    C3 9853   3.637   3.285  10.271 -1.3269  0.4058 -0.0715
  666TMC3    C4 9854   3.667   3.469  10.069  0.0441  0.3395 -0.4586
  666TMC3    C5 9855   3.671   3.504  10.200  0.0220 -0.2119  0.4259
  666TMC3    C6 9856   3.656   3.419  10.303  0.4956 -0.5539 -0.3114
  666TMC3     C 9857   3.695   3.295   9.916  0.3758  0.3030 -0.1859
  666TMC3     O 9858   3.796   3.347   9.868 -0.1682  0.1206  0.0441
  666TMC3     H 9859   3.615   3.142  10.115  0.4776  0.4395  0.3602
  666TMC3    H1 9860   3.694   3.538   9.990  2.1804 -1.2044 -1.0700
  666TMC3    H2 9861   3.671   3.441  10.408 -1.5664  0.2684 -0.1828
  666TMC3    C7 9862   3.656   3.647  10.218  0.3927 -0.6920  0.6035
  666TMC3    C8 9863   3.622   3.192  10.377  0.3133 -0.4931 -0.5284
  666TMC3    O1 9864   3.675   3.725  10.125  0.0566  0.5570 -0.1035
  666TMC3    O2 9865   3.555   3.096  10.351  0.2318 -1.1869  0.3443
  667MPD2     C 9866   0.180   3.384  14.279  0.8779  0.6076 -0.1376
  667MPD2    C1 9867   0.066   3.431  14.335 -0.1943  0.3951 -0.3597
  667MPD2    C2 9868   4.673   3.362  14.317 -0.1173  0.2993  0.4010
  667MPD2    C3 9869   4.668   3.246  14.232 -0.4877  0.2355 -0.2134
  667MPD2    C4 9870   0.067   3.191  14.197 -0.0423 -0.0925  0.2525
  667MPD2    C5 9871   0.180   3.258  14.231  0.1066 -0.4683 -0.1123
  667MPD2     H 9872   4.583   3.399  14.364 -0.5131 -0.4694  0.2650
  667MPD2    H1 9873   0.068   3.095  14.147 -1.9871  0.4557 -0.8412
  667MPD2    H2 9874   0.282   3.417  14.295  1.7080 -1.5013 -1.0020
  667MPD2    H3 9875   0.275   3.208  14.214  0.6721  0.3317  0.7200
  667MPD2     N 9876   4.543   3.179  14.201 -0.5608  0.5647 -0.2990
  667MPD2    H5 9877   4.556   3.092  14.151  0.0697  1.5981 -1.9494
  667MPD2    N1 9878   0.064   3.537  14.418 -0.1783 -0.8482 -0.4337
  667MPD2    H7 9879   4.709   3.539  14.482  0.5262 -2.2022  0.4902
  668TMC3    C1 9880   0.130   3.732  14.530  0.0740  0.3203 -0.2887
  668TMC3    C2 9881   0.139   3.873  14.525 -0.4162  0.0588 -0.2162
  668TMC3    C3 9882   0.137   3.944  14.652  0.0224 -0.1737  0.6659
  668TMC3    C4 9883   0.112   3.664  14.653  0.7073 -0.1604  0.2084
  668TMC3    C5 9884   0.102   3.739  14.763  0.5641 -0.3636  0.6573
  668TMC3    C6 9885   0.108   3.876  14.769 -0.7839 -0.2235 -0.1512
  668TMC3     C 9886   0.149   3.640  14.415 -0.3816  0.1794 -0.2602
  668TMC3     O 9887   0.225   3.678  14.331 -0.0946 -0.3667 -0.2986
  668TMC3     H 9888   0.143   3.925  14.430 -0.6392 -0.6759 -0.6208
  668TMC3    H1 9889   0.100   3.556  14.654 -1.4988  0.0543 -2.1102
  668TMC3    H2 9890   0.117   3.925  14.866 -0.8763 -0.0189 -0.2439
  668TMC3    C7 9891   0.087   3.686  14.895 -0.6974 -0.1528 -0.7426
  668TMC3    C8 9892   0.138   4.090  14.649  0.0394 -0.1975 -0.4540
  668TMC3    O1 9893   0.146   3.740  14.985  0.4626  0.0130 -0.3661
  668TMC3    O2 9894   0.104   4.149  14.753 -0.5079  0.6135  0.1520
  669TMC3    C1 9895   2.257   3.140  14.280 -0.2387  0.2846  0.1210
  669TMC3    C2 9896   2.141   3.177  14.227  0.4546 -0.7823 -0.2457
  669TMC3    C3 9897   2.135   3.286  14.141 -0.0153  0.1673  0.4079
  669TMC3    C4 9898   2.380   3.190  14.240 -0.0081 -0.4507 -0.7177
  669TMC3    C5 9899   2.373   3.295  14.152  0.7995  0.0560 -0.0643
  669TMC3    C6 9900   2.252   3.351  14.103  0.8234  0.2428 -0.3098
  669TMC3     C 9901   2.254   3.063  14.399  1.1411  0.2644 -0.6798
  669TMC3     O 9902   2.159   2.985  14.407 -0.1587  0.2851 -0.3028
  669TMC3     H 9903   2.049   3.133  14.264 -0.2826 -0.6802 -1.9711
  669TMC3    H1 9904   2.476   3.148  14.267  1.0433  2.3827 -0.1190
  669TMC3    H2 9905   2.245   3.440  14.042  0.8032  2.1478  2.4680
  669TMC3    C7 9906   2.500   3.355  14.109  0.4582  0.3513  0.7484
  669TMC3    C8 9907   2.010   3.341  14.093  0.3575  0.2939 -0.8298
  669TMC3    O1 9908   2.597   3.321  14.179  0.4157  0.6670 -0.1190
  669TMC3    O2 9909   1.933   3.267  14.036 -0.4215 -0.1943  0.6164
  670MPD2     C 9910   0.557   1.344  13.450  0.3392 -0.1393  0.0578
  670MPD2    C1 9911   0.685   1.315  13.495  0.0500 -0.3542 -0.1044
  670MPD2    C2 9912   0.695   1.317  13.632  0.4473 -0.5615 -0.2066
  670MPD2    C3 9913   0.594   1.354  13.719 -0.0157  0.1808 -1.2301
  670MPD2    C4 9914   0.469   1.388  13.670 -0.4443 -0.2654 -0.0300
  670MPD2    C5 9915   0.461   1.382  13.537  0.7005 -1.0914  0.0950
  670MPD2     H 9916   0.791   1.290  13.674  0.0118 -0.1933  1.0072
  670MPD2    H1 9917   0.391   1.433  13.731  1.2049 -0.3395  2.1287
  670MPD2    H2 9918   0.536   1.343  13.344  1.2777 -0.9216 -0.1257
  670MPD2    H3 9919   0.366   1.415  13.496 -0.3395 -1.3352  2.2777
  670MPD2     N 9920   0.628   1.349  13.856  0.5776 -0.1951 -0.1293
  670MPD2    H5 9921   0.711   1.294  13.873  0.4300  0.2982  2.1267
  670MPD2    N1 9922   0.796   1.288  13.406  0.3775  0.6557  0.4526
  670MPD2    H7 9923   0.886   1.264  13.446  0.8179  1.8358  0.1414
  671TMC3    C1 9924   0.614   1.379  14.092  0.2663 -0.5455 -0.3277
  671TMC3    C2 9925   0.747   1.350  14.093 -0.2746 -0.1751 -0.1708
  671TMC3    C3 9926   0.787   1.301  14.211  0.0996 -0.1284  0.4000
  671TMC3    C4 9927   0.523   1.354  14.193  0.1234 -0.0372 -0.3696
  671TMC3    C5 9928   0.573   1.288  14.302 -0.0321 -0.4200  0.4157
  671TMC3    C6 9929   0.704   1.264  14.314  0.0952  0.1418  0.8688
  671TMC3     C 9930   0.550   1.391  13.962  0.1032 -0.0762 -0.3802
  671TMC3     O 9931   0.436   1.428  13.952 -0.4178 -0.1126 -0.3524
  671TMC3     H 9932   0.814   1.407  14.029  0.1357 -0.5062 -0.0347
  671TMC3    H1 9933   0.420   1.384  14.185 -0.0255 -0.1097  1.1931
  671TMC3    H2 9934   0.734   1.191  14.387 -1.3345 -1.2575  0.0603
  671TMC3    C7 9935   0.498   1.171  14.324  0.3404 -0.0901  0.5719
  671TMC3    C8 9936   0.917   1.239  14.201  0.3873 -0.8937 -0.6385
  671TMC3    O1 9937   0.524   1.097  14.417 -0.4208 -0.5111 -0.2870
  671TMC3    O2 9938   0.962   1.247  14.085  0.7803 -0.9889  0.2556
  672MPD2     C 9939   0.788   1.294   0.883  0.1462  0.7353 -0.0754
  672MPD2    C1 9940   0.914   1.335   0.847  0.1125  0.5832  0.1175
  672MPD2    C2 9941   0.986   1.426   0.926  0.3277  0.9607 -0.3538
  672MPD2    C3 9942   0.933   1.473   1.040 -0.2596 -0.2847  0.4860
  672MPD2    C4 9943   0.798   1.443   1.069  0.0918 -0.0103 -0.2387
  672MPD2    C5 9944   0.736   1.350   0.992  0.1005  0.2401  1.1046
  672MPD2     H 9945   1.087   1.448   0.895  0.1151  1.7102 -0.5331
  672MPD2    H1 9946   0.763   1.475   1.166 -0.6469 -1.4857 -0.0245
  672MPD2    H2 9947   0.723   1.235   0.819 -1.3087  2.2364  0.0172
  672MPD2    H3 9948   0.628   1.340   1.002  0.0206 -0.1217 -0.0938
  672MPD2     N 9949   1.006   1.556   1.132  0.5444 -0.9578  0.1763
  672MPD2    H5 9950   0.952   1.598   1.207  0.9346 -0.4137  0.1553
  672MPD2    N1 9951   0.981   1.290   0.730 -0.0037 -0.2096 -0.3379
  672MPD2    H7 9952   1.068   1.337   0.706 -0.5475  1.2868  0.6665
  673TMC3    C1 9953   1.052   1.137   0.554  0.4206 -0.1160  0.5584
  673TMC3    C2 9954   1.107   1.012   0.537 -0.2170  0.4727  0.5857
  673TMC3    C3 9955   1.164   0.980   0.416  0.2602 -0.1858 -0.1096
  673TMC3    C4 9956   1.062   1.233   0.452  0.5806 -0.3543  0.1064
  673TMC3    C5 9957   1.122   1.193   0.334 -0.1209  0.1269 -0.2260
  673TMC3    C6 9958   1.153   1.065   0.308 -0.7641 -0.3111  0.1316
  673TMC3     C 9959   0.959   1.165   0.667  0.6042 -0.1545  0.3118
  673TMC3     O 9960   0.878   1.078   0.703 -0.0817 -0.1388  0.1171
  673TMC3     H 9961   1.104   0.930   0.608  0.8459  0.9397  1.1765
  673TMC3    H1 9962   1.006   1.326   0.454 -1.7713 -1.7906  1.1330
  673TMC3    H2 9963   1.191   1.035   0.211  1.8895 -0.3430  1.1813
  673TMC3    C7 9964   1.191   1.287   0.254 -0.6713  0.1331  0.3145
  673TMC3    C8 9965   1.259   0.872   0.405  0.2951  0.9340  0.7151
  673TMC3    O1 9966   1.243   1.250   0.153  0.0777  0.7126 -0.6925
  673TMC3    O2 9967   1.291   0.819   0.299 -0.4751  0.4605 -0.2024
  674MPD2     C 9968   0.953   1.413  17.627 -0.1204  0.5604 -0.4389
  674MPD2    C1 9969   0.896   1.337   0.032  0.0081  0.3227 -0.3516
  674MPD2    C2 9970   0.862   1.408   0.147 -1.1700  0.9031  0.1469
  674MPD2    C3 9971   0.891   1.546   0.166 -1.1928  0.1971  0.2746
  674MPD2    C4 9972   0.944   1.619   0.062  1.4419 -0.4258  0.4043
  674MPD2    C5 9973   0.979   1.549  17.647 -0.5466 -0.3897 -0.3447
  674MPD2     H 9974   0.805   1.355   0.223  3.3458 -3.9211  0.1458
  674MPD2    H1 9975   0.966   1.725   0.055  0.4041 -0.2583 -0.4603
  674MPD2    H2 9976   0.979   1.370  17.531 -0.4322  0.7189 -0.5938
  674MPD2    H3 9977   1.004   1.612  17.563 -3.7253  2.4070  0.8262
  674MPD2     N 9978   0.854   1.616   0.278  0.1905  0.2114  0.3537
  674MPD2    H5 9979   0.801   1.559   0.344 -0.6605 -0.0044 -0.5115
  674MPD2    N1 9980   0.880   1.199   0.015  0.3562 -0.1433  0.5717
  674MPD2    H7 9981   0.929   1.153  17.637 -2.4999  0.0427 -1.3615
  675TMC3    C1 9982   0.827   0.967   0.055 -0.5197 -0.0870 -0.3951
  675TMC3    C2 9983   0.699   0.914   0.052  0.1981 -0.4254  0.4876
  675TMC3    C3 9984   0.659   0.845  17.639  0.2591  0.7817 -0.2304
  675TMC3    C4 9985   0.916   0.938  17.648 -0.6553  0.3557  0.4446
  675TMC3    C5 9986   0.871   0.868  17.540 -0.0143 -0.5571 -0.8373
  675TMC3    C6 9987   0.740   0.821  17.533 -0.7551  0.4920  0.5138
  675TMC3     C 9988   0.823   1.106   0.105 -0.2748  0.3054 -0.5147
  675TMC3     O 9989   0.770   1.122   0.213  0.1241  0.0091 -0.8255
  675TMC3     H 9990   0.628   0.943   0.129  0.9809 -0.7916  1.3404
  675TMC3    H1 9991   1.010   0.990  17.656  0.3477 -1.2263 -1.0198
  675TMC3    H2 9992   0.697   0.771  17.447 -0.0415  0.3767  0.2255
  675TMC3    C7 9993   0.959   0.858  17.427  0.2100  0.3663  0.2584
  675TMC3    C8 9994   0.532   0.773  17.637  0.2578 -0.8146 -0.4178
  675TMC3    O1 9995   0.916   0.843  17.316  0.0417 -0.5189 -0.0428
  675TMC3    O2 9996   0.472   0.782  17.530 -0.2713 -0.3500  0.0834
  676MPD2     C 9997   3.659   4.721  10.698  0.1619  0.5820  0.1982
  676MPD2    C1 9998   3.603   4.701  10.825 -0.1689 -0.3441  0.6609
  676MPD2    C2 9999   3.656   4.604  10.909 -0.4416 -0.4069 -0.1538
  676MPD2    C310000   3.761   4.524  10.868  0.1974 -0.1725 -0.0819
  676MPD2    C410001   3.812   4.544  10.739  0.1482  0.5154  0.7077
  676MPD2    C510002   3.761   4.642  10.655 -0.0991 -0.3074  0.4378
  676MPD2     H10003   3.616   4.597  11.010  0.9671  0.1060  0.4413
  676MPD2    H110004   3.880   4.469  10.700  1.3075  0.9998  1.8163
  676MPD2    H210005   3.625   0.069  10.625 -1.0211 -0.3244 -0.1666
  676MPD2    H310006   3.807   4.668  10.560  0.2219  0.5647  0.8366
  676MPD2     N10007   3.823   4.430  10.951 -0.0087 -0.1140  0.4262
  676MPD2    H510008   3.909   4.391  10.913  0.0100 -0.0809  0.4351
  676MPD2    N110009   3.490   0.035  10.879 -0.6117 -0.1485 -0.2968
  676MPD2    H710010   3.469   4.714  10.968  1.4239 -1.4034 -0.4668
  677TMC3    C110011   3.375   0.216  10.951 -0.2612  0.1704 -0.5068
  677TMC3    C210012   3.358   0.148  11.068  1.0565  0.2604  0.5285
  677TMC3    C310013   3.356   0.213  11.187 -0.7076 -0.4118 -0.0563
  677TMC3    C410014   3.396   0.355  10.949 -1.3139 -0.7637  0.3552
  677TMC3    C510015   3.388   0.419  11.076  0.2990 -0.3286 -0.1568
  677TMC3    C610016   3.370   0.343  11.191  0.2389  0.7589  0.4418
  677TMC3     C10017   3.427   0.144  10.837  0.3329 -0.0187 -0.1167
  677TMC3     O10018   3.471   0.207  10.744 -0.4512  0.2668  0.4414
  677TMC3     H10019   3.335   0.042  11.072  0.4772  0.2267 -3.6325
  677TMC3    H110020   3.412   0.399  10.851 -0.3478 -1.3796  0.2411
  677TMC3    H210021   3.380   0.393  11.287 -3.1766  2.9848 -0.3611
  677TMC3    C710022   3.441   0.551  11.092 -0.7672 -0.6422 -0.6943
  677TMC3    C810023   3.386   0.130  11.307  0.1144  0.5574  0.2013
  677TMC3    O110024   3.396   0.613  11.185 -0.3582  0.3833  0.5182
  677TMC3    O210025   3.434   0.021  11.282 -0.0231  0.2416  0.0373
  678MPD2     C10026   4.391   3.844   1.211 -0.0966  0.3683  0.5329
  678MPD2    C110027   4.422   3.898   1.093 -0.1106  0.0150  0.4143
  678MPD2    C210028   4.327   3.986   1.044 -0.4976 -0.9147  0.1020
  678MPD2    C310029   4.208   4.024   1.104 -0.3267 -0.5385  0.0293
  678MPD2    C410030   4.187   3.978   1.230 -0.8473 -0.3823 -0.3858
  678MPD2    C510031   4.272   3.875   1.275  0.1143  0.5497  0.0149
  678MPD2     H10032   4.351   4.034   0.949  2.1746 -0.5115  0.9979
  678MPD2    H110033   4.102   4.005   1.291 -0.5724  1.0017 -0.6095
  678MPD2    H210034   4.446   3.769   1.266 -1.9433  0.2916  2.2855
  678MPD2    H310035   4.243   3.829   1.369  0.2476  1.8434  0.6805
  678MPD2     N10036   4.134   4.120   1.036  0.8766  0.1629 -0.2512
  678MPD2    H510037   4.168   4.155   0.947 -0.8227  1.6283 -0.3346
  678MPD2    N110038   4.536   3.867   1.017  0.5315 -0.1158 -0.1601
  678MPD2    H710039   4.544   3.909   0.925 -1.2660 -1.4035 -0.9068
  679TMC3    C110040   0.206   3.673   0.884  0.2071  0.0709  0.1091
  679TMC3    C210041   0.089   3.657   0.955  0.4924 -0.6362  0.0339
  679TMC3    C310042   0.012   3.772   0.955 -0.4616 -0.1444 -0.0257
  679TMC3    C410043   0.240   3.787   0.812 -0.3619 -0.4825  0.5011
  679TMC3    C510044   0.159   3.893   0.823  0.6251 -0.5517  0.4661
  679TMC3    C610045   0.041   3.886   0.889 -0.0348 -0.1098  0.7168
  679TMC3     C10046   0.310   3.574   0.894  0.0731  0.4281  0.1679
  679TMC3     O10047   0.423   3.622   0.902  0.3822 -0.4633 -0.0626
  679TMC3     H10048   0.075   3.567   1.014 -1.4277 -0.1586  0.3135
  679TMC3    H110049   0.328   3.789   0.749 -0.1195  0.7578  0.8873
  679TMC3    H210050   4.711   3.974   0.923 -1.3406 -0.5823 -0.1899
  679TMC3    C710051   0.174   4.009   0.744  0.2002 -0.4334  0.4437
  679TMC3    C810052   4.638   3.786   1.062  0.6163 -0.5801 -0.7252
  679TMC3    O110053   0.064   4.063   0.732 -0.3883 -0.9417 -0.1517
  679TMC3    O210054   4.643   3.718   1.164  0.8323  0.1161 -0.1424
  680MPD2     C10055   0.230   3.313  13.582 -0.3204  0.6341  0.4164
  680MPD2    C110056   0.349   3.249  13.608 -0.2910  0.1020 -0.2622
  680MPD2    C210057   0.445   3.321  13.665 -0.2734 -0.0330  0.3174
  680MPD2    C310058   0.436   3.456  13.679  0.6196 -0.4673 -0.4755
  680MPD2    C410059   0.330   3.524  13.633  0.2173 -0.2910 -0.2185
  680MPD2    C510060   0.227   3.448  13.585  0.0348 -0.3126 -0.0668
  680MPD2     H10061   0.536   3.265  13.688  0.3917 -0.1319 -2.6155
  680MPD2    H110062   0.318   3.631  13.634  1.1033 -0.1814 -1.4929
  680MPD2    H210063   0.146   3.259  13.539 -0.1407  0.3530  0.4180
  680MPD2    H310064   0.137   3.501  13.556  0.6518  2.8117  3.7180
  680MPD2     N10065   0.541   3.536  13.737 -0.0774  0.0862 -0.6194
  680MPD2    H510066   0.541   3.637  13.726  0.8585 -0.1227 -2.5445
  680MPD2    N110067   0.366   3.114  13.610  0.2744 -0.0579 -0.5560
  680MPD2    H710068   0.462   3.089  13.627  0.6417  0.1982 -2.2538
  681TMC3    C110069   0.320   2.899  13.660  0.7705 -0.3007  0.0347
  681TMC3    C210070   0.274   2.886  13.790 -0.1393  0.1239  0.6818
  681TMC3    C310071   0.359   2.853  13.890  0.0215 -0.8918 -0.4276
  681TMC3    C410072   0.454   2.875  13.629 -0.0183 -0.0460 -0.7819
  681TMC3    C510073   0.537   2.832  13.730  0.5123  0.1004  0.0351
  681TMC3    C610074   0.495   2.832  13.861  0.2692  0.1801  0.2625
  681TMC3     C10075   0.265   3.019  13.598 -0.2007 -0.8506 -0.6439
  681TMC3     O10076   0.143   3.036  13.616 -0.1071  0.2224 -0.0935
  681TMC3     H10077   0.168   2.909  13.803 -0.7230 -0.8517 -2.4163
  681TMC3    H110078   0.478   2.880  13.523 -0.1037  1.9901 -0.6986
  681TMC3    H210079   0.564   2.798  13.938  0.2901 -2.4989 -0.9467
  681TMC3    C710080   0.670   2.777  13.705  0.5578 -0.1641  0.2295
  681TMC3    C810081   0.307   2.900  14.020  0.8696  1.1690 -0.0096
  681TMC3    O110082   0.715   2.707  13.793  0.0003 -0.1973  0.1490
  681TMC3    O210083   0.184   2.922  14.025 -0.2636  0.3457 -0.4836
  682MPD2     C10084   2.798   4.690  10.374 -0.5137 -0.4791 -0.8192
  682MPD2    C110085   2.855   4.571  10.413 -0.3815 -0.3365 -0.0691
  682MPD2    C210086   2.805   4.509  10.525  0.6379  0.4483 -0.0683
  682MPD2    C310087   2.725   4.574  10.614  0.1771  0.2088  0.0675
  682MPD2    C410088   2.681   4.696  10.582  0.2155  0.3207  0.3700
  682MPD2    C510089   2.727   0.033  10.470 -0.0743 -0.5213  0.0649
  682MPD2     H10090   2.850   4.414  10.549  3.5956  1.7129 -0.5347
  682MPD2    H110091   2.635   0.033  10.658 -0.1151 -0.9766  1.2210
  682MPD2    H210092   2.834   0.023  10.290 -0.0335  1.4843  0.7269
  682MPD2    H310093   2.714   0.139  10.450  0.4670 -0.3210  0.7727
  682MPD2     N10094   2.680   4.522  10.740 -0.3426 -0.5444  0.0280
  682MPD2    H510095   2.625   4.580  10.803  0.2116 -1.4839  1.3783
  682MPD2    N110096   2.951   4.504  10.334 -0.6757  0.1698  0.1086
  682MPD2    H710097   2.986   4.412  10.361  2.9175  0.8118 -2.2585
  683TMC3    C110098   2.567   4.391  11.113 -0.4931 -0.2975  0.4432
  683TMC3    C210099   2.484   4.280  11.116 -0.1686 -0.1269 -0.4650
  683TMC3    C310100   2.479   4.204  11.006  0.7311  0.2894  0.2457
  683TMC3    C410101   2.636   4.440  11.010 -0.0396 -0.3367 -0.5605
  683TMC3    C510102   2.624   4.357  10.899 -0.1553  0.2212 -0.3358
  683TMC3    C610103   2.555   4.234  10.900 -0.6496  0.1925 -0.5475
  683TMC3     C10104   2.599   4.442  11.242  0.1421  0.2531  0.1620
  683TMC3     O10105   2.630   4.563  11.241 -0.2774  0.1700 -0.6535
  683TMC3     H10106   2.409   4.265  11.193 -0.1891  0.7768 -0.3073
  683TMC3    H110107   2.676   4.541  11.009 -1.5262  0.2848  1.5064
  683TMC3    H210108   2.561   4.171  10.812 -1.3977 -0.0559 -0.4174
  683TMC3    C710109   2.694   4.393  10.779 -1.0759 -0.2590  0.0381
  683TMC3    C810110   2.410   4.076  11.016 -0.1332  0.3133 -0.5748
  683TMC3    O110111   2.738   4.297  10.718  0.0049  0.0076 -0.4896
  683TMC3    O210112   2.393   4.049  11.135  0.3429 -0.2131  0.0840
  684MPD2     C10113   0.437   3.957  16.350  0.0683  0.1013 -0.3877
  684MPD2    C110114   0.389   4.032  16.246 -0.5646 -0.5478  0.0596
  684MPD2    C210115   0.357   4.163  16.266 -0.0949 -0.5363  0.1089
  684MPD2    C310116   0.373   4.220  16.388 -0.1086 -0.2838  0.3381
  684MPD2    C410117   0.420   4.146  16.491 -0.7774 -0.3363  0.7673
  684MPD2    C510118   0.455   4.015  16.470  0.3725  0.3199  0.5167
  684MPD2     H10119   0.300   4.215  16.189  2.2962  0.9146 -0.6820
  684MPD2    H110120   0.422   4.190  16.590 -0.0273 -1.4681  1.2639
  684MPD2    H210121   0.471   3.854  16.339  1.1499  0.5035 -0.8004
  684MPD2    H310122   0.490   3.946  16.547  3.1306 -0.2984 -1.2986
  684MPD2     N10123   0.344   4.360  16.412  0.5648 -0.0719 -0.1604
  684MPD2    H510124   0.365   4.392  16.506  0.6518  1.0547 -0.5729
  684MPD2    N110125   0.375   3.977  16.116 -0.3651  0.6839 -0.1221
  684MPD2    H710126   0.347   4.046  16.047  0.2693  1.6672  0.6011
  685TMC3    C110127   0.445   3.851  15.932 -0.2932 -1.1502 -0.3468
  685TMC3    C210128   0.385   3.949  15.861  0.2783 -0.2201  0.5757
  685TMC3    C310129   0.462   4.041  15.798  0.4152  0.5823 -0.8027
  685TMC3    C410130   0.583   3.834  15.917  0.2256  0.1121  0.7445
  685TMC3    C510131   0.658   3.936  15.871 -0.0657  0.4222 -0.3475
  685TMC3    C610132   0.602   4.047  15.818 -0.6234  0.4412 -0.4033
  685TMC3     C10133   0.409   3.851  16.072  0.4308  0.2517 -0.3115
  685TMC3     O10134   0.449   3.755  16.135  0.0814 -0.3230  0.1261
  685TMC3     H10135   0.279   3.964  15.877 -0.0057 -0.5294 -1.0560
  685TMC3    H110136   0.628   3.748  15.964  0.5553 -0.4666 -0.6547
  685TMC3    H210137   0.665   4.125  15.777 -0.2126  0.8107  0.9295
  685TMC3    C710138   0.771   3.955  15.953  0.3168  0.8713 -0.1417
  685TMC3    C810139   0.398   4.153  15.735 -0.2703  0.0920  0.6120
  685TMC3    O110140   0.875   3.892  15.924  0.5188  0.0818  0.2533
  685TMC3    O210141   0.470   4.247  15.711  0.7533 -0.4495 -0.5442
  686MPD2     C10142   1.960   4.141  15.873 -0.1422 -0.1348 -0.4848
  686MPD2    C110143   1.899   4.016  15.853 -0.2909 -0.0603  0.1064
  686MPD2    C210144   1.963   3.908  15.789 -0.2101  0.2619 -0.1666
  686MPD2    C310145   2.085   3.936  15.732  0.3245  0.6583  0.1501
  686MPD2    C410146   2.154   4.051  15.769  0.0549 -0.4198  0.8588
  686MPD2    C510147   2.094   4.149  15.849  0.3914  0.6935  0.7173
  686MPD2     H10148   1.910   3.814  15.776  0.3807 -0.1107  0.0929
  686MPD2    H110149   2.255   4.063  15.732  0.2223 -2.9828  0.4715
  686MPD2    H210150   1.899   4.218  15.919  1.1636 -0.9873  2.6762
  686MPD2    H310151   2.151   4.239  15.870  0.7084  0.7797 -0.5178
  686MPD2     N10152   2.141   3.844  15.643  0.2867 -0.1577  0.6232
  686MPD2    H510153   2.241   3.856  15.626  0.6788 -2.2177  1.4615
  686MPD2    N110154   1.768   4.002  15.888  0.8033 -0.5420  0.3277
  686MPD2    H710155   1.708   4.081  15.909  0.8881 -0.6934  1.1513
  687TMC3    C110156   2.173   3.658  15.517 -0.5467 -0.8592  0.3007
  687TMC3    C210157   2.130   3.585  15.410  0.0511  0.3594  0.2008
  687TMC3    C310158   2.216   3.488  15.360  0.4899 -0.3513 -0.2863
  687TMC3    C410159   2.285   3.623  15.592 -0.3794  0.2838 -0.3392
  687TMC3    C510160   2.364   3.521  15.546  0.1137  0.6422  0.0422
  687TMC3    C610161   2.336   3.455  15.426 -0.3964 -0.5630  0.0288
  687TMC3     C10162   2.075   3.739  15.584 -0.8724  0.5958 -0.5262
  687TMC3     O10163   1.955   3.720  15.568  0.4755  0.1220 -1.1368
  687TMC3     H10164   2.033   3.622  15.378 -0.4501 -0.8078  0.3445
  687TMC3    H110165   2.304   3.672  15.686  0.9229  0.9143 -0.9394
  687TMC3    H210166   2.377   3.359  15.397 -0.9177 -0.5380 -0.7843
  687TMC3    C710167   2.480   3.488  15.623  0.0553 -0.5311  0.1039
  687TMC3    C810168   2.175   3.409  15.248 -0.7582  0.0263  1.0575
  687TMC3    O110169   2.482   3.546  15.730  0.0896 -0.3326 -0.1273
  687TMC3    O210170   2.214   3.294  15.237 -0.1169 -0.1917  0.2347
  688MPD2     C10171   1.219   2.761  17.230  0.5854  0.1316  0.4942
  688MPD2    C110172   1.301   2.651  17.252  0.0792 -0.1064  0.3611
  688MPD2    C210173   1.377   2.606  17.148 -0.1059  0.1356 -0.8258
  688MPD2    C310174   1.384   2.666  17.025 -0.5448 -0.5497  0.0649
  688MPD2    C410175   1.307   2.775  17.008 -0.5756  0.1091 -0.0199
  688MPD2    C510176   1.224   2.822  17.105  0.2709  0.1545  0.7704
  688MPD2     H10177   1.443   2.521  17.161  0.3615  0.4768 -0.9829
  688MPD2    H110178   1.315   2.834  16.917  1.1807 -0.6106 -0.3198
  688MPD2    H210179   1.147   2.794  17.304 -3.4032 -0.8871 -2.9107
  688MPD2    H310180   1.153   2.902  17.085 -0.9420 -1.8265 -2.7473
  688MPD2     N10181   1.447   2.613  16.916  0.2155 -0.6540  0.2681
  688MPD2    H510182   1.454   2.668  16.831 -0.2906 -1.7537 -0.4979
  688MPD2    N110183   1.297   2.578  17.372  0.2111 -0.3446  0.3449
  688MPD2    H710184   1.340   2.487  17.360 -0.0003 -0.2642 -0.9519
  689TMC3    C110185   1.250   2.539  17.608  0.5605  0.0749 -0.6110
  689TMC3    C210186   1.215   2.590   0.033  0.4603 -0.2169 -0.2581
  689TMC3    C310187   1.230   2.513   0.145 -0.5700  0.3564 -0.1474
  689TMC3    C410188   1.265   2.399  17.592  0.7071  0.2588 -0.3814
  689TMC3    C510189   1.276   2.326   0.007  0.2909  0.1928 -0.3430
  689TMC3    C610190   1.261   2.381   0.132 -0.1612 -0.1925 -0.5511
  689TMC3     C10191   1.244   2.626  17.489 -0.3750  0.2828 -0.2215
  689TMC3     O10192   1.223   2.744  17.512  0.1740 -0.3246 -0.3573
  689TMC3     H10193   1.213   2.699   0.040 -0.4889 -0.2553  0.0038
  689TMC3    H110194   1.314   2.359  17.504 -0.5798 -1.6924 -0.1927
  689TMC3    H210195   1.265   2.319   0.220  2.8158 -0.8191 -1.1174
  689TMC3    C710196   1.278   2.183  17.685  0.1599  0.5153  0.5186
  689TMC3    C810197   1.134   2.535   0.242 -0.1936  0.5649 -0.0844
  689TMC3    O110198   1.339   2.112   0.064 -0.1381 -0.2290 -0.0036
  689TMC3    O210199   1.147   2.493   0.356 -0.2947 -0.3158 -0.0151
  690MPD2     C10200   3.305   4.411  15.752 -0.3175 -0.9391 -0.5569
  690MPD2    C110201   3.282   4.390  15.613 -0.3314  0.0924  0.5532
  690MPD2    C210202   3.379   4.420  15.521 -0.3248 -0.4138 -0.4483
  690MPD2    C310203   3.506   4.457  15.563  0.4648  0.2507  1.2775
  690MPD2    C410204   3.521   4.471  15.703 -0.5334 -0.2878 -0.6467
  690MPD2    C510205   3.420   4.452  15.794  0.1482 -0.4472  0.0114
  690MPD2     H10206   3.370   4.402  15.415  1.5072  0.2190 -0.7192
  690MPD2    H110207   3.613   4.504  15.749 -0.0284 -1.3134 -0.9123
  690MPD2    H210208   3.229   4.401  15.829 -0.4170  0.2714 -0.5116
  690MPD2    H310209   3.432   4.474  15.899  0.7364  0.0958 -0.1663
  690MPD2     N10210   3.609   4.467  15.473 -0.6598  0.1526  0.0737
  690MPD2    H510211   3.581   4.493  15.379 -1.7688  1.7506  0.8560
  690MPD2    N110212   3.159   4.330  15.582 -0.1509 -0.4483 -0.3257
  690MPD2    H710213   3.154   4.273  15.499 -0.0816  1.2594 -1.5058
  691TMC3    C110214   2.939   4.260  15.629  0.1087  0.3553  0.3234
  691TMC3    C210215   2.812   4.290  15.668 -0.7862 -0.1350 -0.1952
  691TMC3    C310216   2.713   4.194  15.649 -0.2347 -0.3139 -0.2168
  691TMC3    C410217   2.967   4.137  15.578 -0.3448  0.3325 -0.1790
  691TMC3    C510218   2.867   4.049  15.563 -0.4804  0.1548  1.0380
  691TMC3    C610219   2.736   4.071  15.599  0.3679 -0.1111 -0.5957
  691TMC3     C10220   3.047   4.353  15.660 -0.4494 -0.0849  0.2842
  691TMC3     O10221   3.018   4.445  15.732  0.5431 -0.2094 -0.1046
  691TMC3     H10222   2.788   4.392  15.695  0.2680 -0.3919  1.6905
  691TMC3    H110223   3.070   4.115  15.551  0.0702  4.6787 -2.1946
  691TMC3    H210224   2.656   4.001  15.575  0.6476  0.5209 -3.3415
  691TMC3    C710225   2.893   3.918  15.505  0.4183  0.4712 -0.0439
  691TMC3    C810226   2.578   4.233  15.636  0.1557  0.6652 -0.9385
  691TMC3    O110227   2.795   3.861  15.444 -0.2040 -0.4053 -0.2359
  691TMC3    O210228   2.494   4.144  15.630 -0.2944  0.6593 -0.2562
  692TMC3    C110229   0.197   0.889  15.698  0.8381  1.5948  0.3893
  692TMC3    C210230   0.318   0.919  15.749 -0.2923  0.5766  0.3300
  692TMC3    C310231   0.409   0.817  15.774  0.8445 -0.0069 -0.0341
  692TMC3    C410232   0.175   0.764  15.641  0.3348  0.2175 -0.6735
  692TMC3    C510233   0.274   0.672  15.651  0.0524 -0.0031  0.1270
  692TMC3    C610234   0.394   0.699  15.706  0.2358  0.2210 -0.3441
  692TMC3     C10235   0.086   0.965  15.746  0.9690  0.2238 -0.1401
  692TMC3     O10236   4.715   0.901  15.785 -0.0217 -0.6647  0.6432
  692TMC3     H10237   0.317   1.011  15.806  1.3481 -0.0666  1.4028
  692TMC3    H110238   0.076   0.748  15.601  1.2020 -1.8197 -2.0062
  692TMC3    H210239   0.472   0.624  15.715 -2.2112 -2.3398 -0.8245
  692TMC3    C710240   0.253   0.529  15.626 -0.1957 -0.0972  0.3995
  692TMC3    C810241   0.420   0.790  15.912  0.2069  0.2262  0.0678
  692TMC3    O110242   0.178   0.498  15.536  0.2011 -0.1595  0.2358
  692TMC3    O210243   0.423   0.669  15.946 -0.0480  0.1423  0.1200
  693MPD2     C10244   4.704   3.536  10.661 -0.4547  0.2993  0.4348
  693MPD2    C110245   4.676   3.416  10.614  0.6217  0.1927 -0.1218
  693MPD2    C210246   0.045   3.351  10.536 -0.6292  0.0440 -0.3916
  693MPD2    C310247   0.164   3.411  10.493  0.0444 -0.1190  0.9117
  693MPD2    C410248   0.186   3.536  10.532 -0.1887  0.1805 -0.7096
  693MPD2    C510249   0.089   3.598  10.610  0.6812  0.1250 -0.1762
  693MPD2     H10250   0.026   3.257  10.486 -1.1279  0.2896 -0.6557
  693MPD2    H110251   0.265   3.604  10.503 -0.6901 -0.2620 -3.0626
  693MPD2    H210252   4.624   3.598  10.701 -2.6128 -1.2772 -1.4418
  693MPD2    H310253   0.101   3.705  10.623  0.3830 -0.0890  1.9105
  693MPD2     N10254   0.263   3.325  10.427  0.6102  0.0554 -0.2801
  693MPD2    H510255   0.236   3.230  10.404  2.1405 -1.2728  3.4628
  693MPD2    N110256   4.557   3.358  10.666 -0.0815  0.5331 -0.2660
  693MPD2    H710257   4.504   3.413  10.733 -1.1143 -0.9524  0.1246
  694TMC3    C110258   4.361   3.247  10.660  0.4556 -0.4184 -0.4829
  694TMC3    C210259   4.273   3.191  10.573 -0.1915 -0.2994  0.0824
  694TMC3    C310260   4.169   3.123  10.622  0.5831 -0.3628  0.5392
  694TMC3    C410261   4.338   3.249  10.792 -1.0989 -0.3829  0.7286
  694TMC3    C510262   4.227   3.184  10.839  0.1734 -0.1086 -0.3558
  694TMC3    C610263   4.151   3.107  10.754  0.1981 -0.0156 -0.1688
  694TMC3     C10264   4.496   3.248  10.614  0.2052  0.2017  0.5536
  694TMC3     O10265   4.537   3.182  10.518  0.3531  0.0053  0.7151
  694TMC3     H10266   4.296   3.181  10.467  0.3394 -2.6699  0.4107
  694TMC3    H110267   4.408   3.296  10.859  0.2692 -1.4064  0.0160
  694TMC3    H210268   4.069   3.042  10.787 -0.4497  1.6879  1.6106
  694TMC3    C710269   4.204   3.173  10.990  0.1249  0.3570 -0.1708
  694TMC3    C810270   4.087   3.050  10.530 -0.8651  0.1873 -0.2591
  694TMC3    O110271   4.251   3.261  11.063  0.2534 -0.6119  0.5231
  694TMC3    O210272   4.057   2.935  10.563  0.5143 -0.0478 -0.4319
  695MPD2     C10273   1.031   0.798  13.311 -0.4190 -0.5230  0.1334
  695MPD2    C110274   1.007   0.791  13.448 -0.3671  0.1512 -0.7136
  695MPD2    C210275   0.887   0.840  13.498  0.3747  0.2393 -0.2714
  695MPD2    C310276   0.788   0.878  13.407 -0.3862 -0.7346 -0.0972
  695MPD2    C410277   0.817   0.893  13.274 -0.3394  0.0602 -0.1859
  695MPD2    C510278   0.941   0.860  13.227 -0.7195  0.5047  0.4260
  695MPD2     H10279   0.867   0.828  13.604 -1.2825  0.3326 -0.5738
  695MPD2    H110280   0.743   0.935  13.206  0.3713 -0.5194 -1.3187
  695MPD2    H210281   1.129   0.777  13.270 -0.4947  2.3916 -1.6138
  695MPD2    H310282   0.954   0.864  13.119 -0.9381 -0.8382  0.3536
  695MPD2     N10283   0.656   0.900  13.458  0.1619 -0.0448 -0.5831
  695MPD2    H510284   0.645   0.893  13.559  3.1379 -0.2539 -0.2666
  695MPD2    N110285   1.102   0.751  13.544  0.1320 -0.3342 -0.4255
  695MPD2    H710286   1.073   0.778  13.638 -0.9575 -0.0696 -0.8434
  696TMC3    C110287   0.420   0.957  13.455  0.4622  0.0392 -0.3381
  696TMC3    C210288   0.390   0.880  13.569  0.0372  0.3543  0.2711
  696TMC3    C310289   0.274   0.904  13.627 -0.2680 -0.1612 -0.8801
  696TMC3    C410290   0.335   1.038  13.392  0.6762  0.1433 -0.1410
  696TMC3    C510291   0.217   1.055  13.456  0.6536  0.1743  0.6725
  696TMC3    C610292   0.190   0.998  13.577  0.6914 -0.0522  0.1261
  696TMC3     C10293   0.540   0.929  13.380  0.1264  0.5270 -0.2015
  696TMC3     O10294   0.532   0.947  13.259  0.3021  0.1874 -0.2133
  696TMC3     H10295   0.461   0.826  13.629  0.8093 -0.9228 -1.7965
  696TMC3    H110296   0.363   1.099  13.307  2.3963  0.5712  0.7314
  696TMC3    H210297   0.094   1.024  13.622  0.5783 -0.2631  0.0051
  696TMC3    C710298   0.158   1.192  13.455  0.3759 -0.5239  0.0961
  696TMC3    C810299   0.294   0.947  13.764 -0.3513  0.6175 -0.1384
  696TMC3    O110300   0.159   1.261  13.355  0.1198 -0.0929 -0.1408
  696TMC3    O210301   0.229   1.049  13.784 -0.0845  0.2128 -0.6099
  697MPD2     C10302   4.579   2.285  15.464 -0.3969  0.8587  0.4270
  697MPD2    C110303   4.615   2.210  15.359 -0.1496  0.1328  0.2427
  697MPD2    C210304   4.705   2.257  15.267  0.5583 -0.6518  0.2174
  697MPD2    C310305   0.020   2.391  15.281  0.3332 -0.0566  0.1149
  697MPD2    C410306   4.710   2.463  15.391 -0.7158 -0.1442  0.8271
  697MPD2    C510307   4.630   2.408  15.484  0.3503 -0.4623  0.1826
  697MPD2     H10308   0.019   2.198  15.185  0.4310 -0.4312 -0.0006
  697MPD2    H110309   0.028   2.561  15.409  0.6950 -0.5884 -0.0342
  697MPD2    H210310   4.496   2.254  15.527 -0.8195 -1.7255 -1.3982
  697MPD2    H310311   4.599   2.473  15.565  0.7359  0.7293 -0.6349
  697MPD2     N10312   0.100   2.459  15.189 -0.5657 -0.0732  0.3555
  697MPD2    H510313   0.140   2.545  15.223  0.5583 -0.9207  1.1682
  697MPD2    N110314   4.558   2.083  15.330  0.4229  0.4714 -0.4400
  697MPD2    H710315   4.588   2.041  15.243  1.3274 -1.3102  0.7164
  698TMC3    C110316   0.196   2.526  14.987  0.2757  0.6621  0.7020
  698TMC3    C210317   0.292   2.597  15.050  1.2007 -0.1269  0.7834
  698TMC3    C310318   0.350   2.708  14.984 -0.0696 -0.1429 -0.0943
  698TMC3    C410319   0.167   2.546  14.854 -0.3777  0.6936 -0.2737
  698TMC3    C510320   0.217   2.656  14.800  0.6409  0.7730 -0.0872
  698TMC3    C610321   0.312   2.736  14.857  0.1273  0.5092  0.1767
  698TMC3     C10322   0.118   2.422  15.055  0.1571 -0.7276  0.0385
  698TMC3     O10323   0.069   2.326  14.993  0.1162  0.3845 -0.4854
  698TMC3     H10324   0.323   2.579  15.152  0.6258 -1.5319  0.7131
  698TMC3    H110325   0.101   2.478  14.802  0.0746 -0.6503  0.9157
  698TMC3    H210326   0.344   2.830  14.815 -1.1897  0.5939 -0.6387
  698TMC3    C710327   0.213   2.649  14.657 -1.0225 -0.3141  0.4614
  698TMC3    C810328   0.404   2.807  15.073 -0.4446  0.2554  0.9429
  698TMC3    O110329   0.123   2.589  14.601 -0.0982  0.5965 -0.1003
  698TMC3    O210330   0.386   2.792  15.192 -0.2112  0.4557 -0.7630
  699TMC3    C110331   0.701   0.587  12.702  1.1158  0.2430  0.6788
  699TMC3    C210332   0.818   0.535  12.756 -0.0634  0.2405  0.3067
  699TMC3    C310333   0.850   0.570  12.882  0.4050  0.1887 -0.0630
  699TMC3    C410334   0.631   0.678  12.775 -0.3739 -0.6457 -0.3077
  699TMC3    C510335   0.662   0.700  12.897 -0.0045 -0.4427 -0.1475
  699TMC3    C610336   0.773   0.654  12.953  0.1868 -0.3670  0.5965
  699TMC3     C10337   0.710   0.616  12.560  0.4703 -0.0491  0.0548
  699TMC3     O10338   0.645   0.712  12.525 -1.1132  0.3097  0.3945
  699TMC3     H10339   0.877   0.455  12.712 -3.1321 -1.5720 -0.5035
  699TMC3    H110340   0.534   0.710  12.739 -0.4933 -0.7577 -0.0860
  699TMC3    H210341   0.794   0.687  13.054 -1.1923  1.5846  0.2567
  699TMC3    C710342   0.550   0.667  12.980  0.4166  0.1743 -0.2352
  699TMC3    C810343   0.888   0.462  12.968  0.0171  0.1404  0.2116
  699TMC3    O110344   0.572   0.588  13.070 -0.0553 -0.1721  0.2511
  699TMC3    O210345   0.860   0.348  12.929 -0.1064  0.2316 -0.3775
  700TMC3    C110346   3.872   3.175  17.116 -0.0440  0.5617  0.1887
  700TMC3    C210347   3.906   3.045  17.111  0.3633 -0.5697 -0.1469
  700TMC3    C310348   4.013   3.007  17.187  0.0258 -0.5453  0.0600
  700TMC3    C410349   3.936   3.268  17.197  0.4819  0.6344 -0.5439
  700TMC3    C510350   4.034   3.226  17.278  0.1659  0.7380 -0.7012
  700TMC3    C610351   4.070   3.098  17.268  0.1429  0.3932 -0.6922
  700TMC3     C10352   3.824   3.227  16.987  0.5911 -0.8947 -0.1002
  700TMC3     O10353   3.741   3.171  16.916  0.5008 -0.5471  0.3579
  700TMC3     H10354   3.854   2.982  17.040  0.3283  0.3532 -0.9393
  700TMC3    H110355   3.892   3.366  17.212 -0.1238  0.5456 -1.7772
  700TMC3    H210356   4.155   3.061  17.324 -0.3431 -0.7099 -0.6998
  700TMC3    C710357   4.138   3.321  17.314 -0.8306  0.1332 -0.3540
  700TMC3    C810358   4.094   2.888  17.161 -0.2302 -0.3157  0.2318
  700TMC3    O110359   4.238   3.277  17.372  0.2188 -0.4912 -0.6437
  700TMC3    O210360   4.212   2.883  17.205  0.2763 -0.1202 -0.0313
  701TMC3    C110361   4.221   1.995  14.825  0.0870 -0.1221  0.3230
  701TMC3    C210362   4.255   1.944  14.699  1.0300  0.5236 -0.3920
  701TMC3    C310363   4.288   2.048  14.612  0.2325  0.1465  0.7281
  701TMC3    C410364   4.208   2.129  14.859 -0.6103  0.1840  0.1636
  701TMC3    C510365   4.245   2.216  14.767  0.0264  0.4660  1.0105
  701TMC3    C610366   4.300   2.177  14.650  0.0239  0.2219  0.2299
  701TMC3     C10367   4.178   1.893  14.917  0.6724 -0.4581  0.2915
  701TMC3     O10368   4.172   1.925  15.031  0.5395  0.4865 -0.3644
  701TMC3     H10369   4.273   1.839  14.680  0.7853  0.6435 -1.3229
  701TMC3    H110370   4.177   2.161  14.958  1.3988  2.8081 -0.0654
  701TMC3    H210371   4.314   2.244  14.566 -1.2471  0.8866  0.5621
  701TMC3    C710372   4.250   2.357  14.802 -0.0157  0.2624  0.7617
  701TMC3    C810373   4.310   2.017  14.474 -1.4608 -0.6360 -0.3047
  701TMC3    O110374   4.222   2.443  14.713  0.4509  0.3548  0.2420
  701TMC3    O210375   4.393   2.083  14.412  0.2530  0.2553  0.6570
  702MPD2     C10376   4.228   4.008  10.689  0.1961 -0.0168  0.2725
  702MPD2    C110377   4.129   4.103  10.705 -0.2586 -0.4069 -0.4718
  702MPD2    C210378   4.098   4.193  10.600  0.1890 -0.2913  0.3200
  702MPD2    C310379   4.163   4.184  10.483 -0.2165  0.1491  0.0908
  702MPD2    C410380   4.258   4.086  10.464 -0.1918 -0.0177 -0.0778
  702MPD2    C510381   4.294   4.006  10.568 -0.0274 -0.4414 -0.3974
  702MPD2     H10382   4.008   4.253  10.607 -0.2781 -1.1574  1.5695
  702MPD2    H110383   4.303   4.076  10.365  0.0427  0.9025 -0.0592
  702MPD2    H210384   4.253   3.937  10.766 -2.6061 -1.8523 -0.5088
  702MPD2    H310385   4.372   3.933  10.550 -0.1044 -1.5595  3.8475
  702MPD2     N10386   4.130   4.268  10.370 -0.0754 -0.2439 -0.0237
  702MPD2    H510387   4.159   4.242  10.276 -0.3798 -1.7662  0.2957
  702MPD2    N110388   4.055   4.118  10.828 -0.3041 -0.2982 -0.0518
  702MPD2    H710389   3.966   4.167  10.822 -0.0224  0.3013  0.7520
  703TMC3    C110390   4.025   4.446  10.250  0.7111  0.1034  0.0839
  703TMC3    C210391   3.913   4.522  10.246  0.2579  0.9574 -0.1224
  703TMC3    C310392   3.914   4.624  10.159 -0.8657 -0.0928  0.2267
  703TMC3    C410393   4.135   4.465  10.180 -0.1264  0.5991  0.4752
  703TMC3    C510394   4.136   4.575  10.093  0.7443 -0.2499 -0.3354
  703TMC3    C610395   4.023   4.654  10.079 -0.4387  0.2874 -0.6221
  703TMC3     C10396   4.050   4.381  10.375  0.2575  0.4704  0.1538
  703TMC3     O10397   3.994   4.432  10.471 -0.0275 -0.4326 -0.0952
  703TMC3     H10398   3.842   4.508  10.326  0.7870  0.2298  0.2164
  703TMC3    H110399   4.229   4.414  10.196  0.3714  0.6852 -2.1277
  703TMC3    H210400   4.017   0.015  10.012  2.5177  0.5306 -0.5624
  703TMC3    C710401   4.250   4.580   9.999  0.2546  0.0880 -0.4446
  703TMC3    C810402   3.812   0.006  10.175  0.6487  0.4092 -0.1259
  703TMC3    O110403   4.341   4.496  10.017 -0.2245  0.4092 -0.6268
  703TMC3    O210404   3.819   0.103  10.107  0.2116 -0.3931  0.6093
  704TMC3    C110405   1.279   2.413  12.352  0.2542 -0.8777 -0.2923
  704TMC3    C210406   1.356   2.497  12.275 -0.2260  0.8324 -0.1535
  704TMC3    C310407   1.474   2.532  12.332 -0.2445 -0.4615  0.5518
  704TMC3    C410408   1.306   2.364  12.478 -0.2175 -0.0910  0.0645
  704TMC3    C510409   1.433   2.407  12.518  0.0369 -0.3221  0.3771
  704TMC3    C610410   1.513   2.492  12.454  0.1042  0.2820 -0.3676
  704TMC3     C10411   1.217   2.310  12.272 -0.0125  0.3248 -0.2655
  704TMC3     O10412   1.211   2.200  12.326  0.4473 -0.2492 -0.0347
  704TMC3     H10413   1.325   2.532  12.177  2.8627  2.1860 -0.6354
  704TMC3    H110414   1.240   2.302  12.537  0.3474  0.3114  1.1268
  704TMC3    H210415   1.605   2.521  12.503 -1.1412  1.5956  1.1820
  704TMC3    C710416   1.514   2.316  12.604 -0.1776 -0.4565 -0.1267
  704TMC3    C810417   1.577   2.563  12.234 -0.1436  0.0789  0.6499
  704TMC3    O110418   1.626   2.348  12.645 -0.6351 -0.2392  0.4456
  704TMC3    O210419   1.540   2.553  12.115 -0.3049  0.7448  0.2783
  705MPD2     C10420   0.475   0.368  16.722 -0.1382  0.3889  0.3963
  705MPD2    C110421   0.430   0.409  16.599 -0.4589 -0.6384  0.2328
  705MPD2    C210422   0.304   0.457  16.582 -0.1144  0.5946  0.1229
  705MPD2    C310423   0.223   0.473  16.690 -0.3647 -0.4702 -0.0173
  705MPD2    C410424   0.272   0.450  16.817 -0.4038  1.1443  0.1539
  705MPD2    C510425   0.394   0.388  16.828 -0.2779 -0.0816 -0.1295
  705MPD2     H10426   0.256   0.478  16.487 -0.6748  0.1654  0.3131
  705MPD2    H110427   0.220   0.485  16.905 -2.0751 -1.4298  0.1780
  705MPD2    H210428   0.568   0.320  16.749 -0.3931  0.3932  1.2768
  705MPD2    H310429   0.437   0.367  16.926  0.5832  0.0636 -0.4801
  705MPD2     N10430   0.088   0.519  16.691  0.4463  0.2074  0.7390
  705MPD2    H510431   0.046   0.541  16.781 -1.4767 -0.6902  0.0509
  705MPD2    N110432   0.512   0.417  16.483 -0.1135 -0.0469  0.3333
  705MPD2    H710433   0.463   0.448  16.400 -0.3348 -0.2448  0.3900
  706TMC3    C110434   0.889   0.383  16.211 -0.6493 -0.5416 -0.1562
  706TMC3    C210435   0.852   0.481  16.123 -0.6503  0.0644 -0.2192
  706TMC3    C310436   0.741   0.547  16.160  0.8517  0.6170 -0.0083
  706TMC3    C410437   0.828   0.365  16.328  0.0932  0.3573 -0.1779
  706TMC3    C510438   0.715   0.430  16.358  0.1324 -0.1731 -0.4964
  706TMC3    C610439   0.669   0.528  16.276  0.7137 -0.1775  0.0059
  706TMC3     C10440   0.994   0.288  16.179  0.3922  0.0996 -0.1781
  706TMC3     O10441   1.055   0.244  16.274 -0.2435  0.2456  0.1280
  706TMC3     H10442   0.911   0.509  16.037  1.6510 -0.2757  1.2518
  706TMC3    H110443   0.864   0.289  16.396 -3.7194 -0.1078  1.3169
  706TMC3    H210444   0.581   0.587  16.299  0.0284 -0.4856 -1.8181
  706TMC3    C710445   0.650   0.394  16.481 -0.0414 -0.8688 -0.5497
  706TMC3    C810446   0.747   0.681  16.118  0.4731  0.3467 -0.1032
  706TMC3    O110447   0.718   0.326  16.558 -0.0376  0.0133 -0.0358
  706TMC3    O210448   0.725   0.695  15.999  0.6586  0.1501  0.5232
  707TMC3    C110449   2.647   4.211   1.361 -0.3696 -0.5476  0.7957
  707TMC3    C210450   2.570   4.099   1.361  0.7854 -0.3127  0.2536
  707TMC3    C310451   2.455   4.088   1.438 -0.3401 -0.4536  0.3673
  707TMC3    C410452   2.602   4.320   1.441  0.2099  0.5860 -0.1490
  707TMC3    C510453   2.485   4.309   1.507 -0.0839  0.8528  0.0270
  707TMC3    C610454   2.407   4.194   1.503 -0.2736 -0.7850  0.6126
  707TMC3     C10455   2.735   4.219   1.251  0.1365 -0.1809  0.3665
  707TMC3     O10456   2.779   4.111   1.210 -0.2215  0.5374 -0.0101
  707TMC3     H10457   2.589   4.035   1.275 -0.0629 -0.8624  0.4783
  707TMC3    H110458   2.656   4.414   1.440 -1.7830  1.7376 -0.1309
  707TMC3    H210459   2.320   4.191   1.568  1.8693 -1.5401  3.3916
  707TMC3    C710460   2.415   4.427   1.558 -0.1384 -0.0137 -0.0441
  707TMC3    C810461   2.373   3.971   1.429 -0.3400 -0.1738 -0.3355
  707TMC3    O110462   2.291   4.418   1.559  0.0511 -0.6912 -0.7294
  707TMC3    O210463   2.253   3.985   1.446 -0.4211 -0.1939  0.1698
  708MPD2     C10464   4.062   3.856  13.145  0.3350  1.0258 -0.2213
  708MPD2    C110465   3.977   3.815  13.249 -0.0364 -0.8654  0.6982
  708MPD2    C210466   4.019   3.747  13.360 -0.3877  0.4674  0.4983
  708MPD2    C310467   4.154   3.722  13.369  0.3590 -0.3771  0.2494
  708MPD2    C410468   4.236   3.749  13.259  0.6956  0.5386 -0.0471
  708MPD2    C510469   4.195   3.823  13.155 -0.5385  0.6010 -0.4093
  708MPD2     H10470   3.952   3.724  13.442 -2.2581  1.1420 -0.8340
  708MPD2    H110471   4.339   3.716  13.261  0.7051  0.6366  1.2891
  708MPD2    H210472   4.027   3.917  13.062 -0.1753 -0.3849 -1.0415
  708MPD2    H310473   4.261   3.851  13.074  0.5962 -1.6423 -0.2357
  708MPD2     N10474   4.188   3.649  13.486 -0.8491 -0.6259  0.3491
  708MPD2    H510475   4.110   3.614  13.541 -0.1721 -1.0136  1.0691
  708MPD2    N110476   3.838   3.856  13.260  0.2910  0.0679 -0.3931
  708MPD2    H710477   3.785   3.813  13.335 -0.6891  2.0239  0.0093
  709TMC3    C110478   3.629   3.952  13.209  0.2625 -0.0262 -0.8547
  709TMC3    C210479   3.536   3.884  13.131  0.3763 -0.7874  0.0649
  709TMC3    C310480   3.448   3.806  13.202 -0.2047 -0.3926  0.8656
  709TMC3    C410481   3.603   3.975  13.343 -0.8435 -0.4595  0.5400
  709TMC3    C510482   3.513   3.890  13.405  0.0712  0.6070  0.1922
  709TMC3    C610483   3.434   3.807  13.332 -0.1059 -0.4435  0.0722
  709TMC3     C10484   3.768   3.930  13.166  0.0220  0.5963  0.2155
  709TMC3     O10485   3.813   3.958  13.054  0.4822 -0.5291 -0.5988
  709TMC3     H10486   3.561   3.859  13.029 -1.1605 -2.5318  0.1066
  709TMC3    H110487   3.674   4.040  13.392  0.9280 -0.3142 -2.2364
  709TMC3    H210488   3.363   3.740  13.379 -0.6760  1.8982  2.5711
  709TMC3    C710489   3.580   3.835  13.514 -0.3284  0.4079 -0.6475
  709TMC3    C810490   3.355   3.720  13.127  0.4752  0.6917  0.5522
  709TMC3    O110491   3.701   3.848  13.512 -0.2791 -0.4065 -0.1959
  709TMC3    O210492   3.248   3.689  13.177 -0.5245  0.2106 -0.1024
  710TMC3    C110493   4.492   4.670   0.384  0.4186 -0.3696 -0.1580
  710TMC3    C210494   4.553   0.031   0.297 -0.6412 -0.1408 -0.3773
  710TMC3    C310495   4.684   0.002   0.257 -0.1525 -0.7864  0.3273
  710TMC3    C410496   4.561   4.594   0.475  0.0149 -0.3120 -0.1711
  710TMC3    C510497   4.695   4.582   0.442  0.1115  0.0495  0.0673
  710TMC3    C610498   0.029   4.632   0.335 -0.1266  0.8346 -0.2416
  710TMC3     C10499   4.361   0.002   0.419 -0.0042 -0.8606 -0.1907
  710TMC3     O10500   4.260   4.696   0.356  0.0451 -0.3706 -0.9828
  710TMC3     H10501   4.494   0.109   0.249  0.5362  0.1751 -1.3202
  710TMC3    H110502   4.511   4.540   0.555  1.3231 -0.8951  0.2434
  710TMC3    H210503   0.127   4.601   0.300 -0.4792 -2.5860  1.8826
  710TMC3    C710504   0.033   4.460   0.494  0.0779 -0.9767 -0.3331
  710TMC3    C810505   0.030   0.068   0.148  0.1873 -0.7626 -0.1699
  710TMC3    O110506   4.696   4.359   0.526 -0.1138 -0.0080 -0.2735
  710TMC3    O210507   0.153   0.058   0.146  0.1563  0.2888 -0.7593
  711TMC3    C110508   4.690   1.244  14.567 -0.0202  0.2327 -0.0713
  711TMC3    C210509   4.693   1.333  14.670  0.2184  0.7135  0.2879
  711TMC3    C310510   0.070   1.339  14.765  0.0869  0.1873  0.3600
  711TMC3    C410511   0.066   1.155  14.554 -0.0091  0.1454 -0.6633
  711TMC3    C510512   0.171   1.159  14.643 -0.9464  0.1972  0.8662
  711TMC3    C610513   0.173   1.249  14.744  0.9423  1.3952 -0.1860
  711TMC3     C10514   4.562   1.181  14.564  0.6198 -0.7030 -0.8108
  711TMC3     O10515   4.531   1.113  14.465  0.1866 -0.4639  0.1723
  711TMC3     H10516   4.610   1.395  14.705 -0.2085  0.2061  0.1756
  711TMC3    H110517   0.059   1.084  14.472 -0.9677 -1.4576  0.8003
  711TMC3    H210518   0.257   1.248  14.813  0.4116  1.8900  0.4789
  711TMC3    C710519   0.241   1.039  14.675  0.1006  0.5023  0.0132
  711TMC3    C810520   0.023   1.321  14.896 -0.1785  0.6319 -0.3616
  711TMC3    O110521   0.321   1.047  14.769  0.5670  0.0859 -0.5474
  711TMC3    O210522   4.634   1.283  14.915  0.4533  0.6527 -0.8876
  712MPD2     C10523   1.719   2.139  13.183 -0.3720 -0.1863  0.6466
  712MPD2    C110524   1.590   2.168  13.220 -0.9514 -0.0915 -0.4559
  712MPD2    C210525   1.567   2.265  13.312  0.1245 -0.3167  0.0380
  712MPD2    C310526   1.675   2.331  13.368 -0.6598 -0.5612 -0.2719
  712MPD2    C410527   1.804   2.302  13.332 -0.1012  0.7836  0.4472
  712MPD2    C510528   1.823   2.212  13.234 -0.5425 -0.4711  0.3129
  712MPD2     H10529   1.468   2.290  13.348  0.6480 -0.8637  1.8424
  712MPD2    H110530   1.891   2.337  13.386  0.3464 -0.3489  0.4525
  712MPD2    H210531   1.753   2.063  13.114  1.6579 -0.6111  2.1447
  712MPD2    H310532   1.923   2.177  13.208  0.0404  0.4347  1.3543
  712MPD2     N10533   1.668   2.427  13.473 -0.6226 -0.1550 -0.1621
  712MPD2    H510534   1.754   2.443  13.525 -0.7231 -1.2302  0.3254
  712MPD2    N110535   1.491   2.084  13.170  0.1242 -0.0589 -0.1189
  712MPD2    H710536   1.520   2.011  13.106  0.6958  1.0672 -1.1404
  713TMC3    C110537   1.568   2.602  13.603  0.0010 -0.0855  0.1657
  713TMC3    C210538   1.693   2.661  13.622 -1.1408 -1.0918 -0.4588
  713TMC3    C310539   1.701   2.784  13.670 -0.8186  0.1478  0.3567
  713TMC3    C410540   1.456   2.683  13.620 -0.1995 -0.5785  0.4041
  713TMC3    C510541   1.470   2.813  13.667 -0.2490 -0.5786  0.0583
  713TMC3    C610542   1.593   2.863  13.689 -0.7182 -0.2101  0.5580
  713TMC3     C10543   1.553   2.489  13.513  0.5951  1.0071 -0.2473
  713TMC3     O10544   1.445   2.494  13.456 -0.4005  0.1288  0.0242
  713TMC3     H10545   1.784   2.623  13.578 -0.4886 -0.8839  0.6915
  713TMC3    H110546   1.357   2.647  13.592  0.0587  0.0059 -1.2413
  713TMC3    H210547   1.614   2.966  13.716 -1.9146 -0.6309  3.0822
  713TMC3    C710548   1.362   2.913  13.649 -0.3333  0.4598  0.9358
  713TMC3    C810549   1.805   2.860  13.599 -0.1809 -1.0862 -0.4685
  713TMC3    O110550   1.269   2.882  13.576 -0.1468  0.3753  0.2765
  713TMC3    O210551   1.769   2.948  13.525 -0.0640 -0.0578 -0.2707
  714MPD2     C10552   3.394   1.269   1.485 -0.0298 -0.7764 -0.0176
  714MPD2    C110553   3.409   1.173   1.393 -0.0489 -0.7367  0.5904
  714MPD2    C210554   3.336   1.178   1.272 -0.7629 -0.1531 -1.0785
  714MPD2    C310555   3.249   1.285   1.252  0.2234  0.5032 -0.7064
  714MPD2    C410556   3.236   1.377   1.354  0.4332  0.5381  0.0796
  714MPD2    C510557   3.303   1.369   1.468  0.0094  0.9745 -0.3657
  714MPD2     H10558   3.346   1.104   1.193 -1.4062 -0.7702 -0.5935
  714MPD2    H110559   3.170   1.463   1.345 -0.3806  0.0456  1.3971
  714MPD2    H210560   3.459   1.268   1.572 -0.0580 -2.7446 -0.0086
  714MPD2    H310561   3.287   1.434   1.554 -1.7798 -1.0099  0.7786
  714MPD2     N10562   3.178   1.288   1.133 -0.5849  0.2389 -0.3048
  714MPD2    H510563   3.198   1.220   1.061  3.4430  0.1775  0.8609
  714MPD2    N110564   3.511   1.077   1.411  0.5415  0.2809  0.1944
  714MPD2    H710565   3.570   1.081   1.493  0.8707 -1.1063  0.0174
  715TMC3    C110566   3.664   0.908   1.357  0.0141  0.1866 -0.2474
  715TMC3    C210567   3.686   0.774   1.311  0.5747 -0.1563  0.8310
  715TMC3    C310568   3.797   0.701   1.356 -0.7773 -0.4244  0.1764
  715TMC3    C410569   3.752   0.965   1.449 -0.1883  0.2991  0.1792
  715TMC3    C510570   3.864   0.894   1.488  0.3394  0.4338 -0.3822
  715TMC3    C610571   3.883   0.760   1.450 -0.1956  0.9128 -0.2365
  715TMC3     C10572   3.543   0.975   1.320 -0.1826  1.0839 -0.1744
  715TMC3     O10573   3.468   0.917   1.240 -0.1947  0.5844  0.2649
  715TMC3     H10574   3.613   0.726   1.247  1.6234 -1.5432  0.6852
  715TMC3    H110575   3.740   1.071   1.467 -1.2068  0.7018 -2.8614
  715TMC3    H210576   3.983   0.720   1.464 -0.6383 -0.4268 -0.8375
  715TMC3    C710577   3.952   0.953   1.590 -0.5006  0.0795 -0.0004
  715TMC3    C810578   3.826   0.579   1.286  0.5781  0.4159 -0.4383
  715TMC3    O110579   4.050   0.894   1.604 -0.0275  0.4785  0.7312
  715TMC3    O210580   3.793   0.573   1.172 -0.0192 -0.1743 -0.2970
  716MPD2     C10581   4.358   3.288  10.219  0.0230 -0.2462  0.4546
  716MPD2    C110582   4.287   3.347  10.115 -0.0491  0.0607 -0.1998
  716MPD2    C210583   4.279   3.277   9.999  0.4358 -0.3467 -0.2941
  716MPD2    C310584   4.340   3.156   9.983 -0.0636  0.2374  0.6528
  716MPD2    C410585   4.409   3.102  10.086 -0.6059  0.3854 -0.0583
  716MPD2    C510586   4.418   3.170  10.202 -0.5283  0.6556  0.5384
  716MPD2     H10587   4.230   3.328   9.917  0.5908 -0.8440 -0.6976
  716MPD2    H110588   4.458   3.007  10.072  0.6644  0.9690  0.3608
  716MPD2    H210589   4.374   3.334  10.316  0.4085 -0.7122  0.6099
  716MPD2    H310590   4.477   3.133  10.285  0.5837  0.5737 -0.2986
  716MPD2     N10591   4.337   3.091   9.858  0.6378 -0.1211  0.6538
  716MPD2    H510592   4.307   3.146   9.778 -2.9474  0.5824  2.4750
  716MPD2    N110593   4.220   3.469  10.128  0.3293  0.2764 -0.1714
  716MPD2    H710594   4.171   3.506  10.048  1.1412  1.0133 -0.3355
  717TMC3    C110595   4.349   2.942   9.683  0.1736  0.3506 -0.7465
  717TMC3    C210596   4.384   3.040   9.592 -0.4776 -0.5026 -0.3032
  717TMC3    C310597   4.368   3.015   9.458 -0.4300  0.3095 -0.6120
  717TMC3    C410598   4.318   2.816   9.642 -0.4266 -0.1471  0.2199
  717TMC3    C510599   4.299   2.796   9.503 -0.0851  0.6447  0.2525
  717TMC3    C610600   4.330   2.890   9.407 -0.9871  0.0379 -0.1380
  717TMC3     C10601   4.370   2.964   9.825 -0.0097 -0.3874 -0.0665
  717TMC3     O10602   4.381   2.872   9.905 -0.6108 -0.3526  0.0488
  717TMC3     H10603   4.431   3.128   9.635 -1.3380  0.0310 -0.4669
  717TMC3    H110604   4.297   2.745   9.722  1.5990 -0.6587  0.3009
  717TMC3    H210605   4.317   2.876   9.300 -0.3533 -0.1453 -0.1861
  717TMC3    C710606   4.271   2.662   9.458  0.2797  0.3471  0.3656
  717TMC3    C810607   4.356   3.125   9.370 -0.3481  0.2468  0.0006
  717TMC3    O110608   4.261   2.645   9.339  0.6400  0.0468 -0.5392
  717TMC3    O210609   4.379   3.235   9.416 -0.2227 -0.2014  0.1514
  718MPD2     C10610   3.438   2.920  13.125 -0.0094 -0.1839 -0.1377
  718MPD2    C110611   3.475   2.806  13.059  0.5036 -0.8315  0.1666
  718MPD2    C210612   3.423   2.684  13.092 -0.5583 -0.0312  1.2751
  718MPD2    C310613   3.322   2.677  13.181  0.2566  0.1170 -0.1111
  718MPD2    C410614   3.276   2.795  13.245  0.4085 -0.4376  0.5209
  718MPD2    C510615   3.336   2.911  13.214  0.0095 -0.4399 -0.0270
  718MPD2     H10616   3.454   2.593  13.042 -0.9630 -0.3567  1.6241
  718MPD2    H110617   3.194   2.797  13.315 -0.7626 -1.1143 -0.8163
  718MPD2    H210618   3.483   3.016  13.102 -1.6198  1.0023  1.7009
  718MPD2    H310619   3.305   3.004  13.261  1.1163 -0.2310  0.2827
  718MPD2     N10620   3.264   2.552  13.186  0.1421  0.0626 -0.3908
  718MPD2    H510621   3.319   2.477  13.147  2.1752  0.7715  1.1531
  718MPD2    N110622   3.563   2.824  12.946 -0.0679 -0.6359 -0.2882
  718MPD2    H710623   3.574   2.919  12.914 -1.2493 -0.5092 -0.3170
  719TMC3    C110624   3.647   2.753  12.739 -0.0882 -0.3699 -0.7766
  719TMC3    C210625   3.636   2.641  12.664 -0.1273  0.1596 -0.3776
  719TMC3    C310626   3.578   2.655  12.536  0.1908 -0.1566 -0.6147
  719TMC3    C410627   3.618   2.880  12.692  0.1219  0.0995  0.5173
  719TMC3    C510628   3.569   2.892  12.561  0.4910  0.0140  0.1745
  719TMC3    C610629   3.542   2.782  12.483  0.0935  0.2592 -0.1502
  719TMC3     C10630   3.629   2.725  12.882 -0.7665 -0.0339  0.0640
  719TMC3     O10631   3.648   2.605  12.910 -0.2095  0.3036 -0.9397
  719TMC3     H10632   3.666   2.541  12.692 -1.3265 -0.7686 -2.3480
  719TMC3    H110633   3.667   2.965  12.739  0.8281 -0.1052  0.1582
  719TMC3    H210634   3.506   2.791  12.381  0.1824 -1.0207 -0.2959
  719TMC3    C710635   3.620   3.007  12.493 -0.1525  1.0190  0.1512
  719TMC3    C810636   3.524   2.535  12.468 -0.5397 -0.9229  0.2650
  719TMC3    O110637   3.662   2.984  12.379 -0.4083  0.3203 -0.0573
  719TMC3    O210638   3.555   2.432  12.524 -0.2177  0.2804  0.0692
  720MPD2     C10639   1.607   4.378  13.058 -0.2433 -0.5182 -0.2805
  720MPD2    C110640   1.574   4.441  13.171 -0.2457 -0.2913  0.2862
  720MPD2    C210641   1.659   4.424  13.276 -0.0029  0.1139 -0.1727
  720MPD2    C310642   1.780   4.359  13.265  0.0159 -0.7257 -0.0669
  720MPD2    C410643   1.815   4.308  13.144 -0.3114  0.6986 -0.7784
  720MPD2    C510644   1.725   4.310  13.048  0.3687  0.6456 -0.2435
  720MPD2     H10645   1.633   4.468  13.372 -0.8800  2.8635 -1.6639
  720MPD2    H110646   1.910   4.262  13.120 -0.5067 -1.2866  2.2461
  720MPD2    H210647   1.532   4.366  12.980  0.0014  1.3037 -0.7898
  720MPD2    H310648   1.741   4.242  12.966 -2.0033 -0.3096  0.0666
  720MPD2     N10649   1.847   4.342  13.384 -0.0646 -0.5819 -0.7530
  720MPD2    H510650   1.813   4.378  13.473 -0.0316  1.6457 -1.6495
  720MPD2    N110651   1.448   4.515  13.188  0.4337  0.0290 -0.0386
  720MPD2    H710652   1.430   4.560  13.278  0.3856  0.3065 -0.1894
  721TMC3    C110653   2.005   4.250  13.533  0.8494 -0.2653  0.3136
  721TMC3    C210654   1.941   4.300  13.644  0.2237 -0.5429 -0.0483
  721TMC3    C310655   2.005   4.277  13.764 -0.3074 -0.2399 -0.3737
  721TMC3    C410656   2.120   4.173  13.537 -0.1705 -0.2142  1.1449
  721TMC3    C510657   2.175   4.161  13.662  0.3765 -0.2109  0.1528
  721TMC3    C610658   2.124   4.215  13.780  0.5006  0.1539  0.1141
  721TMC3     C10659   1.958   4.263  13.398 -0.1182 -0.3739 -0.9714
  721TMC3     O10660   2.004   4.192  13.310 -0.0233 -0.4661 -1.1024
  721TMC3     H10661   1.860   4.372  13.641 -1.6726 -2.7783 -2.2213
  721TMC3    H110662   2.175   4.147  13.448 -0.2063  1.5190  0.6234
  721TMC3    H210663   2.181   4.218  13.872  0.8412 -2.3690 -0.0145
  721TMC3    C710664   2.316   4.154  13.654  0.6681 -0.0445 -0.3600
  721TMC3    C810665   1.956   4.342  13.889  0.1809 -0.0390  0.6274
  721TMC3    O110666   2.368   4.176  13.546 -0.2335 -0.2582  0.4434
  721TMC3    O210667   1.891   4.445  13.871 -0.7499 -0.3550  0.3328
  722MPD2     C10668   0.501   2.932  13.223  0.1935 -0.7024 -0.5215
  722MPD2    C110669   0.462   3.064  13.205  0.1701 -0.1571 -0.1412
  722MPD2    C210670   0.357   3.083  13.116 -0.3010 -0.3237 -0.2180
  722MPD2    C310671   0.301   2.987  13.041 -1.2291  0.6419 -0.2704
  722MPD2    C410672   0.346   2.862  13.055  0.4441 -0.6591 -0.1146
  722MPD2    C510673   0.446   2.837  13.143  0.1657 -0.2966 -0.0128
  722MPD2     H10674   0.321   3.184  13.102  1.2799  0.3069  0.3420
  722MPD2    H110675   0.307   2.771  13.010  0.1380 -1.6022  2.0218
  722MPD2    H210676   0.583   2.906  13.290 -0.1391 -0.4720 -0.0220
  722MPD2    H310677   0.474   2.732  13.151  0.9567 -0.0846 -0.0152
  722MPD2     N10678   0.202   3.022  12.944 -0.0963  0.7970 -0.2877
  722MPD2    H510679   0.208   3.121  12.922 -1.2552  0.9223 -0.0563
  722MPD2    N110680   0.509   3.175  13.281  0.6265 -0.1809 -0.1694
  722MPD2    H710681   0.496   3.270  13.247 -0.0102 -0.3616 -0.4286
  723TMC3    C110682   0.042   2.992  12.770  0.1364  0.1624 -0.1568
  723TMC3    C210683   0.002   2.911  12.665  0.3099 -0.3999 -0.1187
  723TMC3    C310684   4.643   2.964  12.568 -0.3974  0.1783  0.2358
  723TMC3    C410685   4.717   3.116  12.788  0.5503 -0.3636 -0.3016
  723TMC3    C510686   4.633   3.162  12.688  0.1273 -0.2720  0.2078
  723TMC3    C610687   4.595   3.088  12.576  0.4199 -0.2261 -0.0994
  723TMC3     C10688   0.131   2.935  12.862  0.4716 -0.6223  0.1751
  723TMC3     O10689   0.134   2.811  12.862 -0.0080 -0.3318 -0.1455
  723TMC3     H10690   0.032   2.807  12.660 -2.4847 -1.1844 -0.7522
  723TMC3    H110691   4.723   3.150  12.891  1.4605  2.1056 -1.1876
  723TMC3    H210692   4.523   3.121  12.502  0.2768 -1.6777 -0.6000
  723TMC3    C710693   4.561   3.290  12.690 -0.0361  0.0619 -0.4280
  723TMC3    C810694   4.619   2.895  12.440 -0.0235  0.4133  0.2807
  723TMC3    O110695   4.485   3.315  12.594  0.7338 -0.7335  0.4485
  723TMC3    O210696   4.566   2.959  12.350  0.3878 -0.1485  0.3511
  724TMC3    C110697   0.247   2.012   8.942 -0.1332  0.2106  0.0019
  724TMC3    C210698   0.308   1.976   9.059 -0.2789 -0.4758 -0.1809
  724TMC3    C310699   0.433   2.028   9.095 -0.5293  0.3086  0.7715
  724TMC3    C410700   0.314   2.098   8.858  0.7874 -0.4879  0.1201
  724TMC3    C510701   0.440   2.140   8.885  0.1386  0.5771  0.7260
  724TMC3    C610702   0.498   2.109   9.005 -0.3239  0.1153  0.4419
  724TMC3     C10703   0.139   1.932   8.897 -0.8019 -0.0551 -0.0517
  724TMC3     O10704   0.077   1.982   8.804 -0.5045 -0.1826  0.5660
  724TMC3     H10705   0.247   1.922   9.130 -3.1554  2.3188 -0.5176
  724TMC3    H110706   0.281   2.112   8.756 -0.3671  0.0543  0.5602
  724TMC3    H210707   0.591   2.160   9.026  0.5490 -1.2013 -0.2458
  724TMC3    C710708   0.500   2.257   8.823  0.2086 -0.0700  0.6252
  724TMC3    C810709   0.502   1.958   9.194  0.7193 -0.3065 -0.4436
  724TMC3    O110710   0.619   2.268   8.829 -0.2087 -0.2547 -0.0050
  724TMC3    O210711   0.443   1.862   9.241  0.4341 -0.4288  0.2880
  725TMC3    C110712   1.867   0.059  12.514 -0.7608 -0.4960  0.0376
  725TMC3    C210713   1.808   0.084  12.390  0.7941 -0.4152 -0.4031
  725TMC3    C310714   1.751   4.700  12.326  0.0470  0.2412  0.2060
  725TMC3    C410715   1.865   4.660  12.571 -0.0909  0.4958  0.6924
  725TMC3    C510716   1.803   4.558  12.499 -0.2755  0.8582 -0.5951
  725TMC3    C610717   1.738   4.576  12.384  0.6555 -0.0443  0.5655
  725TMC3     C10718   1.968   0.165  12.536  0.0737 -0.8931  0.4644
  725TMC3     O10719   1.977   0.254  12.452 -0.0952 -0.0050 -0.1330
  725TMC3     H10720   1.787   0.186  12.359 -0.0164 -0.9597 -1.6598
  725TMC3    H110721   1.900   4.648  12.673 -0.8453 -1.6395  0.7038
  725TMC3    H210722   1.711   4.488  12.327  1.2549  0.2012 -0.1055
  725TMC3    C710723   1.818   4.420  12.551  0.2625 -0.0698  0.0849
  725TMC3    C810724   1.686   4.724  12.197 -0.9257  0.7059  0.2295
  725TMC3    O110725   1.752   4.332  12.495  0.2113 -0.1967 -0.7116
  725TMC3    O210726   1.604   4.646  12.155 -0.3028  0.4586 -0.1643
  726MPD2     C10727   0.203   1.795   9.859  0.1472  0.1841 -0.0087
  726MPD2    C110728   0.084   1.868   9.826  0.7728  0.2127  0.6601
  726MPD2    C210729   4.684   1.803   9.835  0.2580 -0.1479 -0.0541
  726MPD2    C310730   4.677   1.676   9.895 -0.8279 -0.3718  0.6204
  726MPD2    C410731   0.064   1.612   9.930  0.1867  0.3593  0.0617
  726MPD2    C510732   0.186   1.663   9.896 -0.0452  0.3848 -0.0616
  726MPD2     H10733   4.591   1.855   9.820  0.4882 -0.2665 -1.8667
  726MPD2    H110734   0.076   1.507   9.950 -0.0204  0.5107  0.9762
  726MPD2    H210735   0.298   1.847   9.848  0.8055 -1.0576 -0.2259
  726MPD2    H310736   0.274   1.603   9.914  0.1279  1.3787  2.4221
  726MPD2     N10737   4.558   1.602   9.910 -0.2890 -0.3943 -0.3820
  726MPD2    H510738   4.571   1.508   9.945  1.7569 -0.0028 -0.1140
  726MPD2    N110739   0.086   2.003   9.781 -0.0413  0.1869  0.3268
  726MPD2    H710740   0.010   2.037   9.725  0.0761  0.6993  0.4826
  727TMC3    C110741   0.161   2.223   9.772  0.1616 -0.2389 -0.2054
  727TMC3    C210742   0.230   2.315   9.843  0.7314 -0.2688  0.7201
  727TMC3    C310743   0.211   2.445   9.818  0.3196 -0.2806 -0.2558
  727TMC3    C410744   0.088   2.254   9.660 -0.1622  0.1237  0.6827
  727TMC3    C510745   0.059   2.387   9.646  0.3009 -0.0640 -0.0437
  727TMC3    C610746   0.127   2.483   9.713  0.3980  0.0016  0.4314
  727TMC3     C10747   0.184   2.090   9.813  0.1497  0.2378 -0.1496
  727TMC3     O10748   0.262   2.072   9.908 -0.2455 -0.5091 -0.3542
  727TMC3     H10749   0.293   2.284   9.926 -1.9280  0.6596  3.0651
  727TMC3    H110750   0.049   2.170   9.603  0.7894 -0.5731  1.0667
  727TMC3    H210751   0.116   2.588   9.689 -1.6844 -0.4713 -0.7413
  727TMC3    C710752   4.705   2.435   9.536 -0.1910 -0.7784  0.6351
  727TMC3    C810753   0.309   2.539   9.867  0.0450  0.3047 -0.3145
  727TMC3    O110754   4.719   2.548   9.500 -0.5467 -0.0784 -0.0046
  727TMC3    O210755   0.415   2.479   9.891 -0.1663  0.5944  0.3092
  728TMC3    C110756   3.835   4.482  15.402  0.3318 -0.5160 -0.4068
  728TMC3    C210757   3.961   4.522  15.440  0.0356  0.5768 -0.3047
  728TMC3    C310758   4.043   4.577  15.351  0.9824  0.4562  0.8395
  728TMC3    C410759   3.795   4.502  15.276 -0.1178  0.0738 -0.3859
  728TMC3    C510760   3.884   4.559  15.188  0.4448 -0.2857 -0.6835
  728TMC3    C610761   4.005   4.604  15.225 -0.6093  0.2388  0.9353
  728TMC3     C10762   3.740   4.462  15.509 -0.5515 -0.2300 -0.5339
  728TMC3     O10763   3.787   4.432  15.616  0.5906  0.5907  0.3604
  728TMC3     H10764   3.978   4.522  15.547 -3.6840  1.4447  0.3074
  728TMC3    H110765   3.697   4.478  15.236  0.9498 -1.8517 -1.8730
  728TMC3    H210766   4.083   4.621  15.151 -1.1391 -1.6147 -0.0575
  728TMC3    C710767   3.847   4.569  15.050  0.4624  0.3645  0.1826
  728TMC3    C810768   4.158   4.636  15.409  0.2409 -0.0184 -0.0765
  728TMC3    O110769   3.758   4.483  15.019 -0.1866 -0.5265 -0.2436
  728TMC3    O210770   4.198   4.587  15.514  0.2169  0.0041  0.3648
  729MPD2     C10771   1.231   0.975  16.177  0.0265 -0.4786  0.3192
  729MPD2    C110772   1.345   1.010  16.254  0.7372  0.8865 -0.3598
  729MPD2    C210773   1.333   1.018  16.390 -0.6670 -0.7013  0.0968
  729MPD2    C310774   1.215   0.987  16.450 -0.0938  0.2509  0.0269
  729MPD2    C410775   1.108   0.959  16.379 -0.6031 -0.2804  0.8972
  729MPD2    C510776   1.113   0.955  16.241 -0.3747 -0.2042  0.3806
  729MPD2     H10777   1.419   1.051  16.448 -1.0785  0.9247 -0.2111
  729MPD2    H110778   1.012   0.940  16.426 -1.2777  1.7185  0.3501
  729MPD2    H210779   1.240   0.958  16.071  1.8236  1.0380  0.2344
  729MPD2    H310780   1.024   0.925  16.186  0.3236  3.1261 -2.5933
  729MPD2     N10781   1.206   0.998  16.588 -0.0254  0.3389  0.5103
  729MPD2    H510782   1.293   0.986  16.640  0.7196  2.3494 -0.2842
  729MPD2    N110783   1.462   1.048  16.184 -0.5415 -0.0881  0.5311
  729MPD2    H710784   1.452   1.054  16.083 -0.2558  0.6192  0.5415
  730TMC3    C110785   1.126   1.051  16.797 -0.2447  0.6763  0.6571
  730TMC3    C210786   1.222   0.976  16.856 -0.0646 -0.3751  0.1969
  730TMC3    C310787   1.296   1.031  16.955  0.1055  0.1919  0.0990
  730TMC3    C410788   1.094   1.175  16.843  0.1699 -0.2325  0.9252
  730TMC3    C510789   1.164   1.232  16.943 -0.5931 -0.6494  0.1105
  730TMC3    C610790   1.265   1.160  17.002 -0.3188  0.5038 -0.1325
  730TMC3     C10791   1.089   1.032  16.656 -0.2951  0.0513  0.1651
  730TMC3     O10792   0.990   1.097  16.610 -0.0516 -0.0004 -0.2629
  730TMC3     H10793   1.242   0.877  16.817  0.8771 -0.3545  0.6383
  730TMC3    H110794   1.028   1.240  16.787 -0.6519 -2.1594 -0.3581
  730TMC3    H210795   1.321   1.184  17.091  0.1092 -0.4255 -0.1433
  730TMC3    C710796   1.187   1.373  16.923  0.6706  0.2003 -0.5186
  730TMC3    C810797   1.415   1.049  16.879  0.0186  0.5531 -0.1053
  730TMC3    O110798   1.135   1.424  16.822 -0.4618  0.2211 -0.8630
  730TMC3    O210799   1.435   0.972  16.782  0.8566  0.2374 -0.2641
  731MPD2     C10800   1.497   4.244  12.163 -0.3076  0.3017 -0.1276
  731MPD2    C110801   1.428   4.154  12.084  0.1183  0.1046  0.1024
  731MPD2    C210802   1.357   4.046  12.150  0.9247  0.4723 -0.0964
  731MPD2    C310803   1.365   4.031  12.282  0.4775 -0.5596 -0.6564
  731MPD2    C410804   1.436   4.123  12.352  0.5645  0.0537  0.0185
  731MPD2    C510805   1.508   4.229  12.298 -0.0023  0.1295 -0.3453
  731MPD2     H10806   1.303   3.966  12.100  1.1776 -0.2386  0.7840
  731MPD2    H110807   1.452   4.114  12.458 -1.4621 -0.9107  0.2248
  731MPD2    H210808   1.563   4.311  12.109  0.8092 -1.0510 -0.4550
  731MPD2    H310809   1.571   4.293  12.359  2.0509 -0.6647 -1.6499
  731MPD2     N10810   1.310   3.912  12.341 -0.0655 -0.1373 -0.6501
  731MPD2    H510811   1.260   3.852  12.277 -0.1467  0.1820 -0.8893
  731MPD2    N110812   1.438   4.175  11.938 -0.0392 -0.0569 -0.1359
  731MPD2    H710813   1.509   4.244  11.914 -4.0979  3.0503 -3.2029
  732TMC3    C110814   1.418   4.132  11.703  0.7433 -0.1541 -0.9334
  732TMC3    C210815   1.337   4.098  11.604  0.1390 -0.2599 -0.1160
  732TMC3    C310816   1.380   4.053  11.483 -0.4612 -0.5102 -0.3821
  732TMC3    C410817   1.552   4.141  11.692 -0.5459 -0.9423 -0.6784
  732TMC3    C510818   1.599   4.105  11.565  0.0125  0.4333  0.0462
  732TMC3    C610819   1.519   4.060  11.468 -0.0797 -0.2067 -0.0109
  732TMC3     C10820   1.365   4.120  11.840  0.5716  0.5772  0.0963
  732TMC3     O10821   1.270   4.046  11.864  0.0277 -0.9632  0.2101
  732TMC3     H10822   1.240   4.070  11.643 -0.9716  1.5086 -1.6206
  732TMC3    H110823   1.614   4.159  11.779  1.0979 -0.4869 -1.9266
  732TMC3    H210824   1.570   4.039  11.374  0.2634  0.5224  0.0112
  732TMC3    C710825   1.745   4.089  11.564  0.0474  0.6882  0.4112
  732TMC3    C810826   1.317   3.945  11.420  0.0310 -0.1882 -0.1620
  732TMC3    O110827   1.800   4.079  11.456  0.0553 -0.2702  0.5078
  732TMC3    O210828   1.383   3.857  11.366 -0.3424  0.3305  0.2918
  733TMC3    C110829   2.872   2.295  13.123  0.4369 -0.7564 -0.4730
  733TMC3    C210830   2.955   2.370  13.201 -0.7372  0.4622  0.4720
  733TMC3    C310831   3.078   2.414  13.158 -0.4241  0.4905  0.9104
  733TMC3    C410832   2.888   2.273  12.991 -0.4495 -0.1791 -0.2630
  733TMC3    C510833   2.996   2.339  12.948  0.1496  0.2514 -1.1096
  733TMC3    C610834   3.099   2.407  13.023 -0.7493 -0.2012 -0.0775
  733TMC3     C10835   2.733   2.275  13.169 -0.6415  0.4126 -0.8312
  733TMC3     O10836   2.682   2.350  13.247 -0.1955 -0.0725  0.1397
  733TMC3     H10837   2.934   2.387  13.306  0.7524  0.2332  0.8072
  733TMC3    H110838   2.814   2.236  12.921  0.1517 -1.1122 -0.4079
  733TMC3    H210839   3.169   2.464  12.964 -0.6766 -0.1173  0.0876
  733TMC3    C710840   2.982   2.394  12.813  0.0623  0.0904 -0.1260
  733TMC3    C810841   3.140   2.522  13.240 -0.1003 -0.9401  0.3838
  733TMC3    O110842   2.867   2.421  12.780 -0.5284 -0.0163  0.3382
  733TMC3    O210843   3.066   2.577  13.322  0.2897 -0.3007 -0.2402
  734MPD2     C10844   0.297   4.444  12.142  0.1115 -0.2243  0.5908
  734MPD2    C110845   0.162   4.475  12.133 -0.3245 -0.5109 -0.7817
  734MPD2    C210846   0.124   4.592  12.060 -0.4761 -0.9139  0.3131
  734MPD2    C310847   0.216   4.667  11.999 -0.1830 -0.3847 -0.0885
  734MPD2    C410848   0.351   4.626  11.997 -0.3248 -0.2907  0.2240
  734MPD2    C510849   0.386   4.519  12.073  0.1174 -0.2732 -0.5398
  734MPD2     H10850   0.022   4.625  12.045 -0.6730 -0.5961  2.2634
  734MPD2    H110851   0.423   4.666  11.926  1.2314 -0.6928  1.5873
  734MPD2    H210852   0.326   4.355  12.197 -0.0100  0.4925  1.8129
  734MPD2    H310853   0.492   4.497  12.078  0.0604 -0.6657 -1.0368
  734MPD2     N10854   0.159   0.045  11.918 -0.5024  0.7539 -0.4122
  734MPD2    H510855   0.059   0.062  11.927 -0.4119  1.3765 -0.5572
  734MPD2    N110856   0.068   4.379  12.186 -0.0606 -0.1129 -0.1266
  734MPD2    H710857   0.109   4.303  12.240 -2.4178 -2.8510 -2.1950
  735TMC3    C110858   4.589   4.261  12.176  0.2665 -0.1282 -0.0190
  735TMC3    C210859   4.462   4.268  12.126  0.2897  0.3659 -0.0265
  735TMC3    C310860   4.419   4.179  12.025  0.3761 -0.2594 -0.8774
  735TMC3    C410861   4.665   4.155  12.144 -0.2144 -0.3109 -0.1046
  735TMC3    C510862   4.621   4.060  12.060  0.3820  0.4187  1.0710
  735TMC3    C610863   4.502   4.077  11.991 -0.4252 -0.0931  0.6918
  735TMC3     C10864   4.655   4.384  12.161 -0.7644 -0.5501 -0.5394
  735TMC3     O10865   4.592   4.473  12.108  0.1170  0.0860  0.4672
  735TMC3     H10866   4.396   4.348  12.155  1.5364  1.7462 -0.9539
  735TMC3    H110867   0.039   4.143  12.189  0.1454 -1.4524 -1.2144
  735TMC3    H210868   4.489   4.043  11.889  0.8145 -1.5986  1.0487
  735TMC3    C710869   0.005   3.995  11.988 -0.5352 -0.4878  0.4551
  735TMC3    C810870   4.339   4.233  11.923 -0.6834 -0.5249 -0.3177
  735TMC3    O110871   0.105   4.069  11.998  0.7235  0.4089 -0.8099
  735TMC3    O210872   4.297   4.158  11.834 -0.1136  0.2176  0.1952
  736MPD2     C10873   4.707   3.731  11.735 -0.2500 -0.4469  0.2071
  736MPD2    C110874   0.042   3.842  11.798 -0.4425  0.1839  0.2167
  736MPD2    C210875   0.166   3.875  11.757 -0.2384 -0.0442  0.2744
  736MPD2    C310876   0.227   3.812  11.652  0.3511 -0.2569 -0.2479
  736MPD2    C410877   0.164   3.706  11.588 -0.2501 -0.2906  0.1237
  736MPD2    C510878   0.048   3.667  11.633  0.1724  0.1230 -0.1481
  736MPD2     H10879   0.211   3.961  11.804 -0.8682 -0.0672  0.9232
  736MPD2    H110880   0.213   3.643  11.514 -0.9314  0.0214 -0.5872
  736MPD2    H210881   4.615   3.683  11.765 -1.3011  0.7125 -1.2276
  736MPD2    H310882   0.005   3.585  11.577 -1.2694 -1.3590  3.2027
  736MPD2     N10883   0.343   3.865  11.587  0.1160  0.1296 -0.8399
  736MPD2    H510884   0.371   3.819  11.501  2.1143  0.0346 -0.1504
  736MPD2    N110885   4.685   3.906  11.893 -0.0740  0.2503  0.2883
  736MPD2    H710886   4.590   3.871  11.904 -0.8623  2.2327 -0.2198
  737TMC3    C110887   0.518   4.004  11.536 -0.2887  0.2351  0.3320
  737TMC3    C210888   0.558   4.133  11.514  0.7852 -0.9823  0.6196
  737TMC3    C310889   0.649   4.161  11.416  0.5513  0.1786 -0.2625
  737TMC3    C410890   0.572   3.906  11.457 -0.0903 -0.6171  0.3240
  737TMC3    C510891   0.673   3.937  11.362 -0.2162  0.7267  1.1520
  737TMC3    C610892   0.716   4.063  11.348  0.0302 -0.7012 -0.3163
  737TMC3     C10893   0.408   3.982  11.620 -0.5477 -0.5737  0.2980
  737TMC3     O10894   0.377   4.071  11.700  0.0477 -0.4628 -0.4149
  737TMC3     H10895   0.498   4.210  11.562  1.0486  0.1721 -0.8932
  737TMC3    H110896   0.548   3.801  11.464  0.6640 -0.8727 -0.8905
  737TMC3    H210897   0.787   4.092  11.271 -1.6597  0.4684 -1.4435
  737TMC3    C710898   0.706   3.833  11.260  0.2018  0.4704 -0.4800
  737TMC3    C810899   0.697   4.297  11.409 -0.1945 -0.3403  0.1647
  737TMC3    O110900   0.652   3.725  11.274  0.5834  0.3473  0.0136
  737TMC3    O210901   0.672   4.366  11.503 -0.0945  0.2316 -0.5633
  738MPD2     C10902   0.454   3.061  15.212 -0.2793 -0.0365  0.4971
  738MPD2    C110903   0.490   3.037  15.083  0.1303  0.4883  0.7078
  738MPD2    C210904   0.583   3.121  15.024 -0.9909  0.1186  0.0438
  738MPD2    C310905   0.623   3.236  15.084 -0.5338  0.2808 -0.0463
  738MPD2    C410906   0.571   3.266  15.206  0.1555 -0.1156 -0.4466
  738MPD2    C510907   0.496   3.179  15.271 -0.5623  0.4918 -0.7202
  738MPD2     H10908   0.625   3.083  14.932 -0.0678 -0.4198  0.6730
  738MPD2    H110909   0.590   3.355  15.264 -4.4957  0.0040  0.9280
  738MPD2    H210910   0.381   2.999  15.263  1.0576 -1.4481  0.6736
  738MPD2    H310911   0.446   3.218  15.359  0.7548  1.1343 -0.2513
  738MPD2     N10912   0.719   3.321  15.027 -0.2686  0.0195 -0.8361
  738MPD2    H510913   0.728   3.416  15.063 -1.7580 -0.8797  1.8976
  738MPD2    N110914   0.452   2.916  15.014 -0.6411 -0.8373  0.0192
  738MPD2    H710915   0.476   2.909  14.915 -0.4297  2.2240 -0.1572
  739TMC3    C110916   0.904   3.396  14.896  0.7134 -0.3535  0.2634
  739TMC3    C210917   0.943   3.423  14.768  0.1623  0.4452 -0.0683
  739TMC3    C310918   1.050   3.506  14.749  0.5523 -0.5553 -0.7369
  739TMC3    C410919   0.977   3.441  15.003 -0.3440 -0.7874 -0.2731
  739TMC3    C510920   1.081   3.529  14.981 -0.4801  0.2323 -0.3001
  739TMC3    C610921   1.129   3.551  14.856 -0.0966 -0.0175 -0.7858
  739TMC3     C10922   0.800   3.296  14.910  0.3364  0.0419  0.1128
  739TMC3     O10923   0.783   3.225  14.812 -0.0617  0.4444  0.3910
  739TMC3     H10924   0.879   3.399  14.684  1.9457 -0.7772 -1.0615
  739TMC3    H110925   0.957   3.407  15.104 -2.5119  0.5605 -0.2286
  739TMC3    H210926   1.205   3.628  14.855 -0.0994 -0.0634 -3.4942
  739TMC3    C710927   1.177   3.549  15.086 -0.1372 -0.3605 -0.2505
  739TMC3    C810928   1.076   3.549  14.609 -0.0793  0.3784 -1.1428
  739TMC3    O110929   1.296   3.539  15.058  0.4358  0.0039 -0.6053
  739TMC3    O210930   0.984   3.530  14.528 -0.3022  0.0646 -0.0554
  740TMC3    C110931   1.354   0.127  14.179  0.8474  0.1840  1.3481
  740TMC3    C210932   1.422   0.094  14.300 -0.9311 -0.2240  0.1493
  740TMC3    C310933   1.553   0.090  14.298 -0.4166  1.6462  0.2450
  740TMC3    C410934   1.421   0.143  14.060  0.1590  0.6381  0.4160
  740TMC3    C510935   1.556   0.138  14.062  0.1565  0.0493 -0.3149
  740TMC3    C610936   1.623   0.113  14.184 -0.2413  0.1625 -0.1314
  740TMC3     C10937   1.213   0.149  14.178 -0.1350 -0.0455  0.3609
  740TMC3     O10938   1.169   0.206  14.081  0.0890 -0.2041 -0.2179
  740TMC3     H10939   1.374   0.097  14.398 -0.6143 -0.1118  0.3019
  740TMC3    H110940   1.365   0.155  13.968 -0.7627  1.3123  1.0686
  740TMC3    H210941   1.731   0.120  14.179 -0.2579  0.3507 -0.2288
  740TMC3    C710942   1.623   0.077  13.949  1.2069  0.2454 -0.6293
  740TMC3    C810943   1.641   0.060  14.410 -0.0969  0.0808  0.0466
  740TMC3    O110944   1.720   0.009  13.981  0.2203 -0.5520 -0.1513
  740TMC3    O210945   1.760   0.057  14.391 -0.5091  0.0694  0.0068
  741TMC3    C110946   1.093   3.973  14.440 -0.4649 -0.1449 -0.0103
  741TMC3    C210947   1.008   3.922  14.350  1.3394  0.1105  0.0135
  741TMC3    C310948   0.900   3.854  14.405 -0.1250  0.0755  0.2009
  741TMC3    C410949   1.062   3.967  14.572 -0.0575 -0.4619  0.4728
  741TMC3    C510950   0.948   3.901  14.615  0.3705  0.1298  0.5404
  741TMC3    C610951   0.870   3.827  14.532  0.1411 -0.0021 -0.3690
  741TMC3     C10952   1.222   4.023  14.390  0.4393 -0.1469 -0.4661
  741TMC3     O10953   1.296   4.063  14.476 -0.1521  0.4770 -0.2450
  741TMC3     H10954   1.015   3.910  14.243 -0.6060 -1.1292  0.0210
  741TMC3    H110955   1.128   4.012  14.645 -2.7724  1.2217  1.8596
  741TMC3    H210956   0.776   3.780  14.559 -0.3640  0.6027 -1.0577
  741TMC3    C710957   0.879   3.938  14.736  0.6018 -0.3330  0.0622
  741TMC3    C810958   0.812   3.792  14.305  0.2432  0.5548 -0.7922
  741TMC3    O110959   0.804   3.858  14.787 -0.3209  0.0032 -0.6642
  741TMC3    O210960   0.761   3.864  14.222  1.1084 -0.1398 -0.1013
  742TMC3    C110961   1.417   2.216  14.638  0.5818  0.5013  0.0607
  742TMC3    C210962   1.424   2.225  14.505  0.0621 -0.3485  0.3201
  742TMC3    C310963   1.508   2.142  14.441  0.1434  0.2524  0.1800
  742TMC3    C410964   1.470   2.106  14.701  0.0180 -0.9395 -0.6105
  742TMC3    C510965   1.544   2.011  14.634 -0.6686 -0.2306 -0.5710
  742TMC3    C610966   1.560   2.024  14.500  0.1429 -0.5141 -0.4615
  742TMC3     C10967   1.281   2.239  14.690 -0.4163  0.3350  0.2817
  742TMC3     O10968   1.244   2.181  14.791  0.0710  0.0165  0.2078
  742TMC3     H10969   1.399   2.319  14.457 -0.3075 -1.4059 -1.5336
  742TMC3    H110970   1.463   2.107  14.809 -0.6234 -1.1504 -0.6513
  742TMC3    H210971   1.617   1.943  14.454  0.0044 -0.3791 -0.8689
  742TMC3    C710972   1.552   1.879  14.686  0.1519 -0.8151 -0.1214
  742TMC3    C810973   1.511   2.167  14.294  0.7650  0.3933  0.4705
  742TMC3    O110974   1.645   1.807  14.661  0.0518  0.6160  0.0889
  742TMC3    O210975   1.436   2.256  14.254 -0.1136  0.2718  0.9620
  743MPD2     C10976   3.053   2.773   1.143  0.0964  0.2183  0.0239
  743MPD2    C110977   3.093   2.903   1.142  0.2631 -0.5852  0.6784
  743MPD2    C210978   3.219   2.927   1.204  0.9186 -0.9263  0.2652
  743MPD2    C310979   3.294   2.821   1.258 -0.1909 -0.6907  0.0287
  743MPD2    C410980   3.252   2.694   1.247  0.2466 -0.6050 -0.3447
  743MPD2    C510981   3.125   2.674   1.200  0.3148  0.3721 -0.5079
  743MPD2     H10982   3.265   3.025   1.196 -0.1496 -0.3695  0.9974
  743MPD2    H110983   3.316   2.616   1.286  0.2771 -0.4787 -0.1477
  743MPD2    H210984   2.954   2.749   1.105  0.2416  0.0267 -0.2382
  743MPD2    H310985   3.073   2.581   1.216  1.7869 -0.5299 -1.0180
  743MPD2     N10986   3.417   2.854   1.324 -0.1067 -0.4340  0.5043
  743MPD2    H510987   3.437   2.954   1.323 -1.1763 -0.2303 -0.5153
  743MPD2    N110988   3.015   3.005   1.084 -0.1640 -0.2250 -0.3870
  743MPD2    H710989   2.929   2.978   1.037  0.0956 -2.1141  0.1982
  744TMC3    C110990   2.923   3.223   1.051  0.4439  0.3605 -0.5628
  744TMC3    C210991   2.848   3.296   1.138  0.3554 -0.4848  0.2443
  744TMC3    C310992   2.734   3.350   1.090 -0.4964 -0.0838  0.1106
  744TMC3    C410993   2.893   3.208   0.921 -0.2687  0.1390  0.3256
  744TMC3    C510994   2.772   3.258   0.877 -0.3391  0.3041  0.0659
  744TMC3    C610995   2.696   3.340   0.962 -0.0735  0.2511  0.2482
  744TMC3     C10996   3.032   3.141   1.106 -0.1528  0.5417  0.0927
  744TMC3     O10997   3.083   3.181   1.210  0.7661 -0.2703 -0.7254
  744TMC3     H10998   2.866   3.297   1.245 -0.1892  1.3860  0.3244
  744TMC3    H110999   2.956   3.157   0.849  1.1089  1.4859  0.5935
  744TMC3    H211000   2.600   3.382   0.933 -0.5441 -0.9078  0.1005
  744TMC3    C711001   2.774   3.290   0.734  0.0144 -0.2514 -0.2731
  744TMC3    C811002   2.677   3.451   1.168 -0.7436  0.1655 -0.3363
  744TMC3    O111003   2.878   3.272   0.673 -0.1488  0.0275  0.9067
  744TMC3    O211004   2.747   3.521   1.238 -0.1321 -0.0763 -0.2045
  745TMC3    C111005   1.271   2.002  13.161 -0.1818  0.2332  0.4721
  745TMC3    C211006   1.162   1.992  13.240  0.0918  0.1903  0.8946
  745TMC3    C311007   1.048   2.069  13.211 -0.9210  0.3852 -0.4547
  745TMC3    C411008   1.276   2.074  13.046  0.2238 -0.1123 -0.3066
  745TMC3    C511009   1.172   2.155  13.021  0.7204  0.2076  0.1000
  745TMC3    C611010   1.058   2.149  13.095  0.2880  0.0309  0.2021
  745TMC3     C11011   1.379   2.056  13.241  0.6248  0.6430  0.1722
  745TMC3     O11012   1.349   2.087  13.357  0.3594  0.2174  0.2674
  745TMC3     H11013   1.176   1.933  13.330 -2.2233 -0.5699  0.7583
  745TMC3    H111014   1.350   2.047  12.971 -1.1232  0.4265 -1.8255
  745TMC3    H211015   0.979   2.220  13.070 -0.5387 -0.4521  1.4740
  745TMC3    C711016   1.200   2.278  12.955  0.3429 -0.1628 -0.3692
  745TMC3    C811017   0.998   2.141  13.328  0.0940  0.0964 -0.5575
  745TMC3    O111018   1.102   2.344  12.923  0.6019 -0.1775  0.3197
  745TMC3    O211019   0.883   2.186  13.315 -0.1406  0.2457 -0.3730
  746TMC3    C111020   3.851   4.273  11.126  0.5728 -0.2211 -0.3697
  746TMC3    C211021   3.963   4.230  11.052  0.8442 -0.2652  0.0535
  746TMC3    C311022   3.975   4.095  11.039  0.3621 -0.2154  0.1936
  746TMC3    C411023   3.767   4.190  11.193  0.0782 -0.3938  0.7150
  746TMC3    C511024   3.781   4.058  11.155  0.0987 -0.2514 -0.0110
  746TMC3    C611025   3.887   4.007  11.080 -0.4411  0.1746  0.3819
  746TMC3     C11026   3.778   4.392  11.077 -0.0701 -0.9204  0.2865
  746TMC3     O11027   3.686   4.437  11.146 -0.3827 -0.6830 -0.1000
  746TMC3     H11028   4.037   4.300  11.015  1.0274  0.3830  1.6523
  746TMC3    H111029   3.683   4.232  11.247  1.6207  0.0532  2.7610
  746TMC3    H211030   3.889   3.899  11.066  2.5082  0.0707  1.6848
  746TMC3    C711031   3.660   3.983  11.114 -0.2341  0.0785  0.3928
  746TMC3    C811032   4.067   4.045  10.944 -0.6201 -0.2736  0.2071
  746TMC3    O111033   3.673   3.909  11.019  0.0770  0.1736  0.4885
  746TMC3    O211034   4.156   3.970  10.980  0.1408 -0.0063 -0.1724
  747TMC3    C111035   1.636   3.743  10.727 -0.6112 -0.7553  0.1160
  747TMC3    C211036   1.499   3.709  10.724 -0.4653  0.7303 -0.2669
  747TMC3    C311037   1.414   3.764  10.818 -1.0534  0.3176  0.3497
  747TMC3    C411038   1.688   3.832  10.817 -0.4714 -0.3753 -0.0881
  747TMC3    C511039   1.591   3.910  10.886  0.1115  0.3537 -0.0896
  747TMC3    C611040   1.462   3.870  10.893 -0.1824 -0.2055 -0.1984
  747TMC3     C11041   1.736   3.671  10.653  0.3931 -0.3747 -0.6535
  747TMC3     O11042   1.848   3.672  10.697  0.6471 -0.1466 -0.4336
  747TMC3     H11043   1.449   3.637  10.661 -1.8073  0.2363  1.3613
  747TMC3    H111044   1.793   3.852  10.832 -0.1499 -0.6568 -1.9325
  747TMC3    H211045   1.409   3.920  10.974  1.0126  0.3414  0.2426
  747TMC3    C711046   1.650   3.995  10.992 -0.0295  0.1202 -0.0675
  747TMC3    C811047   1.283   3.703  10.847 -0.0570  0.4171 -0.6260
  747TMC3    O111048   1.597   4.017  11.105 -0.0476  0.1924 -0.2465
  747TMC3    O211049   1.270   3.597  10.794 -0.0764 -0.6522  0.8027
  748MPD2     C11050   2.657   0.126   2.056 -0.2280  0.1062 -0.5666
  748MPD2    C111051   2.692   0.023   1.973 -0.5129 -0.1233  0.6323
  748MPD2    C211052   2.801   0.049   1.890  0.1495 -0.6313  0.3994
  748MPD2    C311053   2.861   0.173   1.875  0.5027  0.1289 -0.0496
  748MPD2    C411054   2.819   0.278   1.957 -0.6634 -0.1107  0.0474
  748MPD2    C511055   2.728   0.244   2.055 -0.1678  0.2341 -0.2902
  748MPD2     H11056   2.834   4.700   1.817  3.8243  0.3642  1.0607
  748MPD2    H111057   2.880   0.368   1.964 -0.0578 -0.4907 -0.3794
  748MPD2    H211058   2.572   0.112   2.122 -0.4444  2.4166 -0.3445
  748MPD2    H311059   2.712   0.321   2.130  4.0404  1.3826 -0.5401
  748MPD2     N11060   2.959   0.183   1.780  0.2265 -0.0501  0.2340
  748MPD2    H511061   2.992   0.095   1.741  1.1181  0.1656  0.5004
  748MPD2    N111062   2.630   4.619   1.988 -0.1621  0.4316  0.1760
  748MPD2    H711063   2.553   4.616   2.054 -0.4540 -0.2146 -0.1967
  749TMC3    C111064   3.116   0.275   1.635 -1.2124  0.3177  0.2225
  749TMC3    C211065   3.190   0.162   1.661 -0.0716 -0.2923 -0.0627
  749TMC3    C311066   3.219   0.086   1.552  0.0569 -0.0667 -0.2514
  749TMC3    C411067   3.100   0.318   1.508  0.4462 -0.3335 -0.6406
  749TMC3    C511068   3.149   0.248   1.401  0.7525 -0.1756  0.4732
  749TMC3    C611069   3.202   0.128   1.421  0.9474  0.4079 -0.1950
  749TMC3     C11070   3.010   0.299   1.728 -0.7741 -0.5416  0.1121
  749TMC3     O11071   2.982   0.413   1.758  0.4345  0.2099 -0.2686
  749TMC3     H11072   3.213   0.131   1.762 -1.0374 -1.0541 -0.0647
  749TMC3    H111073   3.038   0.405   1.489  0.9691  0.3494  0.8082
  749TMC3    H211074   3.248   0.076   1.338  0.0580  0.5799 -0.7887
  749TMC3    C711075   3.153   0.324   1.282  0.3443 -0.1377  0.0094
  749TMC3    C811076   3.321   4.708   1.581  0.1017  0.6133 -0.5661
  749TMC3    O111077   3.160   0.443   1.292 -1.0482  0.8084 -0.0420
  749TMC3    O211078   3.387   4.714   1.683 -0.3859 -0.3251  0.3652
  750MPD2     C11079   4.072   1.334  10.915  0.4616 -0.0099  0.4335
  750MPD2    C111080   3.933   1.335  10.949  0.2984 -0.2475 -0.1056
  750MPD2    C211081   3.853   1.233  10.892  0.1438 -0.3440 -0.0235
  750MPD2    C311082   3.907   1.149  10.795  0.1932  0.3319 -0.2847
  750MPD2    C411083   4.040   1.160  10.753  0.1709 -0.6294  0.4085
  750MPD2    C511084   4.118   1.250  10.819  0.3756 -0.0649  0.7039
  750MPD2     H11085   3.751   1.227  10.928  0.3962 -2.2273  0.4114
  750MPD2    H111086   4.085   1.088  10.685  1.3714  1.0283 -0.5501
  750MPD2    H211087   4.133   1.408  10.965 -0.5394  1.0540  0.0945
  750MPD2    H311088   4.216   1.275  10.779  0.7157 -0.6647  1.1603
  750MPD2     N11089   3.836   1.037  10.749  0.2410  0.2745 -0.2285
  750MPD2    H511090   3.876   1.004  10.661 -0.6730 -0.9304 -0.2025
  750MPD2    N111091   3.882   1.435  11.037  0.2422  0.1911  0.5223
  750MPD2    H711092   3.944   1.515  11.048  0.4998 -0.1625  1.6291
  751TMC3    C111093   3.666   0.869  10.731 -0.0741 -0.0019  0.2193
  751TMC3    C211094   3.535   0.822  10.748 -0.0987 -0.6351  0.2868
  751TMC3    C311095   3.501   0.709  10.669  0.1346 -0.2617  0.3667
  751TMC3    C411096   3.761   0.797  10.662  0.3489  0.0424  0.2560
  751TMC3    C511097   3.724   0.676  10.601 -0.2963  0.2614 -0.5903
  751TMC3    C611098   3.594   0.644  10.592  0.4150 -0.3406  0.2742
  751TMC3     C11099   3.717   0.994  10.792  0.0965  0.7035 -0.1299
  751TMC3     O11100   3.646   1.045  10.877  0.2846  0.0546 -0.0486
  751TMC3     H11101   3.467   0.892  10.796 -1.3332 -1.4865 -0.2209
  751TMC3    H111102   3.868   0.812  10.663  0.4338 -0.4793 -1.2507
  751TMC3    H211103   3.558   0.553  10.545 -1.9437 -0.5011  2.3513
  751TMC3    C711104   3.820   0.619  10.515 -0.6664 -0.7568  0.5810
  751TMC3    C811105   3.368   0.665  10.657  0.1030 -0.0017 -0.1466
  751TMC3    O111106   3.884   0.691  10.448  0.1471 -0.0223  0.0075
  751TMC3    O211107   3.345   0.591  10.560  0.0859 -1.3076 -0.4211
  752TMC3    C111108   2.199   1.594  16.959 -0.0683 -0.1746  0.4109
  752TMC3    C211109   2.076   1.542  16.994 -0.1616  0.1054 -0.2219
  752TMC3    C311110   2.061   1.514  17.131 -0.0204  0.7431  0.5192
  752TMC3    C411111   2.301   1.628  17.045 -0.1894  0.1661 -0.9164
  752TMC3    C511112   2.284   1.596  17.178  0.3303  0.9486  0.3999
  752TMC3    C611113   2.164   1.543  17.220 -0.4023 -0.4118  0.3435
  752TMC3     C11114   2.216   1.645  16.819  0.4181  0.6237  0.0602
  752TMC3     O11115   2.318   1.708  16.794  0.0442  0.8719  0.1158
  752TMC3     H11116   1.988   1.521  16.934 -0.2100 -0.4200  0.0332
  752TMC3    H111117   2.397   1.660  17.006 -0.7761  2.7115 -0.2636
  752TMC3    H211118   2.153   1.526  17.326 -0.8507 -1.8833  0.0658
  752TMC3    C711119   2.402   1.592  17.267  1.2254  0.8069  0.2687
  752TMC3    C811120   1.928   1.483  17.175 -1.1497  0.2904  0.3401
  752TMC3    O111121   2.495   1.654  17.217 -0.6456 -0.0397 -0.3948
  752TMC3    O211122   1.837   1.514  17.100  0.0491 -0.1331  0.6729
  753TMC3    C111123   4.675   2.425  12.819 -0.2265 -0.2821  0.4087
  753TMC3    C211124   4.680   2.352  12.936  0.3214 -0.3059 -0.1727
  753TMC3    C311125   4.718   2.221  12.920 -0.1232 -0.5294  0.5562
  753TMC3    C411126   4.723   2.382  12.699 -0.2755 -0.0517 -0.4684
  753TMC3    C511127   0.045   2.254  12.693 -0.4094  0.6019 -0.4073
  753TMC3    C611128   0.034   2.168  12.797 -0.4398  0.5667 -0.3370
  753TMC3     C11129   4.621   2.559  12.819 -0.0920  0.6310  0.1524
  753TMC3     O11130   4.616   2.613  12.709 -0.2304 -0.6070 -0.1551
  753TMC3     H11131   4.635   2.388  13.028 -0.7597 -1.5695 -0.1992
  753TMC3    H111132   4.713   2.442  12.610  0.7541  0.5325 -0.1841
  753TMC3    H211133   0.060   2.063  12.792 -1.4465  0.2071  1.8974
  753TMC3    C711134   0.123   2.206  12.579 -0.5055 -0.0252 -0.7437
  753TMC3    C811135   0.052   2.152  13.038 -0.0220 -0.6622 -0.5414
  753TMC3    O111136   0.148   2.085  12.577  0.3260  0.7399 -0.3226
  753TMC3    O211137   0.080   2.033  13.020  0.3494 -0.6847 -0.2382
  754MPD2     C11138   2.551   1.135  13.050 -0.0460 -0.0141 -0.1890
  754MPD2    C111139   2.500   1.008  13.011 -0.0371  0.3953 -0.0990
  754MPD2    C211140   2.367   1.004  12.965  0.1951  0.0279 -0.1455
  754MPD2    C311141   2.292   1.121  12.958  0.0710 -0.1667  0.3210
  754MPD2    C411142   2.336   1.237  13.018  0.3909  0.4245 -0.7293
  754MPD2    C511143   2.467   1.248  13.060  0.0758  0.2199  0.1902
  754MPD2     H11144   2.324   0.917  12.916 -0.8244  0.4030  0.0963
  754MPD2    H111145   2.281   1.329  13.004  1.2021  0.4878 -3.4359
  754MPD2    H211146   2.655   1.135  13.081 -0.2965 -1.7229  0.6591
  754MPD2    H311147   2.505   1.345  13.089 -2.5267  1.3977 -0.3837
  754MPD2     N11148   2.157   1.123  12.894 -0.1055  0.4881 -0.2773
  754MPD2    H511149   2.097   1.202  12.916  0.6100  1.2483 -1.0556
  754MPD2    N111150   2.586   0.898  13.023  0.4202  1.0202 -0.3664
  754MPD2    H711151   2.675   0.911  13.070  0.6172 -0.9725 -0.1682
  755MPD2     C11152   2.181   0.932  13.486  0.8048  0.7924 -0.0364
  755MPD2    C111153   2.051   0.880  13.483  0.5285 -0.1048 -0.8607
  755MPD2    C211154   1.970   0.895  13.370 -0.0390  0.3419 -0.4526
  755MPD2    C311155   2.026   0.958  13.257 -0.4706 -0.0561  0.2334
  755MPD2    C411156   2.153   1.015  13.271  0.8263 -0.2369  0.7911
  755MPD2    C511157   2.227   1.010  13.387  0.0629 -0.1629  0.2378
  755MPD2     H11158   1.869   0.857  13.368 -0.6084  1.8849 -1.3090
  755MPD2    H111159   2.183   1.082  13.191 -1.5602  0.7200  0.6902
  755MPD2    H211160   2.237   0.940  13.578  0.8255  0.0552  0.0135
  755MPD2    H311161   2.320   1.064  13.401  0.8650 -1.1448 -1.2471
  755MPD2     N11162   1.973   0.957  13.130  0.0909  0.2348  0.3078
  755MPD2    H511163   2.039   0.993  13.062  0.6307  0.7682  1.1030
  755MPD2    N111164   1.988   0.823  13.596 -0.1024 -0.1422 -0.6343
  755MPD2    H711165   1.887   0.812  13.595 -0.2185  0.8344  0.4736
  756MPD2     C11166   3.906   1.860   9.076  0.1969 -0.4129  0.2751
  756MPD2    C111167   3.809   1.779   9.134 -0.5341  0.2857  0.0317
  756MPD2    C211168   3.724   1.707   9.050 -0.4564  0.2949 -0.1219
  756MPD2    C311169   3.735   1.721   8.910 -0.3630 -0.3734  0.4240
  756MPD2    C411170   3.828   1.807   8.855  0.3488  0.1245  0.3410
  756MPD2    C511171   3.917   1.872   8.940  0.5057  0.5455  0.7765
  756MPD2     H11172   3.652   1.637   9.090  0.0843  0.9465  1.9894
  756MPD2    H111173   3.853   1.815   8.750  1.2281 -0.1618  0.5254
  756MPD2    H211174   3.977   1.923   9.129 -0.2285 -0.6512  1.1225
  756MPD2    H311175   3.987   1.943   8.896  0.1068  0.6097  0.2478
  756MPD2     N11176   3.638   1.660   8.834 -0.3966 -0.6798 -0.1086
  756MPD2    H511177   3.574   1.595   8.878 -0.3501 -1.6787 -1.5038
  756MPD2    N111178   3.789   1.762   9.273 -0.3983 -0.1997  0.2532
  756MPD2    H711179   3.721   1.689   9.294  0.7127 -1.0299  0.9149
  757MPD2     C11180   3.314   1.050   9.285 -0.0389 -0.1653  0.3326
  757MPD2    C111181   3.214   1.019   9.196 -0.2058 -0.1271 -0.6070
  757MPD2    C211182   3.205   1.096   9.078  0.9233  0.2049  0.0422
  757MPD2    C311183   3.295   1.200   9.047  0.4880 -0.2993 -0.2790
  757MPD2    C411184   3.400   1.218   9.137 -0.4106 -0.5977 -0.2435
  757MPD2    C511185   3.403   1.149   9.253  0.3973 -0.3113  0.6374
  757MPD2     H11186   3.130   1.081   9.001 -0.5748 -2.2813  1.9898
  757MPD2    H111187   3.478   1.292   9.121  1.6978 -3.0746 -1.4685
  757MPD2    H211188   3.338   1.003   9.379  0.1032 -1.0478 -0.1432
  757MPD2    H311189   3.495   1.154   9.310  0.3754  0.3988  0.6083
  757MPD2     N11190   3.300   1.275   8.928 -0.4720  0.1253  0.0811
  757MPD2    H511191   3.229   1.251   8.860 -0.5416  0.1177  0.1560
  757MPD2    N111192   3.128   0.907   9.237  0.3702 -0.3158 -0.3806
  757MPD2    H711193   3.147   0.864   9.327 -0.5107 -1.2890 -0.6470
  758MPD2     C11194   2.794   0.202  15.634 -0.0926  0.5400 -0.1887
  758MPD2    C111195   2.838   0.154  15.758  0.2949 -0.2521 -0.0757
  758MPD2    C211196   2.777   0.195  15.869  0.4230 -0.0360 -0.0102
  758MPD2    C311197   2.668   0.282  15.864 -0.1451 -0.0186 -0.0436
  758MPD2    C411198   2.626   0.332  15.742  0.3151  0.4539 -0.5801
  758MPD2    C511199   2.687   0.288  15.625  0.3639 -0.7469 -0.2085
  758MPD2     H11200   2.798   0.144  15.963  0.6904  2.7470  1.4190
  758MPD2    H111201   2.545   0.404  15.731 -0.8964 -0.8774 -0.4899
  758MPD2    H211202   2.836   0.159  15.544  3.1540  1.3109  0.9810
  758MPD2    H311203   2.656   0.318  15.526 -3.3409 -1.5967  0.7122
  758MPD2     N11204   2.587   0.310  15.974  0.0106  0.4052 -0.4172
  758MPD2    H511205   2.499   0.357  15.960  0.8471  2.0394 -0.2181
  758MPD2    N111206   2.942   0.054  15.761 -0.0948 -0.4327 -0.0294
  758MPD2    H711207   3.004   0.051  15.681 -1.9274 -1.9654 -1.3889
  759MPD2     C11208   3.109   3.070  10.361  0.2568  0.1761  0.4801
  759MPD2    C111209   3.003   3.038  10.266  0.3252  1.0016  0.0102
  759MPD2    C211210   2.966   3.127  10.167  0.3779  0.1410  0.0943
  759MPD2    C311211   3.032   3.250  10.154 -0.1295 -0.8491  0.1724
  759MPD2    C411212   3.131   3.286  10.249  0.5191  0.0780  0.3123
  759MPD2    C511213   3.169   3.200  10.343  0.1663  0.4179 -0.6844
  759MPD2     H11214   2.889   3.102  10.095  2.6134 -0.7957 -1.9601
  759MPD2    H111215   3.189   3.377  10.242  1.3890 -0.5000 -0.0519
  759MPD2    H211216   3.140   3.009  10.445  1.4358 -0.8985 -0.7379
  759MPD2    H311217   3.240   3.234  10.417 -0.1120 -0.3477 -0.0654
  759MPD2     N11218   3.002   3.325  10.038 -0.4145  0.1227 -0.1679
  759MPD2    H511219   2.923   3.297   9.981  0.7343 -1.2315 -1.0784
  759MPD2    N111220   2.932   2.915  10.263 -0.4675  0.2260 -0.2887
  759MPD2    H711221   2.864   2.910  10.187  1.6591  1.5031 -2.2752
  760MPD2     C11222   1.579   1.459  11.638  0.2043  1.3108  0.0358
  760MPD2    C111223   1.680   1.422  11.552  0.3110 -0.1439 -0.1943
  760MPD2    C211224   1.729   1.293  11.563 -0.1127 -0.4377  0.6600
  760MPD2    C311225   1.678   1.200  11.654 -0.0333 -0.0458 -0.1229
  760MPD2    C411226   1.569   1.237  11.733  0.3799 -0.0962 -0.7319
  760MPD2    C511227   1.521   1.364  11.716  0.2917  0.2374 -0.5150
  760MPD2     H11228   1.820   1.272  11.508 -0.6385 -0.2378 -0.2845
  760MPD2    H111229   1.526   1.179  11.813 -0.5311  2.4128  0.6161
  760MPD2    H211230   1.536   1.559  11.640 -1.5893  0.5798 -1.8803
  760MPD2    H311231   1.437   1.402  11.774 -0.6745 -3.6042  0.5884
  760MPD2     N11232   1.735   1.073  11.674  0.0744 -0.6321  0.1298
  760MPD2    H511233   1.693   1.014  11.744  0.6758 -2.3664 -0.9732
  760MPD2    N111234   1.749   1.518  11.483  0.1025 -0.9255  0.2692
  760MPD2    H711235   1.834   1.489  11.436  0.4285  0.3799  0.0685
  761MPD2     C11236   2.890   0.572  10.825  0.4049 -0.3336 -0.1660
  761MPD2    C111237   2.988   0.497  10.763  0.2826  0.6545 -0.1887
  761MPD2    C211238   3.106   0.556  10.735 -0.0946  0.4236 -0.8667
  761MPD2    C311239   3.139   0.690  10.755  0.3027 -0.6493 -0.1471
  761MPD2    C411240   3.039   0.769  10.806 -0.0588  0.7572 -0.5641
  761MPD2    C511241   2.925   0.707  10.846  0.4621 -0.3395  0.3422
  761MPD2     H11242   3.183   0.492  10.694 -0.0442  0.0577 -0.2089
  761MPD2    H111243   3.050   0.873  10.835  0.0802 -0.2575  3.0508
  761MPD2    H211244   2.799   0.524  10.857  1.4639 -2.3077 -0.1268
  761MPD2    H311245   2.851   0.762  10.902  2.2296 -0.8141  3.1509
  761MPD2     N11246   3.274   0.737  10.728  0.2197  0.1708 -0.1878
  761MPD2    H511247   3.314   0.824  10.763  2.7942  0.6530 -4.3560
  761MPD2    N111248   2.963   0.360  10.744  0.0793  0.2125  0.5564
  761MPD2    H711249   2.887   0.326  10.802  2.3471  0.0905  3.4576
  762MPD2     C11250   3.438   0.249  10.429  0.0275  0.9736  0.5092
  762MPD2    C111251   3.411   0.116  10.434  0.7117  0.2999  0.1460
  762MPD2    C211252   3.496   0.021  10.368 -0.5683  0.8515  0.4350
  762MPD2    C311253   3.614   0.062  10.309  0.1168  0.3974 -0.8569
  762MPD2    C411254   3.635   0.205  10.300  1.2821 -0.5086 -0.5410
  762MPD2    C511255   3.550   0.296  10.368  0.1332 -0.1991 -0.3756
  762MPD2     H11256   3.481   4.638  10.365 -0.4873  0.8509  0.0903
  762MPD2    H111257   3.719   0.246  10.246  1.3484  1.7419  1.2178
  762MPD2    H211258   3.365   0.319  10.469 -0.9620  0.1329  0.1837
  762MPD2    H311259   3.578   0.400  10.360 -1.5400  0.3652  1.1554
  762MPD2     N11260   3.703   4.692  10.247  1.0541  0.0850 -0.3438
  762MPD2    H511261   3.693   4.591  10.258 -0.0713  0.2935  0.5706
  762MPD2    N111262   3.296   0.077  10.509  0.4929  0.6568  0.3302
  762MPD2    H711263   3.248   0.151  10.559  2.3991  1.7346  0.5550
  763MPD2     C11264   0.029   0.393  15.933  0.1581  0.0301 -0.4803
  763MPD2    C111265   4.699   0.484  15.844  0.2945 -0.4872 -0.6053
  763MPD2    C211266   4.672   0.612  15.890  0.0870  0.1016  0.4895
  763MPD2    C311267   4.700   0.649  16.021 -0.1619  0.6615 -0.7403
  763MPD2    C411268   0.027   0.555  16.114  0.2966 -0.7265  0.2181
  763MPD2    C511269   0.060   0.423  16.067  0.6509 -0.3433 -0.3867
  763MPD2     H11270   4.636   0.691  15.825  0.5524  2.4052  3.0464
  763MPD2    H111271   0.047   0.577  16.218 -0.2971 -1.4098  0.4795
  763MPD2    H211272   0.060   0.295  15.898  1.5235  0.5618 -0.7646
  763MPD2    H311273   0.131   0.357  16.115  1.7673  0.1267 -1.3937
  763MPD2     N11274   4.658   0.775  16.064  0.8379 -0.0925 -0.1975
  763MPD2    H511275   4.635   0.837  15.986  0.4707  0.3883  0.2937
  763MPD2    N111276   4.650   0.441  15.719 -0.5082 -0.0633  0.2980
  763MPD2    H711277   4.608   0.510  15.657  0.8853 -0.7340 -1.4013
  764MPD2     C11278   3.109   2.227  16.994  0.1195 -0.1060 -0.4987
  764MPD2    C111279   2.983   2.177  16.968 -0.2101  0.6904  0.4392
  764MPD2    C211280   2.919   2.097  17.065  0.8071 -0.2162  0.4521
  764MPD2    C311281   2.986   2.073  17.185  0.4219  0.2288  0.1640
  764MPD2    C411282   3.112   2.133  17.207 -0.4706 -0.6097  0.6467
  764MPD2    C511283   3.176   2.206  17.111  0.3532  0.3623 -0.9198
  764MPD2     H11284   2.821   2.053  17.055  1.4440 -1.3037 -0.9872
  764MPD2    H111285   3.163   2.120  17.301  3.0071  1.1591 -1.0038
  764MPD2    H211286   3.154   2.281  16.912  0.5440 -1.8546 -1.4182
  764MPD2    H311287   3.278   2.241  17.116  0.5865 -0.1746 -2.1308
  764MPD2     N11288   2.910   2.006  17.285  0.3756 -0.1373 -0.4163
  764MPD2    H511289   2.826   1.955  17.261 -0.2584  1.7485 -2.1415
  764MPD2    N111290   2.920   2.192  16.843  0.6297 -0.5837 -0.3961
  764MPD2    H711291   2.832   2.140  16.837 -1.5724  3.4239 -2.3267
  765MPD2     C11292   2.197   4.572  15.630  0.2360  0.0896  0.7949
  765MPD2    C111293   2.298   4.625  15.553 -0.7206  1.0282  0.0755
  765MPD2    C211294   2.421   4.560  15.549 -0.3785 -0.2772 -1.0217
  765MPD2    C311295   2.440   4.442  15.611 -0.1219 -0.0296 -0.5954
  765MPD2    C411296   2.331   4.381  15.672 -0.1120 -0.7426 -0.2131
  765MPD2    C511297   2.214   4.449  15.684 -0.1650 -0.5820 -0.0943
  765MPD2     H11298   2.500   4.610  15.494 -1.3986  1.8803 -0.5367
  765MPD2    H111299   2.342   4.288  15.728 -0.7369 -0.0626  1.0450
  765MPD2    H211300   2.104   4.625  15.639 -0.9575 -1.0503 -4.3934
  765MPD2    H311301   2.135   4.403  15.743 -1.1631 -0.2493 -1.1720
  765MPD2     N11302   2.559   4.372  15.614 -0.1320 -0.0975 -0.0719
  765MPD2    H511303   2.640   4.420  15.577 -0.0687 -1.2743 -1.4266
  765MPD2    N111304   2.270   0.024  15.490  0.0435  0.1259  0.2207
  765MPD2    H711305   2.178   0.033  15.448 -0.3470  1.7204  1.4272
  766MPD2     C11306   2.179   4.582  14.947  1.0693 -0.3514 -0.1992
  766MPD2    C111307   2.245   4.698  14.904  0.4781  0.5209  0.2890
  766MPD2    C211308   2.321   4.690  14.792 -0.5497 -0.6596  0.5685
  766MPD2    C311309   2.330   4.568  14.719 -0.1144 -0.3070  0.5410
  766MPD2    C411310   2.272   4.454  14.769 -0.4916  0.1624  0.1423
  766MPD2    C511311   2.197   4.459  14.890 -0.4054  0.1327  0.8672
  766MPD2     H11312   2.374   0.053  14.756  0.0218 -1.7987 -1.3934
  766MPD2    H111313   2.279   4.354  14.727  3.2564  0.7245 -0.5694
  766MPD2    H211314   2.114   4.583  15.034  2.3187 -0.0421  0.7299
  766MPD2    H311315   2.138   4.373  14.920 -1.3816  0.9765  1.3328
  766MPD2     N11316   2.407   4.547  14.606 -0.1514  0.7917  0.0440
  766MPD2    H511317   2.414   4.454  14.567  0.6990  1.1931 -0.7503
  766MPD2    N111318   2.248   0.080  14.992  0.0409  0.2316  0.0777
  766MPD2    H711319   2.190   0.067  15.075  1.2418 -0.4009  0.8187
  767MPD2     C11320   2.093   0.349  14.766  0.5573 -0.1418  0.0590
  767MPD2    C111321   2.188   0.350  14.668  0.4859 -0.0621  0.6151
  767MPD2    C211322   2.167   0.275  14.557 -0.2554  0.4328 -0.3344
  767MPD2    C311323   2.049   0.208  14.533 -0.4480  0.1210  0.3773
  767MPD2    C411324   1.963   0.197  14.643 -0.2267 -0.5629  0.7051
  767MPD2    C511325   1.982   0.265  14.759  0.5413 -0.3229  0.0247
  767MPD2     H11326   2.242   0.274  14.479  0.6367  0.6044  0.5178
  767MPD2    H111327   1.868   0.145  14.635 -0.1585 -0.5587 -0.1205
  767MPD2    H211328   2.101   0.408  14.856  0.5306 -0.8136  0.5000
  767MPD2    H311329   1.912   0.262  14.842 -0.3400  1.7545 -0.6424
  767MPD2     N11330   2.030   0.138  14.417  0.5440 -0.2856 -0.0418
  767MPD2    H511331   1.952   0.073  14.407  0.2085 -0.0899  1.2454
  767MPD2    N111332   2.294   0.445  14.680  0.8122  0.1507  0.0024
  767MPD2    H711333   2.372   0.430  14.617  0.6281  1.5953 -0.5537
  768MPD2     C11334   3.472   3.375  10.701 -0.7333 -0.0975  0.5705
  768MPD2    C111335   3.337   3.363  10.722 -0.0693 -0.6106 -0.2480
  768MPD2    C211336   3.293   3.298  10.836 -0.3884 -0.0183  0.0238
  768MPD2    C311337   3.378   3.246  10.930  0.1034  0.7989 -0.2714
  768MPD2    C411338   3.516   3.268  10.917 -0.5041  0.3435  0.7366
  768MPD2    C511339   3.555   3.339  10.807  0.5178 -1.0146  0.5414
  768MPD2     H11340   3.187   3.276  10.842 -0.4387  0.2540  0.1384
  768MPD2    H111341   3.587   3.224  10.985 -0.0778  1.3045  0.9097
  768MPD2    H211342   3.523   3.439  10.630 -3.1293 -0.8263 -1.8286
  768MPD2    H311343   3.661   3.342  10.787  0.4563  0.7577  0.5205
  768MPD2     N11344   3.312   3.182  11.035 -0.2109 -0.5903  0.0031
  768MPD2    H511345   3.212   3.200  11.047 -0.1294 -0.5526  0.6130
  768MPD2    N111346   3.248   3.430  10.635  0.3423 -0.0085 -0.2702
  768MPD2    H711347   3.147   3.431  10.648  0.2688  2.3978 -1.0074
  769MPD2     C11348   4.240   1.664  14.101 -0.0409  0.1387 -0.2027
  769MPD2    C111349   4.212   1.614  14.221  0.2450  0.1342  0.2400
  769MPD2    C211350   4.223   1.690  14.335  0.5223  0.5875 -0.1830
  769MPD2    C311351   4.261   1.825  14.326 -0.1694  0.6267  0.0698
  769MPD2    C411352   4.304   1.872  14.205  0.5807  0.2091 -0.3677
  769MPD2    C511353   4.295   1.790  14.094 -0.0479  0.0442 -0.3370
  769MPD2     H11354   4.196   1.656  14.434  1.8293  0.1437  0.0295
  769MPD2    H111355   4.344   1.972  14.197 -2.6751  1.6233  0.9091
  769MPD2    H211356   4.236   1.605  14.010 -0.7979  1.1190 -0.8132
  769MPD2    H311357   4.327   1.834  14.001  1.6230 -0.7779 -0.1502
  769MPD2     N11358   4.250   1.899  14.451 -0.0989 -0.3795  0.6227
  769MPD2    H511359   4.195   1.861  14.527  0.0398 -0.6454  0.5890
  769MPD2    N111360   4.173   1.480  14.230 -0.2938  0.2818  0.1717
  769MPD2    H711361   4.196   1.425  14.148 -0.6067 -0.8124  0.8071
  770MPD2     C11362   3.643   0.851  14.908  0.9131 -0.0473 -0.3652
  770MPD2    C111363   3.661   0.771  14.795 -0.3754 -0.7417  0.2927
  770MPD2    C211364   3.694   0.828  14.680  0.5627  0.6737 -0.1793
  770MPD2    C311365   3.717   0.961  14.677  0.0772 -0.0300  0.4230
  770MPD2    C411366   3.701   1.042  14.791  0.0802  0.2676  0.0694
  770MPD2    C511367   3.648   0.982  14.899  0.0067 -0.2735  0.4039
  770MPD2     H11368   3.700   0.767  14.591  2.1968  1.0249 -0.3132
  770MPD2    H111369   3.749   1.139  14.794 -0.2778  0.4059  1.0571
  770MPD2    H211370   3.616   0.813  15.006 -0.9307  0.2924 -0.7438
  770MPD2    H311371   3.629   1.046  14.985  0.3100  0.3251  0.0311
  770MPD2     N11372   3.775   1.017  14.559 -0.1779  0.4633 -0.1082
  770MPD2    H511373   3.764   0.950  14.484 -2.6133  1.9578 -1.1057
  770MPD2    N111374   3.651   0.627  14.826 -0.3282 -0.2033  0.6485
  770MPD2    H711375   3.648   0.611  14.926 -2.8287  1.0816  0.7954
  771MPD2     C11376   0.523   4.130  13.690  0.6457  0.5119  0.2734
  771MPD2    C111377   0.438   4.224  13.623 -0.6176 -0.6688 -0.8140
  771MPD2    C211378   0.317   4.180  13.573 -0.1326  0.6205  0.6791
  771MPD2    C311379   0.276   4.048  13.598  0.5215  0.1263 -0.0641
  771MPD2    C411380   0.353   3.952  13.661  0.0285 -0.1164  0.4997
  771MPD2    C511381   0.476   4.001  13.710  0.7256  0.2782 -0.9689
  771MPD2     H11382   0.251   4.253  13.525  1.3278  0.2460 -1.9164
  771MPD2    H111383   0.315   3.851  13.672  1.1519 -0.7122 -1.1217
  771MPD2    H211384   0.615   4.156  13.741  1.8638 -2.0804 -0.6034
  771MPD2    H311385   0.538   3.928  13.759 -1.7153 -0.8984  0.3121
  771MPD2     N11386   0.155   4.018  13.540 -0.1868  0.3969  0.6372
  771MPD2    H511387   0.108   4.097  13.497 -1.1984  0.0510  1.1272
  771MPD2    N111388   0.464   4.360  13.600  0.0344  0.3417  0.2917
  771MPD2    H711389   0.394   4.418  13.556  1.0777  1.3037 -0.1019
  772MPD2     C11390   0.064   0.063  13.307 -0.0532 -0.2427  0.1505
  772MPD2    C111391   0.087   0.005  13.429 -0.6493 -0.0369 -0.7518
  772MPD2    C211392   4.709   4.664  13.495 -0.2596 -0.0658 -0.3140
  772MPD2    C311393   4.593   4.636  13.430 -0.4001 -0.0132  0.0336
  772MPD2    C411394   4.563   4.690  13.309  0.5444 -0.1564 -0.6412
  772MPD2    C511395   4.662   0.046  13.249 -0.2559  0.0859  0.7949
  772MPD2     H11396   4.713   4.634  13.599 -0.8340  4.1428  0.9243
  772MPD2    H111397   4.467   4.686  13.259  0.7089  2.9451 -1.2169
  772MPD2    H211398   0.145   0.103  13.248 -0.3008  1.4148  0.9357
  772MPD2    H311399   4.645   0.103  13.159 -1.3162 -1.8980 -0.2655
  772MPD2     N11400   4.478   4.583  13.497 -0.1316 -0.2169 -0.1172
  772MPD2    H511401   4.401   4.561  13.435 -0.3278  1.3034 -0.3963
  772MPD2    N111402   0.218   0.015  13.487  0.0434  0.0759 -0.0032
  772MPD2    H711403   0.229   4.684  13.571  0.3236 -1.4917 -1.0813
  773MPD2     C11404   3.382   0.921   0.387 -0.0990 -0.3307 -0.4307
  773MPD2    C111405   3.320   0.837   0.292 -0.0906  0.4611  0.1480
  773MPD2    C211406   3.379   0.711   0.273 -0.2377 -0.5603  0.4552
  773MPD2    C311407   3.502   0.679   0.330  0.2149 -0.1663 -0.4995
  773MPD2    C411408   3.560   0.768   0.420 -0.2316 -1.0213 -0.9144
  773MPD2    C511409   3.494   0.875   0.460  0.6286  0.2074  0.3008
  773MPD2     H11410   3.327   0.636   0.215 -2.3466  1.3608 -0.1260
  773MPD2    H111411   3.657   0.749   0.465 -0.1247  0.3830 -0.5556
  773MPD2    H211412   3.354   1.022   0.414  0.0030  0.1035 -1.9578
  773MPD2    H311413   3.541   0.940   0.534  1.8870 -1.5557  1.0586
  773MPD2     N11414   3.565   0.554   0.298  0.1341  0.1735 -0.1467
  773MPD2    H511415   3.531   0.504   0.217 -1.4206 -0.5154  0.9248
  773MPD2    N111416   3.213   0.885   0.219 -0.3585  0.0496  0.2448
  773MPD2    H711417   3.165   0.817   0.161 -1.5927  2.6160 -1.7378
  774MPD2     C11418   2.660   4.516  13.132  0.4152  0.4576  1.0432
  774MPD2    C111419   2.775   4.576  13.172 -0.0764  1.1567  0.1343
  774MPD2    C211420   2.794   4.714  13.163 -0.4922 -0.5340 -0.5315
  774MPD2    C311421   2.700   0.072  13.107 -0.4516  0.2092 -0.4918
  774MPD2    C411422   2.570   0.014  13.081 -0.0488 -0.1819  0.6414
  774MPD2    C511423   2.563   4.604  13.099  0.2163  0.6223 -0.4789
  774MPD2     H11424   2.887   0.041  13.184 -0.8641 -0.0593 -0.0548
  774MPD2    H111425   2.482   0.067  13.046  1.5998  0.9607 -1.6742
  774MPD2    H211426   2.620   4.417  13.145  0.0458  0.6928  1.7172
  774MPD2    H311427   2.470   4.551  13.083  0.3849 -0.0027  0.6361
  774MPD2     N11428   2.733   0.209  13.086  0.6679 -0.8005 -0.0305
  774MPD2    H511429   2.832   0.229  13.094  0.6232 -0.1412 -1.2092
  774MPD2    N111430   2.870   4.500  13.252 -0.6373 -0.1285  0.4153
  774MPD2    H711431   2.849   4.401  13.260  0.4162 -0.4102 -0.3331
  775MPD2     C11432   4.156   1.114  15.719 -0.6625  0.0916 -0.3411
  775MPD2    C111433   4.114   1.236  15.754 -0.2929 -0.6255 -0.7970
  775MPD2    C211434   4.159   1.353  15.678 -0.8416 -0.0186  0.2395
  775MPD2    C311435   4.250   1.337  15.576 -0.0486  1.2106  0.1300
  775MPD2    C411436   4.298   1.213  15.546  0.3986  1.3896  0.3657
  775MPD2    C511437   4.249   1.109  15.617 -0.1111 -0.1463 -0.1699
  775MPD2     H11438   4.129   1.452  15.709 -1.4585 -0.2893  0.5255
  775MPD2    H111439   4.368   1.191  15.467  2.5618  3.0319  1.8400
  775MPD2    H211440   4.123   1.026  15.774 -1.9579  0.3583 -0.6917
  775MPD2    H311441   4.281   1.007  15.598 -2.2977 -0.1276 -3.9389
  775MPD2     N11442   4.295   1.451  15.499  0.0035 -0.4590  0.2297
  775MPD2    H511443   4.354   1.427  15.420  1.4021 -0.0683  1.1445
  775MPD2    N111444   4.016   1.240  15.860 -0.1758 -0.4455  0.2877
  775MPD2    H711445   3.975   1.150  15.884 -1.3850 -0.0342 -0.2282
  776MPD2     C11446   3.625   2.087  10.885  0.1986  0.0856 -0.1550
  776MPD2    C111447   3.689   2.069  11.001 -0.4076  0.7856 -0.4847
  776MPD2    C211448   3.761   2.173  11.064  0.1855  0.0380 -0.5637
  776MPD2    C311449   3.779   2.293  10.998 -0.4057 -0.1256  0.3686
  776MPD2    C411450   3.698   2.311  10.884 -0.2408  0.5605  0.2403
  776MPD2    C511451   3.618   2.215  10.830  0.5323 -0.0434 -0.3227
  776MPD2     H11452   3.812   2.161  11.159 -0.6427  1.6163  0.0769
  776MPD2    H111453   3.693   2.408  10.836 -0.4399  1.4593  2.0887
  776MPD2    H211454   3.571   2.007  10.836  1.8316  0.2694 -2.2802
  776MPD2    H311455   3.557   2.222  10.741 -0.6772  1.7894  0.6643
  776MPD2     N11456   3.839   2.406  11.049  0.7557  0.1515 -0.1343
  776MPD2    H511457   3.860   2.478  10.980 -1.5809  1.3662  0.4278
  776MPD2    N111458   3.684   1.937  11.055 -0.1871  0.2792 -0.5772
  776MPD2    H711459   3.618   1.875  11.010 -2.0351  0.8171  1.4206
  777MPD2     C11460   3.666   3.972   0.366 -0.7044  0.5606 -0.3547
  777MPD2    C111461   3.555   4.000   0.439 -0.2675  0.4752 -0.3476
  777MPD2    C211462   3.430   3.981   0.381  0.7801 -0.0592 -0.6941
  777MPD2    C311463   3.422   3.931   0.251 -0.7284 -0.3772 -0.8653
  777MPD2    C411464   3.538   3.910   0.173  0.3859 -0.1198 -0.5215
  777MPD2    C511465   3.656   3.929   0.237 -0.2135 -1.3451  0.2532
  777MPD2     H11466   3.338   4.013   0.427  1.3714  2.2056 -1.0863
  777MPD2    H111467   3.539   3.903   0.065 -0.8292  0.3884 -0.5565
  777MPD2    H211468   3.763   3.987   0.412 -0.5053  0.5276 -0.7601
  777MPD2    H311469   3.746   3.912   0.178 -0.8508  0.4652 -1.2169
  777MPD2     N11470   3.295   3.893   0.208 -0.4670 -0.6124 -0.2137
  777MPD2    H511471   3.212   3.906   0.266 -0.6406  3.0275 -1.3227
  777MPD2    N111472   3.581   4.035   0.573 -0.2157 -0.0438  0.6832
  777MPD2    H711473   3.677   4.038   0.604 -0.3254  0.6174  0.9653
  778MPD2     C11474   0.159   4.376  14.589 -0.1356  0.1235 -0.0529
  778MPD2    C111475   0.227   4.278  14.515 -0.2784  0.3274  0.3844
  778MPD2    C211476   0.326   4.312  14.425  0.5283  0.3108  0.6794
  778MPD2    C311477   0.359   4.445  14.405  0.1721  0.6459  0.1133
  778MPD2    C411478   0.291   4.546  14.469 -0.0734  0.2521 -0.8621
  778MPD2    C511479   0.191   4.507  14.563 -0.1011  0.1146 -0.5129
  778MPD2     H11480   0.382   4.234  14.375 -0.2687  0.6307 -0.7349
  778MPD2    H111481   0.303   4.650  14.442 -0.6306  0.3131 -0.8777
  778MPD2    H211482   0.077   4.361  14.658  0.8778 -2.7826  0.5134
  778MPD2    H311483   0.137   4.587  14.612  0.2572  0.2536 -0.3424
  778MPD2     N11484   0.466   4.483  14.319  0.0705  1.2080  0.3769
  778MPD2    H511485   0.526   4.409  14.284  0.7650  2.2902 -0.6972
  778MPD2    N111486   0.199   4.138  14.538 -0.3331  0.4704 -0.0483
  778MPD2    H711487   0.232   4.079  14.462  0.6076 -0.5622  1.1853
  779MPD2     C11488   4.454   3.020  13.882 -0.1335 -0.2384  0.1253
  779MPD2    C111489   4.583   3.004  13.912 -0.4501 -0.4929 -0.6774
  779MPD2    C211490   4.667   3.114  13.918  0.6642 -0.4660 -0.5174
  779MPD2    C311491   4.617   3.238  13.891  0.3523  0.8651  0.1728
  779MPD2    C411492   4.485   3.252  13.863 -0.3406 -0.2601 -0.4941
  779MPD2    C511493   4.402   3.145  13.865 -0.8867 -0.0774  0.9568
  779MPD2     H11494   0.050   3.100  13.927  0.6870  0.6051  0.9109
  779MPD2    H111495   4.444   3.343  13.821 -0.4399 -1.1181 -2.2519
  779MPD2    H211496   4.387   2.939  13.853 -0.0299 -0.6848  1.1168
  779MPD2    H311497   4.299   3.148  13.831 -0.4914  1.1505 -0.1161
  779MPD2     N11498   4.708   3.348  13.897 -0.1321 -0.3126  0.7108
  779MPD2    H511499   0.083   3.329  13.902 -0.3812 -1.7139  0.3150
  779MPD2    N111500   4.644   2.877  13.932  0.1955 -0.0473 -0.2169
  779MPD2    H711501   0.019   2.880  13.954  0.4227  0.2580 -1.2890
  780MPD2     C11502   4.235   2.905   0.883  0.1654  0.4494 -1.2715
  780MPD2    C111503   4.116   2.883   0.811  0.3458 -0.0437  0.0637
  780MPD2    C211504   4.104   2.927   0.682  0.4860  0.2146 -0.4940
  780MPD2    C311505   4.208   3.001   0.623  0.2169 -0.2722 -0.0833
  780MPD2    C411506   4.330   3.008   0.685 -0.2791 -0.5061  0.4109
  780MPD2    C511507   4.337   2.960   0.816  0.4836  0.2212 -0.2399
  780MPD2     H11508   4.017   2.893   0.627  0.8594  0.2302 -1.0911
  780MPD2    H111509   4.418   3.055   0.644 -1.2820 -0.4047 -1.6218
  780MPD2    H211510   4.231   2.889   0.990  1.8966 -1.8981 -1.5566
  780MPD2    H311511   4.427   2.985   0.870  1.5621  0.6976 -2.2365
  780MPD2     N11512   4.194   3.051   0.492  0.2587 -0.2317  0.3426
  780MPD2    H511513   4.105   3.037   0.444  1.0602  0.5296 -1.3790
  780MPD2    N111514   4.013   2.824   0.876 -0.2193 -0.5715  0.0547
  780MPD2    H711515   4.024   2.800   0.974  0.2813 -0.2443  0.0774
  781MPD2     C11516   1.329   4.513  11.743 -0.5401 -0.9981  0.1583
  781MPD2    C111517   1.420   4.506  11.853  0.5844  0.3377  0.3929
  781MPD2    C211518   1.555   4.491  11.819  0.3590 -0.8033 -0.1016
  781MPD2    C311519   1.598   4.483  11.688  0.4790 -0.5012 -0.6805
  781MPD2    C411520   1.504   4.476  11.587  0.7073  0.2998 -0.2700
  781MPD2    C511521   1.373   4.492  11.617 -0.1022  0.2626  0.5477
  781MPD2     H11522   1.629   4.500  11.897  1.7752 -1.2377 -1.3915
  781MPD2    H111523   1.520   4.456  11.481 -2.3404 -1.7774 -0.3417
  781MPD2    H211524   1.225   4.538  11.761 -0.6577 -0.7146 -0.9160
  781MPD2    H311525   1.307   4.477  11.532 -0.2895  2.0993  0.3735
  781MPD2     N11526   1.733   4.464  11.651 -0.3296 -0.2725  0.1190
  781MPD2    H511527   1.761   4.429  11.559 -0.9648  0.7299 -0.4520
  781MPD2    N111528   1.381   4.525  11.984  0.1348 -0.4630  0.4361
  781MPD2    H711529   1.452   4.533  12.056 -2.2471 -0.7581  2.8107
  782MPD2     C11530   4.179   0.804   9.675 -0.1529 -0.4124  0.2571
  782MPD2    C111531   4.231   0.824   9.799 -0.4283 -0.3467 -0.3410
  782MPD2    C211532   4.218   0.951   9.846 -0.5581 -0.4011  0.4861
  782MPD2    C311533   4.183   1.056   9.765  0.2204  0.6766  0.1633
  782MPD2    C411534   4.152   1.038   9.632  0.7833 -0.4048 -0.3195
  782MPD2    C511535   4.146   0.911   9.593 -0.2433  0.2011  0.4157
  782MPD2     H11536   4.241   0.974   9.950 -0.4992  0.2921  0.3141
  782MPD2    H111537   4.117   1.124   9.576 -1.5964 -1.2329 -0.1145
  782MPD2    H211538   4.186   0.700   9.648 -0.7706 -0.1099 -1.0216
  782MPD2    H311539   4.112   0.886   9.494  1.0522 -1.2482  0.3384
  782MPD2     N11540   4.167   1.181   9.830 -0.2557 -0.4065  0.3229
  782MPD2    H511541   4.195   1.190   9.928 -1.6720 -1.1992  0.7932
  782MPD2    N111542   4.260   0.712   9.882  0.3568 -0.3144 -0.2598
  782MPD2    H711543   4.239   0.619   9.847  1.7063 -0.3542 -0.9738
  783MPD2     C11544   3.865   0.254  10.493  0.6608  0.0745 -0.5589
  783MPD2    C111545   3.885   0.387  10.467  0.4392  0.1879  0.5093
  783MPD2    C211546   3.986   0.428  10.377 -0.2283 -0.6322 -0.2824
  783MPD2    C311547   4.056   0.331  10.307 -0.8415 -0.0750  0.9450
  783MPD2    C411548   4.036   0.198  10.329  0.4233 -0.2842 -0.4290
  783MPD2    C511549   3.945   0.161  10.421 -0.0884  0.4128  0.0963
  783MPD2     H11550   3.991   0.530  10.341 -0.5809 -0.7995 -0.7945
  783MPD2    H111551   4.081   0.119  10.271 -3.6495 -1.8561 -1.4609
  783MPD2    H211552   3.796   0.221  10.570 -0.2408 -0.2764 -1.5111
  783MPD2    H311553   3.935   0.055  10.441  3.0839 -0.2070 -1.6521
  783MPD2     N11554   4.153   0.373  10.212  0.0923  0.7790  0.0511
  783MPD2    H511555   4.160   0.473  10.194  1.0687  0.8192  0.7025
  783MPD2    N111556   3.807   0.486  10.530  0.2936  0.0971 -0.0264
  783MPD2    H711557   3.742   0.451  10.600 -0.6327  0.8248 -0.5325
  784MPD2     C11558   1.695   0.701   0.619  0.5034 -0.6584 -0.7999
  784MPD2    C111559   1.628   0.773   0.718  0.8812  0.0813 -0.0414
  784MPD2    C211560   1.499   0.824   0.683  0.3939 -0.1267  0.3058
  784MPD2    C311561   1.440   0.804   0.556 -0.7498 -0.1745  0.3473
  784MPD2    C411562   1.507   0.725   0.465  0.4105 -0.2199 -0.6940
  784MPD2    C511563   1.633   0.674   0.498  0.1331 -0.2233 -0.0493
  784MPD2     H11564   1.441   0.884   0.753 -2.3464 -0.3679 -1.7783
  784MPD2    H111565   1.483   0.705   0.361  0.6326 -0.8290 -0.6287
  784MPD2    H211566   1.790   0.653   0.641  2.2637  3.0190 -0.3988
  784MPD2    H311567   1.689   0.618   0.423 -0.8739 -3.2835  1.4705
  784MPD2     N11568   1.318   0.866   0.527 -0.1375 -0.7387  0.3334
  784MPD2    H511569   1.274   0.923   0.598  0.2188 -1.5271  1.1752
  784MPD2    N111570   1.679   0.802   0.846 -0.0982  0.3543 -0.0638
  784MPD2    H711571   1.612   0.846   0.908  0.2141  1.3204 -0.4101
  785MPD2     C11572   2.766   3.961   9.965 -0.3965  0.2553 -0.0688
  785MPD2    C111573   2.679   3.951  10.071 -0.1173  0.5486  0.0263
  785MPD2    C211574   2.572   3.865  10.069  0.3509  0.2949  0.3420
  785MPD2    C311575   2.526   3.803   9.950 -0.4564 -0.1051 -0.6607
  785MPD2    C411576   2.608   3.812   9.839  0.6756 -0.5060 -0.2869
  785MPD2    C511577   2.727   3.887   9.856 -0.0101 -0.6894  0.1157
  785MPD2     H11578   2.507   3.854  10.155  2.8210 -1.2764  1.9956
  785MPD2    H111579   2.584   3.778   9.739  0.2121  0.8729 -0.6439
  785MPD2    H211580   2.857   4.020   9.970  0.7791 -1.7405  2.1830
  785MPD2    H311581   2.791   3.888   9.768  0.7182 -0.3493  0.6424
  785MPD2     N11582   2.412   3.721   9.953 -0.5025  0.4399  0.1945
  785MPD2    H511583   2.372   3.700  10.044  0.1354  0.3469  0.4543
  785MPD2    N111584   2.710   4.039  10.181  0.0580  0.5085 -0.0916
  785MPD2    H711585   2.781   4.110  10.168 -0.8433  1.3266 -0.6178
  786MPD2     C11586   1.404   1.921  13.861  0.6137 -0.6706 -0.6681
  786MPD2    C111587   1.336   2.012  13.938 -0.6102  0.2804 -1.2630
  786MPD2    C211588   1.385   2.064  14.055 -0.7301  0.7731 -0.2433
  786MPD2    C311589   1.511   2.021  14.098  0.1242  0.6569  0.0483
  786MPD2    C411590   1.579   1.929  14.021 -0.1201  0.1902  0.7004
  786MPD2    C511591   1.522   1.877  13.903  0.1646  0.1334  0.4077
  786MPD2     H11592   1.320   2.125  14.116 -1.6789 -1.3221  0.8394
  786MPD2    H111593   1.661   1.873  14.065 -0.0908  0.7212  1.3166
  786MPD2    H211594   1.370   1.872  13.770 -3.2671 -0.6039  0.7575
  786MPD2    H311595   1.573   1.800  13.847 -0.4179 -0.3078  0.4892
  786MPD2     N11596   1.569   2.071  14.216  0.3427 -0.4558 -0.1270
  786MPD2    H511597   1.640   2.008  14.252 -0.6666 -1.0637  0.7836
  786MPD2    N111598   1.202   2.035  13.915  0.0183  0.0012  0.9813
  786MPD2    H711599   1.152   2.092  13.982  1.2208  1.9194  0.2368
  787MPD2     C11600   0.414   2.213  14.241  0.1871  0.1574 -0.7250
  787MPD2    C111601   0.535   2.140  14.232 -1.0391  0.3400 -0.1308
  787MPD2    C211602   0.576   2.059  14.340  0.9470  0.2395  0.6905
  787MPD2    C311603   0.524   2.076  14.465 -0.1884 -0.6489  0.5838
  787MPD2    C411604   0.411   2.157  14.474  0.4446  0.0321  0.1633
  787MPD2    C511605   0.358   2.217  14.363 -0.0232 -0.7327 -0.2253
  787MPD2     H11606   0.656   1.986  14.330 -1.6022 -2.2117 -1.7094
  787MPD2    H111607   0.361   2.182  14.567  1.0092  1.4191  0.0928
  787MPD2    H211608   0.378   2.275  14.160 -1.5147  0.2043  0.0735
  787MPD2    H311609   0.273   2.284  14.365  0.4107 -0.2027  0.5224
  787MPD2     N11610   0.578   2.015  14.577 -0.0106 -0.3106  0.3817
  787MPD2    H511611   0.651   1.949  14.553  0.5850  1.2796 -2.1974
  787MPD2    N111612   0.606   2.129  14.113  0.0185 -0.1542 -0.5438
  787MPD2    H711613   0.562   2.164  14.029  0.5361  0.8391 -0.3978
  788MPD2     C11614   2.570   0.379   0.446  0.3285 -0.6106 -0.5364
  788MPD2    C111615   2.446   0.329   0.411 -0.2460  0.2319  0.3715
  788MPD2    C211616   2.342   0.398   0.347  0.1809 -0.1614  0.5679
  788MPD2    C311617   2.377   0.527   0.312 -0.1439 -0.1367 -0.2121
  788MPD2    C411618   2.497   0.584   0.364 -0.4264  0.7111  0.2046
  788MPD2    C511619   2.595   0.506   0.426 -0.7308  0.4231 -0.1168
  788MPD2     H11620   2.246   0.354   0.323 -0.4160  0.8998  1.0265
  788MPD2    H111621   2.521   0.689   0.349  2.6159  0.2499  1.9231
  788MPD2    H211622   2.642   0.321   0.503  0.8939 -0.9326 -1.5833
  788MPD2    H311623   2.690   0.545   0.461 -0.0959  0.3537 -1.7608
  788MPD2     N11624   2.303   0.612   0.219  0.0672 -0.2307 -0.2241
  788MPD2    H511625   2.345   0.697   0.184 -0.2991  0.1226  0.1890
  788MPD2    N111626   2.417   0.189   0.440 -0.9437  0.5025  0.5093
  788MPD2    H711627   2.328   0.150   0.409 -0.6436  1.9013 -2.1417
  789MPD2     C11628   2.253   4.577  16.054  0.3323  0.0827 -0.4236
  789MPD2    C111629   2.207   4.516  16.169  0.0968 -0.4000  0.0658
  789MPD2    C211630   2.167   4.592  16.275 -0.1192 -0.0120  0.3349
  789MPD2    C311631   2.153   0.008  16.256  0.0187  0.3741 -0.1153
  789MPD2    C411632   2.183   0.070  16.137  1.2573  0.0724 -0.0616
  789MPD2    C511633   2.232   4.711  16.036  0.1821  0.8051 -0.0444
  789MPD2     H11634   2.129   4.540  16.362  0.4905  0.5112  0.9127
  789MPD2    H111635   2.158   0.174  16.119 -1.2330 -0.4968  0.0951
  789MPD2    H211636   2.302   4.522  15.974 -2.0195 -1.4280 -0.8483
  789MPD2    H311637   2.256   0.028  15.939 -0.1575 -0.2410 -0.5733
  789MPD2     N11638   2.091   0.095  16.353  0.0414  0.2699 -0.0288
  789MPD2    H511639   2.087   0.194  16.329 -1.6788  0.7820  2.3834
  789MPD2    N111640   2.215   4.377  16.184 -0.1587  0.3919  0.4332
  789MPD2    H711641   2.173   4.346  16.272 -1.1050  0.2272 -0.0746
  790MPD2     C11642   3.900   2.152  13.392  0.0083  0.9292 -0.2784
  790MPD2    C111643   3.902   2.014  13.366  0.5984  0.3096  1.0568
  790MPD2    C211644   3.846   1.961  13.254  0.3219  0.5161  0.1700
  790MPD2    C311645   3.785   2.037  13.160  0.0623 -0.4190  0.1217
  790MPD2    C411646   3.791   2.172  13.177  0.5189  1.0851  0.4403
  790MPD2    C511647   3.850   2.228  13.290  0.8063  0.3210  0.8116
  790MPD2     H11648   3.875   1.861  13.226  0.4153  0.6327 -0.1509
  790MPD2    H111649   3.754   2.242  13.103  2.7391  1.8889  0.0866
  790MPD2    H211650   3.939   2.192  13.485 -0.9832 -0.2147  0.6381
  790MPD2    H311651   3.845   2.336  13.299  0.4949  0.2020  2.0647
  790MPD2     N11652   3.729   1.980  13.044 -0.4477 -0.1490  0.1259
  790MPD2    H511653   3.734   1.879  13.045  2.1601 -0.0283 -0.9372
  790MPD2    N111654   3.973   1.931  13.460  0.0682  0.1521 -0.3352
  790MPD2    H711655   4.019   1.981  13.535 -0.6585  0.1461  0.1116
  791MPD2     C11656   3.069   2.066  12.580  0.0704  0.6273  0.0701
  791MPD2    C111657   3.119   1.943  12.606 -0.1669  0.2073  0.1646
  791MPD2    C211658   3.040   1.830  12.581 -0.5937  0.8984  0.7640
  791MPD2    C311659   2.905   1.850  12.542  0.1195 -0.8374 -0.1452
  791MPD2    C411660   2.862   1.974  12.512 -0.3557  0.2654  0.3412
  791MPD2    C511661   2.947   2.079  12.539  0.1625 -0.5559 -0.8144
  791MPD2     H11662   3.078   1.733  12.608  2.6045  1.2091 -2.8081
  791MPD2    H111663   2.764   2.003  12.476 -0.2367  0.8707  0.4999
  791MPD2    H211664   3.130   2.151  12.611 -1.3471  1.6692  0.0171
  791MPD2    H311665   2.919   2.180  12.513  0.3315  0.0581  1.4219
  791MPD2     N11666   2.831   1.732  12.506 -0.4006 -0.1633 -0.5230
  791MPD2    H511667   2.883   1.644  12.504  0.7359  0.5011 -0.2198
  791MPD2    N111668   3.252   1.932  12.656  0.4089  0.2108 -0.0348
  791MPD2    H711669   3.305   2.017  12.669 -1.9174  1.3040  2.2901
  792MPD2     C11670   4.046   1.628  10.745  0.4458 -0.0719  0.4889
  792MPD2    C111671   3.928   1.694  10.766 -0.4145 -0.5666  0.5246
  792MPD2    C211672   3.812   1.652  10.707 -0.1258 -0.5094  0.4826
  792MPD2    C311673   3.816   1.530  10.634  0.4227  0.2849 -0.0531
  792MPD2    C411674   3.940   1.481  10.603  0.4054 -0.3582 -0.4256
  792MPD2    C511675   4.055   1.533  10.649  0.0902  0.1879 -0.2730
  792MPD2     H11676   3.724   1.716  10.712 -0.4749 -1.0275  0.8833
  792MPD2    H111677   3.952   1.388  10.549  2.4428 -1.1247  1.3141
  792MPD2    H211678   4.139   1.670  10.782  0.8320 -0.8096  0.3599
  792MPD2    H311679   4.147   1.486  10.619  0.2409  0.3954 -0.1386
  792MPD2     N11680   3.696   1.453  10.597 -0.0509  0.1571  0.3452
  792MPD2    H511681   3.717   1.362  10.557  1.5927  0.7799 -0.2307
  792MPD2    N111682   3.919   1.823  10.823 -0.0046  0.0546  0.1592
  792MPD2    H711683   3.835   1.879  10.814 -0.4266  0.0552  4.0276
  793MPD2     C11684   3.281   1.588   9.853  0.5268  0.3026 -0.0599
  793MPD2    C111685   3.407   1.558   9.896 -0.4140 -0.9948 -0.3031
  793MPD2    C211686   3.428   1.517  10.021  0.2686 -0.4247 -0.5014
  793MPD2    C311687   3.311   1.502  10.100 -0.5363  0.4903  0.4980
  793MPD2    C411688   3.186   1.534  10.058 -0.2363 -0.8244  0.8143
  793MPD2    C511689   3.168   1.579   9.929 -0.6268 -0.1629 -0.4628
  793MPD2     H11690   3.527   1.503  10.061  0.5223  0.0799 -0.9466
  793MPD2    H111691   3.097   1.531  10.121  0.1164 -1.7407  1.2671
  793MPD2    H211692   3.271   1.606   9.747  0.4229  0.4704 -0.0215
  793MPD2    H311693   3.072   1.603   9.885 -0.2389  4.6421  1.3873
  793MPD2     N11694   3.329   1.463  10.234  0.3673  0.6284  0.0499
  793MPD2    H511695   3.423   1.445  10.267  0.2816 -0.8854 -0.5190
  793MPD2    N111696   3.525   1.585   9.824 -0.1678  0.2865  0.3500
  793MPD2    H711697   3.616   1.560   9.861 -0.2957 -0.9290 -0.1688
  794MPD2     C11698   2.953   1.462  17.302  0.5506  0.2638 -0.1967
  794MPD2    C111699   2.914   1.332  17.300 -0.3439  0.3797  0.1374
  794MPD2    C211700   2.849   1.288  17.188 -0.2904 -0.4717 -0.3800
  794MPD2    C311701   2.836   1.377  17.078 -0.4832 -0.0267 -0.7699
  794MPD2    C411702   2.882   1.504  17.078  0.0640  0.5797 -0.3424
  794MPD2    C511703   2.929   1.555  17.196  0.2701  0.7275 -0.4398
  794MPD2     H11704   2.787   1.199  17.192 -1.3294  0.2732 -0.0082
  794MPD2    H111705   2.865   1.573  16.996  2.1237  0.0768 -1.1887
  794MPD2    H211706   3.009   1.493  17.389  2.0453 -2.0376 -0.3426
  794MPD2    H311707   2.973   1.653  17.186 -0.8902  1.2570 -0.3289
  794MPD2     N11708   2.771   1.340  16.964 -0.3586 -0.9293  0.1394
  794MPD2    H511709   2.779   1.413  16.894  1.2430 -0.3026  0.9695
  794MPD2    N111710   2.921   1.237  17.411 -0.2139 -0.4303  0.0534
  794MPD2    H711711   2.872   1.148  17.401  0.1685 -0.6712  0.3143
  795MPD2     C11712   1.170   3.373  13.750  0.3012 -0.3186  0.5041
  795MPD2    C111713   1.133   3.282  13.659  0.7368 -0.1237 -0.3529
  795MPD2    C211714   1.191   3.161  13.653  0.8380 -0.3456 -0.3806
  795MPD2    C311715   1.292   3.129  13.743 -0.8182 -0.6198 -0.3095
  795MPD2    C411716   1.331   3.222  13.844 -0.6535  0.5586  0.0697
  795MPD2    C511717   1.266   3.343  13.841 -0.4196  0.1468 -0.4102
  795MPD2     H11718   1.167   3.094  13.571  0.8147 -1.2818  0.3955
  795MPD2    H111719   1.411   3.196  13.913  1.0117 -0.1721 -2.1534
  795MPD2    H211720   1.141   3.478  13.751 -0.5616 -0.5513  0.5475
  795MPD2    H311721   1.298   3.413  13.917 -0.6168  1.2554 -1.3612
  795MPD2     N11722   1.366   3.013  13.740  0.3091 -0.4806 -0.7421
  795MPD2    H511723   1.450   3.016  13.798  0.3245  0.6522 -0.8225
  795MPD2    N111724   1.033   3.310  13.564 -0.5011  0.3733 -0.7220
  795MPD2    H711725   1.014   3.244  13.489  0.7226  0.0919 -0.7846
  796MPD2     C11726   0.247   0.045  15.794  0.1211 -0.1484 -0.9204
  796MPD2    C111727   0.306   0.126  15.888 -0.6406 -0.4569  0.6858
  796MPD2    C211728   0.339   0.256  15.852 -0.6712 -0.4860 -0.2571
  796MPD2    C311729   0.301   0.310  15.731 -0.2205  0.1399  1.0750
  796MPD2    C411730   0.234   0.231  15.640 -0.2292  0.4924  0.0838
  796MPD2    C511731   0.213   0.099  15.672  0.4509  0.2460  0.9219
  796MPD2     H11732   0.386   0.321  15.925 -1.4326 -2.0469  1.6166
  796MPD2    H111733   0.210   0.264  15.540  1.8255 -0.5161 -0.7433
  796MPD2    H211734   0.204   4.673  15.821  0.9358 -0.1864  0.2358
  796MPD2    H311735   0.169   0.033  15.598  0.2892 -0.0656  1.2957
  796MPD2     N11736   0.308   0.450  15.727  0.2486 -0.3611  0.0464
  796MPD2    H511737   0.358   0.492  15.804  1.3706 -0.6002 -0.5565
  796MPD2    N111738   0.324   0.070  16.015  0.1714  0.7595  0.5068
  796MPD2    H711739   0.287   4.701  16.022  1.4898  0.0805 -1.5157
  797MPD2     C11740   1.103   3.937  17.309 -0.2849 -0.1094 -0.6707
  797MPD2    C111741   1.201   4.035  17.290  0.2795  0.1613 -0.4348
  797MPD2    C211742   1.157   4.157  17.244  1.1987 -0.1409  0.1009
  797MPD2    C311743   1.027   4.191  17.220  0.3583 -0.5125 -0.2639
  797MPD2    C411744   0.934   4.091  17.230  0.5105  0.1102 -0.0179
  797MPD2    C511745   0.972   3.965  17.281 -0.3407  0.3648  0.5202
  797MPD2     H11746   1.239   4.225  17.227 -0.8219  2.4116  0.5938
  797MPD2    H111747   0.827   4.108  17.233  0.2033 -1.9995  1.1602
  797MPD2    H211748   1.125   3.841  17.355 -1.1280  1.3932  2.8621
  797MPD2    H311749   0.897   3.895  17.317  0.0222  0.0362  0.6361
  797MPD2     N11750   0.982   4.328  17.207 -0.3021 -0.8224 -0.0236
  797MPD2    H511751   0.883   4.349  17.194  0.1234  0.3050 -1.3810
  797MPD2    N111752   1.334   4.024  17.309 -0.0415  0.1504 -0.5124
  797MPD2    H711753   1.398   4.102  17.292 -1.4927  0.9599 -2.4260
  798MPD2     C11754   1.487   0.005  17.498 -0.4662  0.0905 -0.6604
  798MPD2    C111755   1.388   4.639  17.463 -0.7821 -0.7438 -0.2474
  798MPD2    C211756   1.429   4.506  17.459  0.6387 -0.7006 -0.3847
  798MPD2    C311757   1.558   4.469  17.488 -0.1968  0.3775 -0.2021
  798MPD2    C411758   1.651   4.560  17.526 -0.5590 -0.2694 -0.3913
  798MPD2    C511759   1.619   4.692  17.529  0.0232 -0.1513 -0.3034
  798MPD2     H11760   1.350   4.436  17.431 -0.9530  0.2587  1.7097
  798MPD2    H111761   1.752   4.537  17.556  0.0596 -0.6738 -2.7272
  798MPD2    H211762   1.465   0.110  17.505  1.6468  0.4856  0.0125
  798MPD2    H311763   1.696   0.037  17.560 -1.8671  1.1937  1.3951
  798MPD2     N11764   1.581   4.329  17.485  0.0071 -0.1274  0.2289
  798MPD2    H511765   1.504   4.280  17.439 -1.0302 -0.1548  2.0112
  798MPD2    N111766   1.260   4.674  17.416  0.3023  0.0122 -0.1488
  798MPD2    H711767   1.193   4.603  17.391 -0.3893  0.7086 -0.2862
  799MPD2     C11768   0.687   1.365  14.798  0.0806  0.5132  0.0360
  799MPD2    C111769   0.621   1.284  14.710 -0.7263  0.0707  0.1564
  799MPD2    C211770   0.521   1.347  14.639 -0.4269  0.7730 -0.0609
  799MPD2    C311771   0.503   1.487  14.638 -0.4622 -0.0826 -0.3093
  799MPD2    C411772   0.583   1.565  14.719  0.0808 -0.5266  0.2796
  799MPD2    C511773   0.672   1.501  14.801 -0.1007  0.1172  0.6389
  799MPD2     H11774   0.459   1.285  14.575  1.3031  0.5866 -1.5549
  799MPD2    H111775   0.577   1.673  14.723 -0.1945 -0.5722  1.0554
  799MPD2    H211776   0.750   1.326  14.878  2.7915 -0.0279 -2.3514
  799MPD2    H311777   0.734   1.560  14.868  0.5095  0.8357 -0.5576
  799MPD2     N11778   0.406   1.547  14.559 -0.1061 -0.2999  0.2711
  799MPD2    H511779   0.410   1.648  14.564 -2.3173 -0.0951 -2.0610
  799MPD2    N111780   0.641   1.146  14.707  0.0933  0.1123  0.0302
  799MPD2    H711781   0.588   1.089  14.643  2.4617 -0.9275 -1.0140
  800MPD2     C11782   1.034   2.362  13.788  0.2107 -1.1954 -0.0439
  800MPD2    C111783   1.156   2.326  13.745  0.4206  0.2860  0.5544
  800MPD2    C211784   1.178   2.267  13.623 -0.1028 -0.2047  0.6444
  800MPD2    C311785   1.072   2.240  13.542  0.2349 -0.2609  0.1437
  800MPD2    C411786   0.944   2.281  13.586 -0.5853  1.0297  0.0848
  800MPD2    C511787   0.922   2.347  13.704 -0.5906 -0.3966 -0.2253
  800MPD2     H11788   1.269   2.215  13.596  0.6463  0.6060  1.6377
  800MPD2    H111789   0.851   2.262  13.532  0.1900 -3.8135  0.4400
  800MPD2    H211790   1.016   2.413  13.882 -2.8213 -1.4479 -0.4751
  800MPD2    H311791   0.818   2.363  13.730 -0.5502 -0.0425 -0.2807
  800MPD2     N11792   1.092   2.172  13.424 -0.2944  0.0027  0.1059
  800MPD2    H511793   1.183   2.133  13.402 -1.0083 -1.3118 -0.5388
  800MPD2    N111794   1.262   2.362  13.829  0.2275 -0.1865  0.3479
  800MPD2    H711795   1.239   2.414  13.912  2.6108  0.3080  0.7057
  801MPD2     C11796   1.475   2.961  14.218  0.0359 -0.4627  0.1886
  801MPD2    C111797   1.410   2.837  14.211 -0.1423  0.2283  0.0146
  801MPD2    C211798   1.298   2.814  14.285  0.1191 -0.1915 -0.5257
  801MPD2    C311799   1.261   2.911  14.379  0.1405  0.7896 -0.0512
  801MPD2    C411800   1.326   3.030  14.390  0.2835 -0.2822  0.0262
  801MPD2    C511801   1.440   3.049  14.316  0.3258 -0.0369  0.1301
  801MPD2     H11802   1.246   2.720  14.272  0.4511 -0.4119 -0.2648
  801MPD2    H111803   1.302   3.098  14.470 -0.6962 -2.2473  1.4040
  801MPD2    H211804   1.564   2.980  14.158 -0.7857  0.8409 -0.6381
  801MPD2    H311805   1.503   3.136  14.332 -0.9624  1.3261 -2.3979
  801MPD2     N11806   1.152   2.895  14.467 -0.5644 -0.5625  0.5249
  801MPD2    H511807   1.164   2.959  14.544  0.1275 -0.1420  0.0746
  801MPD2    N111808   1.439   2.726  14.121 -0.1313 -0.4136 -0.0356
  801MPD2    H711809   1.376   2.646  14.127  0.0271 -0.2803  3.3170
  802MPD2     C11810   0.656   3.238   0.330 -1.1773  0.2309  0.2347
  802MPD2    C111811   0.551   3.294   0.260 -0.1069 -0.0642 -0.5430
  802MPD2    C211812   0.505   3.231   0.149 -0.1909  0.1588 -0.6170
  802MPD2    C311813   0.561   3.116   0.093  0.5085 -0.1328  0.2310
  802MPD2    C411814   0.670   3.059   0.167  0.2439 -0.4495 -0.3926
  802MPD2    C511815   0.709   3.120   0.281  0.0619 -0.5687 -0.7952
  802MPD2     H11816   0.410   3.270   0.114  0.6582  1.2574 -1.6788
  802MPD2    H111817   0.716   2.966   0.136  0.8812 -0.4100  0.4306
  802MPD2    H211818   0.685   3.284   0.423  0.1122 -1.0335  0.4639
  802MPD2    H311819   0.786   3.068   0.338 -0.4511 -0.5812 -0.1068
  802MPD2     N11820   0.522   3.072  17.670  0.3178 -0.3684 -0.0436
  802MPD2    H511821   0.453   3.130  17.623  1.1542  0.9500  0.3612
  802MPD2    N111822   0.487   3.409   0.307 -0.5319 -0.5263  0.3608
  802MPD2    H711823   0.418   3.453   0.248  0.5464  1.4478  0.5578
  803MPD2     C11824   1.465   2.179  11.549 -0.4498 -0.2530 -0.5196
  803MPD2    C111825   1.590   2.143  11.583  0.1664  0.1441 -0.0085
  803MPD2    C211826   1.603   2.040  11.672 -0.0478  0.1098  0.3770
  803MPD2    C311827   1.500   1.962  11.706  0.1093  0.1982 -0.0395
  803MPD2    C411828   1.370   1.996  11.667  0.0631 -0.4141 -0.6822
  803MPD2    C511829   1.354   2.106  11.591 -0.3878 -0.3327 -0.0676
  803MPD2     H11830   1.709   2.016  11.683 -0.7988 -2.7564  1.2280
  803MPD2    H111831   1.282   1.954  11.715  0.5010 -0.0700  0.4099
  803MPD2    H211832   1.449   2.273  11.496 -0.9532  0.6035  1.1503
  803MPD2    H311833   1.255   2.146  11.570  0.3202  1.6076  0.2964
  803MPD2     N11834   1.514   1.844  11.781 -0.3177 -0.1255  0.1760
  803MPD2    H511835   1.429   1.791  11.790 -0.5954  0.4484  1.0077
  803MPD2    N111836   1.705   2.214  11.556 -0.0804  0.5000  0.6338
  803MPD2    H711837   1.792   2.187  11.600 -0.9313 -3.0262  0.2016
  804MPD2     C11838   0.759   2.930  17.040  0.0403 -0.3516  1.2197
  804MPD2    C111839   0.824   2.882  17.147  0.0323 -0.0223 -0.2434
  804MPD2    C211840   0.889   2.972  17.238  0.0714 -0.1382  0.3052
  804MPD2    C311841   0.911   3.105  17.204 -0.0711  0.4286  0.3058
  804MPD2    C411842   0.837   3.156  17.093 -0.1678  0.7086 -0.3162
  804MPD2    C511843   0.761   3.069  17.015  0.1129  0.2655 -0.4628
  804MPD2     H11844   0.947   2.925  17.317 -1.6486  0.2407  1.7708
  804MPD2    H111845   0.831   3.260  17.067  1.4953  0.3091 -2.2817
  804MPD2    H211846   0.698   2.875  16.969  2.4237 -1.3246 -0.0513
  804MPD2    H311847   0.699   3.114  16.939  0.7023 -2.1840 -2.4058
  804MPD2     N11848   1.003   3.193  17.278 -0.2877  0.1364 -0.2755
  804MPD2    H511849   1.052   3.151  17.357 -1.8255 -2.6072 -0.7852
  804MPD2    N111850   0.817   2.745  17.178 -0.1617 -0.0522 -0.1732
  804MPD2    H711851   0.850   2.718  17.271 -1.1818  0.4649  0.3434
  805MPD2     C11852   0.022   1.216  15.173 -0.2099 -0.4644 -1.1320
  805MPD2    C111853   0.125   1.290  15.116 -0.1920 -1.4529 -0.4246
  805MPD2    C211854   0.238   1.317  15.189  0.2894 -0.2465  0.6870
  805MPD2    C311855   0.254   1.256  15.312  0.0915  0.4147 -0.3696
  805MPD2    C411856   0.158   1.166  15.359  0.0464  0.3997  0.0342
  805MPD2    C511857   0.038   1.167  15.298  0.4407 -0.2308  0.7923
  805MPD2     H11858   0.302   1.396  15.151  0.8143 -0.5540  0.9296
  805MPD2    H111859   0.163   1.123  15.458  0.5970 -1.3708 -0.7716
  805MPD2    H211860   4.658   1.186  15.117 -0.9069  2.8842 -1.8054
  805MPD2    H311861   4.678   1.112  15.340 -0.8340  0.9079 -0.2785
  805MPD2     N11862   0.371   1.286  15.389 -0.0615 -0.4871  0.0698
  805MPD2    H511863   0.437   1.355  15.353 -1.9283  0.3166 -1.8003
  805MPD2    N111864   0.118   1.351  14.991 -0.1886 -0.1177 -0.7014
  805MPD2    H711865   0.192   1.415  14.963  0.8001 -0.3964  1.2875
  806MPD2     C11866   0.225   0.414   0.165  0.8195  0.3275  0.6033
  806MPD2    C111867   0.347   0.408   0.224  0.4461 -0.7976 -0.1277
  806MPD2    C211868   0.441   0.504   0.183  0.2706  0.0666  0.2644
  806MPD2    C311869   0.418   0.595   0.077 -0.7767  0.2563  0.3709
  806MPD2    C411870   0.301   0.589   0.014 -0.4258  0.4066 -0.3406
  806MPD2    C511871   0.204   0.501   0.061  0.2815  0.5492 -0.0106
  806MPD2     H11872   0.537   0.510   0.233 -0.2264  0.7450  1.1540
  806MPD2    H111873   0.287   0.646  17.621 -3.0923 -0.1022 -0.2591
  806MPD2    H211874   0.138   0.357   0.195  0.6126  0.5684  0.4506
  806MPD2    H311875   0.106   0.519   0.018  0.2045  1.0888  0.3882
  806MPD2     N11876   0.520   0.691   0.052  0.0300 -0.2172 -0.1974
  806MPD2    H511877   0.599   0.699   0.115  0.3372 -2.8173 -0.2536
  806MPD2    N111878   0.362   0.323   0.344  0.0388  0.2233  0.1540
  806MPD2    H711879   0.283   0.263   0.364 -0.4048  1.2014  1.3185
  807MPD2     C11880   0.070   4.517   0.840  0.4826  0.5186  0.5651
  807MPD2    C111881   0.202   4.522   0.859 -0.1314  0.0976 -0.1142
  807MPD2    C211882   0.270   4.420   0.925  0.1851  0.2251 -0.9421
  807MPD2    C311883   0.210   4.309   0.978 -0.4157  0.0594  0.5241
  807MPD2    C411884   0.070   4.307   0.975  0.5546 -1.1616  0.4937
  807MPD2    C511885   0.010   4.416   0.908  0.6577 -0.1973  0.2923
  807MPD2     H11886   0.378   4.426   0.932 -0.0448  1.9340  1.2656
  807MPD2    H111887   4.724   4.238   1.019 -0.0072  0.6621  2.4308
  807MPD2    H211888   0.014   4.594   0.790  2.9074  0.7280 -1.8259
  807MPD2    H311889   4.627   4.415   0.925  0.7819 -2.5570  1.0455
  807MPD2     N11890   0.285   4.207   1.036 -0.0407 -0.0381 -0.3473
  807MPD2    H511891   0.384   4.220   1.018 -0.2351  1.3944 -0.3785
  807MPD2    N111892   0.282   4.631   0.812  0.2207  0.1582  0.5093
  807MPD2    H711893   0.380   4.640   0.836  0.2673 -0.1050  0.4179
  808MPD2     C11894   1.478   2.836   9.278  1.2923 -0.6031  0.1016
  808MPD2    C111895   1.514   2.799   9.406  0.3574  0.3391 -0.0512
  808MPD2    C211896   1.626   2.850   9.460 -1.0514  0.1492  0.9596
  808MPD2    C311897   1.703   2.936   9.384 -0.3071 -0.0577  0.7759
  808MPD2    C411898   1.668   2.971   9.256  0.4570 -0.2156 -0.1080
  808MPD2    C511899   1.550   2.923   9.199  0.7282  0.1252  0.8374
  808MPD2     H11900   1.654   2.807   9.556  3.2473  0.4455 -0.1555
  808MPD2    H111901   1.740   3.023   9.194  2.2758  0.3753  2.4893
  808MPD2    H211902   1.384   2.802   9.238  1.2506  0.6462 -0.8654
  808MPD2    H311903   1.518   2.956   9.100 -0.5325  2.1055  1.8925
  808MPD2     N11904   1.827   2.987   9.431 -0.0290  0.1518  0.5403
  808MPD2    H511905   1.876   3.049   9.367  0.6605 -0.0677  0.8463
  808MPD2    N111906   1.435   2.709   9.481  0.3790  0.0244 -0.5878
  808MPD2    H711907   1.482   2.649   9.548 -0.9607  0.0639  0.4015
  809MPD2     C11908   1.981   3.769   9.316  0.1985 -0.0941 -0.2636
  809MPD2    C111909   2.107   3.737   9.367 -0.5112 -0.5383  0.3014
  809MPD2    C211910   2.128   3.628   9.448  0.0555 -0.3112  0.0048
  809MPD2    C311911   2.017   3.557   9.484 -0.2613  0.1389 -0.1187
  809MPD2    C411912   1.890   3.599   9.444 -0.3019  0.3533 -1.0614
  809MPD2    C511913   1.869   3.700   9.352  0.5497 -0.5135  0.0897
  809MPD2     H11914   2.228   3.591   9.464  1.2701  3.6264  1.5042
  809MPD2    H111915   1.802   3.543   9.471  1.3824 -0.7101  2.1763
  809MPD2    H211916   1.961   3.844   9.241 -0.1854 -1.4568 -1.5295
  809MPD2    H311917   1.777   3.739   9.311  0.0861 -1.8515 -0.1239
  809MPD2     N11918   2.019   3.426   9.530  0.3034  0.1750 -0.0976
  809MPD2    H511919   1.929   3.380   9.528  1.5434 -1.9991 -4.7218
  809MPD2    N111920   2.226   3.811   9.334 -0.7343  0.1985 -0.0258
  809MPD2    H711921   2.309   3.784   9.386  0.0740 -1.4332 -2.1717
  810MPD2     C11922   1.176   1.972  10.469 -0.0405  0.1086 -0.6239
  810MPD2    C111923   1.093   1.996  10.362  0.2874 -0.6375  0.6321
  810MPD2    C211924   1.073   2.130  10.324 -0.1930  0.0922 -0.0113
  810MPD2    C311925   1.133   2.239  10.385 -0.1903 -1.4850 -0.2995
  810MPD2    C411926   1.204   2.211  10.499 -0.1758  0.3998 -0.5973
  810MPD2    C511927   1.233   2.079  10.538  0.1049  0.9103  0.6650
  810MPD2     H11928   1.019   2.142  10.231  0.8809 -2.0373 -0.8936
  810MPD2    H111929   1.241   2.296  10.556 -0.8551  1.0492 -1.1168
  810MPD2    H211930   1.194   1.869  10.500 -1.5280  0.0255 -0.0147
  810MPD2    H311931   1.295   2.061  10.625 -0.3900  3.9180  1.6113
  810MPD2     N11932   1.108   2.379  10.358  0.6990  0.2693 -0.7649
  810MPD2    H511933   1.152   2.446  10.420 -0.8819 -0.4379  1.1495
  810MPD2    N111934   1.022   1.894  10.294 -0.4876 -0.6032 -0.5822
  810MPD2    H711935   0.983   1.929  10.207 -0.5807  0.2079 -0.2128
  811MPD2     C11936   0.492   1.694   9.706 -0.4544 -0.4477  0.0205
  811MPD2    C111937   0.547   1.772   9.802 -0.1848  0.2758 -0.0839
  811MPD2    C211938   0.547   1.911   9.791 -0.1876  0.0179 -0.0015
  811MPD2    C311939   0.493   1.971   9.685  0.2358 -0.0884  0.0575
  811MPD2    C411940   0.436   1.892   9.590  0.0592  0.0369 -0.6732
  811MPD2    C511941   0.437   1.757   9.597 -0.3436  0.2423 -0.5087
  811MPD2     H11942   0.603   1.964   9.868  1.5770  2.2605 -2.8380
  811MPD2    H111943   0.389   1.928   9.499 -1.7098  1.1357  0.6830
  811MPD2    H211944   0.483   1.586   9.715  0.6141 -0.3092  2.5686
  811MPD2    H311945   0.399   1.708   9.508 -0.0081 -1.0920  0.0769
  811MPD2     N11946   0.503   2.111   9.678 -0.1501 -0.8390  0.1244
  811MPD2    H511947   0.561   2.156   9.747 -0.6523  1.1347 -0.7484
  811MPD2    N111948   0.589   1.704   9.921 -0.3041 -0.2362 -0.1323
  811MPD2    H711949   0.598   1.604   9.909  0.1167 -0.0103 -1.7061
  812MPD2     C11950   4.657   1.524  12.024 -0.1784  0.3507 -0.0265
  812MPD2    C111951   4.525   1.549  12.079 -0.2200 -0.7944 -0.6658
  812MPD2    C211952   4.471   1.452  12.164  0.2841  0.0272 -0.0530
  812MPD2    C311953   4.541   1.335  12.194 -0.3222 -0.1496  0.0930
  812MPD2    C411954   4.660   1.312  12.136  0.1659  0.1590  0.8653
  812MPD2    C511955   4.718   1.404  12.050  0.1861  0.5944 -0.5168
  812MPD2     H11956   4.381   1.477  12.220 -0.0744  0.3233 -0.7499
  812MPD2    H111957   4.717   1.220  12.144  0.9524  0.5876  0.2378
  812MPD2    H211958   4.709   1.587  11.953 -0.9324  0.1306 -0.7818
  812MPD2    H311959   0.085   1.375  11.999 -0.3637 -1.7596 -0.1943
  812MPD2     N11960   4.483   1.242  12.281  0.6110  0.2013  0.4714
  812MPD2    H511961   4.393   1.260  12.324  0.3138  0.5551 -0.3090
  812MPD2    N111962   4.452   1.669  12.057 -0.3796 -0.3724  0.5268
  812MPD2    H711963   4.364   1.679  12.107 -1.0665 -0.7143 -0.6227
  813MPD2     C11964   2.829   3.561  12.231 -0.3309  0.3573  0.4148
  813MPD2    C111965   2.893   3.662  12.306 -0.2820  0.5122 -0.0202
  813MPD2    C211966   2.844   3.691  12.434 -0.5510  0.6743 -0.2823
  813MPD2    C311967   2.730   3.629  12.488  0.2865  0.3679 -0.6286
  813MPD2    C411968   2.668   3.533  12.412  0.5259  0.3156  0.2801
  813MPD2    C511969   2.716   3.500  12.285  0.4519  0.0913  0.7124
  813MPD2     H11970   2.911   3.752  12.494  1.0909 -1.3322 -0.0557
  813MPD2    H111971   2.583   3.478  12.450  1.5428 -1.4020  0.1098
  813MPD2    H211972   2.863   3.523  12.136 -0.4906  1.4234 -0.0708
  813MPD2    H311973   2.667   3.424  12.225 -0.1155  0.4520  0.7122
  813MPD2     N11974   2.691   3.661  12.620 -0.3082 -0.0976 -0.6963
  813MPD2    H511975   2.745   3.737  12.662 -0.8350  0.1529 -0.4772
  813MPD2    N111976   3.010   3.723  12.252 -0.1987 -0.2001 -0.3612
  813MPD2    H711977   3.025   3.693  12.156  0.4064 -0.3952 -0.2066
  814MPD2     C11978   4.258   4.677  12.089 -0.4677  0.5354  0.3704
  814MPD2    C111979   4.228   0.051  11.986  0.6870 -0.8460 -0.6258
  814MPD2    C211980   4.274   0.179  11.998  0.1200 -0.4954  0.8811
  814MPD2    C311981   4.326   0.212  12.124 -0.5617 -0.0751  0.4746
  814MPD2    C411982   4.345   0.119  12.225  0.0858  0.4947 -0.1325
  814MPD2    C511983   4.316   4.709  12.206  0.1605 -0.2759 -1.0118
  814MPD2     H11984   4.252   0.249  11.917  0.5818 -0.9931  0.3263
  814MPD2    H111985   4.377   0.156  12.321 -2.2109 -2.0813  1.6123
  814MPD2    H211986   4.238   4.571  12.090  0.6029  0.3443  0.6961
  814MPD2    H311987   4.337   4.636  12.283 -2.6034 -1.6572 -1.5736
  814MPD2     N11988   4.364   0.346  12.153 -0.2733 -0.0233 -0.1445
  814MPD2    H511989   4.398   0.354  12.248 -0.2999 -2.1079  0.0559
  814MPD2    N111990   4.158   0.019  11.866  0.0370 -0.5887 -0.0791
  814MPD2    H711991   4.144   0.094  11.799 -1.1295 -0.7621 -0.0381
  815MPD2     C11992   0.129   3.470  11.908 -0.7879 -0.1767  0.4204
  815MPD2    C111993   0.053   3.373  11.851  0.3696  0.2514  0.4198
  815MPD2    C211994   4.648   3.350  11.883  0.0233  0.0959 -0.0208
  815MPD2    C311995   4.586   3.437  11.971  0.5049 -0.0685  0.7932
  815MPD2    C411996   4.654   3.554  12.011 -0.5180 -0.4189  0.3017
  815MPD2    C511997   0.063   3.558  11.989 -0.5809  0.1155  0.2181
  815MPD2     H11998   4.600   3.266  11.835  1.8248  0.1646 -1.9665
  815MPD2    H111999   4.605   3.633  12.067  2.7777  1.8157  0.0183
  815MPD2    H212000   0.235   3.484  11.891 -0.3395 -0.5897  2.8833
  815MPD2    H312001   0.126   3.637  12.029 -1.2157  2.3163 -3.0972
  815MPD2     N12002   4.455   3.419  11.993  0.9912 -0.2967  0.5369
  815MPD2    H512003   4.417   3.338  11.947 -2.4831  0.1551  2.6332
  815MPD2    N112004   0.092   3.280  11.744 -0.1542 -0.0118 -0.5862
  815MPD2    H712005   0.019   3.212  11.721 -1.0869  0.9925 -0.6045
  816MPD2     C12006   3.999   2.597  16.960 -0.6537 -1.4795 -0.9924
  816MPD2    C112007   4.077   2.693  17.020 -0.4912  0.3661 -0.0266
  816MPD2    C212008   4.209   2.657  17.012  0.1984 -0.4335  0.8837
  816MPD2    C312009   4.262   2.542  16.956  0.6272  0.5809  0.1677
  816MPD2    C412010   4.181   2.456  16.891 -0.1174  0.4268  0.2556
  816MPD2    C512011   4.048   2.482  16.900  0.2006 -1.1080 -0.0059
  816MPD2     H12012   4.283   2.729  17.043  0.8343 -0.8720  0.3932
  816MPD2    H112013   4.215   2.362  16.851 -0.5404 -0.7343  2.5916
  816MPD2    H212014   3.892   2.602  16.975 -0.5669  0.3777 -1.0541
  816MPD2    H312015   3.973   2.415  16.859 -0.2880 -0.1023 -0.7528
  816MPD2     N12016   4.402   2.531  16.956  0.1648  0.5419  0.0128
  816MPD2    H512017   4.458   2.611  16.985  0.1668  0.2842  0.7220
  816MPD2    N112018   4.022   2.807  17.078 -0.0586  0.1334  0.2662
  816MPD2    H712019   3.921   2.807  17.082 -0.1279  0.8532 -1.3116
  817MPD2     C12020   3.996   4.370   9.777  0.3463 -0.3825  0.7546
  817MPD2    C112021   4.100   4.406   9.699 -0.0116  0.0671  0.6081
  817MPD2    C212022   4.099   4.521   9.627  0.0392 -0.0160  0.0868
  817MPD2    C312023   4.000   4.610   9.655 -0.3018 -0.3710 -0.3124
  817MPD2    C412024   3.903   4.583   9.748 -0.3575 -0.2311 -0.1757
  817MPD2    C512025   3.899   4.457   9.801 -0.2808  0.1564  0.3673
  817MPD2     H12026   4.181   4.543   9.559 -1.5122  1.1123 -1.4101
  817MPD2    H112027   3.821   4.652   9.765 -2.4467 -2.2151 -2.1737
  817MPD2    H212028   3.982   4.273   9.825 -1.6712  0.0098  0.9379
  817MPD2    H312029   3.814   4.420   9.857 -0.1284 -1.3443 -0.3888
  817MPD2     N12030   4.001   4.724   9.575 -0.8360  0.6509 -0.4149
  817MPD2    H512031   4.063   4.724   9.494 -1.9644 -0.9278 -1.2899
  817MPD2    N112032   4.207   4.322   9.682 -0.0427 -0.6867 -0.5095
  817MPD2    H712033   4.263   4.338   9.599  0.9507 -1.2259  0.0503
  818MPD2     C12034   3.459   4.029  10.501 -0.8476  0.2859 -0.2695
  818MPD2    C112035   3.464   4.028  10.365 -0.9491  0.5924 -0.3813
  818MPD2    C212036   3.511   3.917  10.303 -0.7767  0.3915 -0.3990
  818MPD2    C312037   3.554   3.809  10.379 -0.3273 -0.1155 -0.0508
  818MPD2    C412038   3.532   3.812  10.515 -0.0681 -0.3889  0.0566
  818MPD2    C512039   3.491   3.928  10.579  0.2619 -0.7528 -0.4733
  818MPD2     H12040   3.521   3.917  10.195 -0.2250 -1.3744 -0.3418
  818MPD2    H112041   3.563   3.726  10.573 -0.7098  0.3983  1.5552
  818MPD2    H212042   3.446   4.122  10.557 -1.0861  0.4708 -0.6315
  818MPD2    H312043   3.478   3.934  10.686  0.6816  2.5081 -0.5998
  818MPD2     N12044   3.598   3.684  10.337 -0.7171 -0.4325 -0.0423
  818MPD2    H512045   3.606   3.612  10.408  0.0598 -2.2831 -1.9932
  818MPD2    N112046   3.425   4.131  10.279  0.2353  0.3295 -0.2048
  818MPD2    H712047   3.468   4.135  10.187 -2.5688  0.2441 -1.5059
  819MPD2     C12048   0.701   0.913  15.539  0.0395 -0.3101  0.1575
  819MPD2    C112049   0.703   0.776  15.540 -0.0585  0.4201  0.8841
  819MPD2    C212050   0.780   0.705  15.631  0.2514 -0.3400  0.3619
  819MPD2    C312051   0.862   0.767  15.716  0.4215  0.6711 -0.2064
  819MPD2    C412052   0.865   0.905  15.714 -0.0244  0.0306  0.3910
  819MPD2    C512053   0.790   0.971  15.620  0.8894  0.3589  0.1911
  819MPD2     H12054   0.777   0.597  15.627 -0.1225 -0.2874 -0.6897
  819MPD2    H112055   0.923   0.964  15.783 -3.8958  3.5460  0.6500
  819MPD2    H212056   0.633   0.962  15.470  1.1134  1.5844  0.4230
  819MPD2    H312057   0.799   1.078  15.605 -2.7583  0.6408 -0.1463
  819MPD2     N12058   0.953   0.686  15.783 -0.6000  0.1598 -0.3212
  819MPD2    H512059   0.956   0.588  15.759  2.0036 -0.3080  1.9205
  819MPD2    N112060   0.610   0.717  15.444 -0.4523 -0.1338 -0.2944
  819MPD2    H712061   0.559   0.776  15.379 -0.5413 -2.4395 -2.3506
  820MPD2     C12062   0.221   0.715  14.520 -0.4515  0.2646  0.3102
  820MPD2    C112063   0.261   0.799  14.614 -0.8695  0.2203 -0.6136
  820MPD2    C212064   0.323   0.756  14.731  0.1922  0.2727  0.2088
  820MPD2    C312065   0.338   0.620  14.757 -0.3621 -0.1981 -0.2689
  820MPD2    C412066   0.290   0.536  14.662  0.4039 -0.5465  0.7364
  820MPD2    C512067   0.234   0.576  14.542 -0.0424 -0.4527  0.3669
  820MPD2     H12068   0.373   0.832  14.790 -1.0023  0.7030  0.6493
  820MPD2    H112069   0.285   0.429  14.678  0.7676 -0.4534  1.4450
  820MPD2    H212070   0.161   0.753  14.437  2.6919  2.5915 -0.9024
  820MPD2    H312071   0.183   0.506  14.478  0.5512 -0.0549 -0.5452
  820MPD2     N12072   0.378   0.563  14.882  0.1082 -0.0076 -0.6344
  820MPD2    H512073   0.358   0.466  14.902  1.4508  0.2364  1.9990
  820MPD2    N112074   0.222   0.935  14.586  0.0510  0.6334 -0.2059
  820MPD2    H712075   0.170   0.946  14.499 -0.5264 -1.2787 -0.1162
  821MPD2     C12076   1.314   2.506  12.822 -0.4948 -0.0463  0.0989
  821MPD2    C112077   1.382   2.435  12.922  0.6371  0.7196 -0.1290
  821MPD2    C212078   1.516   2.468  12.947 -0.0519 -0.0897  0.0969
  821MPD2    C312079   1.578   2.573  12.877  0.0749  0.7548 -0.4176
  821MPD2    C412080   1.502   2.643  12.784  0.0457 -0.3146 -0.2369
  821MPD2    C512081   1.373   2.614  12.755  0.3232 -0.2687 -0.2380
  821MPD2     H12082   1.575   2.408  13.016  1.0008 -0.7027 -1.3458
  821MPD2    H112083   1.552   2.722  12.728  0.8491 -0.2794  0.5308
  821MPD2    H212084   1.214   2.487  12.785 -0.1164 -0.6742 -0.6025
  821MPD2    H312085   1.317   2.674  12.685 -1.6945 -0.7281  0.9765
  821MPD2     N12086   1.715   2.613  12.894  0.2932  0.3088  0.8869
  821MPD2    H512087   1.742   2.693  12.838 -0.7522 -0.1848 -0.3195
  821MPD2    N112088   1.328   2.323  12.981  0.1399 -0.4404 -0.9237
  821MPD2    H712089   1.388   2.265  13.039  0.9157  1.6040  0.3264
  822MPD2     C12090   1.375   2.396  15.499 -0.0083 -0.2945 -0.4576
  822MPD2    C112091   1.454   2.446  15.600  0.0294 -0.0256  0.2389
  822MPD2    C212092   1.400   2.544  15.682 -0.2586  0.6454  0.0034
  822MPD2    C312093   1.273   2.594  15.676 -0.0780  0.4210  0.5588
  822MPD2    C412094   1.196   2.546  15.575  0.0466 -0.0040 -0.9223
  822MPD2    C512095   1.253   2.457  15.480 -0.3347  0.7836 -0.0035
  822MPD2     H12096   1.460   2.583  15.763 -0.9219  0.0159  0.7951
  822MPD2    H112097   1.091   2.565  15.559 -0.0892  1.3017  1.6220
  822MPD2    H212098   1.402   2.325  15.421  2.0844  0.3908 -0.3661
  822MPD2    H312099   1.189   2.424  15.399  2.2417  2.5027 -2.7330
  822MPD2     N12100   1.226   2.682  15.780  0.2745 -0.1013 -0.4327
  822MPD2    H512101   1.297   2.718  15.843 -1.1433 -0.3932  1.3338
  822MPD2    N112102   1.582   2.396  15.631 -0.5153  0.3228 -0.1231
  822MPD2    H712103   1.626   2.426  15.718 -0.8827 -1.4465  0.6714
  823MPD2     C12104   1.072   2.741  16.635  0.3858  0.3416  0.3461
  823MPD2    C112105   1.112   2.703  16.510 -0.5467 -0.8525 -0.3293
  823MPD2    C212106   1.191   2.581  16.501  0.3068  0.4978 -0.3604
  823MPD2    C312107   1.211   2.506  16.612  0.1445 -0.1681 -0.4179
  823MPD2    C412108   1.159   2.548  16.733 -0.6139 -0.4909 -0.3349
  823MPD2    C512109   1.095   2.666  16.743 -0.2643 -0.8367 -0.6490
  823MPD2     H12110   1.221   2.541  16.404  1.4809  3.7812 -1.3510
  823MPD2    H112111   1.189   2.497  16.824 -0.0094  0.6574  0.1196
  823MPD2    H212112   1.020   2.835  16.653  1.6638  0.3511  4.0945
  823MPD2    H312113   1.057   2.712  16.833 -0.5328 -1.3216 -0.5117
  823MPD2     N12114   1.284   2.385  16.608 -0.6154  0.0556 -0.3776
  823MPD2    H512115   1.286   2.338  16.697  2.7295 -1.1890 -1.1061
  823MPD2    N112116   1.076   2.773  16.398 -0.2161 -0.4571 -0.0667
  823MPD2    H712117   1.042   2.868  16.415  1.3475  0.5523 -2.4990
  824MPD2     C12118   1.832   1.724  15.320 -0.6207  0.2385  0.1505
  824MPD2    C112119   1.917   1.761  15.424 -0.5590  0.5966  0.7448
  824MPD2    C212120   2.041   1.698  15.439  0.7414 -0.0168 -0.0370
  824MPD2    C312121   2.078   1.601  15.347 -0.5808 -0.5255  1.0778
  824MPD2    C412122   1.994   1.560  15.243  0.4025 -0.2856  0.0381
  824MPD2    C512123   1.870   1.620  15.235 -0.2746  0.1191 -0.3444
  824MPD2     H12124   2.102   1.707  15.528 -0.7714 -0.0015  0.9935
  824MPD2    H112125   2.015   1.484  15.169 -2.3388  0.2102 -1.2543
  824MPD2    H212126   1.732   1.761  15.298 -0.6773 -0.5564 -0.9341
  824MPD2    H312127   1.808   1.610  15.147 -1.8814 -0.3985  0.8539
  824MPD2     N12128   2.202   1.537  15.369 -0.0476 -0.8553 -0.6040
  824MPD2    H512129   2.263   1.585  15.435  0.0751 -0.1347 -1.2479
  824MPD2    N112130   1.872   1.873  15.505 -0.8073  0.3912 -0.7697
  824MPD2    H712131   1.791   1.924  15.471 -0.3525  0.0751 -2.2845
  825MPD2     C12132   2.932   1.612  15.058  0.3985  0.2145 -0.0770
  825MPD2    C112133   2.862   1.663  15.165  0.3415  0.2833 -0.1423
  825MPD2    C212134   2.890   1.793  15.212 -0.6486  0.7406  0.0239
  825MPD2    C312135   2.978   1.875  15.142  0.7308 -1.0370 -0.0355
  825MPD2    C412136   3.051   1.821  15.041 -0.0748  0.1788  0.0690
  825MPD2    C512137   3.023   1.694  14.999  0.2049 -0.4621  0.0983
  825MPD2     H12138   2.830   1.826  15.296  1.7263 -0.7879  2.2807
  825MPD2    H112139   3.121   1.880  14.984 -0.2359  0.1889 -0.1166
  825MPD2    H212140   2.920   1.508  15.031  2.3020  0.4296 -1.7696
  825MPD2    H312141   3.085   1.657  14.918 -2.6989 -3.6493 -0.6534
  825MPD2     N12142   3.008   2.008  15.161  0.2668  0.0350 -0.4987
  825MPD2    H512143   3.089   2.034  15.106  1.1442 -1.6883 -0.0466
  825MPD2    N112144   2.769   1.576  15.225 -0.1238  0.2027 -1.1251
  825MPD2    H712145   2.764   1.484  15.182 -1.4565  0.1117 -0.8016
  826MPD2     C12146   3.080   1.991  13.493 -0.3577 -0.2411  0.4399
  826MPD2    C112147   3.004   1.881  13.473  0.3495 -0.4739  0.5491
  826MPD2    C212148   2.867   1.899  13.458  0.1834  0.4616  0.5390
  826MPD2    C312149   2.803   2.021  13.467 -0.2114  0.6735 -0.0249
  826MPD2    C412150   2.884   2.124  13.499 -0.1733  0.2223 -0.3792
  826MPD2    C512151   3.019   2.108  13.505  0.0713 -0.2234  0.4509
  826MPD2     H12152   2.796   1.817  13.458  0.0827  0.5463 -2.7102
  826MPD2    H112153   2.846   2.223  13.523 -0.3173  0.0511  0.1071
  826MPD2    H212154   3.186   1.975  13.507 -0.6637 -2.2068  0.4727
  826MPD2    H312155   3.073   2.198  13.532 -1.3445  0.2633  1.6511
  826MPD2     N12156   2.662   2.045  13.457 -0.9881 -0.3506 -0.2865
  826MPD2    H512157   2.635   2.142  13.463 -0.5791 -0.3580  1.6535
  826MPD2    N112158   3.072   1.756  13.473  0.3316 -0.4908  0.3794
  826MPD2    H712159   3.170   1.755  13.497  0.6868 -0.7187 -1.0704
  827MPD2     C12160   3.556   2.744   9.614 -0.0212  0.4287  0.1642
  827MPD2    C112161   3.505   2.640   9.686 -0.1019 -0.0589  0.1153
  827MPD2    C212162   3.471   2.523   9.619 -0.0675  0.0109  0.6244
  827MPD2    C312163   3.469   2.514   9.483 -0.2204 -0.1015  0.8459
  827MPD2    C412164   3.511   2.622   9.413 -0.0967  0.2870  0.1320
  827MPD2    C512165   3.556   2.735   9.476  0.3216  0.6398 -0.2777
  827MPD2     H12166   3.432   2.437   9.672  0.4583 -0.6759 -0.1086
  827MPD2    H112167   3.526   2.615   9.306 -0.0776  1.3647  0.0658
  827MPD2    H212168   3.600   2.832   9.661  2.7782 -0.8072 -0.1461
  827MPD2    H312169   3.587   2.818   9.413  0.5021  2.5391  2.3147
  827MPD2     N12170   3.413   2.399   9.432 -0.4472  0.2062 -0.2150
  827MPD2    H512171   3.389   2.325   9.497 -2.1859 -0.1047 -1.2209
  827MPD2    N112172   3.496   2.656   9.827  0.0018 -0.3470  0.0421
  827MPD2    H712173   3.518   2.749   9.860  1.0390  0.3293 -2.5092
  828MPD2     C12174   1.962   2.896  11.951  0.3987  0.0379  0.5984
  828MPD2    C112175   1.841   2.885  11.881 -0.2522  0.1346 -0.3197
  828MPD2    C212176   1.851   2.878  11.741  0.0279 -0.5089  0.2394
  828MPD2    C312177   1.977   2.894  11.676 -0.1611 -0.3493  0.4497
  828MPD2    C412178   2.090   2.908  11.755  0.1359  0.2299  0.0209
  828MPD2    C512179   2.080   2.907  11.886  0.8848 -0.1706 -0.4637
  828MPD2     H12180   1.760   2.871  11.683 -0.5537 -0.1521  1.1010
  828MPD2    H112181   2.187   2.929  11.711  0.1142  1.1878  0.4145
  828MPD2    H212182   1.969   2.902  12.059  0.2981 -0.7663  0.6463
  828MPD2    H312183   2.175   2.902  11.939  0.6505 -0.3298 -0.0591
  828MPD2     N12184   1.988   2.910  11.540  0.0294  0.2214  0.3863
  828MPD2    H512185   2.075   2.940  11.498  0.3796 -0.8978  0.3033
  828MPD2    N112186   1.711   2.885  11.941 -0.1964 -0.1429  0.1190
  828MPD2    H712187   1.633   2.865  11.880 -0.3212  0.1927  0.1698
  829MPD2     C12188   1.277   3.383  11.443 -0.5062  0.4682 -0.5906
  829MPD2    C112189   1.180   3.318  11.508 -0.2185  1.1575 -0.8139
  829MPD2    C212190   1.208   3.262  11.637 -0.6641 -0.4492  0.5382
  829MPD2    C312191   1.334   3.288  11.696 -0.5710 -0.1433 -0.0243
  829MPD2    C412192   1.422   3.359  11.626 -0.6822 -0.5480  0.0110
  829MPD2    C512193   1.400   3.406  11.505 -0.0304  0.1629  0.4681
  829MPD2     H12194   1.132   3.207  11.691 -0.4496 -1.2268  0.0370
  829MPD2    H112195   1.512   3.395  11.675 -0.7841  0.3647 -0.4785
  829MPD2    H212196   1.253   3.413  11.342 -2.6001  0.1383 -0.1836
  829MPD2    H312197   1.477   3.450  11.443  0.6214 -2.0412 -0.2791
  829MPD2     N12198   1.369   3.233  11.823 -0.5532  0.1620 -0.2850
  829MPD2    H512199   1.463   3.244  11.860 -0.8669 -1.4705  1.0214
  829MPD2    N112200   1.059   3.291  11.440 -0.5308  0.1769  0.1031
  829MPD2    H712201   1.063   3.326  11.345 -2.0270  0.5207  0.1712
  830MPD2     C12202   1.481   0.021  15.795 -0.8142  0.5997 -0.2706
  830MPD2    C112203   1.431   0.129  15.724 -0.2274 -0.0806 -0.4911
  830MPD2    C212204   1.454   0.140  15.588  0.6032  0.0461  0.2785
  830MPD2    C312205   1.522   0.035  15.522  0.0426 -0.4697  0.4947
  830MPD2    C412206   1.552   4.643  15.585  1.1477  0.1309 -0.0683
  830MPD2    C512207   1.535   4.636  15.724 -0.3287  0.2031  0.1054
  830MPD2     H12208   1.431   0.232  15.535  1.1824 -1.1475 -1.9895
  830MPD2    H112209   1.590   4.554  15.537 -0.4582 -0.6682  0.1548
  830MPD2    H212210   1.475   0.010  15.902 -2.8146  0.7006 -0.3662
  830MPD2    H312211   1.560   4.541  15.770  0.3133 -0.3876 -1.4539
  830MPD2     N12212   1.540   0.035  15.384  0.1087  0.3330 -0.1321
  830MPD2    H512213   1.576   4.676  15.339  0.3765 -0.8363  2.2353
  830MPD2    N112214   1.379   0.243  15.785 -0.2739 -0.0929 -0.4672
  830MPD2    H712215   1.374   0.231  15.886 -1.3804  0.0354 -0.5001
  831MPD2     C12216   1.656   2.742  16.217  0.9610  0.5234 -0.3075
  831MPD2    C112217   1.659   2.672  16.095  0.6787  0.5388 -0.0207
  831MPD2    C212218   1.546   2.598  16.061  0.2186 -0.0258  0.8427
  831MPD2    C312219   1.434   2.603  16.138  0.2046 -0.4510 -0.3960
  831MPD2    C412220   1.435   2.666  16.257  0.5738  0.7843 -0.7401
  831MPD2    C512221   1.549   2.726  16.297  0.0684  0.2302 -0.6142
  831MPD2     H12222   1.537   2.539  15.971 -0.2048  0.6310  0.4505
  831MPD2    H112223   1.359   2.652  16.334 -0.0140 -3.3406 -2.0854
  831MPD2    H212224   1.739   2.800  16.257  1.5581  0.4240 -1.3860
  831MPD2    H312225   1.539   2.772  16.395 -3.5634 -1.8961  0.0259
  831MPD2     N12226   1.319   2.522  16.106 -0.6090  0.2021  0.1259
  831MPD2    H512227   1.240   2.538  16.168 -0.5456  0.4521  0.1421
  831MPD2    N112228   1.771   2.678  16.014 -0.0952  0.5639  0.2476
  831MPD2    H712229   1.854   2.716  16.059  0.4580 -0.9524  0.4839
  832MPD2     C12230   0.317   3.578  17.368 -0.1093  0.5534 -0.2042
  832MPD2    C112231   0.294   3.706  17.330  0.3026 -0.3138  0.0851
  832MPD2    C212232   0.203   3.739  17.236  0.1954 -0.3340  0.4323
  832MPD2    C312233   0.120   3.642  17.183  0.2542 -0.0846  0.4645
  832MPD2    C412234   0.134   3.513  17.229  0.4767 -0.2702  0.0876
  832MPD2    C512235   0.234   3.483  17.322  0.2665 -0.0213  0.1367
  832MPD2     H12236   0.196   3.836  17.189 -1.4726  0.3822  2.1850
  832MPD2    H112237   0.078   3.430  17.187  1.8091 -1.4360  0.5916
  832MPD2    H212238   0.393   3.557  17.442 -1.0824 -1.6729  0.1572
  832MPD2    H312239   0.250   3.387  17.370 -1.0292 -0.1069  0.4116
  832MPD2     N12240   0.018   3.665  17.086 -0.2462  0.2861 -0.3163
  832MPD2    H512241   4.696   3.580  17.055 -1.1006  0.4780  0.4457
  832MPD2    N112242   0.382   3.802  17.386 -0.6734 -0.4443  0.2599
  832MPD2    H712243   0.473   3.767  17.417 -0.5638 -1.9979 -1.7857
  833MPD2     C12244   2.498   0.460  12.425  0.2871  0.6843  0.2159
  833MPD2    C112245   2.526   0.526  12.307 -0.0700 -0.0143  0.3776
  833MPD2    C212246   2.631   0.475  12.231 -0.7232 -0.5017 -0.0723
  833MPD2    C312247   2.695   0.364  12.271 -0.5515 -0.0687  0.5358
  833MPD2    C412248   2.670   0.300  12.391  0.4597 -0.2329 -0.2854
  833MPD2    C512249   2.574   0.358  12.468 -0.9036  0.1617  0.3685
  833MPD2     H12250   2.655   0.515  12.132  1.7028 -2.3120 -0.1984
  833MPD2    H112251   2.729   0.215  12.423  0.2717  0.1684  1.1207
  833MPD2    H212252   2.411   0.483  12.486  0.6946 -0.9609  1.3972
  833MPD2    H312253   2.555   0.307  12.562 -3.5030 -0.0447 -0.2758
  833MPD2     N12254   2.792   0.301  12.189  0.1509  0.3741  0.6231
  833MPD2    H512255   2.824   0.209  12.218  0.1421 -0.1855 -1.1213
  833MPD2    N112256   2.448   0.639  12.273 -0.7124  0.1645  0.8496
  833MPD2    H712257   2.373   0.662  12.338  1.0330  3.4198  1.7258
  834MPD2     C12258   2.594   4.273  11.568 -0.5459 -0.4911  0.2756
  834MPD2    C112259   2.605   4.376  11.476 -0.2701  0.0024  0.0155
  834MPD2    C212260   2.658   4.493  11.527  0.1171  0.1971 -0.0770
  834MPD2    C312261   2.685   4.514  11.660  0.4707  0.5571 -0.5993
  834MPD2    C412262   2.670   4.410  11.755 -0.5611 -0.2315 -0.0084
  834MPD2    C512263   2.621   4.289  11.706 -0.2133  0.3024  0.3067
  834MPD2     H12264   2.682   4.578  11.465  0.1190  1.0689  1.1232
  834MPD2    H112265   2.692   4.419  11.860 -0.2720  2.9137 -0.3509
  834MPD2    H212266   2.563   4.173  11.541  0.4992 -0.9461  0.7601
  834MPD2    H312267   2.613   4.209  11.779  4.1824  0.0898  0.5708
  834MPD2     N12268   2.733   4.646  11.698  0.4285  0.4991  0.3238
  834MPD2    H512269   2.742   4.713  11.623 -1.6723 -0.9228 -1.2305
  834MPD2    N112270   2.579   4.355  11.342  0.4628 -0.8763  0.2743
  834MPD2    H712271   2.547   4.261  11.321 -0.7987 -0.7668  1.6564
  835MPD2     C12272   2.600   2.594  11.020 -0.1019  0.0736 -0.2809
  835MPD2    C112273   2.544   2.715  10.994  0.6690  0.0792  1.0193
  835MPD2    C212274   2.574   2.805  11.091 -0.5636 -0.1646 -0.2245
  835MPD2    C312275   2.672   2.781  11.190 -0.4171 -0.2182  0.1960
  835MPD2    C412276   2.743   2.662  11.203 -0.4406  0.1406  1.4650
  835MPD2    C512277   2.692   2.563  11.121  0.3473 -0.4300 -0.3616
  835MPD2     H12278   2.522   2.899  11.078  1.0707  0.1768 -4.0830
  835MPD2    H112279   2.808   2.641  11.286  0.8448  0.9354  0.6559
  835MPD2    H212280   2.578   2.512  10.952  1.8242 -1.3690  0.8380
  835MPD2    H312281   2.738   2.465  11.129 -0.1156 -0.5755  0.4773
  835MPD2     N12282   2.708   2.879  11.288  0.4751 -0.6185  0.6427
  835MPD2    H512283   2.757   2.846  11.370 -0.8641 -1.3937  1.1367
  835MPD2    N112284   2.449   2.730  10.890 -0.8406 -0.0889  0.0948
  835MPD2    H712285   2.408   2.823  10.892  1.8893  1.1399 -1.7105
  836MPD2     C12286   2.353   3.574  11.430  0.4453  0.1324  0.0629
  836MPD2    C112287   2.415   3.495  11.516  1.0477  0.0846 -0.2939
  836MPD2    C212288   2.346   3.443  11.623 -0.2261 -0.4021 -0.4343
  836MPD2    C312289   2.212   3.481  11.642 -0.4046  0.2801 -0.6498
  836MPD2    C412290   2.152   3.566  11.552  0.4183 -0.6421 -0.5241
  836MPD2    C512291   2.225   3.615  11.451 -0.1074 -0.6310 -0.2866
  836MPD2     H12292   2.392   3.374  11.694  0.5174 -0.3240 -0.8359
  836MPD2    H112293   2.048   3.593  11.565  0.3676 -0.6026 -1.0275
  836MPD2    H212294   2.396   3.607  11.336  0.2509  0.4222  0.0753
  836MPD2    H312295   2.176   3.691  11.391  0.8308  1.0835  1.0999
  836MPD2     N12296   2.136   3.438  11.755 -0.4057  0.9536 -0.0823
  836MPD2    H512297   2.037   3.460  11.759  0.1809  3.6314 -0.1728
  836MPD2    N112298   2.549   3.446  11.494  0.1882  0.2818  0.7341
  836MPD2    H712299   2.591   3.476  11.406 -1.0283  0.2216  0.1420
  837MPD2     C12300   1.084   2.685   9.759 -0.1863  0.1982 -0.1372
  837MPD2    C112301   0.986   2.698   9.661  0.5208  0.0376 -0.2702
  837MPD2    C212302   0.986   2.818   9.601 -0.6836  0.1027 -0.2788
  837MPD2    C312303   1.090   2.916   9.611  0.3349  0.3876 -0.4274
  837MPD2    C412304   1.189   2.894   9.702 -0.5470  0.1786 -0.1456
  837MPD2    C512305   1.180   2.786   9.783 -0.3829 -0.1810 -0.2680
  837MPD2     H12306   0.902   2.838   9.535 -1.0115  0.7464  0.3281
  837MPD2    H112307   1.273   2.963   9.709 -0.9491  0.5693  0.7681
  837MPD2    H212308   1.090   2.607   9.834 -0.5294  1.4302  1.1627
  837MPD2    H312309   1.248   2.783   9.866 -0.2365 -3.3605 -0.5167
  837MPD2     N12310   1.097   3.009   9.512  0.0192 -0.3320 -0.0257
  837MPD2    H512311   1.026   3.005   9.440  0.0939  0.4197 -0.1390
  837MPD2    N112312   0.877   2.609   9.625 -0.0797 -0.2989  0.0731
  837MPD2    H712313   0.821   2.635   9.544  0.1180 -1.0175 -0.2950
  838MPD2     C12314   4.571   1.004  11.221  0.1742  0.3947 -0.5004
  838MPD2    C112315   4.480   0.904  11.231  0.4552 -0.7965 -0.2944
  838MPD2    C212316   4.432   0.870  11.354 -0.5648 -0.0026 -0.0760
  838MPD2    C312317   4.460   0.939  11.468  0.0972 -0.4104  0.1017
  838MPD2    C412318   4.546   1.043  11.461 -0.6103 -0.7667 -0.5385
  838MPD2    C512319   4.602   1.073  11.335  0.0440 -0.2056  0.0407
  838MPD2     H12320   4.362   0.788  11.362  2.6584 -2.7004  0.1677
  838MPD2    H112321   4.586   1.101  11.543  1.2844  0.0381 -2.0214
  838MPD2    H212322   4.614   1.039  11.128  0.2155  2.4065  0.2522
  838MPD2    H312323   4.678   1.150  11.329  1.5611 -1.6794  0.0333
  838MPD2     N12324   4.393   0.923  11.590 -0.2284 -0.6228  0.2267
  838MPD2    H512325   4.416   0.987  11.665  0.7607 -1.5836  0.7403
  838MPD2    N112326   4.434   0.833  11.116  0.2458 -0.0959  0.4031
  838MPD2    H712327   4.378   0.749  11.128 -0.5392  0.0656 -2.1891
  839MPD2     C12328   3.632   0.764  11.139  0.2015 -0.7665  0.1084
  839MPD2    C112329   3.649   0.668  11.041 -0.1803  0.7824 -0.2066
  839MPD2    C212330   3.773   0.665  10.985  0.1333  0.3176 -0.7019
  839MPD2    C312331   3.865   0.757  11.020 -0.3796  0.2041  0.0882
  839MPD2    C412332   3.844   0.852  11.110 -0.1806 -0.1133  0.0006
  839MPD2    C512333   3.727   0.854  11.174  0.3070  0.4450  0.0356
  839MPD2     H12334   3.796   0.587  10.914  1.0675 -1.3026  1.3655
  839MPD2    H112335   3.920   0.928  11.127  0.7494 -1.1249  0.3583
  839MPD2    H212336   3.539   0.768  11.196  0.5252 -1.5986  0.6995
  839MPD2    H312337   3.709   0.931  11.248  0.1122  0.6764 -0.2570
  839MPD2     N12338   3.993   0.759  10.958  0.6371  0.0552 -0.0312
  839MPD2    H512339   4.051   0.837  10.987 -2.4534  2.0555  0.6932
  839MPD2    N112340   3.561   0.557  11.025  0.0332  0.2177 -0.2673
  839MPD2    H712341   3.596   0.495  10.952  1.2413  0.4059  0.1491
  840MPD2     C12342   3.881   3.040  10.062 -0.5557 -0.5553  0.0950
  840MPD2    C112343   3.866   2.954  10.173  0.4365  0.1029  0.5857
  840MPD2    C212344   3.917   2.985  10.297  0.5795 -0.2718  0.4052
  840MPD2    C312345   4.003   3.091  10.305  0.6787 -0.0732 -0.7057
  840MPD2    C412346   4.021   3.177  10.202  0.0396  0.2080  0.7961
  840MPD2    C512347   3.972   3.150  10.080  0.4687  1.0542  0.5180
  840MPD2     H12348   3.892   2.926  10.384  3.0403 -0.5366  0.9210
  840MPD2    H112349   4.074   3.268  10.226  0.2348  0.0036  1.1387
  840MPD2    H212350   3.834   3.035   9.964 -0.9899 -0.2827  0.2911
  840MPD2    H312351   3.982   3.213   9.993  1.6492  1.8170  1.2089
  840MPD2     N12352   4.068   3.124  10.424 -0.1618 -0.2607  0.4897
  840MPD2    H512353   4.112   3.216  10.420  2.3775 -1.5164 -0.5032
  840MPD2    N112354   3.780   2.841  10.153 -0.0608  0.7213  0.0187
  840MPD2    H712355   3.726   2.841  10.067  1.3796 -0.9808 -0.8858
  841MPD2     C12356   3.493   3.021  14.055 -0.4968  0.2061  0.7068
  841MPD2    C112357   3.562   2.934  14.137 -0.1274 -0.6135 -0.6671
  841MPD2    C212358   3.689   2.962  14.185 -0.7547  0.1971  0.4914
  841MPD2    C312359   3.756   3.065  14.121 -0.0557  0.4581  0.1472
  841MPD2    C412360   3.691   3.152  14.036  0.0347 -0.0646  0.3056
  841MPD2    C512361   3.559   3.132  14.010 -0.0534 -0.6063 -0.7488
  841MPD2     H12362   3.734   2.894  14.256 -0.0987  0.0072 -0.1106
  841MPD2    H112363   3.733   3.235  13.980  0.9852  0.2533  1.4924
  841MPD2    H212364   3.390   3.004  14.026 -1.2810  0.8281  3.0742
  841MPD2    H312365   3.517   3.201  13.937  0.6544  2.0047  1.3194
  841MPD2     N12366   3.894   3.076  14.138 -0.3239  0.0879 -0.1246
  841MPD2    H512367   3.931   3.016  14.212  0.2209  1.1127  0.4415
  841MPD2    N112368   3.498   2.820  14.192 -0.2253  0.3747  0.6926
  841MPD2    H712369   3.552   2.760  14.254  0.4071 -0.9991 -1.1754
  842MPD2     C12370   3.728   3.644  16.093  0.5299 -0.3410  1.1246
  842MPD2    C112371   3.762   3.756  16.152 -0.0774  0.0430  0.0521
  842MPD2    C212372   3.720   3.785  16.279 -0.5614 -0.7582  1.0770
  842MPD2    C312373   3.641   3.695  16.350  0.1730  0.2907 -0.2304
  842MPD2    C412374   3.604   3.571  16.286 -0.0026  0.4523 -0.4739
  842MPD2    C512375   3.656   3.547  16.158  0.1906 -0.2233  0.8974
  842MPD2     H12376   3.728   3.889  16.309 -1.2550 -0.2805 -0.3638
  842MPD2    H112377   3.544   3.496  16.335  3.8222 -1.3306  1.4877
  842MPD2    H212378   3.744   3.625  15.988 -2.8702 -1.5619  0.8174
  842MPD2    H312379   3.638   3.454  16.104  2.3014 -2.8938  4.8396
  842MPD2     N12380   3.590   3.730  16.471  0.3543  0.1242 -0.3661
  842MPD2    H512381   3.530   3.662  16.518  1.1183  0.0308  0.4620
  842MPD2    N112382   3.822   3.862  16.084  0.2355  0.3793 -0.4995
  842MPD2    H712383   3.823   3.951  16.134  0.1543  1.0646 -1.7244
  843MPD2     C12384   1.057   4.144  17.612 -0.3505 -0.9033  0.4169
  843MPD2    C112385   1.163   4.082  17.673  0.0216 -0.2964  0.6668
  843MPD2    C212386   1.265   4.158   0.022 -0.3066  0.7904 -0.2444
  843MPD2    C312387   1.255   4.296   0.019  0.2806  0.1946 -0.0925
  843MPD2    C412388   1.147   4.357  17.663 -0.7373 -0.1809  0.1957
  843MPD2    C512389   1.045   4.281  17.609 -0.7080 -0.2860 -0.2956
  843MPD2     H12390   1.351   4.108   0.063  0.0507  1.8990  0.3561
  843MPD2    H112391   1.125   4.463  17.669  2.3001  0.6712 -3.1139
  843MPD2    H212392   0.974   4.090  17.568  1.1147 -1.5020 -1.6374
  843MPD2    H312393   0.950   4.322  17.575 -1.5463 -0.6582  1.6316
  843MPD2     N12394   1.350   4.382   0.074  0.8233 -0.1975 -0.6500
  843MPD2    H512395   1.326   4.478   0.051  1.3344  0.4106  1.4283
  843MPD2    N112396   1.160   3.938  17.678  0.7152  0.2592  0.4589
  843MPD2    H712397   1.076   3.896  17.642  0.1288  1.6071  0.2399
  844MPD2     C12398   4.398   3.479  16.127 -0.6766 -0.0588 -0.6326
  844MPD2    C112399   4.433   3.363  16.200  0.5290 -0.2582 -0.5818
  844MPD2    C212400   4.503   3.390  16.316  0.0986 -0.1159 -0.7344
  844MPD2    C312401   4.546   3.519  16.352 -0.1086 -0.0264  0.3139
  844MPD2    C412402   4.519   3.629  16.269 -0.2459 -0.4285 -0.3201
  844MPD2    C512403   4.437   3.609  16.155  0.1874 -0.2428 -0.7724
  844MPD2     H12404   4.531   3.310  16.385  0.4580 -0.6479 -1.5000
  844MPD2    H112405   4.555   3.728  16.294  1.9453 -1.1370 -0.6454
  844MPD2    H212406   4.340   3.470  16.036 -2.3243 -1.2448  0.5365
  844MPD2    H312407   4.399   3.697  16.104 -0.2364 -0.1112 -0.2336
  844MPD2     N12408   4.615   3.541  16.473 -0.4708 -0.3775  0.1893
  844MPD2    H512409   4.664   3.458  16.505 -0.1801  0.0257  0.7943
  844MPD2    N112410   4.411   3.234  16.151 -0.0540  0.6240  0.2194
  844MPD2    H712411   4.436   3.165  16.220 -0.7620  0.1886  0.0364
  845MPD2     C12412   0.092   4.519  16.647 -0.1828 -1.2382 -0.5188
  845MPD2    C112413   0.182   4.447  16.732 -0.6456  1.1688 -0.3267
  845MPD2    C212414   0.188   4.307  16.729  0.4936  0.2890 -0.0977
  845MPD2    C312415   0.109   4.233  16.647 -0.4471  0.4233  0.1090
  845MPD2    C412416   0.034   4.312  16.563 -0.0303  0.0293  0.2042
  845MPD2    C512417   0.023   4.447  16.561 -0.5148 -0.1404  0.1415
  845MPD2     H12418   0.243   4.260  16.810 -0.3961 -1.0146 -0.2389
  845MPD2    H112419   4.703   4.265  16.482 -0.2653 -2.6028  1.8983
  845MPD2    H212420   0.081   4.626  16.654 -2.0716 -1.4949  0.4374
  845MPD2    H312421   4.690   4.495  16.483  1.0988  0.8357 -0.4354
  845MPD2     N12422   0.110   4.090  16.642  0.2673 -0.6726 -0.0826
  845MPD2    H512423   0.044   4.058  16.572  0.6929  1.9778 -1.6957
  845MPD2    N112424   0.255   4.523  16.829 -0.3910  0.6746  0.0770
  845MPD2    H712425   0.244   4.624  16.820 -1.8414  0.6880  2.0677
  846MPD2     C12426   1.741   0.040  13.457 -0.0535 -0.5324  0.2513
  846MPD2    C112427   1.631   0.123  13.467 -0.0078  0.3500 -0.2818
  846MPD2    C212428   1.581   0.140  13.598  0.1029  0.0563 -0.0959
  846MPD2    C312429   1.629   0.078  13.708 -0.5397 -0.1256 -0.1051
  846MPD2    C412430   1.738   4.720  13.693 -0.2560  0.1476 -0.0495
  846MPD2    C512431   1.795   4.702  13.569 -0.4642 -0.0416  1.0087
  846MPD2     H12432   1.489   0.196  13.606  1.3675  1.7288  2.5733
  846MPD2    H112433   1.794   4.678  13.776  0.4361 -0.0330 -0.6022
  846MPD2    H212434   1.788   0.015  13.362  1.0417  1.1509  0.3472
  846MPD2    H312435   1.883   4.640  13.566  1.7334  3.0857 -0.0040
  846MPD2     N12436   1.574   0.119  13.827 -0.5455  0.4043  0.2380
  846MPD2    H512437   1.490   0.176  13.824 -2.4794 -2.2975  2.8941
  846MPD2    N112438   1.587   0.197  13.355 -0.0325 -0.4021 -0.1476
  846MPD2    H712439   1.528   0.276  13.379 -0.7800 -1.1260  0.3873
  847MPD2     C12440   2.016   1.175  14.161 -0.0035 -0.1428  0.0534
  847MPD2    C112441   1.914   1.120  14.235 -0.1718 -0.2553  1.1205
  847MPD2    C212442   1.930   0.989  14.280  0.2452  0.4769  0.4490
  847MPD2    C312443   2.049   0.924  14.251  0.5167  0.4876 -0.6088
  847MPD2    C412444   2.156   0.979  14.187 -0.2238 -0.0124 -0.6947
  847MPD2    C512445   2.137   1.112  14.140  0.5052  0.3930  0.3887
  847MPD2     H12446   1.858   0.951  14.352 -1.0579  0.3470 -0.9158
  847MPD2    H112447   2.255   0.935  14.177 -0.3230 -0.6008  0.9070
  847MPD2    H212448   2.012   1.280  14.136 -1.5457 -0.7685 -2.2745
  847MPD2    H312449   2.219   1.167  14.095 -0.4741  0.8834 -0.8137
  847MPD2     N12450   2.077   0.794  14.304  0.0299  0.3602  0.1425
  847MPD2    H512451   2.172   0.762  14.322 -1.2573 -3.0492  0.9297
  847MPD2    N112452   1.802   1.191  14.278  0.0579 -0.0573  0.0953
  847MPD2    H712453   1.744   1.144  14.347 -0.2298 -0.7858 -0.6441
  848MPD2     C12454   4.503   4.080  16.404  0.3024  0.9334 -0.6105
  848MPD2    C112455   4.452   4.115  16.525  0.0232 -0.4317  0.8632
  848MPD2    C212456   4.428   4.250  16.550 -0.2402  0.5653  1.0133
  848MPD2    C312457   4.447   4.348  16.454  0.1508 -0.4107  0.7385
  848MPD2    C412458   4.490   4.308  16.329  0.1114  0.4517  0.3199
  848MPD2    C512459   4.524   4.175  16.305 -0.6445 -0.2945 -0.1015
  848MPD2     H12460   4.376   4.288  16.637 -1.6702 -1.1307  0.9173
  848MPD2    H112461   4.512   4.387  16.259  1.7987 -0.3086  0.0027
  848MPD2    H212462   4.523   3.977  16.377  0.3050  0.9891 -0.8259
  848MPD2    H312463   4.564   4.143  16.209  0.3492  2.2263 -0.5319
  848MPD2     N12464   4.416   4.484  16.464 -0.1799 -0.0183 -0.1872
  848MPD2    H512465   4.414   4.542  16.381  2.1539 -0.2306 -0.3818
  848MPD2    N112466   4.437   4.016  16.626  0.7061  0.1732 -0.5103
  848MPD2    H712467   4.441   3.918  16.603 -0.7602  0.0154 -0.1168
  849MPD2     C12468   3.466   3.635  13.800  0.8839  0.2566 -0.1347
  849MPD2    C112469   3.553   3.680  13.705  0.1174 -0.4323  0.7843
  849MPD2    C212470   3.684   3.640  13.717  1.4277 -0.1161  0.9699
  849MPD2    C312471   3.729   3.560  13.821  0.4179  0.2825 -0.4258
  849MPD2    C412472   3.636   3.525  13.921  0.0003 -0.3077  0.3900
  849MPD2    C512473   3.508   3.562  13.909 -0.5063  0.1813  0.0653
  849MPD2     H12474   3.742   3.668  13.630 -0.2862  1.5158  0.3732
  849MPD2    H112475   3.667   3.465  14.006  0.6968  1.1351  1.1504
  849MPD2    H212476   3.362   3.665  13.789  1.4601  1.9766 -0.8578
  849MPD2    H312477   3.445   3.524  13.989  0.1839 -0.7334  0.1713
  849MPD2     N12478   3.857   3.499  13.829 -0.4919  0.4136 -0.1511
  849MPD2    H512479   3.880   3.469  13.923 -1.6645  0.4802  0.1570
  849MPD2    N112480   3.505   3.755  13.597 -0.0811  0.1360  0.6154
  849MPD2    H712481   3.405   3.760  13.581 -0.1025 -0.2945  0.6262
  850MPD2     C12482   2.461   1.174  14.908  0.4742  0.2831  0.4428
  850MPD2    C112483   2.360   1.265  14.934 -0.1399  0.4931 -0.5654
  850MPD2    C212484   2.401   1.396  14.949 -0.0612  0.5336 -0.2796
  850MPD2    C312485   2.526   1.442  14.914  0.5812 -0.0622  0.4659
  850MPD2    C412486   2.622   1.349  14.861  0.1997  0.7393 -0.0138
  850MPD2    C512487   2.585   1.215  14.864  0.3460  0.4444 -0.4683
  850MPD2     H12488   2.322   1.464  14.979 -2.3887 -2.2458 -0.1199
  850MPD2    H112489   2.724   1.382  14.842  0.6331 -0.5825  0.0339
  850MPD2    H212490   2.436   1.068  14.908  2.2727 -0.1389  1.2007
  850MPD2    H312491   2.657   1.136  14.845  0.8851  1.2994 -1.9555
  850MPD2     N12492   2.560   1.581  14.918  0.2522  0.3230  0.3556
  850MPD2    H512493   2.658   1.599  14.897  0.0111  1.4304  0.1497
  850MPD2    N112494   2.224   1.215  14.960  0.0244 -0.3925  0.0543
  850MPD2    H712495   2.220   1.114  14.965 -0.8225 -0.3347  0.4818
  851MPD2     C12496   2.124   0.704  15.249  0.4206 -0.0644  0.1099
  851MPD2    C112497   2.001   0.733  15.190  0.7580 -0.5699  0.5716
  851MPD2    C212498   1.906   0.632  15.177  0.6482  1.2740 -0.1911
  851MPD2    C312499   1.943   0.505  15.182  0.4513 -0.5070 -0.4139
  851MPD2    C412500   2.060   0.472  15.244 -0.2776  0.1858 -0.3497
  851MPD2    C512501   2.145   0.572  15.287  0.1097 -0.0019 -0.0859
  851MPD2     H12502   1.810   0.645  15.128  1.7247  0.9761 -2.3868
  851MPD2    H112503   2.086   0.369  15.268 -1.8631 -0.3966 -1.1084
  851MPD2    H212504   2.193   0.784  15.274 -1.7034  1.0128  2.5889
  851MPD2    H312505   2.235   0.554  15.344  0.4850  0.6115 -0.4834
  851MPD2     N12506   1.852   0.408  15.129  0.1736  0.4262  0.2253
  851MPD2    H512507   1.762   0.444  15.098 -0.1454 -1.6882 -1.3021
  851MPD2    N112508   1.969   0.870  15.160 -0.8422 -0.3810  0.3031
  851MPD2    H712509   2.038   0.941  15.184 -0.2798 -0.4739 -1.0628
  852MPD2     C12510   1.737   3.920   9.686  1.6531  0.1947  0.4335
  852MPD2    C112511   1.872   3.923   9.684  1.2729  0.7389 -0.1767
  852MPD2    C212512   1.938   4.032   9.640 -0.3651 -0.1737  0.1468
  852MPD2    C312513   1.867   4.134   9.578 -0.4371 -0.2415 -0.3004
  852MPD2    C412514   1.726   4.126   9.558 -0.0576 -0.1616 -0.0839
  852MPD2    C512515   1.665   4.022   9.622 -0.7296 -0.2935  0.7859
  852MPD2     H12516   2.044   4.042   9.660 -0.0464 -4.1877  0.4518
  852MPD2    H112517   1.662   4.197   9.508  0.3423  0.3157  0.0812
  852MPD2    H212518   1.680   3.845   9.739  1.2894 -2.4508 -3.7039
  852MPD2    H312519   1.557   4.018   9.632 -0.5336 -0.2904  2.9357
  852MPD2     N12520   1.946   4.246   9.541  0.5484  0.0289 -0.3536
  852MPD2    H512521   2.040   4.258   9.578  0.2726 -1.3018  0.8076
  852MPD2    N112522   1.949   3.828   9.753  0.3568  0.4152  1.0619
  852MPD2    H712523   2.049   3.848   9.748  0.1930  1.2575  1.1985
  853MPD2     C12524   2.836   4.084  12.336 -0.0477 -0.7439 -0.2938
  853MPD2    C112525   2.924   4.181  12.293 -0.1365 -0.4964 -0.6796
  853MPD2    C212526   2.954   4.181  12.156  0.4654 -0.4204 -0.5944
  853MPD2    C312527   2.884   4.099  12.069  0.5231  0.2176 -0.1877
  853MPD2    C412528   2.788   4.011  12.116 -0.0814 -0.2696 -0.5228
  853MPD2    C512529   2.764   3.999  12.253 -0.2306 -0.6056  0.2532
  853MPD2     H12530   3.024   4.251  12.112 -1.1688  1.1794 -0.6428
  853MPD2    H112531   2.727   3.956  12.046 -0.1649 -0.6303 -0.1669
  853MPD2    H212532   2.810   4.081  12.441 -0.2198  0.2279 -0.3133
  853MPD2    H312533   2.676   3.947  12.289 -0.4599 -0.9007 -0.7403
  853MPD2     N12534   2.913   4.088  11.930  0.3663 -0.3732 -0.9477
  853MPD2    H512535   2.840   4.034  11.884  0.9521 -0.7384 -1.4341
  853MPD2    N112536   2.989   4.263  12.390  0.3317  0.4050 -0.5303
  853MPD2    H712537   2.984   4.253  12.491  1.8480 -1.2778 -0.6268
  854MPD2     C12538   0.978   4.599  12.537  0.2984  0.0561  0.0792
  854MPD2    C112539   0.853   4.568  12.497  0.4067 -0.1649 -0.0948
  854MPD2    C212540   0.791   4.463  12.560 -0.7280  0.0971 -0.2696
  854MPD2    C312541   0.844   4.405  12.676  0.7413 -0.5886 -0.6307
  854MPD2    C412542   0.969   4.448  12.723  0.2133  0.3201  0.3782
  854MPD2    C512543   1.034   4.541  12.645 -0.0559 -0.3446 -0.0306
  854MPD2     H12544   0.694   4.436  12.522  0.0145  0.4683 -2.4489
  854MPD2    H112545   1.019   4.420  12.815  0.4774  0.0742  0.1600
  854MPD2    H212546   1.037   4.680  12.497  2.0281 -0.1921  2.1136
  854MPD2    H312547   1.130   4.575  12.681 -0.3304 -0.3253  0.6965
  854MPD2     N12548   0.787   4.296  12.746 -0.3448  0.0984  0.7031
  854MPD2    H512549   0.836   4.262  12.828 -1.8359  1.2127  2.0517
  854MPD2    N112550   0.782   4.636  12.397 -0.8597 -0.0554  0.1278
  854MPD2    H712551   0.681   4.627  12.390 -0.9106 -0.8038  1.8315
  855MPD2     C12552   0.866   4.157  13.580  0.1187 -0.2211 -0.3822
  855MPD2    C112553   0.815   4.035  13.549  0.4902 -0.1945 -0.4801
  855MPD2    C212554   0.754   4.021  13.420  0.3437  0.2828  0.0867
  855MPD2    C312555   0.773   4.118  13.327  0.1563 -0.6478 -0.0057
  855MPD2    C412556   0.821   4.243  13.368 -0.5025 -0.0760  0.1084
  855MPD2    C512557   0.872   4.260  13.493  0.2893  0.1461  0.1187
  855MPD2     H12558   0.708   3.926  13.395  0.2734  0.1344  0.7815
  855MPD2    H112559   0.835   4.322  13.295 -0.1594  0.6109  0.9272
  855MPD2    H212560   0.908   4.182  13.677 -1.8640 -0.5611  0.5796
  855MPD2    H312561   0.919   4.354  13.520  2.7099 -0.0116 -3.6219
  855MPD2     N12562   0.742   4.103  13.192  0.3267 -0.4142  0.4171
  855MPD2    H512563   0.764   4.185  13.137 -1.5021 -0.7196 -0.8045
  855MPD2    N112564   0.797   3.929  13.641  0.4173 -0.1360  0.5486
  855MPD2    H712565   0.736   3.854  13.612  0.2279  0.3812 -0.4096
  856MPD2     C12566   3.077   4.376  13.897  0.5102  0.3071 -0.6083
  856MPD2    C112567   3.150   4.488  13.846 -0.2779  0.1181 -0.3131
  856MPD2    C212568   3.084   4.583  13.774 -0.1324 -0.0289  0.3446
  856MPD2    C312569   2.949   4.578  13.751  0.4118 -0.2749 -0.1833
  856MPD2    C412570   2.876   4.478  13.815 -0.5285 -0.1817  0.3585
  856MPD2    C512571   2.941   4.380  13.891 -0.5347  0.2504  0.5069
  856MPD2     H12572   3.150   4.657  13.732  1.2709 -1.3725  0.1822
  856MPD2    H112573   2.770   4.467  13.798 -0.4624  2.2034 -1.5784
  856MPD2    H212574   3.122   4.294  13.952 -1.8270  1.1799  2.5964
  856MPD2    H312575   2.880   4.301  13.933 -1.7544  1.5189  1.1454
  856MPD2     N12576   2.887   4.674  13.661  0.1042  0.0461  0.1149
  856MPD2    H512577   2.786   4.664  13.654  0.0231 -0.4372  2.0630
  856MPD2    N112578   3.291   4.503  13.858 -0.0659  0.9380  0.2912
  856MPD2    H712579   3.331   4.586  13.816  1.6125 -1.6300 -3.1438
  857MPD2     C12580   4.655   2.508  12.119 -0.1756  0.1895  0.2875
  857MPD2    C112581   4.609   2.454  12.242  0.2126  0.0867 -0.3479
  857MPD2    C212582   4.599   2.543  12.346 -0.5286  0.2956  0.3890
  857MPD2    C312583   4.625   2.681  12.333 -0.6567  0.2858 -0.2466
  857MPD2    C412584   4.657   2.735  12.211  0.3876  0.3118 -0.0737
  857MPD2    C512585   4.675   2.644  12.108  0.4746 -0.2569  0.5038
  857MPD2     H12586   4.589   2.517  12.450 -1.3008 -1.3781 -0.0976
  857MPD2    H112587   4.695   2.836  12.204 -3.7377  2.0207  2.2453
  857MPD2    H212588   4.668   2.448  12.029 -1.2770  0.0969  0.1849
  857MPD2    H312589   4.722   2.682  12.018 -0.5015  0.7061  0.4116
  857MPD2     N12590   4.631   2.760  12.450 -0.9605  0.1626 -0.6608
  857MPD2    H512591   4.639   2.720  12.543 -0.9616  0.8477 -0.3650
  857MPD2    N112592   4.590   2.316  12.258 -0.0910  0.0995  0.5060
  857MPD2    H712593   4.628   2.260  12.182 -0.9914 -0.6093  0.5793
  858MPD2     C12594   4.287   1.263  16.716 -0.2285 -0.6422 -0.4626
  858MPD2    C112595   4.425   1.236  16.722 -0.1377  0.1815 -0.2137
  858MPD2    C212596   4.509   1.312  16.803 -0.1002 -0.2612 -0.4293
  858MPD2    C312597   4.456   1.427  16.870 -0.2381  0.1194 -0.2755
  858MPD2    C412598   4.320   1.452  16.852 -0.4818  0.6132  0.0597
  858MPD2    C512599   4.234   1.373  16.776  0.3324 -0.0224  0.7951
  858MPD2     H12600   4.613   1.284  16.811  0.3231  1.3343 -0.3509
  858MPD2    H112601   4.273   1.538  16.899  4.8570  2.4784  1.9481
  858MPD2    H212602   4.222   1.209  16.649  0.4182 -0.7286 -1.0202
  858MPD2    H312603   4.139   1.422  16.757 -1.0470 -3.4187 -1.0677
  858MPD2     N12604   4.537   1.513  16.947 -0.2537 -0.4731 -0.8688
  858MPD2    H512605   4.487   1.571  17.014 -1.2666 -0.5566 -1.5595
  858MPD2    N112606   4.492   1.143  16.626 -0.2149  0.6677 -0.9170
  858MPD2    H712607   4.593   1.140  16.636 -0.1246 -1.6266 -2.3839
  859MPD2     C12608   3.808   3.115  15.444  0.0662  0.5680 -0.1697
  859MPD2    C112609   3.755   3.106  15.317 -0.6533  0.5183  0.6480
  859MPD2    C212610   3.781   3.001  15.235 -0.0937  0.2797 -0.5018
  859MPD2    C312611   3.866   2.907  15.288  1.3091  0.2607 -0.6396
  859MPD2    C412612   3.937   2.927  15.410  0.4046  0.3858 -0.0816
  859MPD2    C512613   3.902   3.029  15.491  0.4918 -0.0991  0.0572
  859MPD2     H12614   3.738   2.999  15.135  0.7614 -0.2303 -0.8644
  859MPD2    H112615   4.023   2.865  15.429  0.0732 -0.4083 -1.1459
  859MPD2    H212616   3.767   3.191  15.510 -2.4545 -2.7526  2.0526
  859MPD2    H312617   3.948   3.049  15.587 -0.6951 -0.7041  0.7460
  859MPD2     N12618   3.907   2.797  15.209  0.6825 -0.1855 -0.3870
  859MPD2    H512619   3.967   2.727  15.252 -0.6762 -0.5171  0.9800
  859MPD2    N112620   3.669   3.213  15.284  0.0266  0.0504 -0.2530
  859MPD2    H712621   3.661   3.292  15.347 -0.1674  0.8094 -1.2102
  860MPD2     C12622   1.117   3.722  11.356 -0.0061  0.2039  0.4106
  860MPD2    C112623   1.096   3.830  11.441 -0.2651  0.2824  0.0108
  860MPD2    C212624   0.995   3.826  11.532 -0.2005 -0.2499 -0.2365
  860MPD2    C312625   0.910   3.715  11.537 -0.4912  0.1134 -0.0797
  860MPD2    C412626   0.929   3.613  11.450 -0.2314  0.2738 -0.1239
  860MPD2    C512627   1.031   3.619  11.362  0.0165  0.2685 -0.3766
  860MPD2     H12628   0.980   3.910  11.599  0.1883 -1.6287  1.5777
  860MPD2    H112629   0.882   3.517  11.465  0.3331 -0.0356 -0.3341
  860MPD2    H212630   1.195   3.729  11.280 -2.1608  0.7408 -1.7679
  860MPD2    H312631   1.045   3.532  11.299 -0.0567  0.9235 -1.2951
  860MPD2     N12632   0.820   3.724  11.644  0.4533 -0.3396 -0.1174
  860MPD2    H512633   0.822   3.809  11.699  2.4912 -0.5054  0.0449
  860MPD2    N112634   1.186   3.938  11.453  0.6603 -0.2909  0.1032
  860MPD2    H712635   1.148   4.022  11.496  1.0374  0.5475 -1.2040
  861MPD2     C12636   0.543   2.394  10.815 -0.8010  0.0156 -0.2119
  861MPD2    C112637   0.424   2.335  10.842 -0.1953  0.9487  0.2562
  861MPD2    C212638   0.308   2.368  10.767 -0.1240  0.3559  0.0221
  861MPD2    C312639   0.317   2.465  10.664 -0.3112 -0.2245  0.3349
  861MPD2    C412640   0.441   2.523  10.638  0.7062 -0.1563  0.0391
  861MPD2    C512641   0.548   2.476  10.705  0.3911  0.0908 -0.1624
  861MPD2     H12642   0.214   2.316  10.783 -0.6153  1.8389  1.8986
  861MPD2    H112643   0.452   2.593  10.557 -2.4400  2.8051  2.2098
  861MPD2    H212644   0.628   2.382  10.881 -0.7844  0.6036 -0.1227
  861MPD2    H312645   0.639   2.533  10.690  0.9445 -1.0724 -1.2723
  861MPD2     N12646   0.208   2.513  10.587 -0.2814 -0.5138 -0.4669
  861MPD2    H512647   0.233   2.585  10.520  1.1858  0.8720  1.5816
  861MPD2    N112648   0.418   2.255  10.963 -0.1088  0.3007 -0.0700
  861MPD2    H712649   0.327   2.235  11.003  0.3889  1.5320  1.7135
  862MPD2     C12650   4.586   2.600   9.988  0.0850  0.3571 -0.5787
  862MPD2    C112651   4.689   2.562  10.065  0.3063  0.3858  0.1768
  862MPD2    C212652   4.713   2.428  10.069 -0.4270  0.5973 -0.2628
  862MPD2    C312653   4.633   2.330  10.012 -0.3777  0.2003  0.2139
  862MPD2    C412654   4.527   2.368   9.937 -0.0623  0.4010  0.2323
  862MPD2    C512655   4.507   2.505   9.925  0.6367  0.0613  0.6370
  862MPD2     H12656   0.076   2.392  10.121 -1.1050 -0.8461 -0.1358
  862MPD2    H112657   4.459   2.294   9.898  1.1719 -0.0026 -1.1545
  862MPD2    H212658   4.551   2.701   9.969 -1.9518 -0.7136 -2.6111
  862MPD2    H312659   4.420   2.530   9.866  0.2283 -0.7080  0.9193
  862MPD2     N12660   4.643   2.190  10.043 -0.3644  0.2367 -0.2842
  862MPD2    H512661   4.579   2.127   9.997 -0.1310 -1.4246  1.6609
  862MPD2    N112662   0.040   2.643  10.150 -0.1284 -0.5956  0.1220
  862MPD2    H712663   0.121   2.596  10.189  1.4235  1.4764 -0.5606
  863MPD2     C12664   2.544   0.769  16.740  0.7161 -0.1554 -0.0442
  863MPD2    C112665   2.586   0.647  16.705 -0.3238  0.0223 -0.8438
  863MPD2    C212666   2.694   0.596  16.773  0.2159 -0.3073  0.5232
  863MPD2    C312667   2.754   0.659  16.888  0.2929 -0.0571 -0.0933
  863MPD2    C412668   2.706   0.783  16.920 -0.8296  0.3296  0.4788
  863MPD2    C512669   2.600   0.837  16.847 -0.0258 -0.2165  0.6379
  863MPD2     H12670   2.728   0.496  16.748 -0.9645 -1.0171  1.6985
  863MPD2    H112671   2.755   0.844  16.995 -1.0389  2.2338 -0.9195
  863MPD2    H212672   2.468   0.828  16.689  0.4566  0.5828  1.1847
  863MPD2    H312673   2.558   0.936  16.860 -1.4803 -0.8239  0.5143
  863MPD2     N12674   2.858   0.603  16.960 -0.7709 -0.0174  0.5155
  863MPD2    H512675   2.888   0.655  17.042  1.1981 -0.4172  0.0645
  863MPD2    N112676   2.536   0.583  16.591  0.3116  0.7232 -0.5279
  863MPD2    H712677   2.464   0.641  16.548  2.2440  2.1717 -1.8005
  864MPD2     C12678   3.285   1.622  17.256 -0.9163 -0.7122 -0.9902
  864MPD2    C112679   3.350   1.566  17.142 -0.1290  0.1465  0.0245
  864MPD2    C212680   3.446   1.645  17.079 -0.2311 -0.5882  0.4397
  864MPD2    C312681   3.456   1.784  17.108 -0.3212  0.1308 -0.3075
  864MPD2    C412682   3.377   1.841  17.202 -0.1200  0.0499 -0.1969
  864MPD2    C512683   3.305   1.756  17.278  0.2924 -0.5496 -0.8194
  864MPD2     H12684   3.498   1.596  16.998 -0.0039  0.7298 -0.2003
  864MPD2    H112685   3.394   1.942  17.236 -0.0463  0.8974 -2.7566
  864MPD2    H212686   3.228   1.561  17.324 -0.1171 -0.1515  0.1690
  864MPD2    H312687   3.250   1.802  17.359  0.8460  2.6849 -2.2641
  864MPD2     N12688   3.543   1.870  17.046  0.4488 -0.3688  0.6515
  864MPD2    H512689   3.524   1.970  17.054 -3.8457 -1.0538 -1.4525
  864MPD2    N112690   3.317   1.436  17.101 -0.2052 -0.1938  0.1491
  864MPD2    H712691   3.253   1.390  17.165  0.5028 -0.3127  0.7764
  865MPD2     C12692   3.837   1.930  16.125 -0.6078  0.5770  0.0040
  865MPD2    C112693   3.792   1.843  16.216  0.1622  0.0762  1.2082
  865MPD2    C212694   3.743   1.896  16.331 -0.3659 -0.8602 -0.5890
  865MPD2    C312695   3.742   2.030  16.354 -0.2341 -0.4675  0.0643
  865MPD2    C412696   3.802   2.119  16.265 -0.3301 -0.7523  0.8177
  865MPD2    C512697   3.846   2.063  16.145 -0.4481  0.1056 -0.1615
  865MPD2     H12698   3.720   1.819  16.405 -0.8681 -0.8322 -0.7130
  865MPD2    H112699   3.818   2.223  16.288 -0.7787 -0.0214 -2.2010
  865MPD2    H212700   3.881   1.894  16.033 -0.2615  0.1165  0.3443
  865MPD2    H312701   3.885   2.123  16.063 -1.3835 -0.1857 -0.8181
  865MPD2     N12702   3.714   2.079  16.478  0.2319 -0.0866 -0.8956
  865MPD2    H512703   3.731   2.177  16.498 -0.9950 -0.0155 -0.1889
  865MPD2    N112704   3.796   1.700  16.184 -0.5661  0.2147 -1.0538
  865MPD2    H712705   3.821   1.676  16.088  0.2986 -0.6267 -0.6165
  866MPD2     C12706   0.757   2.905  11.576  0.0429 -0.6894  0.5958
  866MPD2    C112707   0.827   2.882  11.454  0.0895 -0.1931 -0.6713
  866MPD2    C212708   0.758   2.842  11.340  0.2379 -1.2547 -0.4680
  866MPD2    C312709   0.623   2.813  11.346 -0.1759  0.2318  0.4297
  866MPD2    C412710   0.558   2.816  11.472  0.5201 -0.4807  0.1303
  866MPD2    C512711   0.628   2.858  11.584 -0.2060 -0.5475  0.2666
  866MPD2     H12712   0.820   2.833  11.252  1.0724 -1.0909  0.1019
  866MPD2    H112713   0.456   2.779  11.479  0.1997  0.6854  1.5398
  866MPD2    H212714   0.805   2.938  11.667  0.0986  2.8746 -0.7418
  866MPD2    H312715   0.571   2.852  11.676 -0.3727  1.4667  0.3119
  866MPD2     N12716   0.556   2.760  11.230 -0.2202 -0.3586 -0.7012
  866MPD2    H512717   0.461   2.729  11.247 -0.3066 -0.2849 -1.0445
  866MPD2    N112718   0.961   2.918  11.458 -0.3766 -0.3900 -0.0450
  866MPD2    H712719   0.994   2.921  11.554  2.8322  1.0525 -1.1962
  867MPD2     C12720   2.458   1.596  16.226  0.6498  0.2178 -0.9852
  867MPD2    C112721   2.491   1.598  16.359  0.1238 -0.2460 -0.0843
  867MPD2    C212722   2.538   1.722  16.408  0.0672 -0.2202  0.3070
  867MPD2    C312723   2.544   1.839  16.329 -0.3241 -0.1846 -0.1241
  867MPD2    C412724   2.496   1.829  16.203 -0.6410 -0.9739 -0.0031
  867MPD2    C512725   2.453   1.710  16.154  0.6071  0.6304  0.3640
  867MPD2     H12726   2.566   1.731  16.512 -0.0941 -0.8424  0.4028
  867MPD2    H112727   2.500   1.908  16.129 -0.2660  0.5085  1.6058
  867MPD2    H212728   2.425   1.502  16.183 -1.1548  0.2166  0.3687
  867MPD2    H312729   2.404   1.705  16.058  0.9249 -0.3339  0.2465
  867MPD2     N12730   2.604   1.964  16.368  0.7430  0.1307 -0.1810
  867MPD2    H512731   2.606   2.035  16.295 -2.0679  0.5339  0.1367
  867MPD2    N112732   2.500   1.476  16.434 -0.1544  0.6470 -0.1541
  867MPD2    H712733   2.459   1.388  16.405 -0.2800  0.1567  1.5190
  868MPD2     C12734   0.257   0.893  13.002 -0.6849 -0.1290 -0.5424
  868MPD2    C112735   0.338   0.783  13.032  0.5956 -0.2115 -0.1991
  868MPD2    C212736   0.308   0.706  13.146  0.1867 -0.3147 -0.5609
  868MPD2    C312737   0.188   0.736  13.212 -0.0987 -0.1073 -0.3101
  868MPD2    C412738   0.111   0.844  13.178  0.4299  0.4581 -0.1697
  868MPD2    C512739   0.152   0.929  13.081  0.8335  0.2705 -0.0627
  868MPD2     H12740   0.358   0.615  13.179  1.6692  0.9417  0.6060
  868MPD2    H112741   0.024   0.876  13.234  2.1829  1.0611  2.1864
  868MPD2    H212742   0.287   0.949  12.914 -0.2338  0.6446  0.1078
  868MPD2    H312743   0.099   1.022  13.062 -0.5319 -0.2581  1.2507
  868MPD2     N12744   0.144   0.656  13.322  0.0556  0.0765 -0.2459
  868MPD2    H512745   0.203   0.581  13.357  0.9953  0.5112 -0.9063
  868MPD2    N112746   0.450   0.761  12.952 -0.4778  0.3699  0.0701
  868MPD2    H712747   0.462   0.822  12.872  0.4377 -0.7806 -0.6744
  869MPD2     C12748   0.826   2.822   1.713 -0.1261  0.2284  0.9442
  869MPD2    C112749   0.945   2.793   1.651  0.2540  0.5351 -0.0487
  869MPD2    C212750   0.982   2.855   1.529 -1.0831  0.0832  0.6219
  869MPD2    C312751   0.906   2.958   1.481 -0.1864 -0.1541  0.4937
  869MPD2    C412752   0.783   2.975   1.547  0.4383  0.4227 -0.1949
  869MPD2    C512753   0.746   2.912   1.657 -0.4718  0.5061 -0.5836
  869MPD2     H12754   1.078   2.834   1.482 -1.3734  0.9059 -0.3443
  869MPD2    H112755   0.714   3.051   1.513  2.5191  1.5026 -2.0662
  869MPD2    H212756   0.792   2.769   1.801 -0.4263 -1.1395  0.0033
  869MPD2    H312757   0.646   2.932   1.695  0.5313 -0.5618  2.6569
  869MPD2     N12758   0.930   3.039   1.365  0.5012 -0.2046  0.2246
  869MPD2    H512759   0.863   3.114   1.351 -0.4102 -0.9557  0.5695
  869MPD2    N112760   1.018   2.688   1.711  0.1900  0.2555 -0.6953
  869MPD2    H712761   0.975   2.636   1.787  0.0501  1.8478  0.3340
  870MPD2     C12762   0.136   1.864   1.621  0.7081  0.0977  0.3350
  870MPD2    C112763   0.263   1.914   1.601 -0.1366 -0.3326 -0.6000
  870MPD2    C212764   0.276   2.002   1.495 -0.8024  0.0343 -0.2531
  870MPD2    C312765   0.168   2.026   1.412  0.4235 -0.6250 -0.5148
  870MPD2    C412766   0.041   1.984   1.440  0.2329  0.5920 -0.0111
  870MPD2    C512767   0.022   1.905   1.553  0.4614  0.5281 -0.3045
  870MPD2     H12768   0.376   2.033   1.468  0.5184 -1.7526  2.5317
  870MPD2    H112769   4.682   2.020   1.382  0.7191 -0.1619 -1.1902
  870MPD2    H212770   0.130   1.791   1.701 -0.2154 -2.4640 -2.0704
  870MPD2    H312771   4.656   1.852   1.578  1.2984 -0.3233  0.9465
  870MPD2     N12772   0.196   2.112   1.303 -0.4096 -0.2983 -0.2520
  870MPD2    H512773   0.285   2.155   1.280  0.5280 -1.0064  2.0964
  870MPD2    N112774   0.366   1.883   1.697 -0.1338  0.1671  0.2665
  870MPD2    H712775   0.344   1.814   1.769  0.0611 -1.1473 -0.9300
  871MPD2     C12776   1.501   1.924  15.954  0.5803  0.3084  0.0299
  871MPD2    C112777   1.489   1.861  16.080  0.7029 -0.1304  0.1231
  871MPD2    C212778   1.508   1.729  16.081 -0.3253  0.1711 -0.3153
  871MPD2    C312779   1.548   1.657  15.968 -0.8561 -0.5833 -1.1204
  871MPD2    C412780   1.554   1.719  15.846 -1.1279  0.4328 -0.4267
  871MPD2    C512781   1.530   1.851  15.847  0.5484 -0.0657  0.6313
  871MPD2     H12782   1.505   1.679  16.178  1.8166 -2.4736 -1.6253
  871MPD2    H112783   1.592   1.663  15.762 -2.4171 -0.8928 -0.1207
  871MPD2    H212784   1.475   2.029  15.944  1.0866  0.6227  1.9907
  871MPD2    H312785   1.545   1.898  15.751 -1.7036 -1.7627 -0.5504
  871MPD2     N12786   1.584   1.521  15.994  0.0387 -0.1072  0.0669
  871MPD2    H512787   1.589   1.484  16.089  0.0386 -0.7686 -0.1855
  871MPD2    N112788   1.464   1.937  16.197  0.2188  0.0257 -0.0858
  871MPD2    H712789   1.468   2.038  16.190 -1.1208  0.1499  0.8515
  872MPD2     C12790   2.781   3.995  13.780  0.0817 -1.0437  0.4566
  872MPD2    C112791   2.739   4.098  13.698 -0.1579 -0.3280  0.4754
  872MPD2    C212792   2.608   4.133  13.691  0.3723  0.0363  0.3389
  872MPD2    C312793   2.510   4.054  13.766  0.6979  0.0807 -0.5409
  872MPD2    C412794   2.553   3.955  13.851 -0.1410  0.5166 -0.3549
  872MPD2    C512795   2.687   3.926  13.857  0.1919  0.6354  0.3371
  872MPD2     H12796   2.576   4.219  13.633 -1.5982 -3.2962 -3.5069
  872MPD2    H112797   2.490   3.888  13.908 -0.0242  1.6684  1.1262
  872MPD2    H212798   2.886   3.970  13.793 -0.1866 -2.4021 -0.0259
  872MPD2    H312799   2.727   3.842  13.912  0.5228  0.1593 -0.6339
  872MPD2     N12800   2.372   4.082  13.758 -0.2120  0.6102  0.0643
  872MPD2    H512801   2.298   4.052  13.821  0.2822 -2.6999 -0.9640
  872MPD2    N112802   2.831   4.179  13.620  0.6914  0.0571 -0.0552
  872MPD2    H712803   2.786   4.256  13.572  0.5385 -0.1910 -0.3131
  873MPD2     C12804   4.277   4.112   0.481  0.0046  0.1899 -0.1444
  873MPD2    C112805   4.146   4.074   0.504 -0.7571  0.4414  0.3219
  873MPD2    C212806   4.110   3.940   0.480 -0.0889 -0.5302  0.3480
  873MPD2    C312807   4.211   3.848   0.447  0.3817  0.3007 -0.3103
  873MPD2    C412808   4.340   3.883   0.451  0.5418  0.2051 -0.4293
  873MPD2    C512809   4.369   4.020   0.450  0.5584  0.3253 -0.5297
  873MPD2     H12810   4.007   3.907   0.489 -0.0726  0.0464  2.5910
  873MPD2    H112811   4.424   3.815   0.439 -0.2487 -0.9679  0.7267
  873MPD2    H212812   4.317   4.212   0.495 -0.0336 -0.0664  1.7391
  873MPD2    H312813   4.474   4.046   0.436 -0.0007  1.1900 -3.0742
  873MPD2     N12814   4.184   3.708   0.454 -0.3595  1.2656 -0.2771
  873MPD2    H512815   4.268   3.652   0.470 -2.1708 -1.5637 -0.5782
  873MPD2    N112816   4.062   4.174   0.567  0.1545  0.4811  0.2690
  873MPD2    H712817   4.111   4.262   0.583  0.1394  0.4497  0.4897
  874MPD2     C12818   3.948   4.657  15.856  0.0952  0.3182 -0.7524
  874MPD2    C112819   3.953   4.563  15.956  1.1929 -0.1752  0.4275
  874MPD2    C212820   3.988   4.597  16.082  0.4137  0.0296 -0.1991
  874MPD2    C312821   4.039   4.722  16.107 -0.2751  1.2613  0.0028
  874MPD2    C412822   4.050   0.089  16.004  0.3650  0.6738 -0.1760
  874MPD2    C512823   4.011   0.050  15.879  0.2960 -0.4868 -0.4516
  874MPD2     H12824   3.970   4.526  16.162  0.0749 -1.2524 -1.4135
  874MPD2    H112825   4.098   0.185  16.022 -0.7463  1.3223 -0.6467
  874MPD2    H212826   3.937   4.631  15.751 -1.6713 -1.1836 -0.1964
  874MPD2    H312827   4.020   0.122  15.799 -0.3295 -1.9883 -1.8820
  874MPD2     N12828   4.086   0.018  16.234  0.4405 -0.2379  0.1853
  874MPD2    H512829   4.068   4.681  16.313  0.9165  0.9615  1.2329
  874MPD2    N112830   3.908   4.437  15.923 -0.3487 -0.0509  0.7356
  874MPD2    H712831   3.870   4.426  15.829 -1.3995  0.9761  1.0470
  875MPD2     C12832   0.493   2.582  14.244 -0.6226 -0.7283 -1.0629
  875MPD2    C112833   0.358   2.590  14.259  0.7180  0.0587 -0.5260
  875MPD2    C212834   0.310   2.603  14.393 -0.4646 -0.4672 -0.7387
  875MPD2    C312835   0.398   2.618  14.498 -0.1336  0.6532  0.4661
  875MPD2    C412836   0.535   2.593  14.483  0.9401  0.2059 -0.0253
  875MPD2    C512837   0.577   2.590  14.351  0.0807  0.4624 -1.0190
  875MPD2     H12838   0.203   2.619  14.405 -0.4740 -1.2162  0.1724
  875MPD2    H112839   0.608   2.619  14.559  0.9004 -0.0441  0.0993
  875MPD2    H212840   0.535   2.562  14.146 -0.7785  0.0182 -1.2806
  875MPD2    H312841   0.684   2.577  14.340  0.1783  1.5285 -1.3383
  875MPD2     N12842   0.343   2.650  14.619  0.3042  0.2247  0.3267
  875MPD2    H512843   0.407   2.669  14.696 -0.6373 -1.6072  1.5660
  875MPD2    N112844   0.268   2.578  14.148  0.0456 -0.4554 -0.4288
  875MPD2    H712845   0.172   2.593  14.180  0.2454 -1.1320  0.4817
  876MPD2     C12846   4.264   4.161  16.022  0.0590  0.2808  0.3177
  876MPD2    C112847   4.234   4.091  15.909 -0.7514 -0.4162  0.1305
  876MPD2    C212848   4.209   3.955  15.927  0.2730  0.6688 -0.6947
  876MPD2    C312849   4.196   3.892  16.055 -0.2791  0.0437 -0.6169
  876MPD2    C412850   4.220   3.970  16.167 -0.1632 -0.0433  0.1121
  876MPD2    C512851   4.263   4.101  16.146  0.2525  0.5302 -0.4055
  876MPD2     H12852   4.195   3.896  15.838  0.3440  0.8808 -0.8468
  876MPD2    H112853   4.204   3.928  16.266 -0.2216 -1.2547 -0.4139
  876MPD2    H212854   4.298   4.264  16.020  2.3148 -0.5370 -2.1806
  876MPD2    H312855   4.276   4.157  16.237 -1.5298  1.5202 -0.7600
  876MPD2     N12856   4.151   3.758  16.057 -0.0223  0.0400 -0.1411
  876MPD2    H512857   4.156   3.703  15.972  0.5869 -1.1614  0.6693
  876MPD2    N112858   4.214   4.164  15.794 -0.1209  0.2404  0.1037
  876MPD2    H712859   4.228   4.265  15.795 -0.3100  0.2659  0.0923
  877MPD2     C12860   4.358   4.524  15.073 -0.1467  0.3298  0.0798
  877MPD2    C112861   4.270   4.419  15.051 -0.7061  0.0274 -0.0981
  877MPD2    C212862   4.217   4.394  14.927 -0.1948  0.2548 -0.0747
  877MPD2    C312863   4.249   4.463  14.812 -0.1952  0.4670 -0.2192
  877MPD2    C412864   4.325   4.572  14.839 -0.3500 -0.1014  0.7099
  877MPD2    C512865   4.384   4.607  14.959  0.0154 -0.4127  0.2105
  877MPD2     H12866   4.154   4.306  14.929 -0.4944  0.4452 -1.0117
  877MPD2    H112867   4.345   4.636  14.754 -1.4817  0.5093  0.8883
  877MPD2    H212868   4.398   4.547  15.171 -2.0453  2.6637  0.2920
  877MPD2    H312869   4.447   4.693  14.976  0.4112 -0.7142  0.2619
  877MPD2     N12870   4.197   4.439  14.688 -0.5439  0.0800 -0.0408
  877MPD2    H512871   4.240   4.486  14.609  1.2108  0.0299  0.8793
  877MPD2    N112872   4.245   4.319  15.153 -0.7919  0.3711 -0.0623
  877MPD2    H712873   4.170   4.255  15.131  0.5810 -1.0480 -0.5774
  878MPD2     C12874   3.169   3.548  12.675 -0.1482 -0.5671 -0.6089
  878MPD2    C112875   3.282   3.613  12.648  0.9221 -0.1698 -0.2898
  878MPD2    C212876   3.352   3.670  12.763 -0.6645  0.0923  0.3029
  878MPD2    C312877   3.314   3.644  12.896  0.1107 -0.1104 -0.2051
  878MPD2    C412878   3.205   3.563  12.916  0.5389 -0.0752  0.0346
  878MPD2    C512879   3.138   3.516  12.804  0.4629 -0.2477  0.4740
  878MPD2     H12880   3.444   3.727  12.753  1.1144 -2.4678  2.0367
  878MPD2    H112881   3.170   3.526  13.012  0.6680  2.4160  1.0424
  878MPD2    H212882   3.107   3.512  12.594 -0.3015 -1.0387 -0.2810
  878MPD2    H312883   3.060   3.443  12.818 -0.6746  1.0125  0.6731
  878MPD2     N12884   3.390   3.706  12.992 -0.2663 -0.0570 -0.1896
  878MPD2    H512885   3.479   3.739  12.956  1.1888 -2.3526  1.3397
  878MPD2    N112886   3.321   3.644  12.519 -0.7193  0.0426 -0.0889
  878MPD2    H712887   3.266   3.607  12.442  0.0482 -4.0205  1.3076
  879MPD2     C12888   3.890   0.869  17.045  0.4588 -0.5990  0.3337
  879MPD2    C112889   3.936   0.745  17.084  0.5729  1.5827 -0.6450
  879MPD2    C212890   3.857   0.631  17.067  0.6182  0.0797 -0.5715
  879MPD2    C312891   3.740   0.644  16.994  0.1543  0.1718  0.2891
  879MPD2    C412892   3.696   0.769  16.955  0.3304  0.0897 -0.0712
  879MPD2    C512893   3.762   0.879  17.000  1.1403  0.7297 -0.3374
  879MPD2     H12894   3.895   0.531  17.084  0.3572 -0.1219 -1.1613
  879MPD2    H112895   3.603   0.794  16.906  0.0957 -1.7320 -0.5514
  879MPD2    H212896   3.949   0.958  17.061  1.4842 -0.8560 -1.9311
  879MPD2    H312897   3.720   0.975  16.972  0.3767  0.1459 -1.1853
  879MPD2     N12898   3.657   0.534  16.968  0.2485 -0.2329  0.3124
  879MPD2    H512899   3.575   0.557  16.912  0.1652  0.5428  0.7592
  879MPD2    N112900   4.063   0.731  17.137  0.0077  0.0570  0.2447
  879MPD2    H712901   4.103   0.818  17.171  0.4392  0.0667 -0.2699
  880MPD2     C12902   1.352   1.759   0.114 -0.5280 -0.1755 -0.2894
  880MPD2    C112903   1.273   1.775   0.226  0.7371  0.5370  0.2480
  880MPD2    C212904   1.212   1.658   0.277  0.2000  0.5688 -0.0814
  880MPD2    C312905   1.249   1.531   0.232  0.4357  0.4680 -0.1746
  880MPD2    C412906   1.333   1.522   0.125  0.4797  0.4736  0.4472
  880MPD2    C512907   1.382   1.631   0.063  0.0574 -0.5352  0.2413
  880MPD2     H12908   1.145   1.665   0.362 -0.4123 -0.5153 -0.4762
  880MPD2    H112909   1.358   1.424   0.085  0.6658  0.2142  1.1954
  880MPD2    H212910   1.399   1.844   0.066  0.5350  0.2724  1.5602
  880MPD2    H312911   1.447   1.613  17.678 -0.8986  1.0362 -0.8397
  880MPD2     N12912   1.193   1.419   0.306 -0.0412 -0.9802 -0.4385
  880MPD2    H512913   1.147   1.444   0.393  1.4462  3.0311 -0.8305
  880MPD2    N112914   1.246   1.908   0.265  0.5669  0.1716  0.1210
  880MPD2    H712915   1.280   1.974   0.196 -0.7206  0.2380 -0.4370
  881MPD2     C12916   0.487   2.447  17.625  0.7125 -0.2917 -0.9125
  881MPD2    C112917   0.591   2.373  17.577  0.1788 -0.3919  0.0036
  881MPD2    C212918   0.688   2.331  17.663 -0.9145 -0.7957 -0.0501
  881MPD2    C312919   0.674   2.341   0.103  0.0017  0.0012 -0.2070
  881MPD2    C412920   0.568   2.414   0.148 -0.2707  0.3106 -0.2381
  881MPD2    C512921   0.478   2.471   0.060 -0.5881  0.0332 -0.2185
  881MPD2     H12922   0.769   2.275  17.619 -0.6647 -1.5293  1.3504
  881MPD2    H112923   0.555   2.421   0.255 -2.0626  0.9175 -0.4943
  881MPD2    H212924   0.424   2.501  17.556  3.8459  2.0674 -1.8904
  881MPD2    H312925   0.405   2.545   0.091 -0.0079  1.5047 -2.3749
  881MPD2     N12926   0.768   2.300   0.202  0.6096  0.3059 -0.0471
  881MPD2    H512927   0.744   2.316   0.299  3.2268 -1.0568  0.8162
  881MPD2    N112928   0.611   2.380  17.441  0.1019 -0.2544 -0.2738
  881MPD2    H712929   0.560   2.450  17.387  0.0345  0.2232  0.4148
  882MPD2     C12930   3.770   4.222  13.903  0.1890  0.0602  0.1889
  882MPD2    C112931   3.760   4.178  14.031  0.6232 -0.5170 -0.1135
  882MPD2    C212932   3.658   4.097  14.076  0.1017 -0.1330  0.4154
  882MPD2    C312933   3.557   4.061  13.985 -0.0182 -0.4079 -0.3738
  882MPD2    C412934   3.569   4.104  13.847 -0.5483  0.0319 -0.0553
  882MPD2    C512935   3.678   4.181  13.811 -0.5858  0.8110  0.2996
  882MPD2     H12936   3.667   4.059  14.177 -0.1075  0.7801  0.7836
  882MPD2    H112937   3.499   4.085  13.767  1.5133 -1.8755 -1.4222
  882MPD2    H212938   3.851   4.288  13.875 -0.9765  1.2477 -0.4076
  882MPD2    H312939   3.683   4.212  13.707 -2.0983  0.5366  0.1551
  882MPD2     N12940   3.453   3.975  14.021 -0.2857  0.2557 -0.4906
  882MPD2    H512941   3.369   3.984  13.964 -1.1806 -2.3836  0.4081
  882MPD2    N112942   3.855   4.224  14.120  0.0380  0.1509 -0.1806
  882MPD2    H712943   3.927   4.276  14.072 -0.1477 -0.7056 -1.3902
  883MPD2     C12944   0.833   4.409  15.664  0.2432  0.8321  0.3100
  883MPD2    C112945   0.877   4.281  15.693 -0.2408 -0.2727  0.1576
  883MPD2    C212946   0.924   4.249  15.820  0.3660  0.0176  0.1091
  883MPD2    C312947   0.920   4.340  15.924 -0.4771 -0.3939 -0.2103
  883MPD2    C412948   0.878   4.470  15.888 -0.4583 -0.3043 -0.0740
  883MPD2    C512949   0.829   4.504  15.764 -0.7363  0.1983  0.3948
  883MPD2     H12950   0.961   4.149  15.836 -0.8993 -0.8783 -2.6682
  883MPD2    H112951   0.877   4.549  15.961  1.8092 -1.1202  0.8332
  883MPD2    H212952   0.788   4.430  15.568  1.7026 -0.0123 -0.5715
  883MPD2    H312953   0.798   4.604  15.734 -1.5617  0.2521  1.4230
  883MPD2     N12954   0.968   4.309  16.052  0.1690  0.7323  0.2405
  883MPD2    H512955   1.007   4.216  16.060  1.5227  1.1589 -1.6137
  883MPD2    N112956   0.882   4.184  15.592 -0.3806  0.3901  0.2716
  883MPD2    H712957   0.888   4.086  15.615 -1.5201  0.4462  0.8393
  884MPD2     C12958   3.162   0.073  14.673  0.6288  0.0893 -0.1611
  884MPD2    C112959   3.204   0.197  14.724  0.3070  1.0986  0.2208
  884MPD2    C212960   3.103   0.300  14.732  0.1028 -0.5018  0.7426
  884MPD2    C312961   2.968   0.275  14.699 -0.4193  0.3085 -0.6069
  884MPD2    C412962   2.938   0.149  14.654  0.4565  0.5198 -0.2011
  884MPD2    C512963   3.033   0.051  14.642 -0.4075  0.0205  0.1741
  884MPD2     H12964   3.140   0.396  14.768  1.6594 -0.1853 -1.6865
  884MPD2    H112965   2.842   0.117  14.616  1.8217 -2.0200 -1.5184
  884MPD2    H212966   3.232   4.715  14.666 -1.0795 -1.5127  1.5446
  884MPD2    H312967   3.007   4.679  14.600  0.7251  0.4264 -1.4887
  884MPD2     N12968   2.872   0.380  14.714  0.2807 -0.1514  0.1870
  884MPD2    H512969   2.918   0.468  14.732  2.0870 -1.0991  0.1983
  884MPD2    N112970   3.338   0.219  14.766 -0.7823 -0.5444 -0.2547
  884MPD2    H712971   3.361   0.312  14.800 -1.6702 -0.3209 -0.2768
  885MPD2     C12972   0.911   0.387   0.187 -0.6241 -0.5728  0.4776
  885MPD2    C112973   1.045   0.400   0.147  0.4895 -0.1494  0.5141
  885MPD2    C212974   1.064   0.435   0.010 -1.0361 -0.8337 -0.5147
  885MPD2    C312975   0.963   0.461  17.623  0.1440  0.2356 -0.1420
  885MPD2    C412976   0.835   0.450  17.670  0.6832 -0.7945  0.6211
  885MPD2    C512977   0.808   0.413   0.099 -0.3577 -0.0778  0.4407
  885MPD2     H12978   1.164   0.441  17.665 -1.2275 -2.7946 -1.1905
  885MPD2    H112979   0.753   0.471  17.603  0.2170  0.3656  1.5483
  885MPD2    H212980   0.878   0.365   0.287  0.8360  1.2769  1.3717
  885MPD2    H312981   0.705   0.396   0.129 -0.1671  2.3399  2.5179
  885MPD2     N12982   1.001   0.473  17.490 -0.4989  0.6185  0.0894
  885MPD2    H512983   1.099   0.466  17.465 -0.6965  0.7198 -0.7257
  885MPD2    N112984   1.150   0.401   0.236 -0.1370  1.2401  0.1249
  885MPD2    H712985   1.245   0.418   0.205  0.0612  0.4839  0.3206
  886MPD2     C12986   2.650   3.439  14.696 -1.1653  0.1406 -0.0234
  886MPD2    C112987   2.659   3.481  14.828 -0.3937  0.3391  0.2371
  886MPD2    C212988   2.624   3.604  14.865  0.0458 -0.3006 -0.3974
  886MPD2    C312989   2.567   3.693  14.774  0.6193  0.0565  0.0764
  886MPD2    C412990   2.546   3.650  14.649  0.0178  0.4635  0.0938
  886MPD2    C512991   2.577   3.517  14.611 -0.1518  0.3716  0.1837
  886MPD2     H12992   2.640   3.627  14.970 -0.5034  1.7017 -0.7556
  886MPD2    H112993   2.498   3.719  14.580 -0.2700  0.5483  0.3759
  886MPD2    H212994   2.667   3.337  14.661  2.0078  0.9940 -1.0015
  886MPD2    H312995   2.557   3.494  14.507  0.1553  0.3126  0.1388
  886MPD2     N12996   2.533   3.833  14.800 -0.5642 -0.2174 -0.2251
  886MPD2    H512997   2.499   3.875  14.714  1.0355  0.3719 -0.5737
  886MPD2    N112998   2.721   3.402  14.932 -0.3911 -0.2065 -0.0681
  886MPD2    H712999   2.728   3.440  15.026 -3.2716  1.8470 -0.6908
  887MPD2     C13000   3.220   3.515  15.445  0.6750 -0.8223 -0.6369
  887MPD2    C113001   3.098   3.543  15.384  0.0015 -0.1787 -0.4749
  887MPD2    C213002   3.029   3.662  15.413  0.6475  0.2140  0.3840
  887MPD2    C313003   3.075   3.753  15.510 -0.4249  0.3738  0.5827
  887MPD2    C413004   3.193   3.724  15.571 -0.0805  0.6219 -0.6146
  887MPD2    C513005   3.262   3.608  15.540  0.8851 -0.2549  0.3607
  887MPD2     H13006   2.934   3.691  15.370  1.3260  0.9883 -0.6081
  887MPD2    H113007   3.230   3.787  15.651 -0.0218 -0.7201  0.4104
  887MPD2    H213008   3.277   3.427  15.420 -1.1340 -1.8485 -1.1340
  887MPD2    H313009   3.355   3.585  15.591  1.5563  0.8195 -0.3933
  887MPD2     N13010   3.018   3.876  15.548 -0.0416 -0.0363 -0.2057
  887MPD2    H513011   3.068   3.918  15.626  0.0087  0.5124 -0.5390
  887MPD2    N113012   3.043   3.443  15.297 -0.5232 -0.2796  0.9419
  887MPD2    H713013   2.955   3.464  15.249  1.1245  0.4678 -1.7578
  888MPD2     C13014   0.489   3.748  14.532  0.9727 -0.1103 -0.5107
  888MPD2    C113015   0.478   3.775  14.662  0.4670  0.0231  0.5472
  888MPD2    C213016   0.482   3.903  14.709  0.5192  0.0564 -0.9267
  888MPD2    C313017   0.510   4.009  14.619  1.3551 -0.3876 -0.2250
  888MPD2    C413018   0.538   3.972  14.491  0.2392  0.5219 -0.4310
  888MPD2    C513019   0.522   3.845  14.444  1.1101  0.0958  0.7748
  888MPD2     H13020   0.477   3.926  14.814 -1.0349  2.0410 -1.4297
  888MPD2    H113021   0.577   4.044  14.419  2.0042 -2.5905 -2.5944
  888MPD2    H213022   0.478   3.648  14.493  1.0546  0.1852 -1.2940
  888MPD2    H313023   0.535   3.815  14.341  0.1149 -1.0996  0.9883
  888MPD2     N13024   0.522   4.145  14.676 -0.6146 -0.0717  0.0310
  888MPD2    H513025   0.475   4.155  14.766  1.1720 -0.4236  0.9988
  888MPD2    N113026   0.449   3.675  14.757 -0.4908 -0.0580  0.1038
  888MPD2    H713027   0.459   3.710  14.852 -0.0366 -0.5348  0.2294
  889MPD2     C13028   4.474   3.568  12.718 -0.5563  0.0380  0.0761
  889MPD2    C113029   4.520   3.491  12.821 -0.4005 -0.5340  0.5305
  889MPD2    C213030   4.555   3.567  12.934 -0.2481  0.7112 -0.0985
  889MPD2    C313031   4.534   3.701  12.953 -0.0682  0.8822 -0.3692
  889MPD2    C413032   4.479   3.773  12.853  0.0618 -0.8573  0.4617
  889MPD2    C513033   4.451   3.702  12.738 -0.2036  0.2204  0.3693
  889MPD2     H13034   4.609   3.527  13.019  0.8017  1.8082 -0.2326
  889MPD2    H113035   4.466   3.881  12.851  0.5281 -0.8167 -1.1082
  889MPD2    H213036   4.432   3.517  12.631 -0.5289 -1.5129  0.9649
  889MPD2    H313037   4.399   3.744  12.652  0.3726  0.5692  0.1900
  889MPD2     N13038   4.577   3.767  13.074 -0.2073 -0.8221  0.9818
  889MPD2    H513039   4.603   3.711  13.155 -0.5166 -0.6688  1.1876
  889MPD2    N113040   4.574   3.367  12.806  0.3322 -0.9663  0.1383
  889MPD2    H713041   4.634   3.327  12.878  3.6621  2.3711 -0.8074
  890MPD2     C13042   3.859   0.023  14.574  0.2762  0.3085 -0.1645
  890MPD2    C113043   3.931   0.105  14.652 -0.2221  0.2662 -0.9697
  890MPD2    C213044   3.959   0.073  14.785 -0.3758 -0.7307 -0.0682
  890MPD2    C313045   3.897   4.685  14.842  0.8728  0.0339  0.6879
  890MPD2    C413046   3.823   4.600  14.758 -0.2214 -0.2848 -0.5493
  890MPD2    C513047   3.805   4.630  14.626 -0.4174  0.0795  0.3167
  890MPD2     H13048   4.024   0.141  14.839 -1.0666  0.5509 -0.8601
  890MPD2    H113049   3.773   4.513  14.797 -0.2470 -0.4992 -1.0580
  890MPD2    H213050   3.846   0.048  14.469 -3.5549 -0.6167  0.0681
  890MPD2    H313051   3.751   4.559  14.564 -1.2426  1.2862 -0.3391
  890MPD2     N13052   3.909   4.670  14.982 -0.1140 -0.1825 -0.1463
  890MPD2    H513053   3.963   0.020  15.025  1.9022 -1.5791 -0.3297
  890MPD2    N113054   3.960   0.229  14.591  0.1087 -0.0213 -0.0254
  890MPD2    H713055   3.908   0.246  14.506  0.5067 -0.6852 -0.3948
  891MPD2     C13056   1.578   3.141  16.416  0.1044  0.8047  0.4318
  891MPD2    C113057   1.588   3.268  16.376 -0.0163  0.2787 -0.1472
  891MPD2    C213058   1.695   3.342  16.423  0.8187 -0.0838 -0.3352
  891MPD2    C313059   1.802   3.287  16.501 -1.4103  0.4147  1.0558
  891MPD2    C413060   1.788   3.148  16.532 -0.1466 -0.1175  0.1666
  891MPD2    C513061   1.673   3.078  16.496 -0.2884 -0.6091 -0.1878
  891MPD2     H13062   1.704   3.446  16.394  0.1951  0.2284  0.6150
  891MPD2    H113063   1.863   3.092  16.586 -0.2119  0.8926  1.3190
  891MPD2    H213064   1.493   3.084  16.379  1.8909 -1.6741  0.0935
  891MPD2    H313065   1.674   2.971  16.513  0.2083 -0.5804 -0.0120
  891MPD2     N13066   1.904   3.372  16.532 -0.5211 -0.0739  0.8754
  891MPD2    H513067   1.889   3.468  16.502  0.0920  0.2212  1.4979
  891MPD2    N113068   1.487   3.321  16.294  0.0873  0.2780 -0.1404
  891MPD2    H713069   1.406   3.261  16.282 -0.0890  0.6270 -0.7366
  892MPD2     C13070   3.031   4.353  14.641 -0.0618 -0.2820  0.5186
  892MPD2    C113071   2.973   4.319  14.517  0.1738  0.0177  0.2400
  892MPD2    C213072   3.016   4.205  14.455 -0.0793 -0.4698 -0.0849
  892MPD2    C313073   3.101   4.117  14.517 -0.4249 -0.1773 -0.4950
  892MPD2    C413074   3.157   4.150  14.639  0.0905 -0.7160  0.1081
  892MPD2    C513075   3.116   4.266  14.703  0.4673  0.4822 -0.0887
  892MPD2     H13076   2.984   4.184  14.353  1.1422  0.7387 -0.7195
  892MPD2    H113077   3.230   4.092  14.695  1.5195 -0.2171 -1.2211
  892MPD2    H213078   2.994   4.427  14.711  3.0064 -0.2131  2.0339
  892MPD2    H313079   3.156   4.297  14.800  1.4373 -2.5932  0.4887
  892MPD2     N13080   3.144   4.001  14.463 -0.4902  0.0141 -0.9973
  892MPD2    H513081   3.224   3.961  14.512 -2.8765 -1.9166  1.2979
  892MPD2    N113082   2.871   4.405  14.470 -0.2311  0.0290 -0.5589
  892MPD2    H713083   2.823   4.465  14.536 -0.7896 -1.2022  0.1556
  893MPD2     C13084   4.390   1.836   1.811 -0.5201 -0.6559 -0.5069
  893MPD2    C113085   4.524   1.834   1.844 -0.0683  0.4863  1.0629
  893MPD2    C213086   4.591   1.717   1.840 -0.9917  0.2121  0.1154
  893MPD2    C313087   4.525   1.598   1.795 -0.0983 -0.1954 -0.6923
  893MPD2    C413088   4.392   1.609   1.757  0.2288  0.3600 -0.5873
  893MPD2    C513089   4.323   1.731   1.764  0.3540 -0.0414 -0.5606
  893MPD2     H13090   4.695   1.708   1.869 -0.6385  2.1828 -0.5557
  893MPD2    H113091   4.340   1.519   1.727  0.6251 -0.5051  1.3263
  893MPD2    H213092   4.329   1.925   1.806  1.5045  0.6925 -1.2441
  893MPD2    H313093   4.219   1.742   1.738  0.2218  2.6437  1.0147
  893MPD2     N13094   4.579   1.474   1.779 -0.0844  0.0118  0.0455
  893MPD2    H513095   4.525   1.405   1.728  0.4406 -2.1253  2.3749
  893MPD2    N113096   4.597   1.958   1.869  0.6213 -0.3432  0.5239
  893MPD2    H713097   4.545   2.044   1.855  2.2014  0.1762 -2.2384
  894MPD2     C13098   2.802   0.604   0.826  0.0293  0.4894  0.1092
  894MPD2    C113099   2.841   0.659   0.950 -0.4584  0.1940  0.0729
  894MPD2    C213100   2.872   0.790   0.963  0.5025 -0.2471 -0.7663
  894MPD2    C313101   2.843   0.871   0.857 -0.0165 -0.1039 -0.2486
  894MPD2    C413102   2.796   0.814   0.736  0.1990 -0.6196 -0.9032
  894MPD2    C513103   2.780   0.683   0.720  0.1462 -0.5192  0.2864
  894MPD2     H13104   2.896   0.824   1.062 -0.0309 -1.1021 -0.3415
  894MPD2    H113105   2.774   0.878   0.651 -1.5633  0.9881  0.7478
  894MPD2    H213106   2.774   0.500   0.814 -0.1720  0.6067 -0.4566
  894MPD2    H313107   2.754   0.648   0.621 -0.0167  0.0275  0.1387
  894MPD2     N13108   2.851   1.008   0.879 -0.6046 -0.2705  0.0500
  894MPD2    H513109   2.883   1.029   0.973  1.8272 -0.3651 -0.7528
  894MPD2    N113110   2.832   0.592   1.072 -0.0218  0.9240 -0.3811
  894MPD2    H713111   2.864   0.636   1.157  0.0145  1.2140 -0.5447
  895MPD2     C13112   2.041   3.772  13.734  0.0779  0.0277 -0.2698
  895MPD2    C113113   2.039   3.795  13.594 -0.0947  0.1866 -0.3209
  895MPD2    C213114   2.158   3.769  13.527 -0.2942  0.0291 -0.3043
  895MPD2    C313115   2.275   3.735  13.591 -0.1583  0.4517 -0.4125
  895MPD2    C413116   2.273   3.717  13.727 -0.6619  0.3390 -0.2874
  895MPD2    C513117   2.155   3.739  13.799 -0.2889  0.4810 -0.0040
  895MPD2     H13118   2.163   3.792  13.421  1.1647 -0.1224 -0.2681
  895MPD2    H113119   2.361   3.696  13.786  0.2758 -1.9246 -2.4951
  895MPD2    H213120   1.950   3.773  13.794 -0.7473 -0.4368 -1.5111
  895MPD2    H313121   2.161   3.727  13.906  2.4571 -1.3575 -0.3651
  895MPD2     N13122   2.397   3.722  13.525  0.0307 -0.2476  0.8956
  895MPD2    H513123   2.475   3.740  13.587 -0.3091  0.9143  0.9800
  895MPD2    N113124   1.937   3.844  13.513 -0.4412  0.4725 -0.1833
  895MPD2    H713125   1.956   3.844  13.413 -0.4287  2.1388 -0.1767
  896MPD2     C13126   4.377   1.891   1.406 -0.3365 -0.4331  0.2522
  896MPD2    C113127   4.383   1.754   1.416 -0.1322 -0.2129  0.3482
  896MPD2    C213128   4.271   1.683   1.453  0.4461 -0.6919 -0.5847
  896MPD2    C313129   4.145   1.740   1.479  0.4052 -0.1195  0.0049
  896MPD2    C413130   4.147   1.881   1.475 -0.3992  0.2078  0.2648
  896MPD2    C513131   4.261   1.959   1.445 -0.4678  0.7178  0.3796
  896MPD2     H13132   4.279   1.575   1.453 -0.3665 -0.7480  1.2441
  896MPD2    H113133   4.061   1.942   1.501 -0.0619  1.1067 -0.7455
  896MPD2    H213134   4.468   1.948   1.388  1.0332 -2.3770  1.0692
  896MPD2    H313135   4.266   2.067   1.444 -1.8674  0.7765 -0.9313
  896MPD2     N13136   4.032   1.664   1.503 -0.3531  0.2108  0.2151
  896MPD2    H513137   4.043   1.566   1.529  1.3067  0.3816  0.1545
  896MPD2    N113138   4.505   1.697   1.365 -0.7318  0.4849  0.0932
  896MPD2    H713139   4.559   1.757   1.303 -3.1947  3.6543  0.9885
  897MPD2     C13140   0.958   3.471   9.625 -0.1333  0.3981  1.1273
  897MPD2    C113141   1.025   3.431   9.739 -0.0869  0.0372  0.6001
  897MPD2    C213142   0.959   3.409   9.858 -0.0681  0.0302  0.8677
  897MPD2    C313143   0.828   3.404   9.857  0.9660  0.1536 -0.3747
  897MPD2    C413144   0.756   3.440   9.744  0.0058  0.1986 -0.1922
  897MPD2    C513145   0.819   3.475   9.629  0.4343  0.3842 -0.2499
  897MPD2     H13146   1.013   3.361   9.940 -0.9767 -2.4314  0.0217
  897MPD2    H113147   0.648   3.443   9.740  0.1772  0.4429 -5.6076
  897MPD2    H213148   1.009   3.492   9.532  0.3484 -1.9153  0.8665
  897MPD2    H313149   0.761   3.510   9.544  0.8648  0.8929 -0.3356
  897MPD2     N13150   0.756   3.356   9.976 -0.3214  0.5696 -0.6521
  897MPD2    H513151   0.822   3.349  10.054  0.7530 -0.6676 -1.6833
  897MPD2    N113152   1.165   3.417   9.725  0.2546 -0.6318 -0.4238
  897MPD2    H713153   1.204   3.445   9.635  0.4383  1.7636  0.4059
  898MPD2     C13154   2.275   4.230  17.219  0.7265  0.1418  0.3923
  898MPD2    C113155   2.407   4.246  17.168  0.5760  0.1302  0.3145
  898MPD2    C213156   2.438   4.365  17.109  0.2388 -0.3679  0.1891
  898MPD2    C313157   2.348   4.469  17.095 -0.4689  0.3036 -0.4394
  898MPD2    C413158   2.219   4.442  17.131 -0.0316 -0.3944  0.2964
  898MPD2    C513159   2.187   4.328  17.191  0.3191  0.1174 -0.3984
  898MPD2     H13160   2.544   4.377  17.088 -0.2469  2.4888 -0.6529
  898MPD2    H113161   2.135   4.508  17.115 -0.4359 -1.0103 -0.1400
  898MPD2    H213162   2.241   4.133  17.254  1.3722  0.8783  3.0431
  898MPD2    H313163   2.082   4.312  17.215  0.9542 -0.1551  2.2096
  898MPD2     N13164   2.378   4.594  17.039  0.8125  0.4768 -0.1228
  898MPD2    H513165   2.462   4.602  16.983 -0.5687  1.9011 -1.9806
  898MPD2    N113166   2.508   4.148  17.198 -0.0352  1.1165  0.0830
  898MPD2    H713167   2.596   4.152  17.149 -0.0467  0.7104  0.0249
  899MPD2     C13168   3.055   4.546  17.218 -0.0952  0.3299 -0.4139
  899MPD2    C113169   3.076   4.669  17.286 -0.1269  0.0049 -0.2372
  899MPD2    C213170   3.064   4.675  17.427 -0.2974  0.7626 -0.3698
  899MPD2    C313171   3.051   4.556  17.499  0.1452  0.8510  0.2376
  899MPD2    C413172   3.046   4.434  17.430 -0.0539  0.1929 -0.3425
  899MPD2    C513173   3.040   4.434  17.293 -0.2991 -0.0139 -0.2810
  899MPD2     H13174   3.073   0.050  17.470  0.0569  0.1840  0.8890
  899MPD2    H113175   3.041   4.339  17.482 -0.8219  0.1591 -0.4797
  899MPD2    H213176   3.040   4.549  17.111  1.5409 -1.4181 -0.6786
  899MPD2    H313177   3.030   4.343  17.236  1.2235  0.2987 -1.0532
  899MPD2     N13178   3.040   4.554  17.640 -0.7986  0.1482  0.6980
  899MPD2    H513179   3.020   4.464  17.680 -1.4746 -0.2190 -0.4678
  899MPD2    N113180   3.092   0.064  17.205  0.4283 -0.2191 -0.4388
  899MPD2    H713181   3.099   0.057  17.104  2.0104  0.6272 -0.3793
  900MPD2     C13182   3.514   1.745  12.356 -0.5882  0.0126 -1.0031
  900MPD2    C113183   3.442   1.634  12.313  0.0931  0.0562  0.5300
  900MPD2    C213184   3.316   1.649  12.268 -0.4279 -0.3048  0.3162
  900MPD2    C313185   3.248   1.770  12.271  1.0643  0.5159 -0.4516
  900MPD2    C413186   3.316   1.880  12.318 -0.0659  0.6445 -0.4549
  900MPD2    C513187   3.450   1.864  12.361  0.5373  0.3527  0.2050
  900MPD2     H13188   3.270   1.563  12.219  0.2776 -1.0778  1.0108
  900MPD2    H113189   3.266   1.976  12.322 -1.5481 -0.2098  1.1791
  900MPD2    H213190   3.613   1.736  12.398 -0.2987 -0.7958 -1.8469
  900MPD2    H313191   3.509   1.949  12.393  3.7632 -0.5951 -3.1341
  900MPD2     N13192   3.118   1.772  12.213  0.3211  0.2962 -0.1227
  900MPD2    H513193   3.075   1.687  12.178 -0.3658  0.9034 -0.7584
  900MPD2    N113194   3.495   1.502  12.335  0.1628  0.2366 -0.4186
  900MPD2    H713195   3.595   1.493  12.349  0.2300  0.0747 -0.9767
  901MPD2     C13196   3.391   0.525  12.788  0.1639 -0.3458 -0.0295
  901MPD2    C113197   3.511   0.533  12.723  1.5178  0.1442  0.0861
  901MPD2    C213198   3.554   0.660  12.676  0.0120  0.2346 -0.1362
  901MPD2    C313199   3.483   0.773  12.709  0.4726  0.2397 -0.0959
  901MPD2    C413200   3.371   0.759  12.780 -0.0141  0.0888  0.0768
  901MPD2    C513201   3.325   0.640  12.818 -0.1502 -0.0708  0.2655
  901MPD2     H13202   3.647   0.667  12.620 -0.7609  1.5141 -1.2426
  901MPD2    H113203   3.307   0.841  12.811 -1.2986 -1.2290  0.9590
  901MPD2    H213204   3.346   0.429  12.809 -2.4921  0.5323 -1.7531
  901MPD2    H313205   3.228   0.630  12.867  0.0336  0.1667  0.6810
  901MPD2     N13206   3.528   0.900  12.666  1.0118 -0.0613 -0.0862
  901MPD2    H513207   3.613   0.891  12.611  0.6016 -2.6773 -0.3082
  901MPD2    N113208   3.576   0.410  12.674  0.4283 -0.2321  0.1907
  901MPD2    H713209   3.541   0.324  12.715  1.0379 -0.2720  0.6341
  902MPD2     C13210   2.041   4.264  12.792 -0.8806  0.9948 -0.1685
  902MPD2    C113211   1.967   4.272  12.674 -0.1880  0.0473  0.9855
  902MPD2    C213212   1.944   4.160  12.596  0.4775 -0.5153  0.0850
  902MPD2    C313213   1.982   4.042  12.648  0.3883 -0.3791  0.3895
  902MPD2    C413214   2.050   4.032  12.768  0.1314  0.4559 -0.2978
  902MPD2    C513215   2.083   4.144  12.839 -0.6155 -0.7954  0.4266
  902MPD2     H13216   1.902   4.164  12.496  0.1956 -2.0752  0.1487
  902MPD2    H113217   2.085   3.938  12.809 -0.8234 -0.4526 -1.5586
  902MPD2    H213218   2.060   4.353  12.852 -1.2759  0.4305  0.7854
  902MPD2    H313219   2.138   4.138  12.933  1.6541 -1.8154 -0.9516
  902MPD2     N13220   1.973   3.926  12.573 -0.5620 -0.2794 -0.5328
  902MPD2    H513221   2.030   3.847  12.604 -0.0289  0.3426  0.0799
  902MPD2    N113222   1.926   4.397  12.633  0.3097  0.7068 -0.1628
  902MPD2    H713223   1.981   4.477  12.663  2.3445 -0.6468 -0.2846
  903MPD2     C13224   2.136   3.856  11.818  0.4873  0.2319  0.0266
  903MPD2    C113225   2.048   3.916  11.908 -0.1280 -0.2390  0.4437
  903MPD2    C213226   1.945   3.999  11.862 -0.7647  0.0259  0.1915
  903MPD2    C313227   1.930   4.019  11.723 -0.4950  1.1286  0.2113
  903MPD2    C413228   2.028   3.970  11.637  0.4136 -0.1641 -0.1843
  903MPD2    C513229   2.124   3.887  11.686  0.0380  0.4305 -0.4269
  903MPD2     H13230   1.871   4.037  11.932 -0.0382 -2.0191  2.0654
  903MPD2    H113231   2.021   3.990  11.531  0.0405  2.5556  0.3398
  903MPD2    H213232   2.209   3.783  11.850  0.1649 -1.1595 -2.3632
  903MPD2    H313233   2.193   3.852  11.610 -0.3790 -1.5070  0.0930
  903MPD2     N13234   1.807   4.077  11.689  0.0882  0.1320  0.3589
  903MPD2    H513235   1.756   4.107  11.771 -0.9622 -1.3761  0.2718
  903MPD2    N113236   2.042   3.876  12.043 -0.2073 -0.1366 -0.1515
  903MPD2    H713237   1.970   3.921  12.099 -0.0963  1.2281 -1.1184
  904MPD2     C13238   1.771   3.406  13.519 -0.0106  0.2409  0.3012
  904MPD2    C113239   1.760   3.283  13.574 -0.0297 -0.6822  0.0189
  904MPD2    C213240   1.861   3.227  13.656  0.3126  0.2255 -0.8376
  904MPD2    C313241   1.976   3.299  13.677 -0.4679  0.1267 -0.3565
  904MPD2    C413242   1.991   3.422  13.613 -0.4136 -0.3576  0.2807
  904MPD2    C513243   1.890   3.477  13.537  0.1085  0.8291 -0.1892
  904MPD2     H13244   1.859   3.124  13.691  0.0715 -0.0276 -1.5864
  904MPD2    H113245   2.088   3.470  13.608 -1.0518  1.0072  1.2859
  904MPD2    H213246   1.700   3.439  13.444  0.7458  2.2237  0.4414
  904MPD2    H313247   1.905   3.562  13.471  0.1499  1.2241  0.3303
  904MPD2     N13248   2.081   3.231  13.751  1.2836  0.6413 -0.1229
  904MPD2    H513249   2.062   3.140  13.790 -1.1477 -0.1917 -3.2137
  904MPD2    N113250   1.654   3.194  13.538 -0.2301 -0.2373  0.0530
  904MPD2    H713251   1.685   3.097  13.541 -1.9334 -0.7546  1.0954
  905MPD2     C13252   1.574   3.413  13.003  0.9977 -0.3589  0.4592
  905MPD2    C113253   1.610   3.491  13.108  0.1982  0.5187 -0.8127
  905MPD2    C213254   1.744   3.512  13.127 -0.0633 -0.1242  0.5342
  905MPD2    C313255   1.835   3.451  13.044 -0.4684 -0.6108  0.2577
  905MPD2    C413256   1.792   3.379  12.938 -0.3116  0.3551 -0.2010
  905MPD2    C513257   1.656   3.356  12.917 -0.4052  0.1784  0.0844
  905MPD2     H13258   1.771   3.578  13.209  0.9290 -0.4965  0.5091
  905MPD2    H113259   1.859   3.339  12.862  0.2347  0.8480  0.0231
  905MPD2    H213260   1.468   3.394  12.990  0.5778 -0.0046  3.2736
  905MPD2    H313261   1.623   3.283  12.843  1.4729 -0.5360 -0.0482
  905MPD2     N13262   1.975   3.458  13.071 -0.1451 -0.8194  0.3202
  905MPD2    H513263   2.033   3.392  13.021 -0.6104 -2.0853  1.4492
  905MPD2    N113264   1.506   3.530  13.194 -0.5530  0.0728 -0.3572
  905MPD2    H713265   1.415   3.494  13.167  0.0419 -2.1111  0.5278
  906MPD2     C13266   4.066   3.107  11.249 -0.3052 -0.0212 -1.1678
  906MPD2    C113267   4.059   3.035  11.133 -0.2609  0.2772 -0.4370
  906MPD2    C213268   3.971   2.930  11.133  0.9942  0.5223 -0.0200
  906MPD2    C313269   3.893   2.897  11.249 -0.0673  0.2446 -0.3986
  906MPD2    C413270   3.908   2.965  11.369  0.2101 -0.2180 -0.1713
  906MPD2    C513271   3.996   3.068  11.367 -0.3878  0.3862  0.1628
  906MPD2     H13272   3.965   2.858  11.053  2.1140  1.1452 -0.6575
  906MPD2    H113273   3.863   2.937  11.464 -0.1678  0.8471 -0.0437
  906MPD2    H213274   4.125   3.198  11.253  1.1950 -0.9427 -2.5003
  906MPD2    H313275   4.022   3.110  11.463 -0.2881  0.8073 -0.0484
  906MPD2     N13276   3.808   2.777  11.240  0.7769  0.6698  0.1710
  906MPD2    H513277   3.779   2.748  11.147 -0.2607  2.0658  0.0640
  906MPD2    N113278   4.127   3.064  11.014  0.4997 -0.7818  0.5109
  906MPD2    H713279   4.131   2.994  10.941 -0.2109 -1.3242  1.0033
  907MPD2     C13280   3.116   2.608  15.752 -0.0179  0.3507  0.5364
  907MPD2    C113281   3.103   2.475  15.723  1.1854  0.0266 -0.7215
  907MPD2    C213282   3.145   2.385  15.824  0.0651  0.2343 -0.0373
  907MPD2    C313283   3.200   2.425  15.952  0.8383 -0.1381 -0.6760
  907MPD2    C413284   3.205   2.563  15.973 -0.7503  0.2105  0.7544
  907MPD2    C513285   3.160   2.647  15.873  0.5255 -0.1494  0.1990
  907MPD2     H13286   3.127   2.279  15.806  1.1961  0.1530 -0.6611
  907MPD2    H113287   3.224   2.601  16.073 -0.8257  0.3209  0.7262
  907MPD2    H213288   3.082   2.685  15.684 -0.3677 -0.8650 -0.6538
  907MPD2    H313289   3.158   2.751  15.904 -0.1835  0.0697 -0.5805
  907MPD2     N13290   3.252   2.334  16.055 -0.0032  0.6172 -0.3975
  907MPD2    H513291   3.267   2.379  16.144  3.3371 -1.6279  0.1697
  907MPD2    N113292   3.065   2.418  15.599 -0.2494  0.3852  0.3333
  907MPD2    H713293   3.082   2.318  15.589 -0.4164  0.3223  0.6926
  908MPD2     C13294   1.558   3.305   9.001  1.0492 -0.1653 -0.3036
  908MPD2    C113295   1.453   3.232   9.060 -0.3830 -0.2278 -0.2122
  908MPD2    C213296   1.452   3.206   9.194 -0.2979  0.0102 -0.3239
  908MPD2    C313297   1.552   3.257   9.278  0.4907 -0.1792 -1.0356
  908MPD2    C413298   1.662   3.316   9.222 -0.3269  0.3229  0.6233
  908MPD2    C513299   1.660   3.341   9.087 -0.1077 -0.6043  0.1316
  908MPD2     H13300   1.375   3.144   9.238 -1.2684  0.0693 -1.9208
  908MPD2    H113301   1.746   3.343   9.284  1.9605 -1.3507 -1.7342
  908MPD2    H213302   1.565   3.322   8.894  1.0062 -1.4422 -0.5110
  908MPD2    H313303   1.744   3.383   9.033 -0.4902 -0.0176 -0.0092
  908MPD2     N13304   1.525   3.260   9.416  0.7355 -0.1301 -0.0107
  908MPD2    H513305   1.435   3.227   9.450  1.3158 -0.6774  1.0088
  908MPD2    N113306   1.351   3.186   8.974 -0.4032  0.6518  0.3646
  908MPD2    H713307   1.360   3.214   8.877 -1.6014  0.6819  0.2708
  909MPD2     C13308   1.323   0.991  11.752 -0.1489  0.4876  0.2709
  909MPD2    C113309   1.253   1.068  11.661  0.0575  0.2813  0.7176
  909MPD2    C213310   1.161   1.157  11.707  0.5603 -0.2481 -0.6917
  909MPD2    C313311   1.130   1.168  11.840 -0.7738  0.1928  0.1526
  909MPD2    C413312   1.196   1.088  11.927  1.0064  0.3799  0.2627
  909MPD2    C513313   1.288   0.996  11.883  0.0580 -0.2043 -1.0026
  909MPD2     H13314   1.089   1.203  11.641 -1.3235  0.7248  2.0306
  909MPD2    H113315   1.174   1.097  12.032 -0.5186 -1.1820  0.0742
  909MPD2    H213316   1.396   0.920  11.712 -0.3593 -0.2290  1.1702
  909MPD2    H313317   1.345   0.928  11.946  0.7276  0.2120 -1.1628
  909MPD2     N13318   1.047   1.286  11.883 -0.1440 -0.6911  0.3140
  909MPD2    H513319   1.027   1.358  11.814  0.5264 -0.7337  0.0767
  909MPD2    N113320   1.288   1.074  11.520  0.5029 -0.5956  0.4587
  909MPD2    H713321   1.243   1.145  11.464  0.3028 -0.9494  0.1747
  910MPD2     C13322   2.346   2.730  15.681  0.0747 -0.5614  0.2537
  910MPD2    C113323   2.382   2.611  15.632 -0.4627  0.4604  0.1603
  910MPD2    C213324   2.340   2.571  15.507 -0.0051 -0.6374 -0.8198
  910MPD2    C313325   2.265   2.657  15.435 -0.2612  0.0313 -0.4444
  910MPD2    C413326   2.220   2.779  15.493 -0.3246  0.1348 -0.3530
  910MPD2    C513327   2.271   2.821  15.608 -0.3185  0.1555  0.0788
  910MPD2     H13328   2.368   2.473  15.470  0.8584 -0.2961 -1.0794
  910MPD2    H113329   2.163   2.858  15.446  4.0606  2.6242 -1.5211
  910MPD2    H213330   2.375   2.763  15.780 -0.6271 -1.2833  0.7045
  910MPD2    H313331   2.248   2.916  15.656  2.7558  1.8775 -1.8286
  910MPD2     N13332   2.219   2.617  15.304  0.0112 -0.0884 -0.7244
  910MPD2    H513333   2.192   2.687  15.236 -0.4778  0.1383 -0.3025
  910MPD2    N113334   2.458   2.518  15.696  0.6029 -0.3746 -0.3331
  910MPD2    H713335   2.496   2.441  15.641  0.3396 -0.8532  0.1500
  911MPD2     C13336   0.185   3.760  16.325 -0.5748  0.4524 -0.8582
  911MPD2    C113337   0.162   3.658  16.233  0.0267 -0.5810 -0.2169
  911MPD2    C213338   0.073   3.685  16.128 -0.0116 -0.2585  0.0591
  911MPD2    C313339   0.026   3.814  16.112  0.3696  0.0632  0.0737
  911MPD2    C413340   0.060   3.913  16.199  0.1285 -0.1208 -0.2776
  911MPD2    C513341   0.125   3.883  16.311 -0.2136  0.2176  0.2204
  911MPD2     H13342   0.025   3.601  16.080 -0.3561  0.8639 -1.5517
  911MPD2    H113343   0.022   4.012  16.178 -1.7514 -1.7028 -4.2134
  911MPD2    H213344   0.251   3.756  16.411  0.6578 -2.0285 -1.9047
  911MPD2    H313345   0.150   3.968  16.373  2.1364 -0.6525  0.4666
  911MPD2     N13346   4.679   3.831  15.995 -0.6378  0.2824  0.2208
  911MPD2    H513347   4.668   3.751  15.934 -1.5823  1.9049 -1.7493
  911MPD2    N113348   0.217   3.532  16.257 -0.0262 -0.5092  0.6583
  911MPD2    H713349   0.289   3.519  16.328  1.8572  0.7405 -1.0158
  912MPD2     C13350   4.354   3.417  15.391  0.4230  0.0928  0.0318
  912MPD2    C113351   4.328   3.463  15.523  0.6965  0.4587 -0.1727
  912MPD2    C213352   4.282   3.368  15.616 -0.3328 -0.2740  0.0575
  912MPD2    C313353   4.274   3.233  15.586  0.1759 -0.3158 -0.4188
  912MPD2    C413354   4.294   3.195  15.456 -0.3397 -0.2028  0.7184
  912MPD2    C513355   4.327   3.289  15.361 -0.1890  0.5426 -0.4953
  912MPD2     H13356   4.267   3.392  15.721 -0.7379  1.2070 -0.3460
  912MPD2    H113357   4.280   3.091  15.430  0.8280 -0.8298  2.5931
  912MPD2    H213358   4.389   3.474  15.306  1.1500  0.0441  0.2989
  912MPD2    H313359   4.349   3.258  15.260  0.8148  0.6639 -0.3105
  912MPD2     N13360   4.247   3.137  15.689  0.5642  0.4319 -0.6475
  912MPD2    H513361   4.230   3.181  15.779  0.3963 -1.3955  0.1979
  912MPD2    N113362   4.375   3.596  15.562 -0.2375 -0.1169 -0.2729
  912MPD2    H713363   4.409   3.654  15.486  0.0926  1.6933  1.2543
  913MPD2     C13364   0.139   1.342   9.715 -0.3214 -0.9263 -1.0520
  913MPD2    C113365   0.270   1.293   9.712  0.2579  0.3646 -0.2122
  913MPD2    C213366   0.366   1.338   9.618  0.0412  0.2927 -0.7181
  913MPD2    C313367   0.322   1.428   9.520 -0.1870 -0.8559 -0.0904
  913MPD2    C413368   0.195   1.468   9.519 -0.5786 -0.3008 -0.4389
  913MPD2    C513369   0.110   1.433   9.624  0.1355  0.4373  0.0735
  913MPD2     H13370   0.468   1.301   9.618 -0.9325 -2.3513  0.1777
  913MPD2    H113371   0.156   1.534   9.443 -2.3398 -0.1215  0.6191
  913MPD2    H213372   0.060   1.317   9.784 -0.7393 -2.2344 -1.9947
  913MPD2    H313373   0.007   1.465   9.634 -0.7866 -1.7906 -2.3801
  913MPD2     N13374   0.410   1.477   9.419 -0.2196  0.1449 -0.8533
  913MPD2    H513375   0.373   1.533   9.343  1.4447  0.5713 -1.3340
  913MPD2    N113376   0.303   1.192   9.797  0.5745 -0.9484 -0.1164
  913MPD2    H713377   0.229   1.163   9.860  2.0777 -1.8829  1.2293
  914MPD2     C13378   3.852   0.351  11.768  0.0146  0.3006  0.1885
  914MPD2    C113379   3.911   0.422  11.873  0.0482  0.9394 -0.4023
  914MPD2    C213380   3.918   0.365  12.000  0.1358  0.6402  0.2909
  914MPD2    C313381   3.841   0.252  12.021  0.0248  0.4483  0.8278
  914MPD2    C413382   3.774   0.189  11.922  0.1669  0.1763  0.2026
  914MPD2    C513383   3.790   0.234  11.795 -0.3289 -0.4350  0.2149
  914MPD2     H13384   3.967   0.408  12.087  1.2616  3.0599 -1.5166
  914MPD2    H113385   3.731   0.090  11.933  1.5180 -0.1320  2.8492
  914MPD2    H213386   3.868   0.382  11.665  2.2508  1.2129  0.7980
  914MPD2    H313387   3.733   0.181  11.720  0.1235 -0.0235 -0.4219
  914MPD2     N13388   3.837   0.211  12.154 -0.0312 -0.3323  0.3999
  914MPD2    H513389   3.900   0.258  12.218 -0.8534  0.4227  0.6503
  914MPD2    N113390   3.964   0.554  11.843 -0.1958 -0.4166 -0.3917
  914MPD2    H713391   3.986   0.577  11.747  1.3431 -0.6551 -0.1030
  915MPD2     C13392   1.174   4.645  15.892 -0.2817  0.8105 -0.5747
  915MPD2    C113393   1.104   0.006  15.810  0.6986  0.1568  0.0660
  915MPD2    C213394   1.051   0.120  15.862  0.4236  0.2082  0.4539
  915MPD2    C313395   1.056   0.139  15.997  0.0015 -0.2399 -0.5328
  915MPD2    C413396   1.121   0.046  16.079  0.1048 -0.3889 -0.2868
  915MPD2    C513397   1.189   4.664  16.025 -0.0369 -0.0216  0.0903
  915MPD2     H13398   1.007   0.197  15.800 -1.7682 -0.6717  0.9254
  915MPD2    H113399   1.115   0.052  16.187  3.3126 -2.1349 -0.0239
  915MPD2    H213400   1.222   4.558  15.849  1.4398  0.0897  2.8155
  915MPD2    H313401   1.226   4.585  16.090  0.2470 -0.1900 -0.2740
  915MPD2     N13402   0.983   0.248  16.047 -0.3412 -1.0235 -0.3374
  915MPD2    H513403   0.928   0.302  15.982  1.0897  3.0099  1.8340
  915MPD2    N113404   1.111   4.696  15.668  0.0031 -0.2339 -0.2598
  915MPD2    H713405   1.156   4.612  15.633  0.0195 -0.7133  0.9260
  916MPD2     C13406   3.975   3.650  15.562  0.5004  0.1372  0.0683
  916MPD2    C113407   3.965   3.519  15.605 -0.6405 -0.2468 -0.7399
  916MPD2    C213408   3.979   3.426  15.508  0.2985 -0.0251 -0.0978
  916MPD2    C313409   3.976   3.451  15.377 -0.2221 -0.6841 -0.0073
  916MPD2    C413410   3.966   3.582  15.329  0.8095  0.1177  0.2637
  916MPD2    C513411   3.972   3.680  15.422  0.6150  0.3930 -0.9518
  916MPD2     H13412   3.974   3.323  15.542  0.2293 -0.7485 -2.2692
  916MPD2    H113413   3.980   3.608  15.224 -0.4473 -0.6981 -0.1133
  916MPD2    H213414   4.003   3.726  15.634 -0.6372 -0.1777  0.8459
  916MPD2    H313415   3.986   3.779  15.382 -0.1949  1.1581  0.6290
  916MPD2     N13416   3.998   3.336  15.290 -0.2561  0.1766  0.4040
  916MPD2    H513417   4.001   3.241  15.326  1.3215 -0.1698 -0.6494
  916MPD2    N113418   3.958   3.502  15.750  0.4403  0.1372 -0.0755
  916MPD2    H713419   3.956   3.593  15.795 -0.8361 -1.2770  2.7435
  917MPD2     C13420   0.021   0.708  10.824 -0.1402 -0.1512  0.5804
  917MPD2    C113421   0.070   0.774  10.935  0.3691 -0.1011  0.7541
  917MPD2    C213422   0.171   0.870  10.920  0.0039  0.4591 -0.1427
  917MPD2    C313423   0.205   0.912  10.793 -0.3433  0.6051  0.1056
  917MPD2    C413424   0.146   0.854  10.682 -0.5040  0.1945 -0.1653
  917MPD2    C513425   0.061   0.747  10.704  0.0008 -0.1324 -0.6287
  917MPD2     H13426   0.221   0.906  11.009  0.2405  2.1324 -0.9653
  917MPD2    H113427   0.173   0.883  10.581  1.8650 -1.6303 -0.0402
  917MPD2    H213428   4.676   0.625  10.828 -0.1374 -0.1687  0.3210
  917MPD2    H313429   0.020   0.695  10.618 -0.5103  0.2833 -0.6436
  917MPD2     N13430   0.313   1.004  10.771 -0.4801 -0.4042 -0.2016
  917MPD2    H513431   0.332   1.030  10.675 -0.2975  0.0328 -0.0466
  917MPD2    N113432   0.023   0.728  11.057  1.0180 -0.4198  0.3014
  917MPD2    H713433   4.672   0.661  11.059  2.6445 -2.2496 -0.1567
  918MPD2     C13434   0.214   1.111  11.975  0.3073 -0.2294 -0.3327
  918MPD2    C113435   0.285   1.115  11.854 -0.5110  0.1947  0.3432
  918MPD2    C213436   0.235   1.036  11.750 -0.2431 -0.1071  0.1506
  918MPD2    C313437   0.125   0.951  11.765  0.4369 -0.4006  0.3839
  918MPD2    C413438   0.056   0.951  11.882  1.2199  0.3546  0.6633
  918MPD2    C513439   0.101   1.036  11.984  0.2135 -0.1725  0.2839
  918MPD2     H13440   0.286   1.030  11.654  1.7609 -0.2760  1.2478
  918MPD2    H113441   4.694   0.893  11.912  0.9321  0.2758 -0.3235
  918MPD2    H213442   0.242   1.166  12.064  0.7317  2.8914 -2.4127
  918MPD2    H313443   0.043   1.039  12.075  2.3937  1.1777  1.6282
  918MPD2     N13444   0.088   0.872  11.650 -0.6655 -0.1103  0.7576
  918MPD2    H513445   0.145   0.893  11.568 -1.0134 -0.4487  0.4297
  918MPD2    N113446   0.416   1.166  11.834 -0.2627  0.9117 -0.0981
  918MPD2    H713447   0.456   1.154  11.741 -1.1440 -1.8201 -0.1402
  919MPD2     C13448   0.800   4.564  11.302  0.2351 -1.1959  0.3344
  919MPD2    C113449   0.783   4.451  11.229 -0.0045  0.1483  0.1155
  919MPD2    C213450   0.803   4.455  11.088  0.5177 -0.4571 -0.1483
  919MPD2    C313451   0.867   4.564  11.036 -0.6220  0.0930 -0.3183
  919MPD2    C413452   0.888   4.673  11.108 -1.0447 -0.3729 -0.3026
  919MPD2    C513453   0.847   4.676  11.236  0.0096 -0.1163 -1.1054
  919MPD2     H13454   0.779   4.366  11.031  1.3037 -1.3158  0.8642
  919MPD2    H113455   0.942   0.030  11.061 -0.6336 -0.1619  0.5357
  919MPD2    H213456   0.777   4.563  11.408  0.4279  0.7584  0.3985
  919MPD2    H313457   0.869   0.038  11.298  0.4566 -1.3839  0.4965
  919MPD2     N13458   0.907   4.567  10.897  0.3974 -0.4965 -0.4601
  919MPD2    H513459   0.941   4.655  10.861  0.1934 -0.9127 -1.6967
  919MPD2    N113460   0.741   4.326  11.278  0.4108 -0.5386 -0.4067
  919MPD2    H713461   0.745   4.250  11.212 -0.5685 -1.1553  0.2359
  920MPD2     C13462   0.500   0.094  10.063  0.0114 -0.0677  0.4847
  920MPD2    C113463   0.528   4.687  10.042 -0.8772  0.2428  0.2082
  920MPD2    C213464   0.615   4.632  10.132  0.1904  0.1435 -1.4954
  920MPD2    C313465   0.675   4.706  10.236  0.0809  0.1448 -0.3438
  920MPD2    C413466   0.644   0.111  10.253 -0.4035  0.4879 -0.1005
  920MPD2    C513467   0.560   0.167  10.162  0.4131  0.4402 -0.0573
  920MPD2     H13468   0.635   4.525  10.134 -0.2247  0.1190  1.1261
  920MPD2    H113469   0.683   0.168  10.337 -1.1175  1.7497 -0.6307
  920MPD2    H213470   0.435   0.165  10.012 -1.7626  1.1009  4.3077
  920MPD2    H313471   0.525   0.270  10.168  1.5954  0.7656  1.0815
  920MPD2     N13472   0.771   4.639  10.314  0.5640  0.0106 -0.0421
  920MPD2    H513473   0.788   4.542  10.290 -2.9214 -0.2023 -1.5446
  920MPD2    N113474   0.466   4.600   9.948  0.1449  0.3794  0.1366
  920MPD2    H713475   0.484   4.500   9.945 -1.4703  0.1035 -0.3268
  921MPD2     C13476   0.826   3.436  16.780 -0.0867  0.2779 -0.2336
  921MPD2    C113477   0.868   3.399  16.649 -0.1955 -0.3921 -0.5464
  921MPD2    C213478   0.771   3.346  16.565  0.0979 -0.1736  0.6229
  921MPD2    C313479   0.635   3.330  16.607  0.8438 -0.2458 -0.1442
  921MPD2    C413480   0.607   3.369  16.737 -0.0176 -0.5819 -0.0409
  921MPD2    C513481   0.697   3.417  16.823  0.2342 -0.6302  0.7767
  921MPD2     H13482   0.800   3.322  16.463  1.2735 -0.9810  1.1500
  921MPD2    H113483   0.511   3.338  16.778  1.5885 -1.7635  2.7875
  921MPD2    H213484   0.885   3.495  16.849 -1.2771  1.2116 -0.0234
  921MPD2    H313485   0.674   3.448  16.925  2.4800 -0.4861  1.2373
  921MPD2     N13486   0.524   3.287  16.525  0.2285 -0.0105  0.3826
  921MPD2    H513487   0.434   3.298  16.570 -1.4570 -1.3391 -2.6761
  921MPD2    N113488   0.999   3.426  16.613  0.1742 -0.2582  0.1954
  921MPD2    H713489   1.056   3.472  16.683 -0.9180 -1.6638  2.0452
  922MPD2     C13490   1.664   1.421  16.649 -0.3619  0.7965  0.5814
  922MPD2    C113491   1.678   1.440  16.782  0.5897 -0.2072  0.2018
  922MPD2    C213492   1.624   1.343  16.864  0.2875 -0.7459  0.4184
  922MPD2    C313493   1.545   1.237  16.817  0.2053 -1.0097  0.0363
  922MPD2    C413494   1.532   1.219  16.685  1.0069 -0.2434 -0.2190
  922MPD2    C513495   1.596   1.311  16.606 -0.4505 -0.8146 -0.0260
  922MPD2     H13496   1.620   1.374  16.968  0.3419 -1.0600  0.5141
  922MPD2    H113497   1.482   1.132  16.642 -3.0558  2.1192 -0.2658
  922MPD2    H213498   1.696   1.485  16.568  2.8321 -1.2890  0.1919
  922MPD2    H313499   1.575   1.300  16.500  1.0709 -0.1695 -0.3862
  922MPD2     N13500   1.484   1.161  16.909  0.7082  0.1197  0.4976
  922MPD2    H513501   1.474   1.192  17.005 -1.0031 -0.2124  0.4274
  922MPD2    N113502   1.736   1.561  16.840  0.1221  0.3364  0.1911
  922MPD2    H713503   1.747   1.565  16.941 -1.5843  1.5750  0.3342
  923MPD2     C13504   4.302   3.417   8.962 -0.1566  0.0571  0.2716
  923MPD2    C113505   4.240   3.431   9.083 -0.1810  0.1552 -0.2782
  923MPD2    C213506   4.253   3.325   9.174 -0.4369 -0.4612 -0.1530
  923MPD2    C313507   4.321   3.206   9.143  0.2775  0.6672  0.1586
  923MPD2    C413508   4.373   3.192   9.021  0.1127 -0.4702 -0.5832
  923MPD2    C513509   4.358   3.296   8.928 -0.1889 -0.0168  0.2823
  923MPD2     H13510   4.210   3.329   9.274  0.8975 -0.1139  0.4121
  923MPD2    H113511   4.427   3.103   8.990  2.1825  0.3819  0.6077
  923MPD2    H213512   4.314   3.499   8.892  1.3714  0.7300  1.3290
  923MPD2    H313513   4.417   3.290   8.838  0.0510  0.0331  0.4354
  923MPD2     N13514   4.346   3.099   9.235  0.0269  0.4341  0.6473
  923MPD2    H513515   4.382   3.013   9.195 -0.3161  0.8400 -0.5260
  923MPD2    N113516   4.170   3.548   9.108 -0.5290  0.0528  0.3584
  923MPD2    H713517   4.165   3.623   9.039  2.2021  0.3653  0.5169
  924MPD2     C13518   3.381   1.364  16.011 -0.4946  1.1612 -0.4640
  924MPD2    C113519   3.351   1.404  16.143  0.7803  0.0142  0.4587
  924MPD2    C213520   3.388   1.525  16.189 -0.1122  0.0628  0.3524
  924MPD2    C313521   3.446   1.615  16.105  0.0628 -0.3479 -0.7728
  924MPD2    C413522   3.482   1.577  15.980 -0.2667  0.3079  0.4274
  924MPD2    C513523   3.455   1.452  15.935 -0.1469  0.4754  0.5197
  924MPD2     H13524   3.348   1.550  16.287 -1.0123  0.2128 -0.0588
  924MPD2    H113525   3.525   1.639  15.903 -0.4289  1.7866  1.5402
  924MPD2    H213526   3.342   1.271  15.971  1.2552  0.5700 -0.7635
  924MPD2    H313527   3.469   1.416  15.833  1.3391  0.7203  0.6453
  924MPD2     N13528   3.459   1.755  16.135 -0.0880  0.0953 -0.9219
  924MPD2    H513529   3.476   1.831  16.070  0.0264  0.9008  0.0433
  924MPD2    N113530   3.273   1.316  16.224 -0.7826  0.3688  0.5753
  924MPD2    H713531   3.222   1.240  16.179 -1.2996 -0.4446  2.5313
  925MPD2     C13532   1.893   4.422  14.165 -0.2855  0.4681 -0.1790
  925MPD2    C113533   1.929   4.294  14.131 -0.7708  0.0787  0.3329
  925MPD2    C213534   1.922   4.192  14.220 -0.2692  0.6366 -0.5413
  925MPD2    C313535   1.876   4.218  14.349  0.2046 -0.9229 -0.6264
  925MPD2    C413536   1.841   4.350  14.389  0.1178 -0.1961  0.2455
  925MPD2    C513537   1.860   4.451  14.297  0.2085 -0.8420 -0.3204
  925MPD2     H13538   1.958   4.092  14.198 -0.2924  0.2906  0.9461
  925MPD2    H113539   1.819   4.372  14.492 -0.7864  0.0251  0.0057
  925MPD2    H213540   1.893   4.506  14.098  0.3154  0.2841 -0.4133
  925MPD2    H313541   1.837   4.550  14.336  0.5902 -0.1861 -1.7807
  925MPD2     N13542   1.859   4.118  14.446 -0.2143 -0.0462 -0.1147
  925MPD2    H513543   1.821   4.146  14.536 -0.6787  0.2651 -0.4076
  925MPD2    N113544   1.964   4.257  13.999  0.0960  0.4671  0.1135
  925MPD2    H713545   1.971   4.158  13.980  0.5890  0.7453 -1.1395
  926MPD2     C13546   0.908   2.662  13.555 -0.5162  0.7877  0.1411
  926MPD2    C113547   0.831   2.772  13.519  0.3973  0.1620 -0.5827
  926MPD2    C213548   0.859   2.828  13.394 -0.8844 -0.1360 -0.3320
  926MPD2    C313549   0.952   2.774  13.301  0.4855 -1.2187  0.2968
  926MPD2    C413550   1.036   2.680  13.354 -0.9114 -0.0824 -0.4346
  926MPD2    C513551   1.012   2.619  13.475  0.4306 -0.4534  0.0857
  926MPD2     H13552   0.799   2.914  13.366  1.9626  1.1551 -2.4760
  926MPD2    H113553   1.112   2.645  13.285 -1.0174 -0.4861 -0.3464
  926MPD2    H213554   0.886   2.595  13.637  0.8710  1.5968  1.1837
  926MPD2    H313555   1.063   2.527  13.503 -1.7407 -1.7311 -0.1158
  926MPD2     N13556   0.975   2.820  13.169  0.4950 -0.1790  0.7300
  926MPD2    H513557   1.037   2.767  13.110  3.2539  1.3411  2.2730
  926MPD2    N113558   0.725   2.825  13.592  0.1523 -0.2359 -0.4022
  926MPD2    H713559   0.681   2.906  13.549  3.8996  0.9201 -1.9918
  927MPD2     C13560   4.616   0.211  17.534 -0.2965  0.2802  0.5572
  927MPD2    C113561   4.710   0.186  17.631  0.7316  0.1208  0.6017
  927MPD2    C213562   0.121   0.214  17.592 -0.0311 -0.5350  0.5662
  927MPD2    C313563   0.146   0.282  17.470 -0.0783  0.4433 -0.8151
  927MPD2    C413564   0.048   0.312  17.379 -0.3986  0.3426 -0.7112
  927MPD2    C513565   4.645   0.267  17.410  0.1967  0.4914 -0.2648
  927MPD2     H13566   0.210   0.205  17.653  0.9485 -1.2563 -0.9910
  927MPD2    H113567   0.068   0.370  17.290 -1.2581 -1.4481 -2.0890
  927MPD2    H213568   4.511   0.185  17.538 -0.3157 -0.0241 -1.8921
  927MPD2    H313569   4.566   0.289  17.338  0.4693  1.1605 -0.3531
  927MPD2     N13570   0.275   0.322  17.452 -0.8578 -0.9344 -0.5335
  927MPD2    H513571   0.328   0.325  17.539 -0.0741 -0.5034 -1.0281
  927MPD2    N113572   4.670   0.120   0.054  0.5627 -0.0490 -0.9533
  927MPD2    H713573   4.570   0.106   0.068  0.5104  1.8749  0.6411
  928MPD2     C13574   2.488   3.385   0.526 -0.3571  0.0873 -0.2680
  928MPD2    C113575   2.618   3.379   0.562  0.0577  0.2031  0.0502
  928MPD2    C213576   2.718   3.414   0.471  0.4426 -0.6052  0.0194
  928MPD2    C313577   2.681   3.478   0.350  0.3613 -0.2160 -0.0135
  928MPD2    C413578   2.551   3.489   0.318 -0.3876 -0.5723 -0.6154
  928MPD2    C513579   2.452   3.433   0.399  0.6680  0.9610  0.5610
  928MPD2     H13580   2.824   3.409   0.490  0.7654 -1.4495 -2.1163
  928MPD2    H113581   2.517   3.545   0.231 -1.5796  1.6513  1.2749
  928MPD2    H213582   2.415   3.332   0.585  1.0580 -1.8900 -0.3059
  928MPD2    H313583   2.350   3.432   0.361  1.1487 -0.6969 -0.7352
  928MPD2     N13584   2.763   3.533   0.253  0.7780  0.0456  0.2146
  928MPD2    H513585   2.713   3.556   0.168  0.5236 -0.6148  0.1893
  928MPD2    N113586   2.651   3.335   0.694 -0.2194  0.2438 -0.0455
  928MPD2    H713587   2.577   3.327   0.763  0.6633 -0.8547  0.7645
  929MPD2     C13588   3.688   3.004  10.857 -0.7643 -0.6964 -0.2719
  929MPD2    C113589   3.585   3.001  10.775  0.1101 -1.1841 -0.7668
  929MPD2    C213590   3.598   3.055  10.645 -0.2725  0.5226  0.0222
  929MPD2    C313591   3.706   3.137  10.610  0.0446  0.6138  0.2832
  929MPD2    C413592   3.811   3.143  10.709  0.1979  0.4898 -0.2956
  929MPD2    C513593   3.804   3.079  10.825  0.5395  0.1478 -0.1157
  929MPD2     H13594   3.516   3.051  10.574 -0.3666 -0.2292  0.1781
  929MPD2    H113595   3.891   3.215  10.694 -1.6931  2.7713  0.4524
  929MPD2    H213596   3.660   2.971  10.956 -0.4487  0.4312  0.1883
  929MPD2    H313597   3.874   3.116  10.898  0.1859 -0.6365  0.6266
  929MPD2     N13598   3.707   3.215  10.488  0.5259 -0.6900  0.0063
  929MPD2    H513599   3.781   3.284  10.481 -0.6444  0.0545 -4.8985
  929MPD2    N113600   3.464   2.941  10.818 -0.3066  0.4506 -0.1275
  929MPD2    H713601   3.459   2.922  10.918 -2.8518 -0.8503 -0.5189
  930MPD2     C13602   0.377   0.897  14.262 -0.3217  0.1129  0.3826
  930MPD2    C113603   0.388   1.002  14.176 -0.3935  0.0567  0.1974
  930MPD2    C213604   0.362   0.989  14.042 -0.5295 -0.5960  0.2108
  930MPD2    C313605   0.340   0.864  13.988 -0.2343  0.2074 -0.0800
  930MPD2    C413606   0.351   0.756  14.066  0.1635 -0.2116  0.0100
  930MPD2    C513607   0.354   0.777  14.202 -0.0323 -0.5552 -0.2780
  930MPD2     H13608   0.370   1.072  13.973 -0.1703  0.2763  1.2990
  930MPD2    H113609   0.349   0.656  14.024  2.6972 -0.4315  0.3865
  930MPD2    H213610   0.401   0.908  14.367 -0.0916  0.3671  0.3039
  930MPD2    H313611   0.363   0.692  14.269 -3.1082  0.1543  1.0149
  930MPD2     N13612   0.335   0.848  13.852  0.5610  0.3297  0.0943
  930MPD2    H513613   0.351   0.754  13.817 -0.3325  0.0260  0.4914
  930MPD2    N113614   0.431   1.137  14.210  0.1364  0.1516 -0.1940
  930MPD2    H713615   0.428   1.206  14.135  0.0296 -1.8175 -2.0140
  931MPD2     C13616   0.402   4.419   0.537 -0.6431  0.1032 -0.0812
  931MPD2    C113617   0.270   4.379   0.531 -0.2584  0.5457 -0.5556
  931MPD2    C213618   0.242   4.257   0.594  0.0853  0.5927  0.7521
  931MPD2    C313619   0.335   4.177   0.660  0.1728 -0.0150  0.0410
  931MPD2    C413620   0.467   4.213   0.647  0.4564 -0.2857 -0.0081
  931MPD2    C513621   0.495   4.337   0.592  0.2901 -0.0607 -0.3537
  931MPD2     H13622   0.140   4.219   0.597 -0.4575  1.9063 -1.3848
  931MPD2    H113623   0.542   4.148   0.689 -1.9156 -2.5996  0.6696
  931MPD2    H213624   0.436   4.519   0.511 -0.2403 -0.3729 -1.3503
  931MPD2    H313625   0.597   4.373   0.591 -0.0752  1.0873  2.7810
  931MPD2     N13626   0.302   4.061   0.739 -0.4509 -0.3926  0.7309
  931MPD2    H513627   0.380   4.009   0.778  0.0561  1.1872  1.7737
  931MPD2    N113628   0.173   4.478   0.488  0.2703 -0.0951  1.1841
  931MPD2    H713629   0.199   4.572   0.462  1.6514 -1.1130 -1.0758
  932MPD2     C13630   2.325   3.794  10.771 -0.2323 -0.4491  0.0286
  932MPD2    C113631   2.315   3.877  10.885  0.3343 -0.2040 -0.0781
  932MPD2    C213632   2.223   3.841  10.982  0.2572  0.8865  0.2803
  932MPD2    C313633   2.148   3.727  10.955 -0.1145 -0.6502  0.5670
  932MPD2    C413634   2.145   3.666  10.835  0.3148  0.5621 -0.4040
  932MPD2    C513635   2.236   3.697  10.743  0.6489 -0.4887  0.0289
  932MPD2     H13636   2.213   3.892  11.078 -4.6431 -0.6261  0.5763
  932MPD2    H113637   2.071   3.590  10.818 -0.8950  1.6017  0.2354
  932MPD2    H213638   2.405   3.822  10.703 -0.3806  1.0529  0.4636
  932MPD2    H313639   2.232   3.644  10.649 -2.0400 -0.3002  0.0383
  932MPD2     N13640   2.035   3.693  11.034 -0.0930 -0.7906  1.2442
  932MPD2    H513641   1.969   3.626  10.994 -0.7167 -0.4084  1.6286
  932MPD2    N113642   2.398   3.996  10.903  0.2334 -0.0093 -0.3766
  932MPD2    H713643   2.456   4.013  10.822 -0.2962 -0.8783 -0.9392
  933MPD2     C13644   2.312   3.520   1.187  0.3673  0.1412 -0.2707
  933MPD2    C113645   2.447   3.554   1.186  0.5222  0.2270 -0.0603
  933MPD2    C213646   2.490   3.673   1.246  0.2350 -0.9790 -0.5390
  933MPD2    C313647   2.396   3.752   1.306 -0.2242 -0.4718  0.0346
  933MPD2    C413648   2.258   3.719   1.303 -0.1823  0.0531  0.5187
  933MPD2    C513649   2.217   3.600   1.247 -0.2205  0.1170 -0.3321
  933MPD2     H13650   2.594   3.703   1.236 -0.1208 -0.1042 -1.5411
  933MPD2    H113651   2.181   3.788   1.334 -0.3182 -0.3360  1.0525
  933MPD2    H213652   2.272   3.429   1.144 -1.8233  0.1979  1.5937
  933MPD2    H313653   2.111   3.583   1.232 -0.6246  1.3803  1.1045
  933MPD2     N13654   2.445   3.870   1.372  0.5171 -0.2865  0.6964
  933MPD2    H513655   2.543   3.887   1.352 -0.1042  2.8122  0.1997
  933MPD2    N113656   2.540   3.459   1.142  1.0465 -0.1308 -0.3262
  933MPD2    H713657   2.509   3.372   1.100  0.1578 -1.1879  2.4782
  934MPD2     C13658   4.069   1.283   1.973  0.4567  0.2248 -0.4751
  934MPD2    C113659   4.147   1.184   1.909  0.2660 -0.5381 -0.2653
  934MPD2    C213660   4.099   1.123   1.793  0.2474 -0.1877  0.8528
  934MPD2    C313661   3.965   1.147   1.751  0.6399 -0.2841  0.4007
  934MPD2    C413662   3.887   1.243   1.813 -0.4538 -0.0629  0.3858
  934MPD2    C513663   3.940   1.308   1.929 -0.1236  0.9009  0.4239
  934MPD2     H13664   4.156   1.040   1.753  0.1817 -0.3928  1.1838
  934MPD2    H113665   3.790   1.263   1.768 -1.7794 -2.2270  2.2836
  934MPD2    H213666   4.106   1.334   2.061 -1.4096 -0.1760  0.5543
  934MPD2    H313667   3.884   1.390   1.973  1.2429  1.3218  1.3591
  934MPD2     N13668   3.905   1.072   1.645 -0.5485  0.0501  0.0519
  934MPD2    H513669   3.806   1.091   1.630 -0.3508  0.7032 -0.4200
  934MPD2    N113670   4.278   1.147   1.950  0.0080  0.7204 -0.5517
  934MPD2    H713671   4.334   1.084   1.893 -0.5921 -0.5439  0.2748
  935MPD2     C13672   4.032   0.102   1.299  0.1120  0.3027 -0.4172
  935MPD2    C113673   3.964   0.170   1.199 -0.2684  1.2506 -0.3992
  935MPD2    C213674   3.924   0.303   1.215  0.1423  0.2964 -0.2905
  935MPD2    C313675   3.942   0.363   1.333  0.3120 -0.1709 -0.3707
  935MPD2    C413676   4.007   0.293   1.434 -0.1613  0.0541 -0.5513
  935MPD2    C513677   4.048   0.170   1.414 -0.1183 -0.2632  0.4348
  935MPD2     H13678   3.871   0.356   1.137  0.4765 -0.8648 -1.3020
  935MPD2    H113679   4.016   0.342   1.530  0.6512  0.2848 -0.7429
  935MPD2    H213680   4.066   0.000   1.282 -0.3789  0.3646 -1.7666
  935MPD2    H313681   4.097   0.119   1.495  1.2939 -1.1122 -0.9416
  935MPD2     N13682   3.891   0.493   1.374  0.3034 -0.0129  0.4260
  935MPD2    H513683   3.923   0.534   1.461  0.8556  0.8310 -0.1786
  935MPD2    N113684   3.947   0.112   1.070 -0.4651 -0.2436 -0.4470
  935MPD2    H713685   3.878   0.163   1.015 -1.3949  0.0197  0.9622
  936MPD2     C13686   3.024   2.478  12.521 -0.3663 -0.1255 -0.1337
  936MPD2    C113687   3.126   2.455  12.616 -0.4393 -0.4416 -0.1027
  936MPD2    C213688   3.262   2.470  12.575  0.4320 -0.0819 -0.1143
  936MPD2    C313689   3.288   2.517  12.445 -0.3564 -0.0007 -0.1273
  936MPD2    C413690   3.189   2.542  12.354 -0.2303  0.2228 -0.5906
  936MPD2    C513691   3.057   2.514  12.389 -0.2715  0.2393  0.3939
  936MPD2     H13692   3.340   2.451  12.648 -0.9749  1.2221  1.7501
  936MPD2    H113693   3.211   2.561  12.250  1.2204 -0.2228 -0.3649
  936MPD2    H213694   2.920   2.457  12.542 -0.1352  1.0333  2.1241
  936MPD2    H313695   2.974   2.517  12.319  1.0822  1.7625 -1.1505
  936MPD2     N13696   3.413   2.557  12.396 -0.1775  0.7447 -0.1212
  936MPD2    H513697   3.406   2.628  12.324 -3.9471  0.3894 -0.0903
  936MPD2    N113698   3.102   2.400  12.744  0.1499  0.8462 -0.8381
  936MPD2    H713699   3.188   2.368  12.789 -0.4610  0.0900 -0.2214
  937MPD2     C13700   0.816   3.656  11.052  0.0667  0.9805  0.2270
  937MPD2    C113701   0.860   3.785  11.076  0.5056  0.0126 -0.0228
  937MPD2    C213702   0.988   3.821  11.041  0.9905  0.0836  0.6644
  937MPD2    C313703   1.075   3.734  10.972  0.6111 -0.4497  0.2335
  937MPD2    C413704   1.018   3.612  10.928  0.2281 -0.0735  0.4781
  937MPD2    C513705   0.894   3.581  10.972 -0.3094  0.2713 -0.5616
  937MPD2     H13706   1.028   3.917  11.071  1.6395 -0.1004  0.3867
  937MPD2    H113707   1.075   3.534  10.879 -2.4620 -1.5193 -0.3202
  937MPD2    H213708   0.722   3.617  11.088  0.3167  1.5635  1.4789
  937MPD2    H313709   0.862   3.482  10.940  1.3412  0.5831 -3.0933
  937MPD2     N13710   1.209   3.774  10.941  0.4675  0.9969 -0.7137
  937MPD2    H513711   1.240   3.851  10.999 -1.0857  1.9185 -1.1123
  937MPD2    N113712   0.805   3.866  11.176 -0.5888 -0.2607  0.2519
  937MPD2    H713713   0.853   3.954  11.190 -1.0538 -0.0680  0.6251
  938MPD2     C13714   3.106   0.360   0.778  0.3272  0.2519 -0.0832
  938MPD2    C113715   3.129   0.461   0.871 -0.4457  0.0331  0.5142
  938MPD2    C213716   3.161   0.412   0.993  0.6723  0.0328 -0.4135
  938MPD2    C313717   3.145   0.277   1.042 -0.3119  0.4056 -0.1441
  938MPD2    C413718   3.118   0.182   0.946  0.0264 -0.0271  0.0725
  938MPD2    C513719   3.108   0.225   0.813 -0.2408  0.4032 -0.5291
  938MPD2     H13720   3.197   0.489   1.060 -1.6814 -0.3267  1.2881
  938MPD2    H113721   3.130   0.076   0.964  1.0738  0.4962  2.5205
  938MPD2    H213722   3.100   0.387   0.673  0.9781  0.9710  0.0618
  938MPD2    H313723   3.103   0.153   0.733  2.0676 -2.3763  1.8143
  938MPD2     N13724   3.158   0.237   1.175  0.0662 -0.1375  0.0711
  938MPD2    H513725   3.136   0.139   1.185  0.5685 -0.3357 -0.7357
  938MPD2    N113726   3.151   0.599   0.833 -0.5918  0.0041  0.1596
  938MPD2    H713727   3.196   0.665   0.895 -0.1351 -0.0132 -0.1497
  939MPD2     C13728   4.469   1.415   0.946 -0.2672 -0.4962  0.4080
  939MPD2    C113729   4.437   1.548   0.940 -0.1306  0.4429 -0.4030
  939MPD2    C213730   4.500   1.622   0.844  0.4533  0.3634 -0.2314
  939MPD2    C313731   4.603   1.570   0.766 -0.3863  0.7087 -0.7421
  939MPD2    C413732   4.633   1.443   0.780 -0.5321 -0.6692 -0.0570
  939MPD2    C513733   4.560   1.360   0.854  0.2640 -0.2845 -0.0869
  939MPD2     H13734   4.478   1.727   0.828 -1.5125 -0.1382 -0.7782
  939MPD2    H113735   4.707   1.392   0.720  1.2666 -0.5054  2.0422
  939MPD2    H213736   4.417   1.348   1.013  0.3786  0.1786  1.5809
  939MPD2    H313737   4.588   1.255   0.852 -1.2503 -0.7432  2.2771
  939MPD2     N13738   4.662   1.654   0.668  0.0072 -0.4122  0.1424
  939MPD2    H513739   4.630   1.749   0.682 -4.1017 -1.6581 -0.8048
  939MPD2    N113740   4.331   1.589   1.018  0.2274 -0.6085 -0.2368
  939MPD2    H713741   4.280   1.514   1.064 -0.8205  1.0970  1.3645
  940MPD2     C13742   3.955   2.904  12.667 -0.0553 -0.2765  0.9107
  940MPD2    C113743   3.958   2.782  12.741  0.1366  0.2940  0.1164
  940MPD2    C213744   3.955   2.665  12.674 -0.5806  0.5539 -0.1316
  940MPD2    C313745   3.928   2.660  12.536  0.0577 -0.3587 -0.1163
  940MPD2    C413746   3.898   2.778  12.468  0.0514  0.9285 -0.0990
  940MPD2    C513747   3.922   2.894  12.535  0.5578  0.2821 -0.8479
  940MPD2     H13748   3.976   2.579  12.735  2.1965 -0.1968 -2.1360
  940MPD2    H113749   3.879   2.784  12.362  0.6591 -1.3911 -0.3271
  940MPD2    H213750   3.965   3.002  12.712 -0.5100 -0.5189  1.5417
  940MPD2    H313751   3.913   2.991  12.488  3.1979  1.0675  0.2623
  940MPD2     N13752   3.920   2.547  12.463  0.0770  0.0482  0.4435
  940MPD2    H513753   3.885   2.561  12.368 -0.3611  2.0351  0.9076
  940MPD2    N113754   3.958   2.772  12.880 -0.8831  0.7880 -0.0210
  940MPD2    H713755   3.979   2.682  12.922  0.5939  0.8337 -0.6553
  941MPD2     C13756   2.883   0.986   9.482  0.0883 -0.4274 -0.7499
  941MPD2    C113757   2.820   1.032   9.371 -0.8575 -0.1904  0.7264
  941MPD2    C213758   2.702   0.978   9.320 -0.0401  0.1789 -0.5747
  941MPD2    C313759   2.645   0.870   9.390 -0.4431  0.0085  0.3846
  941MPD2    C413760   2.712   0.826   9.498 -0.0400  0.7273 -0.0044
  941MPD2    C513761   2.824   0.881   9.541  0.5224 -0.2222 -0.6317
  941MPD2     H13762   2.633   1.032   9.257  0.2300  0.1947 -0.8592
  941MPD2    H113763   2.687   0.747   9.568  0.8761  0.2959 -0.1580
  941MPD2    H213764   2.980   1.011   9.523 -1.0441  0.4052  1.3956
  941MPD2    H313765   2.873   0.826   9.622  1.1122  1.5940  0.2442
  941MPD2     N13766   2.521   0.811   9.362  0.7102 -0.5223  0.2577
  941MPD2    H513767   2.488   0.741   9.427 -1.8795 -0.4648 -0.9741
  941MPD2    N113768   2.863   1.145   9.299  0.5799  0.5658 -0.5651
  941MPD2    H713769   2.799   1.170   9.225  2.1628  0.2271 -2.0517
  942MPD2     C13770   3.541   3.746   8.892 -0.4660 -0.0781 -0.1229
  942MPD2    C113771   3.520   3.691   9.022 -0.0165 -0.7196  0.3226
  942MPD2    C213772   3.604   3.585   9.066 -0.2641 -0.0146 -0.0173
  942MPD2    C313773   3.695   3.535   8.981  0.5392 -0.4199  0.1776
  942MPD2    C413774   3.724   3.588   8.858 -0.4518  0.1585  0.2014
  942MPD2    C513775   3.640   3.692   8.813 -0.4224 -0.4006  0.3305
  942MPD2     H13776   3.586   3.548   9.166  0.7104 -1.5816 -0.4352
  942MPD2    H113777   3.806   3.544   8.803 -2.5472 -1.4227 -1.6398
  942MPD2    H213778   3.471   3.815   8.847  0.5522  0.0599 -1.4823
  942MPD2    H313779   3.657   3.743   8.719  1.4339 -0.3379  0.6998
  942MPD2     N13780   3.791   3.441   9.017 -0.0708 -0.0802  0.1108
  942MPD2    H513781   3.853   3.411   8.943 -0.6563  0.3353 -0.5576
  942MPD2    N113782   3.404   3.721   9.097  0.1069  0.0281 -0.2400
  942MPD2    H713783   3.376   3.649   9.163 -0.7682 -0.0691 -0.7179
  943MPD2     C13784   1.611   2.710   8.949  0.1121  0.3770  0.0990
  943MPD2    C113785   1.506   2.624   8.951  1.2156 -0.1277  0.4292
  943MPD2    C213786   1.405   2.641   8.862 -0.1178  0.9103  1.0303
  943MPD2    C313787   1.421   2.738   8.761  0.3933 -0.5647 -0.4649
  943MPD2    C413788   1.534   2.818   8.755 -0.1883 -0.1724 -0.0831
  943MPD2    C513789   1.619   2.816   8.860 -0.1813  0.1464  0.6034
  943MPD2     H13790   1.313   2.584   8.866  0.9458 -0.8174  1.0538
  943MPD2    H113791   1.544   2.889   8.674  0.0652  0.7737  0.7733
  943MPD2    H213792   1.689   2.711   9.025  1.1347 -0.4042 -0.9406
  943MPD2    H313793   1.703   2.882   8.876 -0.0569 -0.5936  3.0243
  943MPD2     N13794   1.315   2.774   8.670  0.1608 -0.5550  0.7340
  943MPD2    H513795   1.330   2.847   8.601 -0.8920 -0.1867  0.9064
  943MPD2    N113796   1.505   2.527   9.051  0.4582  0.1080 -0.3425
  943MPD2    H713797   1.592   2.512   9.103  0.1253  1.6422  0.6593
  944MPD2     C13798   1.545   0.870  10.312 -0.2910 -0.2990  0.2889
  944MPD2    C113799   1.569   1.003  10.339  0.1247  0.5164 -0.4738
  944MPD2    C213800   1.509   1.066  10.452  0.7213  0.8468  0.0349
  944MPD2    C313801   1.431   0.990  10.534 -0.4870 -0.1296  0.2677
  944MPD2    C413802   1.410   0.856  10.514 -0.3290 -0.0112  0.1241
  944MPD2    C513803   1.463   0.799  10.403  0.1010  0.3369  0.0373
  944MPD2     H13804   1.516   1.174  10.457 -1.7883  1.1449 -3.5197
  944MPD2    H113805   1.357   0.788  10.579  0.2942 -0.2423  0.3938
  944MPD2    H213806   1.578   0.821  10.222 -0.3229  0.9188 -0.3915
  944MPD2    H313807   1.431   0.699  10.377 -1.2051  0.9263 -0.6032
  944MPD2     N13808   1.382   1.054  10.650 -0.3751  0.2773 -0.0451
  944MPD2    H513809   1.419   1.148  10.659 -1.0166  0.7983 -2.6728
  944MPD2    N113810   1.660   1.078  10.258 -0.3065  0.3174  0.0934
  944MPD2    H713811   1.716   1.027  10.191  0.2791  2.4681 -1.0853
    1TCq1    O113812   3.622   1.324  14.131 -0.4545  0.0106 -0.2693
    1TCq1    C113813   3.682   1.414  14.213  1.0280 -0.1857  0.3986
    1TCq1    O213814   3.681   1.400  14.333 -0.5246 -0.0268  0.1158
    1TCq1    C213815   3.742   1.523  14.136 -0.1086 -0.0688 -0.5455
    1TCq1    C313816   3.747   1.535  13.996 -0.0255  0.1168 -0.2037
    1TCq1    C413817   3.793   1.650  13.933  0.0309 -0.1650 -0.1159
    1TCq1    C513818   3.852   1.751  14.009 -0.0481  0.3806  0.6861
    1TCq1    C613819   3.867   1.731  14.148 -0.1046  0.1654  0.2336
    1TCq1    C713820   3.802   1.622  14.211  0.5511  0.1672  0.3325
    1TCq1    C813821   3.908   1.845  14.228  0.6181  0.2437  0.3514
    1TCq1    O413822   3.863   1.855  14.340 -0.5506  0.0011 -0.0614
    1TCq1    C913823   3.762   1.666  13.793 -1.2715 -0.7922 -0.1437
    1TCq1    O513824   3.742   1.567  13.722  1.1667 -0.2281  0.0076
    1TCq1    O613825   3.747   1.788  13.749  0.1938  0.5033 -0.1874
    1TCq1    H113826   3.619   1.343  14.035 -1.6608 -2.6545 -0.7611
    1TCq1    H213827   3.715   1.456  13.929  1.4452 -0.2062 -0.5190
    1TCq1    H313828   3.878   1.843  13.959  0.0717  0.4867  0.9403
    1TCq1    H413829   3.805   1.612  14.319  0.8683 -0.0665  0.3007
    2MPD2     C13830   4.104   2.318  14.273  0.2266 -0.4195 -0.0486
    2MPD2    C113831   4.153   2.261  14.158 -0.6208  0.2463 -0.2647
    2MPD2    C213832   4.101   2.137  14.117 -0.0582  0.4007  0.5045
    2MPD2    C313833   4.025   2.059  14.201  0.4176  0.3659  0.0024
    2MPD2    C413834   3.986   2.111  14.324  0.3160  0.8935 -0.7396
    2MPD2    C513835   4.028   2.235  14.361  0.1902 -0.1978  0.1117
    2MPD2     H13836   4.138   2.099  14.022 -0.0803  0.7188  0.3688
    2MPD2    H113837   3.932   2.056  14.400  0.1095 -0.9544 -2.2526
    2MPD2    H213838   4.126   2.418  14.307 -2.2168  0.1406 -0.1198
    2MPD2    H313839   3.992   2.278  14.453 -2.8503 -2.1024 -0.1911
    2MPD2     N13840   3.982   1.933  14.158 -0.0528  0.0384 -0.0040
    2MPD2    H513841   4.020   1.897  14.071  1.6807  1.9298 -0.0148
    2MPD2    N113842   4.244   2.341  14.076 -0.2827  0.2954  0.1855
    2MPD2    H713843   4.252   2.440  14.099 -0.0921  0.1529  0.7269
    3TMC2    C113844   4.322   2.412  13.875  0.1425 -0.4894  0.0960
    3TMC2    C213845   4.340   2.375  13.737  0.5485  0.5482  0.2566
    3TMC2    C313846   4.295   2.462  13.642  0.4201 -0.5412 -0.2090
    3TMC2    C413847   4.259   2.527  13.905  0.5353  0.1476 -0.5079
    3TMC2    C513848   4.216   2.606  13.801 -0.0004  0.3475  0.6622
    3TMC2    C613849   4.226   2.573  13.668 -0.3222 -0.4401  0.4144
    3TMC2     C13850   4.294   2.304  13.957  0.1922 -0.0581 -0.3622
    3TMC2     O13851   4.292   2.192  13.902  0.0395 -0.0455  0.0784
    3TMC2     H13852   4.376   2.279  13.704 -2.6012 -0.5628  0.0816
    3TMC2    H113853   4.233   2.569  14.002 -0.5266  1.2397 -1.2716
    3TMC2    H213854   4.172   2.632  13.594 -0.6200  0.5669  1.4317
    3TMC2    C713855   4.125   2.716  13.835  0.3340  0.8850 -0.3556
    3TMC2    C813856   4.315   2.431  13.497  0.7642 -0.3405  0.1789
    3TMC2    O113857   4.063   2.711  13.940 -0.6575 -0.5089  0.3011
    3TMC2    O213858   4.341   2.314  13.460 -0.1645  0.6689 -0.4853
    3TMC2    O513859   4.345   2.548  13.431  0.0404 -0.3478 -0.2684
    3TMC2    H513860   4.336   2.628  13.486  0.1835  0.6076 -1.6446
    4MPD2     C13861   3.274   3.305  13.155  0.1083  0.1008 -0.4326
    4MPD2    C113862   3.355   3.264  13.051 -0.0552 -1.1240 -0.4773
    4MPD2    C213863   3.489   3.307  13.052  0.1514  0.0323 -0.0256
    4MPD2    C313864   3.541   3.395  13.139  0.1122 -0.4789  0.1885
    4MPD2    C413865   3.454   3.432  13.245 -1.0261  0.8653 -1.1727
    4MPD2    C513866   3.320   3.391  13.249 -0.4521  0.7285 -0.8153
    4MPD2     H13867   3.552   3.269  12.973 -1.5169 -0.4909 -1.0993
    4MPD2    H113868   3.490   3.499  13.322 -2.6499 -0.3756  0.6761
    4MPD2    H213869   3.171   3.271  13.159  0.0726  0.1866 -0.6236
    4MPD2    H313870   3.260   3.429  13.331  1.6027  2.5797 -0.1618
    4MPD2     N13871   3.674   3.433  13.128 -0.2597  0.2376 -0.4780
    4MPD2    H513872   3.728   3.377  13.062 -0.1146  1.2364 -1.2071
    4MPD2    N113873   3.296   3.161  12.965 -0.0036 -0.0681 -0.3338
    4MPD2    H713874   3.198   3.139  12.982  0.5490 -1.4596  1.0201
    5TCq2    C113875   3.743   3.497  13.227 -0.7503  0.7788 -0.1092
    5TCq2    O213876   3.707   3.545  13.333  0.0264 -0.6112 -0.2355
    5TCq2    C213877   3.883   3.463  13.221  0.0647 -0.2713  0.3925
    5TCq2    C313878   3.925   3.413  13.093  0.0307  0.4553  1.1301
    5TCq2    C413879   4.018   3.317  13.077  0.0445 -0.0370  0.4493
    5TCq2    C513880   4.073   3.256  13.187  0.4318 -0.0000  0.5606
    5TCq2    C613881   4.034   3.299  13.310 -0.2277  0.2060  0.2245
    5TCq2    C713882   3.936   3.397  13.330 -0.0676  0.3185 -0.2445
    5TCq2    C813883   4.056   3.210  13.423  0.0713  0.8483  0.3006
    5TCq2    O413884   4.167   3.160  13.427 -0.0497  0.2070 -0.2742
    5TCq2    C913885   4.077   3.278  12.947 -0.0343  0.0588 -0.0896
    5TCq2    O513886   4.022   3.321  12.841 -0.6391 -0.0501  1.0334
    5TCq2    O613887   4.177   3.202  12.951  0.0045 -0.5640  0.4813
    5TCq2    H213888   3.890   3.463  13.004 -0.1002  1.1602  1.5719
    5TCq2    H313889   4.137   3.168  13.181 -0.9239 -0.9598  0.0067
    5TCq2    H413890   3.883   3.431  13.418 -0.2072  1.0425 -0.6085
    6MPD1     C13891   2.381   3.988  12.438 -0.2149 -0.3821 -0.0565
    6MPD1    C113892   2.372   3.916  12.551 -0.1765  0.3870 -0.6919
    6MPD1    C213893   2.355   3.786  12.532 -0.0540  0.2968  0.9925
    6MPD1    C313894   2.349   3.720  12.410  0.0338  0.4139  0.5093
    6MPD1    C413895   2.372   3.794  12.295 -0.0868 -0.2566 -0.9251
    6MPD1    C513896   2.390   3.931  12.317 -0.2388  0.5225 -0.5443
    6MPD1     H13897   2.349   3.725  12.622  1.8882 -0.2596  0.7422
    6MPD1    H113898   2.390   3.746  12.199 -1.0895  0.1369 -1.3077
    6MPD1    H213899   2.397   4.095  12.447  0.9847 -0.6889  1.4557
    6MPD1    H313900   2.408   3.993  12.230 -1.2394 -1.5801 -2.2642
    6MPD1     N13901   2.323   3.586  12.393  0.2723  0.5043  0.5040
    6MPD1    H513902   2.346   3.547  12.303 -4.6343 -1.6006  0.1797
    6MPD1    N113903   2.389   3.972  12.681 -0.2753 -0.0462  0.4691
    6MPD1    H613904   2.362   3.908  12.755  0.4310  0.7961  1.4447
    6MPD1    H713905   2.376   4.071  12.699 -0.0578 -0.1053  0.9494
    7MPD2     C13906   2.509   2.855  12.835 -0.6624  0.4576  0.0326
    7MPD2    C113907   2.581   2.943  12.755  0.5891 -0.0539 -0.3511
    7MPD2    C213908   2.720   2.942  12.737  0.0032  0.2220 -0.1424
    7MPD2    C313909   2.791   2.840  12.800 -0.1107  0.3650 -0.2883
    7MPD2    C413910   2.722   2.752  12.879 -0.1676  0.2357 -0.4399
    7MPD2    C513911   2.586   2.759  12.894 -0.1548  0.4307  0.0619
    7MPD2     H13912   2.770   3.019  12.680  0.6422 -1.3304 -1.6683
    7MPD2    H113913   2.779   2.680  12.936  0.3238  0.6452 -0.4068
    7MPD2    H213914   2.402   2.858  12.852 -1.0481  2.2151 -2.6693
    7MPD2    H313915   2.539   2.689  12.962  0.0011 -0.7284 -1.0342
    7MPD2     N13916   2.930   2.843  12.786  0.2128  0.2140 -0.5781
    7MPD2    H513917   2.966   2.905  12.714 -1.0098 -1.3069 -2.4832
    7MPD2    N113918   2.514   3.050  12.683  0.2054 -0.0668  0.2855
    7MPD2    H713919   2.578   3.107  12.629  1.5581 -0.7646  1.1370
    8TMC3    C113920   3.148   2.819  12.809  0.0575 -0.5937  0.6984
    8TMC3    C213921   3.217   2.922  12.867  0.2283 -0.0450 -0.7137
    8TMC3    C313922   3.279   3.017  12.784  0.0176 -0.1815  0.0282
    8TMC3    C413923   3.151   2.817  12.667  0.1807 -0.2497  0.0348
    8TMC3    C513924   3.211   2.908  12.591 -0.6019  0.2188 -0.4807
    8TMC3    C613925   3.296   3.002  12.652 -0.3132 -0.2288 -0.2799
    8TMC3     C13926   3.023   2.776  12.861  0.0946 -0.7464  0.0597
    8TMC3     O13927   3.012   2.712  12.962 -0.2636  0.5517  0.4123
    8TMC3     H13928   3.200   2.941  12.972 -1.2846 -0.6255 -0.8410
    8TMC3    H113929   3.084   2.751  12.613  0.4384 -1.4087  1.1409
    8TMC3    H213930   3.328   3.090  12.597 -0.7979 -0.3091 -0.6810
    8TMC3    C713931   3.096   2.972  12.528  0.1864 -0.0762  0.4405
    8TMC3    C813932   3.356   3.115  12.848  0.4414  0.6120 -0.3585
    8TMC3    O113933   3.018   3.027  12.602 -0.3681  0.0213 -0.2209
    8TMC3    O213934   3.468   3.127  12.799 -0.1291  0.2535  0.1098
    9TMC3    C113935   2.293   3.355  12.467 -0.1580  0.5846  0.7162
    9TMC3    C213936   2.354   3.320  12.350  0.3363 -0.2448 -0.1250
    9TMC3    C313937   2.422   3.203  12.350 -0.4014  0.2381 -0.2745
    9TMC3    C413938   2.287   3.275  12.573  0.4385 -0.2280 -0.0801
    9TMC3    C513939   2.354   3.161  12.571 -0.3874  0.1576 -0.3992
    9TMC3    C613940   2.431   3.131  12.463  0.6700 -0.1411 -0.6728
    9TMC3     C13941   2.287   3.500  12.496 -0.4710  0.0235  0.3198
    9TMC3     O13942   2.257   3.527  12.610 -0.0510 -0.0347  0.0468
    9TMC3     H13943   2.353   3.380  12.261 -2.0922 -1.1811 -0.7338
    9TMC3    H113944   2.248   3.307  12.669  1.6403 -1.3020  0.7721
    9TMC3    H213945   2.493   3.043  12.461  1.6324  0.5104  0.1830
    9TMC3    C713946   2.377   3.080  12.688  0.1510  0.1820 -0.2215
    9TMC3    C813947   2.535   3.189  12.257  0.0219  0.0163  0.1652
    9TMC3    O113948   2.307   3.091  12.786 -0.0620  0.8185 -0.7460
    9TMC3    O213949   2.519   3.210  12.138  0.3468  0.0507 -0.6383
   10MPD2     C13950   2.989   2.949  12.175  0.0026  0.1083 -0.5507
   10MPD2    C113951   2.980   2.990  12.306  0.2659  0.3610  0.0927
   10MPD2    C213952   2.869   3.058  12.346 -0.3905 -0.0812 -0.4273
   10MPD2    C313953   2.765   3.085  12.258  0.1518  0.2332 -0.1017
   10MPD2    C413954   2.773   3.042  12.131 -0.4946  0.3746  0.2438
   10MPD2    C513955   2.880   2.967  12.090 -0.1081 -0.1860  0.2492
   10MPD2     H13956   2.851   3.085  12.449  0.5322 -1.4208  0.0928
   10MPD2    H113957   2.691   3.053  12.061 -0.6906  3.3161  0.9512
   10MPD2    H213958   3.070   2.886  12.143  0.7041  0.7729 -0.0766
   10MPD2    H313959   2.893   2.914  11.996  0.8806  1.5345 -0.5997
   10MPD2     N13960   2.652   3.150  12.319  0.1735 -0.3720  0.2565
   10MPD2    H513961   2.663   3.167  12.418 -0.4048  1.4202 -0.0015
   10MPD2    N113962   3.087   2.952  12.395 -0.0891  0.3365 -0.6076
   10MPD2    H713963   3.157   2.902  12.340 -0.3481 -0.6333 -0.0519
   11MPD2     C13964   3.911   2.905  13.788 -0.6577  0.7054  0.1284
   11MPD2    C113965   4.034   2.914  13.729  0.2190 -0.0585 -0.7753
   11MPD2    C213966   4.048   3.010  13.638 -0.1510  0.6498  0.6313
   11MPD2    C313967   3.944   3.100  13.612 -0.2816  0.6346  1.2078
   11MPD2    C413968   3.832   3.101  13.686 -0.2391 -0.2253  0.6437
   11MPD2    C513969   3.807   2.994  13.770 -0.3830  0.2264 -0.2770
   11MPD2     H13970   4.144   3.015  13.587 -1.3538  2.1533 -1.5008
   11MPD2    H113971   3.753   3.175  13.673  0.5050  0.3414 -0.6706
   11MPD2    H213972   3.887   2.812  13.839  1.6900  1.3250  2.3544
   11MPD2    H313973   3.713   2.975  13.820  1.0115 -0.8049  1.9795
   11MPD2     N13974   3.948   3.192  13.507 -0.2104  0.3035 -0.2178
   11MPD2    H513975   3.865   3.248  13.491  0.1618  1.3329  1.4892
   11MPD2    N113976   4.143   2.820  13.749  0.8478 -0.7834 -0.2721
   11MPD2    H713977   4.225   2.824  13.690  1.6645  3.3907  1.1511
    1MPD1     C13978   1.384   4.542  17.066 -0.5014 -0.3659  0.1773
    1MPD1    C113979   1.513   4.549  17.019  0.0643  0.4019  0.2776
    1MPD1    C213980   1.557   4.454  16.925 -0.0538 -0.3404 -0.1219
    1MPD1    C313981   1.481   4.342  16.902 -0.4045  0.0948  1.1247
    1MPD1    C413982   1.348   4.335  16.944 -0.2127  0.0420  0.0825
    1MPD1    C513983   1.305   4.438  17.025  0.4469  0.0071 -0.7445
    1MPD1     H13984   1.655   4.464  16.880  0.1731  1.2115  0.7242
    1MPD1    H113985   1.282   4.253  16.919 -0.0118  0.1835 -0.9063
    1MPD1    H213986   1.337   4.618  17.127  1.4422  2.8386 -2.2904
    1MPD1    H313987   1.200   4.430  17.050  0.6216 -0.1163 -0.0658
    1MPD1     N13988   1.531   4.236  16.815 -0.3978  0.1995  0.3320
    1MPD1    H513989   1.461   4.167  16.792 -0.7726  0.2942  1.1663
    1MPD1    N113990   1.586   4.666  17.045  0.1762 -0.1946  0.0623
    1MPD1    H613991   1.683   4.638  17.030 -0.0673  0.5419 -3.0389
    1MPD1    H713992   1.575   4.705  17.138 -0.4033  0.6607 -0.3690
    2MPD1     C13993   2.388   4.381  16.530  0.6921 -0.5843 -0.2840
    2MPD1    C113994   2.281   4.451  16.577 -0.6503 -0.0660 -0.2022
    2MPD1    C213995   2.161   4.379  16.581  0.5412 -0.4033  0.6357
    2MPD1    C313996   2.149   4.249  16.527 -0.2313 -1.0836 -0.4382
    2MPD1    C413997   2.256   4.180  16.472 -0.5126 -0.4194 -0.3386
    2MPD1    C513998   2.372   4.251  16.492  0.6942  0.6469 -0.0453
    2MPD1     H13999   2.066   4.422  16.613  0.0108 -1.0379 -0.0858
    2MPD1    H114000   2.254   4.075  16.443  0.1948 -0.9692  1.6169
    2MPD1    H214001   2.491   4.408  16.547  0.5372  0.3568 -0.7936
    2MPD1    H314002   2.464   4.200  16.468  0.7644  0.3923  0.7736
    2MPD1     N14003   2.023   4.190  16.543  0.5545 -0.0204 -0.0255
    2MPD1    H514004   1.951   4.246  16.587 -0.0813  0.2181 -1.3809
    2MPD1    N114005   2.300   4.577  16.637 -0.1421  0.6982 -0.1070
    2MPD1    H614006   2.377   4.622  16.589  0.4292  0.7768  0.8846
    2MPD1    H714007   2.214   4.632  16.640 -0.3184  0.5362 -2.6376
    3TMC3    C114008   1.849   4.046  16.532  0.1619 -0.2401 -0.3690
    3TMC3    C214009   1.808   3.919  16.567 -0.0257  0.0437 -0.3172
    3TMC3    C314010   1.697   3.902  16.641  0.2202 -0.0805 -0.0107
    3TMC3    C414011   1.771   4.152  16.572  0.4187 -0.9065  0.2685
    3TMC3    C514012   1.657   4.133  16.644 -0.1116 -0.1810  0.0744
    3TMC3    C614013   1.616   4.004  16.681 -0.4927 -0.2808 -0.0831
    3TMC3     C14014   1.985   4.067  16.498  0.5309 -0.1724  0.3527
    3TMC3     O14015   2.050   3.967  16.484  0.4664 -0.3059 -0.8445
    3TMC3     H14016   1.866   3.830  16.545  2.3192  1.5538 -0.1994
    3TMC3    H114017   1.799   4.252  16.541  1.4069 -1.2176  0.1799
    3TMC3    H214018   1.532   3.996  16.749 -0.6345  1.0515 -0.0945
    3TMC3    C714019   1.655   4.231  16.753 -0.0286 -0.0025 -0.3208
    3TMC3    C814020   1.642   3.769  16.655 -0.4264  0.2780 -0.1638
    3TMC3    O114021   1.757   4.299  16.768  0.2308 -0.2789 -0.3130
    3TMC3    O214022   1.694   3.683  16.589  0.0696  0.0011 -0.1427
    4MPD1     C14023   1.311   3.408  16.782 -0.1474 -0.4309 -0.3666
    4MPD1    C114024   1.263   3.530  16.824  0.4774 -0.3595  0.5375
    4MPD1    C214025   1.336   3.645  16.803  0.0260  0.3401  0.4586
    4MPD1    C314026   1.461   3.637  16.743  0.1032 -0.1028 -0.4251
    4MPD1    C414027   1.504   3.518  16.701 -0.2621 -0.2421 -0.2925
    4MPD1    C514028   1.434   3.399  16.724 -0.7324  0.4215 -0.2419
    4MPD1     H14029   1.291   3.741  16.826 -2.1004 -1.2463  2.9253
    4MPD1    H114030   1.591   3.497  16.640 -0.6887  1.8656 -1.6344
    4MPD1    H214031   1.253   3.317  16.792 -0.2646 -0.1452  1.3675
    4MPD1    H314032   1.464   3.299  16.692  0.0109 -0.1432  2.2512
    4MPD1     N14033   1.521   3.760  16.716  0.1542  0.4017  0.2699
    4MPD1    H514034   1.471   3.845  16.742 -0.0355 -0.0421  1.3562
    4MPD1    N114035   1.130   3.536  16.866  0.0989 -0.0185  0.0190
    4MPD1    H614036   1.116   3.613  16.931  0.3486  2.1544 -2.5159
    4MPD1    H714037   1.101   3.449  16.910  0.1015 -0.3848 -0.7060
    1TCq1    O114038   2.575   2.985  10.742 -0.3950  0.1728 -0.3562
    1TCq1    C114039   2.671   2.926  10.668 -0.5657 -0.0232  0.3486
    1TCq1    O214040   2.657   2.888  10.552 -0.6776  0.5308 -0.0164
    1TCq1    C214041   2.792   2.999  10.701 -0.2664  0.0336  0.0903
    1TCq1    C314042   2.820   3.026  10.829 -0.1081  0.1429  0.0618
    1TCq1    C414043   2.922   3.109  10.858  0.5521 -0.3414 -0.1980
    1TCq1    C514044   2.948   3.209  10.763 -0.2557 -0.3424  0.2832
    1TCq1    C614045   2.892   3.202  10.638 -0.2523  0.0711 -0.3957
    1TCq1    C714046   2.824   3.087  10.601 -0.3064 -0.0072 -0.2281
    1TCq1    C814047   2.908   3.321  10.555  0.0800 -0.1794 -0.5908
    1TCq1    O414048   2.967   3.421  10.586  0.2937 -0.3576  0.5880
    1TCq1    C914049   2.961   3.123  10.993 -0.0138 -0.2629  0.3590
    1TCq1    O514050   2.993   3.023  11.056 -0.4388 -0.0300  0.0339
    1TCq1    O614051   3.008   3.240  11.022  0.2700  0.0252 -0.1109
    1TCq1    H114052   2.598   3.029  10.827  0.5390  1.1800 -1.1378
    1TCq1    H214053   2.790   2.957  10.908 -0.9212 -1.6642 -1.8345
    1TCq1    H314054   2.990   3.301  10.801 -1.0626 -0.4453  1.4167
    1TCq1    H414055   2.820   3.058  10.496 -0.0186 -0.4359 -0.1212
    2MPD1     C14056   2.722   3.569  10.156  0.2669 -0.2733  0.5472
    2MPD1    C114057   2.675   3.443  10.145  0.1415  0.6251 -0.4741
    2MPD1    C214058   2.713   3.362  10.250  0.7750 -0.0374  0.1257
    2MPD1    C314059   2.815   3.393  10.338 -0.4393  0.1009  0.1198
    2MPD1    C414060   2.867   3.520  10.332 -0.8819  0.3614  0.6700
    2MPD1    C514061   2.817   3.613  10.243 -0.0523 -0.2744  0.2473
    2MPD1     H14062   2.655   3.273  10.273 -0.2591  1.0019  1.5356
    2MPD1    H114063   2.925   3.562  10.414  0.9693 -0.0393 -0.4346
    2MPD1    H214064   2.687   3.637  10.079 -0.2398  0.5866  1.5339
    2MPD1    H314065   2.847   3.717  10.247 -1.7230  0.1714  1.3111
    2MPD1     N14066   2.841   3.296  10.438 -0.0421 -0.4743 -0.4599
    2MPD1    H514067   2.785   3.212  10.425 -0.4555 -0.3455  0.5020
    2MPD1    N114068   2.563   3.421  10.057 -0.0231 -0.2957  0.0240
    2MPD1    H614069   2.585   3.456   9.964 -0.5355  3.6957  1.4118
    2MPD1    H714070   2.548   3.322  10.041 -1.0696 -0.1130 -0.1248
    1TCq1    O114071   0.609   0.340   1.331  0.0087  0.3635 -0.4405
    1TCq1    C114072   0.730   0.387   1.372 -1.3681  0.0744 -0.0235
    1TCq1    O214073   0.791   0.339   1.465  0.0519  0.3768 -0.0066
    1TCq1    C214074   0.784   0.490   1.282  0.9181  0.0034 -0.5410
    1TCq1    C314075   0.899   0.556   1.313 -0.4706 -0.4827  0.5883
    1TCq1    C414076   0.947   0.639   1.217  0.4454  0.1392  0.5365
    1TCq1    C514077   0.867   0.673   1.113 -0.0985  0.2991  0.1860
    1TCq1    C614078   0.765   0.594   1.081  0.3269  0.9414 -0.0710
    1TCq1    C714079   0.717   0.501   1.162 -0.1846 -0.3054 -0.0601
    1TCq1    C814080   0.706   0.606   0.952  0.1380 -0.2988 -0.4654
    1TCq1    O414081   0.776   0.659   0.868 -0.3339  0.2059  0.2006
    1TCq1    C914082   1.043   0.734   1.261  0.5796 -0.0909  0.2162
    1TCq1    O514083   1.078   0.827   1.187 -0.4289 -0.1631 -0.3095
    1TCq1    O614084   1.066   0.728   1.390  0.3331  0.1785  0.4258
    1TCq1    H114085   0.568   0.403   1.269  1.7718 -0.1023 -2.0752
    1TCq1    H214086   0.961   0.529   1.397 -0.9790 -0.0778  1.0984
    1TCq1    H314087   0.894   0.762   1.058 -1.0077 -0.2955 -1.2105
    1TCq1    H414088   0.652   0.421   1.129 -0.2463 -0.3882  0.2635
    2MPD1     C14089   0.311   0.615   0.615 -0.3036 -0.0980  0.3952
    2MPD1    C114090   0.259   0.570   0.735 -0.0538  0.7933 -0.3395
    2MPD1    C214091   0.348   0.562   0.842  0.0011 -0.0973 -0.3030
    2MPD1    C314092   0.485   0.589   0.829  0.7337  0.3873  0.5085
    2MPD1    C414093   0.534   0.627   0.710  0.3369 -0.3357  0.1408
    2MPD1    C514094   0.449   0.643   0.607 -0.2610  0.4264  0.6887
    2MPD1     H14095   0.313   0.540   0.942 -0.0399  0.0369 -0.2874
    2MPD1    H114096   0.641   0.641   0.695  0.2556  0.4752  0.3190
    2MPD1    H214097   0.252   0.649   0.530 -1.2054 -3.5674 -0.3749
    2MPD1    H314098   0.486   0.688   0.515 -1.1382 -1.0078 -0.3534
    2MPD1     N14099   0.568   0.592   0.952 -1.1583  0.0789  0.1228
    2MPD1    H514100   0.519   0.570   1.038 -1.2618 -1.4807 -0.3396
    2MPD1    N114101   0.122   0.556   0.755 -0.0904  0.5106  0.5866
    2MPD1    H614102   0.082   0.543   0.663 -0.7052  3.8609  0.3840
    2MPD1    H714103   0.098   0.477   0.815 -1.8266 -1.7453 -3.1458
    1MPD1     C14104   4.536   0.037  10.684 -0.0976  0.1039 -0.1938
    1MPD1    C114105   4.605   0.155  10.684  0.4862  0.1774  0.0308
    1MPD1    C214106   4.700   0.179  10.786  0.0527 -0.5491 -0.0583
    1MPD1    C314107   4.714   0.080  10.883 -0.9031  0.1907  0.1891
    1MPD1    C414108   4.641   4.688  10.876  1.3928  0.0957  0.2128
    1MPD1    C514109   4.553   4.668  10.780  0.0487 -0.1951 -0.5537
    1MPD1     H14110   0.030   0.270  10.803 -0.6523 -0.0143 -0.6558
    1MPD1    H114111   4.628   4.616  10.956 -1.4876  1.3327  0.8658
    1MPD1    H214112   4.457   0.021  10.612 -0.5457  1.1825  0.0517
    1MPD1    H314113   4.501   4.573  10.782  0.4841 -0.4834 -2.4494
    1MPD1     N14114   0.072   0.111  10.993  0.3827  0.1346  0.0241
    1MPD1    H514115   0.119   0.201  10.990  0.2390  0.2171  0.2466
    1MPD1    N114116   4.578   0.256  10.591  0.0287  0.2533  0.1234
    1MPD1    H614117   4.530   0.236  10.504  1.4608 -2.4831 -0.0423
    1MPD1    H714118   4.665   0.302  10.564  0.6255 -0.7495  0.3471
    2MPD1     C14119   0.137   0.011  10.085  0.9850  0.3079 -0.2550
    2MPD1    C114120   4.724   0.027  10.064  0.0964  0.8019  0.1781
    2MPD1    C214121   4.642   4.674  10.143 -0.1738 -0.5338  0.3280
    2MPD1    C314122   4.695   4.581  10.230  0.8081 -0.2510 -0.1805
    2MPD1    C414123   0.103   4.565  10.253  0.2145  0.3026 -0.0694
    2MPD1    C514124   0.187   4.649  10.176  0.0081  0.0301 -0.1261
    2MPD1     H14125   4.534   4.684  10.141 -0.1695 -0.5410  0.0732
    2MPD1    H114126   0.142   4.498  10.329  0.3106  1.8724  1.2679
    2MPD1    H214127   0.201   0.089  10.046  2.0221 -1.2094 -1.5592
    2MPD1    H314128   0.294   4.649  10.196  0.2342  3.1762 -1.3823
    2MPD1     N14129   4.624   4.491  10.317  0.8231  0.2121  0.1512
    2MPD1    H514130   4.683   4.426  10.369  1.4001 -0.0609 -0.8285
    2MPD1    N114131   4.680   0.125   9.976  0.0335  0.0866 -0.2764
    2MPD1    H614132   4.588   0.121   9.932 -0.5324 -0.1367  0.9464
    2MPD1    H714133   0.026   0.158   9.909 -0.1047  0.3064 -0.3124
    3MPD1     C14134   4.001   0.223  10.845  0.3173  0.5735 -0.1379
    3MPD1    C114135   4.093   0.242  10.739  0.2511  0.6093  0.2205
    3MPD1    C214136   4.160   0.134  10.689 -0.1151 -0.3143  0.0064
    3MPD1    C314137   4.148   0.009  10.751 -0.0504  0.6141  0.4172
    3MPD1    C414138   4.053   4.713  10.854  0.1610 -0.2204  0.4895
    3MPD1    C514139   3.985   0.098  10.894  0.0576 -0.3964 -0.3070
    3MPD1     H14140   4.237   0.149  10.614  0.9912  1.7625  1.5745
    3MPD1    H114141   4.023   4.616  10.893 -0.7858 -1.0243 -2.2150
    3MPD1    H214142   3.959   0.310  10.893  0.9323  1.9643 -2.1004
    3MPD1    H314143   3.913   0.084  10.974  0.4074  3.6911  0.7548
    3MPD1     N14144   4.228   4.627  10.697  0.4404 -0.4504 -0.6503
    3MPD1    H514145   4.292   4.655  10.623 -0.9535  1.1754 -1.2410
    3MPD1    N114146   4.135   0.371  10.717  0.5241  0.4042  0.5092
    3MPD1    H614147   4.053   0.431  10.717 -0.6156 -1.1641  1.7275
    3MPD1    H714148   4.168   0.370  10.620  1.7574  1.3198  0.9217
    4MPD2     C14149   0.586   4.588  10.701 -0.1352 -0.1855 -0.3003
    4MPD2    C114150   0.569   4.539  10.832 -0.4525  0.0005 -0.3281
    4MPD2    C214151   0.561   4.401  10.845  0.7348 -0.4798 -0.3216
    4MPD2    C314152   0.601   4.312  10.745  0.4668 -0.3799  0.6892
    4MPD2    C414153   0.631   4.364  10.624 -0.2528 -0.8204  0.1385
    4MPD2    C514154   0.616   4.495  10.599  0.4489 -0.1474  0.2362
    4MPD2     H14155   0.536   4.354  10.940 -0.6351 -1.0610 -0.9805
    4MPD2    H114156   0.662   4.293  10.548  0.0449  0.0627 -0.5764
    4MPD2    H214157   0.578   4.692  10.669  1.1855 -0.2343 -0.7788
    4MPD2    H314158   0.639   4.539  10.502  4.0166 -1.5452  0.4377
    4MPD2     N14159   0.610   4.175  10.780  0.2195 -0.2552  0.2824
    4MPD2    H514160   0.607   4.170  10.881  0.4398 -1.2963  0.2340
    4MPD2    N114161   0.533   4.619  10.948  0.3662  0.2170 -1.0055
    4MPD2    H714162   0.534   4.558  11.029 -0.8931 -0.7260 -1.7122
    5TMC3    C114163   0.436   0.059  11.071 -0.7012 -0.3217 -0.3018
    5TMC3    C214164   0.315   0.116  11.070 -0.4869 -0.2895  1.2891
    5TMC3    C314165   0.221   0.084  11.161  1.2560 -0.3862 -0.6004
    5TMC3    C414166   0.464   4.696  11.174 -0.6462 -0.2013  0.1119
    5TMC3    C514167   0.371   4.663  11.263 -0.2046 -0.1762 -0.3812
    5TMC3    C614168   0.247   4.713  11.259 -0.1121  0.3760  0.3133
    5TMC3     C14169   0.482   0.026  10.942 -0.2099  0.3654  0.3344
    5TMC3     O14170   0.472   0.107  10.849  0.3256  0.8135 -0.2366
    5TMC3     H14171   0.308   0.181  10.983  0.4927  1.0957  2.2352
    5TMC3    H114172   0.565   4.658  11.181 -0.9412 -0.8918  0.5351
    5TMC3    H214173   0.180   4.679  11.338  0.3181  0.5713  0.7605
    5TMC3    C714174   0.376   4.524  11.253  0.0853 -0.6206  0.7508
    5TMC3    C814175   0.100   0.038  11.105  0.2011 -0.5213 -0.4030
    5TMC3    O114176   0.447   4.477  11.164  0.4318 -0.2174 -0.5952
    5TMC3    O214177   0.061   4.651  11.139 -0.3824  0.0497 -0.1347
    6TMC3    C114178   4.454   4.421  10.466 -0.3189 -0.7408 -0.0803
    6TMC3    C214179   4.351   4.476  10.526 -0.4787 -0.1458 -0.8484
    6TMC3    C314180   4.324   4.423  10.648  0.1136 -0.0409  0.3670
    6TMC3    C414181   4.541   4.333  10.521  0.0557  0.0310 -0.6080
    6TMC3    C514182   4.506   4.285  10.646 -0.1771 -0.2813  0.2134
    6TMC3    C614183   4.395   4.325  10.713  0.4969 -0.1546  0.2324
    6TMC3     C14184   4.492   4.501  10.350  0.1511  0.1100 -0.2074
    6TMC3     O14185   4.410   4.588  10.315 -0.4630 -0.4285 -1.0671
    6TMC3     H14186   4.282   4.543  10.476 -0.8051 -0.7342 -1.1838
    6TMC3    H114187   4.620   4.295  10.457  1.0661 -0.9964  1.2307
    6TMC3    H214188   4.347   4.288  10.802  1.2964 -1.5239  0.1033
    6TMC3    C714189   4.583   4.167  10.688  0.1379 -0.0101 -0.4309
    6TMC3    C814190   4.236   4.496  10.736  0.1128  0.7170  0.2483
    6TMC3    O114191   4.681   4.145  10.620  0.2694 -0.1911 -0.0605
    6TMC3    O214192   4.178   4.440  10.830  0.1672  0.0595 -0.1017
    7MPD2     C14193   0.212   4.054  11.334 -0.1337 -0.4388 -0.0373
    7MPD2    C114194   0.316   4.100  11.253  1.0621  0.2016 -0.6676
    7MPD2    C214195   0.346   4.232  11.264  0.4329  0.3567 -0.2019
    7MPD2    C314196   0.278   4.323  11.349 -0.1365 -0.2032  0.0633
    7MPD2    C414197   0.191   4.275  11.442 -0.6142 -0.5022 -0.7296
    7MPD2    C514198   0.158   4.140  11.426  0.2615  0.6573  0.3578
    7MPD2     H14199   0.431   4.270  11.208  0.7734  1.7786  1.2623
    7MPD2    H114200   0.141   4.345  11.508  2.4841  1.0771 -0.1014
    7MPD2    H214201   0.180   3.950  11.336 -0.9250 -0.2296 -1.4407
    7MPD2    H314202   0.075   4.105  11.485  0.5110  0.7498  0.7649
    7MPD2     N14203   0.298   4.458  11.345  0.8247  0.3778  0.0364
    7MPD2    H514204   0.245   4.507  11.416  0.8497 -0.0079  0.3227
    7MPD2    N114205   0.398   4.009  11.175 -0.5814 -0.2898 -0.1727
    7MPD2    H714206   0.365   3.914  11.180 -1.5112  0.0011 -0.7491
    8TMC3    C114207   0.546   3.929  11.009  0.3667 -0.1326  1.0690
    8TMC3    C214208   0.435   3.851  10.970  0.1172 -0.3041 -0.3859
    8TMC3    C314209   0.416   3.832  10.833 -0.2870  0.5468  0.4149
    8TMC3    C414210   0.637   3.975  10.924  0.4499  0.1502  0.1920
    8TMC3    C514211   0.627   3.950  10.784  0.0556 -0.3473 -0.4485
    8TMC3    C614212   0.513   3.887  10.748  0.6912  0.1861  0.6406
    8TMC3     C14213   0.508   4.035  11.098 -0.5447 -0.2010 -0.0988
    8TMC3     O14214   0.582   4.137  11.096  0.1391 -0.0229  0.6077
    8TMC3     H14215   0.366   3.816  11.046  1.2558 -2.8193 -0.5345
    8TMC3    H114216   0.718   4.028  10.971  1.0404 -1.4267  0.9477
    8TMC3    H214217   0.496   3.876  10.642 -0.8814  2.5365  0.6449
    8TMC3    C714218   0.647   4.068  10.703  0.0103  0.0212  0.4191
    8TMC3    C814219   0.279   3.857  10.788 -0.4095  0.5719 -0.1741
    8TMC3    O114220   0.648   4.057  10.582 -0.0273 -0.4177 -0.0328
    8TMC3    O214221   0.264   3.954  10.716 -0.4672  0.4734  0.1983
    9MPD2     C14222   4.702   3.771  10.981  1.0724 -0.0813 -0.3581
    9MPD2    C114223   0.055   3.847  10.898 -0.8189 -0.5186  0.1850
    9MPD2    C214224   0.005   3.961  10.846 -0.4126 -0.8785  0.0022
    9MPD2    C314225   4.598   3.986  10.852  0.6858 -0.8941 -1.1614
    9MPD2    C414226   4.513   3.901  10.918 -0.0053  0.0841  0.3639
    9MPD2    C514227   4.565   3.793  10.987  0.3718 -0.0106  0.4850
    9MPD2     H14228   0.071   4.036  10.805  0.0098 -0.8564  0.7308
    9MPD2    H114229   4.409   3.924  10.940  0.1254  2.1793 -1.1790
    9MPD2    H214230   0.023   3.687  11.033  2.9215  1.6402  0.8202
    9MPD2    H314231   4.512   3.737  11.064 -0.8959  0.5310 -0.0070
    9MPD2     N14232   4.532   4.096  10.790 -0.4584  0.1803  0.1466
    9MPD2    H514233   4.432   4.102  10.809 -0.2577 -0.2534  1.3397
    9MPD2    N114234   0.193   3.804  10.878 -0.0779 -0.5864  0.1019
    9MPD2    H714235   0.221   3.718  10.925 -0.1011 -0.5662  0.1533
    1MPD1     C14236   4.616   3.290  15.681  0.0698  0.2695  0.2339
    1MPD1    C114237   4.616   3.286  15.814  0.1967 -0.1120 -0.5646
    1MPD1    C214238   4.669   3.182  15.883 -0.1441  0.1461  0.3090
    1MPD1    C314239   0.001   3.071  15.812  0.5106 -0.2991 -0.1809
    1MPD1    C414240   4.708   3.068  15.669  0.7065  0.4404 -0.5862
    1MPD1    C514241   4.655   3.179  15.609  0.2539  0.4603  0.4773
    1MPD1     H14242   4.663   3.187  15.991  1.9234 -3.3101  0.5860
    1MPD1    H114243   4.720   2.984  15.602  0.4121  0.7171 -0.9854
    1MPD1    H214244   4.578   3.380  15.634  1.2775  1.2455  1.1421
    1MPD1    H314245   4.638   3.181  15.502  0.7097  0.2635  0.4029
    1MPD1     N14246   0.081   2.970  15.877  0.3608  0.1061 -0.0548
    1MPD1    H514247   0.115   2.902  15.810 -1.0899 -1.1403  0.4728
    1MPD1    N114248   4.584   3.406  15.881 -0.0548 -0.1630  0.0359
    1MPD1    H614249   4.548   3.396  15.976  0.8003  0.8383  0.4712
    1MPD1    H714250   4.510   3.455  15.832 -0.9961 -1.9422 -0.3183
    2MPD1     C14251   0.477   2.985  16.790  0.4131 -0.1588  0.2248
    2MPD1    C114252   0.342   2.985  16.763  0.0243  0.7104  0.9380
    2MPD1    C214253   0.294   2.919  16.649  0.3955  0.5307 -0.0486
    2MPD1    C314254   0.386   2.874  16.557 -0.3288  0.0050 -0.6282
    2MPD1    C414255   0.520   2.885  16.582 -0.5634 -0.0662  0.1299
    2MPD1    C514256   0.562   2.942  16.698 -0.4334  0.0773  0.0385
    2MPD1     H14257   0.188   2.926  16.626  0.7524  0.6574 -1.7103
    2MPD1    H114258   0.597   2.858  16.511  0.7682  2.6354  0.5477
    2MPD1    H214259   0.512   3.024  16.885  1.7210  2.2686 -1.2763
    2MPD1    H314260   0.668   2.946  16.718 -0.5069  0.2714  0.3899
    2MPD1     N14261   0.332   2.822  16.437 -0.1851  0.0159  0.0661
    2MPD1    H514262   0.234   2.831  16.415 -0.1962 -0.1133  0.0638
    2MPD1    N114263   0.250   3.033  16.861  0.4010 -0.0970 -0.0400
    2MPD1    H614264   0.279   3.111  16.919  2.4249  0.2752 -1.5332
    2MPD1    H714265   0.161   3.063  16.821 -0.1976  0.0114  1.3857
    3TCq2    C114266   0.398   2.772  16.333 -0.1878 -0.0503 -0.7087
    3TCq2    O214267   0.512   2.732  16.332  0.2202 -0.2621 -0.0312
    3TCq2    C214268   0.313   2.745  16.223 -0.4622 -0.4292 -0.1702
    3TCq2    C314269   0.361   2.652  16.134 -0.2347  0.0593  0.3074
    3TCq2    C414270   0.318   2.658  16.007 -0.3093  0.4797 -0.4147
    3TCq2    C514271   0.235   2.755  15.963 -0.7879  0.0916  0.2066
    3TCq2    C614272   0.195   2.852  16.058  0.5480 -0.5047 -0.3287
    3TCq2    C714273   0.222   2.839  16.195  0.9338  0.1047 -0.5613
    3TCq2    C814274   0.101   2.958  16.013  0.2920 -0.5439  0.5416
    3TCq2    O414275   0.054   3.033  16.097 -0.2430 -0.3235  0.4714
    3TCq2    C914276   0.378   2.568  15.907  0.2268 -0.0400  0.2137
    3TCq2    O514277   0.445   2.468  15.945 -0.0680  0.7755  0.6131
    3TCq2    O614278   0.356   2.605  15.787  0.1987  0.3848 -0.3173
    3TCq2    H214279   0.429   2.573  16.164 -0.3429  0.1578  0.8102
    3TCq2    H314280   0.208   2.767  15.859  1.5411 -1.1326 -0.5448
    3TCq2    H414281   0.204   2.928  16.254  1.4229  0.1900 -0.5447
    1TCq1    O114282   2.649   1.576  13.581  0.6820  0.3265  0.6634
    1TCq1    C114283   2.585   1.466  13.543  0.3828  0.2688 -0.1247
    1TCq1    O214284   2.591   1.357  13.603  0.8856 -0.0142  0.0629
    1TCq1    C214285   2.512   1.493  13.425  0.8853  0.7117  0.5580
    1TCq1    C314286   2.380   1.453  13.419 -0.4168  0.0443  1.1944
    1TCq1    C414287   2.310   1.499  13.310  0.2987  0.7715 -0.2254
    1TCq1    C514288   2.369   1.567  13.206  0.2279  0.3457 -0.1879
    1TCq1    C614289   2.498   1.600  13.215 -0.3230  0.0649  0.0284
    1TCq1    C714290   2.572   1.567  13.324  0.0109 -0.4102 -0.7194
    1TCq1    C814291   2.550   1.682  13.103 -0.7659  0.3040  0.1763
    1TCq1    O414292   2.480   1.715  13.008 -0.2306  0.1222  0.1871
    1TCq1    C914293   2.165   1.475  13.308 -0.9137 -0.0541 -0.3384
    1TCq1    O514294   2.103   1.516  13.205  0.0279 -0.2895 -0.2415
    1TCq1    O614295   2.108   1.409  13.400 -0.0582 -0.4268 -0.2198
    1TCq1    H114296   2.621   1.648  13.519  2.9138  2.6931  2.4229
    1TCq1    H214297   2.329   1.411  13.504 -0.5438  0.1077  1.1494
    1TCq1    H314298   2.314   1.586  13.114 -0.6731  3.2111  0.9137
    1TCq1    H414299   2.675   1.599  13.330  0.2132 -0.8866 -1.7362
    2MPD2     C14300   2.736   1.840  12.922  0.4656  0.5186  0.2035
    2MPD2    C114301   2.771   1.776  13.041 -0.2248 -0.1585 -0.1672
    2MPD2    C214302   2.896   1.809  13.095  0.6071  0.2220  0.6322
    2MPD2    C314303   2.984   1.896  13.026 -0.4522  0.6337  0.9458
    2MPD2    C414304   2.946   1.957  12.914 -0.2061  0.2132 -0.0025
    2MPD2    C514305   2.826   1.928  12.866 -0.6621 -0.2613  0.2528
    2MPD2     H14306   2.930   1.771  13.190 -0.5356 -0.9395  0.5823
    2MPD2    H114307   3.002   2.036  12.865 -2.2073  1.3971 -0.3714
    2MPD2    H214308   2.637   1.830  12.880  1.5020  0.8548 -2.2764
    2MPD2    H314309   2.794   1.980  12.776  3.1233  2.7257  0.6376
    2MPD2     N14310   3.108   1.914  13.090 -0.4312 -0.1133  0.5326
    2MPD2    H514311   3.121   1.869  13.180 -0.7311 -1.2436  0.0075
    2MPD2    N114312   2.690   1.695  13.115 -0.0971 -0.3569 -0.1677
    2MPD2    H714313   2.731   1.661  13.201 -2.2858 -0.5637  0.8038
    3TCq1    O114314   3.475   2.313  13.392 -0.1454 -0.4276 -0.1767
    3TCq1    C114315   3.481   2.286  13.258 -0.0862 -0.1782 -0.5084
    3TCq1    O214316   3.453   2.364  13.172 -0.4392 -0.0972  0.8467
    3TCq1    C214317   3.472   2.140  13.236  0.7006 -0.2431 -0.1656
    3TCq1    C314318   3.491   2.053  13.344 -0.0190 -0.4606 -0.7286
    3TCq1    C414319   3.419   1.938  13.348  0.6009 -0.3307  0.3412
    3TCq1    C514320   3.332   1.909  13.246 -0.8814 -0.1852 -0.4722
    3TCq1    C614321   3.322   1.989  13.134 -0.2033 -0.1987  1.1154
    3TCq1    C714322   3.387   2.106  13.134  0.4136  0.5505 -0.3573
    3TCq1    C814323   3.207   1.990  13.041  0.7494  0.0689 -0.2164
    3TCq1    O414324   3.218   2.059  12.941  0.1599  0.2625 -0.3005
    3TCq1    C914325   3.432   1.849  13.465  0.2822 -0.0590 -0.9016
    3TCq1    O514326   3.329   1.781  13.496  0.9726 -0.1990  0.1368
    3TCq1    O614327   3.536   1.851  13.536  0.3776  0.1051 -0.3987
    3TCq1    H114328   3.440   2.239  13.446  0.7500 -0.6836  0.0520
    3TCq1    H214329   3.568   2.058  13.421 -0.7877  1.0350 -0.0671
    3TCq1    H314330   3.278   1.815  13.250 -1.8129  0.4309  1.8892
    3TCq1    H414331   3.357   2.175  13.056 -1.3361  2.9576  2.4223
    1MPD2     C14332   2.361   2.712  14.362 -0.3450  0.0525  0.6329
    1MPD2    C114333   2.333   2.590  14.421  0.1191  0.0266  0.4132
    1MPD2    C214334   2.416   2.538  14.517 -0.6050  0.1268  0.7301
    1MPD2    C314335   2.532   2.611  14.553 -0.1640  0.7596 -0.7673
    1MPD2    C414336   2.564   2.725  14.484  0.3204 -0.1942 -0.3411
    1MPD2    C514337   2.484   2.779  14.390 -0.0965  0.6698  0.5511
    1MPD2     H14338   2.386   2.454  14.579  1.6107 -0.1181  1.4573
    1MPD2    H114339   2.642   2.789  14.522 -1.1968  1.1187  0.5208
    1MPD2    H214340   2.292   2.755  14.291  0.6576  2.3155  1.0279
    1MPD2    H314341   2.508   2.874  14.343  1.2633 -0.1771 -0.4724
    1MPD2     N14342   2.605   2.569  14.659 -0.2116  0.7824 -0.2772
    1MPD2    H514343   2.583   2.476  14.693  1.5553  0.8842  1.1120
    1MPD2    N114344   2.224   2.510  14.385  0.6816 -0.0598  0.5808
    1MPD2    H714345   2.163   2.559  14.320 -0.4557 -1.1771  0.8131
    2TMC3    C114346   2.074   2.327  14.373  0.7092 -0.1936 -0.0342
    2TMC3    C214347   2.054   2.201  14.419 -0.5368  0.0174  0.3419
    2TMC3    C314348   1.948   2.173  14.505  0.6313  0.5387  0.0774
    2TMC3    C414349   1.972   2.415  14.382  0.0204 -0.5350 -0.6699
    2TMC3    C514350   1.853   2.383  14.449  0.3271  0.1517  0.0946
    2TMC3    C614351   1.847   2.263  14.515  0.8378 -0.7307 -0.8142
    2TMC3     C14352   2.205   2.380  14.405 -0.5113  0.1537  0.5003
    2TMC3     O14353   2.280   2.300  14.465 -0.2688  0.7806  0.3086
    2TMC3     H14354   2.134   2.128  14.409  0.9085  1.8284 -1.0959
    2TMC3    H114355   1.976   2.502  14.318  2.8295  0.8250  1.3460
    2TMC3    H214356   1.773   2.250  14.593  1.5728 -0.7277 -0.1221
    2TMC3    C714357   1.771   2.490  14.491  0.5175 -0.0239  0.1448
    2TMC3    C814358   1.985   2.106  14.629  0.1796  0.0638 -0.2444
    2TMC3    O114359   1.659   2.473  14.532  0.8644 -0.2190 -0.2570
    2TMC3    O214360   1.895   2.055  14.690  0.0341 -0.3246  0.1824
    3TCq1    O114361   2.253   3.486  14.863  0.9325  0.0179 -0.3958
    3TCq1    C114362   2.250   3.359  14.821  0.7695  0.1298 -0.5853
    3TCq1    O214363   2.266   3.257  14.891  1.3053 -0.2428  0.2625
    3TCq1    C214364   2.204   3.359  14.687 -0.0180 -0.1304  0.0107
    3TCq1    C314365   2.225   3.469  14.616  0.3537 -0.1250 -0.6233
    3TCq1    C414366   2.153   3.486  14.497 -0.3648  0.2710 -0.2822
    3TCq1    C514367   2.049   3.400  14.474 -0.5313 -0.6718 -0.5529
    3TCq1    C614368   2.030   3.296  14.558 -0.4517 -0.1735  0.1966
    3TCq1    C714369   2.109   3.267  14.667  0.0313 -0.5204  0.0688
    3TCq1    C814370   1.906   3.214  14.535  0.1575  0.0640 -0.1038
    3TCq1    O414371   1.814   3.283  14.492  0.0919  0.1333 -0.0635
    3TCq1    C914372   2.166   3.616  14.425 -0.3582 -0.8830  0.6758
    3TCq1    O514373   2.243   3.702  14.483  0.4818 -0.6221  0.6308
    3TCq1    O614374   2.126   3.615  14.305 -0.0988 -0.1149  0.1312
    3TCq1    H114375   2.217   3.532  14.784  0.0046 -0.8707 -0.4758
    3TCq1    H214376   2.309   3.534  14.633 -1.4260  2.4213 -1.5655
    3TCq1    H314377   1.991   3.418  14.384  1.3513  3.1309 -0.9985
    3TCq1    H414378   2.083   3.197  14.745 -0.7654  0.5378  0.7516
    4MPD2     C14379   1.698   3.006  14.535 -0.0974  0.9991  0.0663
    4MPD2    C114380   1.833   2.979  14.522  0.6820 -0.0330  0.5317
    4MPD2    C214381   1.877   2.845  14.501  0.5142  0.2701  0.1821
    4MPD2    C314382   1.793   2.736  14.512  0.2285 -0.2528 -0.2990
    4MPD2    C414383   1.655   2.765  14.526 -0.4081  0.2663 -0.1839
    4MPD2    C514384   1.614   2.895  14.542  0.3539  0.2541 -0.1157
    4MPD2     H14385   1.983   2.825  14.510  1.0880  3.4669  0.5337
    4MPD2    H114386   1.584   2.684  14.519  1.1824 -1.5175  4.1563
    4MPD2    H214387   1.659   3.106  14.553 -0.7212  0.7483  0.0885
    4MPD2    H314388   1.507   2.904  14.561 -0.2198 -1.7163 -2.3350
    4MPD2     N14389   1.849   2.606  14.496  0.3308 -0.0138 -0.2141
    4MPD2    H514390   1.945   2.582  14.475 -0.1016 -0.0858 -2.1322
    4MPD2    N114391   1.928   3.080  14.540  0.1158  0.1402  0.5757
    4MPD2    H714392   2.023   3.050  14.559 -0.3389 -1.7411 -0.2099
    5TMC2    C114393   2.648   2.392  14.966  0.2876  0.3977  0.7177
    5TMC2    C214394   2.644   2.467  15.077 -0.8799  0.5094 -0.0558
    5TMC2    C314395   2.705   2.586  15.077 -0.2891  0.9413 -0.1093
    5TMC2    C414396   2.707   2.433  14.856  0.1147 -0.0478 -0.7146
    5TMC2    C514397   2.753   2.563  14.844 -0.4268  0.2505 -0.1245
    5TMC2    C614398   2.762   2.643  14.961 -0.5922  0.0638 -0.6090
    5TMC2     C14399   2.521   2.347  14.920 -0.8283  0.7996  0.5595
    5TMC2     O14400   2.506   2.362  14.802  0.4000  0.1938 -0.3219
    5TMC2     H14401   2.589   2.444  15.167 -0.1270  0.1784  0.3194
    5TMC2    H114402   2.724   2.360  14.778  2.2492  1.0764 -1.3136
    5TMC2    H214403   2.786   2.749  14.964 -2.3707  0.4474  0.3774
    5TMC2    C714404   2.706   2.637  14.725  0.1355 -0.1105 -0.5967
    5TMC2    C814405   2.720   2.642  15.210 -0.1132  0.4161  0.2514
    5TMC2    O114406   2.742   2.754  14.716  0.2301  0.7624  0.0548
    5TMC2    O214407   2.674   2.588  15.309 -0.1318 -0.2297 -0.1326
    5TMC2    O514408   2.833   2.713  15.207 -0.5627 -0.5939 -0.4111
    5TMC2    H514409   2.867   2.744  15.121  0.4952 -2.1046 -0.5305
    6MPD2     C14410   2.068   2.095  14.912  0.0253 -0.6125  0.9859
    6MPD2    C114411   2.134   2.159  14.814 -0.5635  0.1848  0.1837
    6MPD2    C214412   2.254   2.222  14.846  1.0335  1.2137  0.2575
    6MPD2    C314413   2.316   2.213  14.975  0.2808 -0.5921 -0.2347
    6MPD2    C414414   2.244   2.147  15.068 -0.4509  0.0293  0.8045
    6MPD2    C514415   2.122   2.094  15.039  0.2540  0.8579  0.0580
    6MPD2     H14416   2.309   2.259  14.761 -1.7121 -0.3254 -2.1894
    6MPD2    H114417   2.275   2.148  15.172  0.5927 -1.1308  0.5038
    6MPD2    H214418   1.975   2.043  14.891 -0.7838  0.7429  1.1675
    6MPD2    H314419   2.068   2.043  15.118  0.3467 -1.2615 -1.2488
    6MPD2     N14420   2.431   2.285  15.009 -0.1976 -0.2841 -0.3204
    6MPD2    H514421   2.467   2.278  15.104  0.3604 -0.1439 -0.5245
    6MPD2    N114422   2.096   2.162  14.679 -0.8295 -0.2054  0.0297
    6MPD2    H714423   2.150   2.221  14.617 -2.3221  0.7717 -0.3639
  945NH4     N114424   1.648   2.828  10.284  0.0548  0.8369 -0.3190
  945NH4     H214425   1.557   2.790  10.318  0.8701  0.1961  1.1358
  945NH4     H314426   1.675   2.773  10.200 -2.3133  0.2413 -0.6954
  945NH4     H414427   1.718   2.823  10.360 -0.4528  1.8723  0.2160
  945NH4     H514428   1.625   2.922  10.247 -1.5545 -0.5977 -3.0368
  946SOD     NA14429   2.229   2.284   8.814  0.2909 -0.3342  0.2455
  947SOD     NA14430   3.558   1.678  16.556 -0.2094  0.3417  0.5307
  948SOD     NA14431   1.469   1.455  10.371 -0.1750  0.3046 -0.1072
  949SOD     NA14432   2.837   0.232  16.643  0.0236 -0.3631 -0.2712
  950SOD     NA14433   1.252   4.132  12.713  0.5400 -0.0483  0.1225
  951SOD     NA14434   1.507   3.023   1.542  0.0574 -0.1119  0.0120
  952SOD     NA14435   2.897   4.138  10.774  0.1297  0.0360  0.2862
  953SOD     NA14436   2.130   0.665   3.107 -0.0660  0.0908 -0.2404
  954SOD     NA14437   2.494   2.103  11.285 -0.4730 -0.4660  0.4273
  955SOD     NA14438   1.464   4.032   8.385 -0.1708  0.0748 -0.8239
  956SOD     NA14439   3.204   1.264  14.264 -0.4877 -0.2901  0.5225
  957SOD     NA14440   1.616   1.933   2.466  0.0656  0.1806  0.1676
  958SOD     NA14441   1.570   2.092  15.270  0.3615  0.0362 -0.0009
  959SOD     NA14442   1.009   1.032  12.624 -0.0970 -0.3459  0.3799
  960SOD     NA14443   0.539   0.722   7.352  0.4449 -0.0953  0.4237
  961SOD     NA14444   2.516   0.255  11.216 -0.4174 -0.1018  0.2780
  962SOD     NA14445   2.807   1.225  11.704  0.1035  0.0017  0.2799
  963SOD     NA14446   2.661   4.544  12.125 -0.1055  0.4996  0.2055
  964SOD     NA14447   3.680   1.682  13.537  0.0656 -0.1713  0.3138
  965SOD     NA14448   4.433   1.505   0.469 -0.6704 -0.4474  0.1961
  966SOD     NA14449   2.450   3.430   9.621  0.1432 -1.0035 -0.2052
  967SOD     NA14450   2.205   3.707   3.271  0.2388  0.0298  0.2901
  968SOD     NA14451   0.845   3.758  10.427  0.6077 -0.1108  0.4302
  969SOD     NA14452   0.722   1.210  12.687  0.2032 -0.5075  0.6305
  970SOD     NA14453   3.151   2.747   1.701 -0.2103 -0.1227  0.1048
  971SOD     NA14454   0.068   1.835   2.169 -0.3471 -0.0408  0.1491
  972SOD     NA14455   3.828   4.044  15.026  0.1095  0.3547 -0.0936
  973SOD     NA14456   2.924   1.087  12.732  0.1486 -0.5167  0.6197
  974SOD     NA14457   0.595   3.403   6.766 -0.1253 -0.0617  0.2414
  975SOD     NA14458   4.293   3.000  12.014 -0.1912 -0.0881 -0.5133
  976SOD     NA14459   4.011   1.139  13.761 -0.3851 -0.3050 -0.0147
  977SOD     NA14460   4.213   0.905   0.872 -0.1109  0.2862  0.2363
  978SOD     NA14461   1.309   3.128  10.109 -0.0161  0.2741 -0.3659
  979SOD     NA14462   3.550   4.572  11.259  0.2078 -0.1741 -0.3408
  980SOD     NA14463   3.553   1.900  13.767 -0.3618  0.0812 -0.2360
  981SOD     NA14464   1.426   3.424  10.834 -0.5880  0.0444 -0.1792
  982SOD     NA14465   3.106   2.941  14.020 -0.1450 -0.0430 -0.2965
  983SOD     NA14466   2.612   2.304  12.253  0.0130 -0.1245  0.1903
  984SOD     NA14467   2.744   1.127   0.452 -0.0430  0.0515 -0.5765
  985SOD     NA14468   0.165   2.033  11.736  0.1300 -0.4642  0.2209
  986SOD     NA14469   1.236   1.315  14.802  0.6865  0.2304  0.1464
  987SOD     NA14470   3.762   1.363  13.662  0.2362  0.2246  0.2061
  988SOD     NA14471   3.314   0.959  17.361 -0.0632  0.0724  0.1931
  989SOD     NA14472   1.208   1.125   9.808 -0.1660 -0.2805  0.0004
  990SOD     NA14473   2.656   3.548   9.390 -0.0503  0.2765  0.6280
  991SOD     NA14474   3.615   2.566  15.578  0.7378 -0.0794 -0.6161
  992SOD     NA14475   0.490   1.513  16.385  0.6532 -0.1445  0.2239
  993SOD     NA14476   3.748   3.793  14.219 -0.0752 -0.1763 -0.2968
  994SOD     NA14477   1.609   2.493  14.770  0.5627  0.1857 -0.2811
  995SOD     NA14478   0.887   3.954   1.665 -0.4653 -0.2631 -0.3263
  996SOD     NA14479   1.543   1.814  10.319 -0.3563  0.6705  0.4804
  997SOD     NA14480   2.214   1.223  11.295  0.0150  0.1352  0.2895
  998SOD     NA14481   0.723   3.518   5.109  0.1006 -0.4378 -0.2180
  999SOD     NA14482   0.194   0.514   2.554 -0.4394 -0.0374 -0.6725
 1000SOD     NA14483   2.390   1.848  12.571  0.0896  0.3305 -0.5033
 1001SOD     NA14484   4.625   2.631  14.592 -0.2097 -0.2726 -0.0312
 1002SOD     NA14485   4.483   0.932   1.373 -0.1421  0.2990  0.4361
 1003SOD     NA14486   3.330   4.377   7.735 -0.1811  0.4267 -0.3503
 1004SOD     NA14487   4.477   0.169  14.664  0.1568 -0.1697  0.3531
 1005SOD     NA14488   0.636   2.459  15.845  0.1998  0.6559 -0.1695
 1006SOD     NA14489   4.082   4.555   1.830 -0.0734 -0.0696 -0.0576
 1007SOD     NA14490   1.329   3.464  10.454 -0.3538 -0.2101  0.2258
 1008SOD     NA14491   3.424   3.643  11.730  0.3156 -0.1973  0.4157
 1009SOD     NA14492   4.186   2.737  10.598  0.2344 -0.0722  0.4042
 1010SOD     NA14493   0.760   3.434   0.673  0.1472 -0.5792 -0.1249
 1011SOL     OW14494   0.533   3.515   2.135 -0.1348  0.0304 -0.3011
 1011SOL    HW114495   0.628   3.507   2.134 -0.1499 -0.2015 -0.0679
 1011SOL    HW214496   0.498   3.453   2.071 -1.0081  0.9269 -0.6929
 1012SOL     OW14497   4.465   3.339   5.158  0.2700  0.8321 -0.0057
 1012SOL    HW114498   4.550   3.329   5.115  1.1451  0.1037  1.8914
 1012SOL    HW214499   4.482   3.413   5.217  0.7687  2.0238 -1.6368
 1013SOL     OW14500   4.584   2.889   7.380  0.2279  0.2410 -0.0888
 1013SOL    HW114501   4.530   2.962   7.410  0.3728 -0.3663  1.6403
 1013SOL    HW214502   4.524   2.833   7.331  0.3174 -0.7045  0.8811
 1014SOL     OW14503   3.386   3.429   4.135  0.0527  0.4869  0.6448
 1014SOL    HW114504   3.317   3.377   4.177 -1.6080  1.7014 -0.6164
 1014SOL    HW214505   3.401   3.398   4.046 -2.2517 -2.0347  1.1423
 1015SOL     OW14506   3.558   3.097   8.067  0.4200 -0.0423  0.1978
 1015SOL    HW114507   3.539   3.004   8.081 -3.7580  0.7403 -0.3354
 1015SOL    HW214508   3.638   3.094   8.120  1.5231  0.9070 -1.4431
 1016SOL     OW14509   3.460   4.027   3.757  0.2589  0.0892 -0.0215
 1016SOL    HW114510   3.370   4.007   3.732  0.4046  0.0840 -0.5272
 1016SOL    HW214511   3.481   4.062   3.671  1.0055 -1.1260 -0.3275
 1017SOL     OW14512   3.787   4.294   5.112  0.3041  0.4548 -1.2765
 1017SOL    HW114513   3.751   4.207   5.133 -0.7607  1.4000  0.7937
 1017SOL    HW214514   3.877   4.268   5.093  0.9235  2.2477 -0.7204
 1018SOL     OW14515   0.775   1.597  11.403 -0.5136 -0.3312 -0.6032
 1018SOL    HW114516   0.679   1.600  11.409 -0.5802 -1.2170 -1.2233
 1018SOL    HW214517   0.801   1.683  11.436 -0.1915 -0.7173  0.1361
 1019SOL     OW14518   3.017   2.714   5.415 -0.1834 -0.1546  0.1445
 1019SOL    HW114519   2.931   2.719   5.373 -0.6365 -0.4984  1.0263
 1019SOL    HW214520   3.076   2.759   5.355 -0.7139  1.7432  1.0285
 1020SOL     OW14521   1.257   2.269  16.882  0.5024 -1.0663  0.4373
 1020SOL    HW114522   1.307   2.214  16.944  0.3539 -1.4736  0.1963
 1020SOL    HW214523   1.171   2.255  16.921 -0.6603  2.8155 -0.7515
 1021SOL     OW14524   3.562   3.576  12.155 -0.2189  0.2808  0.2063
 1021SOL    HW114525   3.636   3.626  12.188 -1.1636  0.6292  1.7687
 1021SOL    HW214526   3.539   3.625  12.076  0.4279  1.9129  1.0414
 1022SOL     OW14527   3.867   4.517   4.438  0.4973 -0.0024 -0.2612
 1022SOL    HW114528   3.831   4.439   4.396 -1.4121 -0.1536  1.6524
 1022SOL    HW214529   3.805   4.536   4.509 -1.7919 -0.7667 -2.0711
 1023SOL     OW14530   1.674   3.367   8.435 -0.0593  0.2283 -0.5990
 1023SOL    HW114531   1.581   3.368   8.414 -0.1965 -1.1532 -0.0949
 1023SOL    HW214532   1.697   3.456   8.459 -0.0528 -0.1680  0.8743
 1024SOL     OW14533   4.059   1.675   3.447  0.2835 -0.2294 -0.4198
 1024SOL    HW114534   4.122   1.651   3.379  0.0523  0.2347 -0.7958
 1024SOL    HW214535   3.988   1.711   3.395  0.9400  1.9517  0.1873
 1025SOL     OW14536   1.121   2.163   2.647 -0.2437 -0.2966  0.3768
 1025SOL    HW114537   1.175   2.207   2.713 -1.9513  3.1659 -0.5147
 1025SOL    HW214538   1.046   2.138   2.701 -0.6538  0.8066  0.3157
 1026SOL     OW14539   1.704   4.158   6.332  0.0433 -0.1174  0.1978
 1026SOL    HW114540   1.620   4.167   6.377  1.2776  1.4309  2.2084
 1026SOL    HW214541   1.696   4.216   6.256 -1.1313 -0.5705 -0.0260
 1027SOL     OW14542   2.463   3.673  17.484  0.2604  0.7179 -0.2087
 1027SOL    HW114543   2.408   3.604  17.447  0.6189  0.8977 -1.0891
 1027SOL    HW214544   2.391   3.733  17.505 -0.3189 -0.4998  1.2299
 1028SOL     OW14545   4.147   1.669   4.074 -0.0802  0.2430 -0.1819
 1028SOL    HW114546   4.236   1.696   4.050 -0.3443 -0.0125 -1.4550
 1028SOL    HW214547   4.103   1.753   4.060  1.8528  1.3817  0.5842
 1029SOL     OW14548   3.996   0.369  11.412 -0.3015 -0.1904 -0.2128
 1029SOL    HW114549   3.962   0.459  11.418 -1.4384 -0.5397 -1.5715
 1029SOL    HW214550   4.081   0.393  11.448 -0.7499  0.1512  0.6259
 1030SOL     OW14551   1.940   1.273  13.257  0.6501  0.0536 -0.4881
 1030SOL    HW114552   1.991   1.349  13.284 -1.2933  1.5806 -1.1269
 1030SOL    HW214553   1.947   1.208  13.327 -0.8863  0.2336 -0.1669
 1031SOL     OW14554   4.090   1.948   4.075  0.7522  0.3460 -1.3323
 1031SOL    HW114555   4.128   1.947   3.988  3.1232  0.1803 -0.2791
 1031SOL    HW214556   4.136   2.020   4.117  1.6521 -0.5036 -0.8688
 1032SOL     OW14557   3.401   0.652   4.892 -0.4166  0.2801 -0.0011
 1032SOL    HW114558   3.318   0.639   4.939 -0.6790 -2.3356 -1.1926
 1032SOL    HW214559   3.426   0.563   4.869  0.7533  0.5096  0.3455
 1033SOL     OW14560   3.670   4.635   4.843 -0.2322 -0.0604  0.3175
 1033SOL    HW114561   3.649   4.647   4.936 -0.9047  2.7863 -0.2216
 1033SOL    HW214562   3.694   4.720   4.806  1.4319 -1.1140 -1.0386
 1034SOL     OW14563   1.825   2.446   8.284 -0.4675  0.3477 -0.0111
 1034SOL    HW114564   1.753   2.508   8.274 -0.4526 -0.0406 -2.4848
 1034SOL    HW214565   1.836   2.403   8.199 -0.1421  0.9633 -0.2736
 1035SOL     OW14566   3.592   1.917  15.926 -0.5652  0.1516 -0.4630
 1035SOL    HW114567   3.684   1.929  15.900 -0.0966 -2.0718  0.1739
 1035SOL    HW214568   3.555   1.864  15.856  0.2945 -2.0676  0.7931
 1036SOL     OW14569   2.742   4.560   9.039  0.2557 -0.0371  0.5010
 1036SOL    HW114570   2.678   4.600   8.979  1.3129  0.1001 -0.5282
 1036SOL    HW214571   2.704   4.473   9.054 -2.9025  1.5231  1.6453
 1037SOL     OW14572   0.434   2.925  12.220  0.0357 -0.1808  0.2814
 1037SOL    HW114573   0.419   2.991  12.152 -0.3734 -1.1156 -0.5400
 1037SOL    HW214574   0.500   2.976  12.268 -1.8523  1.8291  0.7615
 1038SOL     OW14575   2.348   1.420   9.591 -0.2194  0.5853  0.4383
 1038SOL    HW114576   2.440   1.422   9.616 -0.0319  0.3216 -0.2360
 1038SOL    HW214577   2.312   1.417   9.680  1.4282 -1.4816  1.0334
 1039SOL     OW14578   1.520   3.755   3.978  0.0292 -0.5137 -0.1111
 1039SOL    HW114579   1.512   3.831   3.920  1.6374 -1.2132 -1.2457
 1039SOL    HW214580   1.429   3.745   4.006 -0.1956 -1.4138 -1.1468
 1040SOL     OW14581   0.128   2.680  17.308  0.6062 -0.3158 -0.5147
 1040SOL    HW114582   0.139   2.587  17.293  1.6873 -0.2951  0.1741
 1040SOL    HW214583   0.169   2.696  17.393  0.6568 -1.2353 -0.3733
 1041SOL     OW14584   0.725   0.156   9.505 -0.2166  0.1653  0.0350
 1041SOL    HW114585   0.807   0.167   9.554 -0.1042 -0.7375  0.0388
 1041SOL    HW214586   0.653   0.162   9.568  1.5790  0.2453  2.0826
 1042SOL     OW14587   0.492   3.585   9.049 -0.0046  0.4858  0.0793
 1042SOL    HW114588   0.456   3.608   9.135  0.2830 -1.2545  0.6583
 1042SOL    HW214589   0.585   3.589   9.069  0.2713  0.9267 -1.2630
 1043SOL     OW14590   4.685   1.351   9.255  0.1889 -1.0350 -0.2461
 1043SOL    HW114591   4.700   1.336   9.161  0.6548  0.7038 -0.4422
 1043SOL    HW214592   4.590   1.336   9.251  0.0132 -0.5733  2.6108
 1044SOL     OW14593   1.958   3.958   9.015  0.3117 -0.2598 -0.0799
 1044SOL    HW114594   1.960   4.051   9.035 -1.4029 -0.1831 -0.3313
 1044SOL    HW214595   2.035   3.940   9.069  1.0705 -1.2050 -1.4889
 1045SOL     OW14596   0.174   2.580   4.707 -0.1456  0.0903  0.2264
 1045SOL    HW114597   0.249   2.529   4.674  1.7503  0.5740  3.7563
 1045SOL    HW214598   0.211   2.616   4.788  0.5006  0.0145 -0.0345
 1046SOL     OW14599   1.905   1.160  15.741 -0.2176  0.0225  0.2241
 1046SOL    HW114600   1.885   1.177  15.649  0.2161  2.2855  0.5562
 1046SOL    HW214601   1.825   1.114  15.769 -0.2074 -0.0718  0.0987
 1047SOL     OW14602   2.330   2.419   2.723  0.1702  0.4003 -0.6211
 1047SOL    HW114603   2.294   2.350   2.779 -0.0412 -0.9038 -2.3593
 1047SOL    HW214604   2.384   2.354   2.678 -2.3770 -3.1073  1.3359
 1048SOL     OW14605   4.064   3.101   5.315 -0.2956  0.2759  0.2750
 1048SOL    HW114606   3.984   3.073   5.271 -0.7559  2.3454 -0.1584
 1048SOL    HW214607   4.131   3.088   5.247 -0.2311  0.2285  0.3470
 1049SOL     OW14608   4.076   0.290   3.938  0.5567 -0.2380  0.3998
 1049SOL    HW114609   4.143   0.293   3.870 -1.5812  0.3278 -1.7066
 1049SOL    HW214610   4.105   0.362   3.993  1.6641  0.5817 -1.2623
 1050SOL     OW14611   2.137   0.368   7.210  0.1769 -0.2576  0.8523
 1050SOL    HW114612   2.075   0.336   7.276  0.1508 -1.1138  0.4155
 1050SOL    HW214613   2.146   0.460   7.235  0.0858 -0.4216  1.4935
 1051SOL     OW14614   0.242   3.258   0.531 -0.4421 -0.1875 -0.6892
 1051SOL    HW114615   0.208   3.334   0.577 -0.1545 -1.1118  1.0628
 1051SOL    HW214616   0.160   3.211   0.519 -0.6379 -0.3001  0.9804
 1052SOL     OW14617   2.526   2.274  10.781  0.4362 -0.3133  0.1826
 1052SOL    HW114618   2.497   2.362  10.756 -0.4612 -0.5756  0.3011
 1052SOL    HW214619   2.454   2.245  10.836  0.7736  3.3790  2.5404
 1053SOL     OW14620   1.044   3.548  12.386  0.0623  0.2667 -0.5792
 1053SOL    HW114621   1.091   3.613  12.333  0.1571 -0.3063 -1.1957
 1053SOL    HW214622   0.953   3.575  12.373 -0.1337  0.7087  1.7053
 1054SOL     OW14623   2.843   2.144   0.161  0.3216 -0.0430  0.0006
 1054SOL    HW114624   2.921   2.192   0.133 -1.3916  3.0481  0.5319
 1054SOL    HW214625   2.895   2.072   0.198  1.0170 -0.2877 -1.4399
 1055SOL     OW14626   3.813   3.612  17.356  0.2916  0.0969 -0.4228
 1055SOL    HW114627   3.891   3.613  17.411  1.7189  1.0623 -2.4618
 1055SOL    HW214628   3.831   3.641  17.267 -0.7111 -0.0777 -0.6820
 1056SOL     OW14629   3.161   3.783   7.415 -0.0147 -0.6828  0.2514
 1056SOL    HW114630   3.093   3.832   7.368  0.8828 -1.5876 -2.0062
 1056SOL    HW214631   3.242   3.805   7.369 -2.1991  0.7210 -2.9332
 1057SOL     OW14632   0.327   0.176   5.367 -0.0160  0.0564 -0.9760
 1057SOL    HW114633   0.329   0.149   5.275  0.7450  0.5048 -1.0875
 1057SOL    HW214634   0.232   0.169   5.380  0.1619  0.2921  0.4552
 1058SOL     OW14635   1.703   0.839   4.411  0.1308 -0.0844  0.0207
 1058SOL    HW114636   1.682   0.816   4.321 -1.2644  1.6016 -0.0993
 1058SOL    HW214637   1.648   0.917   4.421  2.1477  1.4832 -1.1262
 1059SOL     OW14638   1.686   4.333  15.721 -0.0506 -0.5611  0.7117
 1059SOL    HW114639   1.676   4.295  15.808 -2.1325  2.9699  2.0047
 1059SOL    HW214640   1.722   4.420  15.739 -0.5639 -0.4046  0.9795
 1060SOL     OW14641   1.464   3.134   1.322  0.2176 -0.5871 -0.2967
 1060SOL    HW114642   1.428   3.220   1.341  2.3698  0.4699 -0.9389
 1060SOL    HW214643   1.504   3.158   1.239 -0.5370 -1.1589 -0.8232
 1061SOL     OW14644   2.398   1.672   8.277 -0.2282  0.1069 -0.3503
 1061SOL    HW114645   2.312   1.693   8.313  0.0598  0.9304 -0.1397
 1061SOL    HW214646   2.391   1.577   8.277 -1.8489  0.2180  1.7293
 1062SOL     OW14647   3.847   2.232   7.238 -0.8116  0.2417  0.4310
 1062SOL    HW114648   3.818   2.158   7.185  0.2345 -0.5071  0.8869
 1062SOL    HW214649   3.837   2.190   7.324  1.5812  0.0701  0.6337
 1063SOL     OW14650   4.029   2.286   0.622 -0.1952  0.0499 -0.1228
 1063SOL    HW114651   4.071   2.251   0.701  0.0328 -0.6291 -0.5533
 1063SOL    HW214652   3.994   2.368   0.658 -1.0512  0.4056 -1.7636
 1064SOL     OW14653   2.996   1.011   6.677  0.4559 -0.3445  0.0826
 1064SOL    HW114654   3.049   0.931   6.682 -0.9488 -1.3552 -0.8211
 1064SOL    HW214655   3.057   1.083   6.688 -0.3383  0.3010  0.2157
 1065SOL     OW14656   2.348   3.429   7.037  0.1733  0.4522 -0.0903
 1065SOL    HW114657   2.264   3.456   7.001  1.7048  0.4165 -3.6378
 1065SOL    HW214658   2.320   3.416   7.128 -2.1580  0.4716 -0.8175
 1066SOL     OW14659   1.079   1.160  14.772 -0.6648 -0.0061 -0.0139
 1066SOL    HW114660   1.041   1.186  14.688 -1.9060 -2.4435 -0.2248
 1066SOL    HW214661   1.002   1.131  14.820  0.0207  1.0633  1.6984
 1067SOL     OW14662   4.394   3.444   7.591  0.1226  0.0294 -0.0979
 1067SOL    HW114663   4.485   3.423   7.609  0.2780 -0.4780 -1.4139
 1067SOL    HW214664   4.413   3.486   7.506 -1.2534 -0.5828 -0.7146
 1068SOL     OW14665   2.487   4.013   9.544  0.4367  0.0368 -0.6663
 1068SOL    HW114666   2.448   4.083   9.491  0.7856  1.2717  0.6998
 1068SOL    HW214667   2.498   4.063   9.625 -2.8881  0.3482 -0.3686
 1069SOL     OW14668   2.396   2.815   6.553 -0.8377 -0.0535 -0.6925
 1069SOL    HW114669   2.465   2.822   6.620  0.0612  3.1279 -1.9768
 1069SOL    HW214670   2.440   2.793   6.471  0.9825 -0.6847  0.4426
 1070SOL     OW14671   1.068   2.828   2.009 -0.0630 -0.2237 -0.2926
 1070SOL    HW114672   1.121   2.856   1.935  0.0596  0.3974  0.0295
 1070SOL    HW214673   0.981   2.862   1.994  0.1683 -0.2417 -1.6845
 1071SOL     OW14674   2.076   0.472   1.652 -0.3609  0.5477 -0.2527
 1071SOL    HW114675   2.001   0.511   1.697  1.4415  2.2595  1.2768
 1071SOL    HW214676   2.148   0.487   1.714 -2.2012 -2.6848  2.7288
 1072SOL     OW14677   1.532   1.257   7.630 -0.0555  0.1513 -0.9916
 1072SOL    HW114678   1.451   1.207   7.625 -0.4465  0.9637 -2.9361
 1072SOL    HW214679   1.581   1.222   7.704  0.7222  1.5048 -0.8754
 1073SOL     OW14680   2.025   1.597   4.903  0.0945 -0.3580  0.2607
 1073SOL    HW114681   1.934   1.625   4.914 -0.2069 -0.3112 -2.3667
 1073SOL    HW214682   2.081   1.675   4.900  0.5942 -0.6446  1.7414
 1074SOL     OW14683   0.023   3.301   5.098 -0.0979 -0.3911 -0.2203
 1074SOL    HW114684   0.034   3.364   5.170 -0.3339  0.0105 -0.5407
 1074SOL    HW214685   0.038   3.219   5.145 -0.3302 -0.7436 -0.7662
 1075SOL     OW14686   4.321   1.488   5.455  0.0705  0.3165  0.4532
 1075SOL    HW114687   4.335   1.486   5.550  0.8723 -0.4616  0.3133
 1075SOL    HW214688   4.235   1.530   5.449 -0.5841 -0.8569  1.7294
 1076SOL     OW14689   3.093   0.467   4.857  0.7929  0.4234 -0.5253
 1076SOL    HW114690   3.165   0.409   4.832 -2.1694 -3.0479 -0.9613
 1076SOL    HW214691   3.023   0.456   4.792 -0.8573 -0.9018  1.4491
 1077SOL     OW14692   0.355   0.663   8.511  1.0394  0.8055 -0.3175
 1077SOL    HW114693   0.355   0.718   8.590 -1.1319  0.0739  0.1810
 1077SOL    HW214694   0.305   0.716   8.450 -2.7546 -0.8917  1.3291
 1078SOL     OW14695   2.850   2.084   6.429 -0.0160  0.2870 -0.4534
 1078SOL    HW114696   2.897   2.166   6.444 -0.9224  0.9620 -1.3184
 1078SOL    HW214697   2.787   2.084   6.501  0.7091  0.1843  0.1734
 1079SOL     OW14698   2.214   1.833  14.766 -0.2635  0.2958  0.6041
 1079SOL    HW114699   2.189   1.915  14.808  2.5373  1.2777  0.3661
 1079SOL    HW214700   2.166   1.773  14.824 -2.7057  0.5574 -1.1307
 1080SOL     OW14701   0.372   1.385  16.223  0.2581 -0.4675  0.4272
 1080SOL    HW114702   0.343   1.294  16.223 -0.9929 -0.0721  0.8752
 1080SOL    HW214703   0.306   1.445  16.189  1.0930  0.2053 -0.0142
 1081SOL     OW14704   1.809   3.356   8.197  0.0221 -0.0398  0.5004
 1081SOL    HW114705   1.780   3.382   8.285 -1.8241  1.8754 -0.6699
 1081SOL    HW214706   1.726   3.344   8.151  1.0921 -0.1564 -1.3606
 1082SOL     OW14707   2.222   3.027   8.450  0.4975  0.2815 -0.3916
 1082SOL    HW114708   2.296   3.026   8.389  3.6460 -3.1160  3.4980
 1082SOL    HW214709   2.172   3.101   8.414  0.4324  0.1189 -0.6334
 1083SOL     OW14710   1.896   2.429  12.650  0.4319  0.1823 -0.4661
 1083SOL    HW114711   1.844   2.500  12.611 -0.3052  0.6554  1.3839
 1083SOL    HW214712   1.824   2.368  12.664  1.1298 -0.9750 -1.9253
 1084SOL     OW14713   2.553   2.159   2.220  0.0536 -0.4725 -0.6821
 1084SOL    HW114714   2.581   2.142   2.131  0.9892  0.4685 -0.5616
 1084SOL    HW214715   2.628   2.163   2.280 -0.5085 -0.0799 -0.0059
 1085SOL     OW14716   1.198   4.543   1.965 -0.1145 -0.1565  0.2039
 1085SOL    HW114717   1.241   4.549   1.879 -0.5545 -1.1446 -0.0858
 1085SOL    HW214718   1.280   4.547   2.015  0.9068  0.7765 -1.5060
 1086SOL     OW14719   3.834   3.380  17.631 -0.1121 -0.2057  0.1231
 1086SOL    HW114720   3.810   3.411   0.020 -1.5701 -1.3804  0.1523
 1086SOL    HW214721   3.871   3.461  17.597  0.8567 -0.2838  1.0207
 1087SOL     OW14722   3.079   0.979  12.102 -0.1497  0.2032  0.6410
 1087SOL    HW114723   3.095   1.039  12.029  3.3598  0.2506  1.4040
 1087SOL    HW214724   3.079   1.040  12.177 -0.5545  0.6337  0.2891
 1088SOL     OW14725   4.214   2.341   4.526  0.7754 -0.1497  0.2922
 1088SOL    HW114726   4.151   2.384   4.584  1.2814 -0.5943  1.1731
 1088SOL    HW214727   4.161   2.263   4.509 -0.3747  0.4742  1.0026
 1089SOL     OW14728   1.713   2.179   3.715  0.4815 -0.6031 -0.7821
 1089SOL    HW114729   1.783   2.241   3.693 -0.7144  1.3745  0.9379
 1089SOL    HW214730   1.633   2.232   3.705  0.2962 -0.1077  3.0782
 1090SOL     OW14731   3.713   0.262   4.026  0.1787  0.8460  0.2876
 1090SOL    HW114732   3.624   0.231   4.038  0.0209  1.9037  1.9698
 1090SOL    HW214733   3.743   0.268   4.117 -1.7921 -0.2722  0.9961
 1091SOL     OW14734   2.759   3.240   4.871 -0.0182 -0.0789 -0.2038
 1091SOL    HW114735   2.758   3.319   4.927 -0.6738 -1.5614  1.8825
 1091SOL    HW214736   2.763   3.279   4.784  3.4090 -1.4544 -0.6591
 1092SOL     OW14737   1.216   4.322   6.133 -0.3355 -0.1947 -0.1748
 1092SOL    HW114738   1.207   4.257   6.063 -1.7280 -0.7882  0.5646
 1092SOL    HW214739   1.311   4.317   6.143 -0.4235  3.0051  2.1532
 1093SOL     OW14740   2.216   2.268   1.351 -0.5911  0.2050 -0.2215
 1093SOL    HW114741   2.219   2.202   1.420  0.6197  2.3727  1.8031
 1093SOL    HW214742   2.261   2.219   1.282  0.9991 -0.5818  1.4024
 1094SOL     OW14743   0.680   2.355  13.369  0.3346 -0.4821  0.0105
 1094SOL    HW114744   0.756   2.299  13.354  0.2302 -0.6113 -0.0386
 1094SOL    HW214745   0.703   2.413  13.296 -1.7488  0.1189 -0.1505
 1095SOL     OW14746   4.617   1.106   0.577  0.1149 -0.3142 -0.4879
 1095SOL    HW114747   4.625   1.013   0.555 -0.2223  0.0046 -1.9877
 1095SOL    HW214748   4.704   1.117   0.617  0.4258  0.7902 -1.4464
 1096SOL     OW14749   2.482   1.705   6.732 -0.5895 -0.9012  0.4817
 1096SOL    HW114750   2.499   1.776   6.670 -2.0448 -1.5810 -0.6863
 1096SOL    HW214751   2.545   1.645   6.692 -0.0222 -0.2535  0.4013
 1097SOL     OW14752   1.450   0.291   3.060 -0.3409  0.6518  0.0650
 1097SOL    HW114753   1.386   0.224   3.086 -0.2156 -0.1857 -1.7684
 1097SOL    HW214754   1.449   0.303   2.965 -3.1098  1.1603  0.1552
 1098SOL     OW14755   1.564   2.785  12.496  0.0321  0.4055  0.6631
 1098SOL    HW114756   1.580   2.857  12.557  0.5864  0.4002  0.5232
 1098SOL    HW214757   1.473   2.806  12.472 -0.5670  0.7394  3.1971
 1099SOL     OW14758   4.651   2.326   8.295 -0.2853 -0.0950 -0.4056
 1099SOL    HW114759   4.585   2.383   8.256 -0.4895  0.3200  0.5409
 1099SOL    HW214760   4.647   2.360   8.385  1.2371  2.6900 -1.3973
 1100SOL     OW14761   2.793   2.896   7.125  0.6669  0.3136  0.2259
 1100SOL    HW114762   2.877   2.914   7.168  1.9543  0.9723 -2.5632
 1100SOL    HW214763   2.820   2.828   7.063 -1.0226 -0.3340  0.2129
 1101SOL     OW14764   0.032   2.573   0.041 -0.2462  0.1584 -0.1991
 1101SOL    HW114765   4.678   2.550  17.689 -0.1455 -0.6846  0.0237
 1101SOL    HW214766   0.035   2.500   0.103 -3.9855  0.6078  0.5375
 1102SOL     OW14767   3.220   4.011  13.866  0.1327  0.0933  1.0401
 1102SOL    HW114768   3.177   4.067  13.801  1.6593  2.1266  1.7851
 1102SOL    HW214769   3.148   3.947  13.864  0.9117 -0.7599 -0.0849
 1103SOL     OW14770   1.591   1.951   4.812 -0.0386 -0.0986  0.0977
 1103SOL    HW114771   1.657   1.884   4.797 -0.7923 -0.8422  0.0386
 1103SOL    HW214772   1.510   1.934   4.762 -0.9617  2.0234  0.8365
 1104SOL     OW14773   3.778   2.868  14.729 -0.1738  0.2157  0.4252
 1104SOL    HW114774   3.822   2.953  14.725 -3.1902  1.6671 -1.0498
 1104SOL    HW214775   3.808   2.852  14.819  0.1682 -2.0276 -0.0787
 1105SOL     OW14776   1.787   3.221   4.968  0.3180 -0.5272  1.1779
 1105SOL    HW114777   1.736   3.253   5.043 -0.4754 -1.3677  1.0028
 1105SOL    HW214778   1.855   3.288   4.960  0.5700 -0.6805  2.0548
 1106SOL     OW14779   1.075   3.156  14.586  0.4453  0.1508  0.5079
 1106SOL    HW114780   1.071   3.204  14.503  0.9047 -1.1864 -0.2937
 1106SOL    HW214781   0.984   3.129  14.585 -0.2468  2.4542  2.0932
 1107SOL     OW14782   0.341   1.938  16.186  0.1859 -0.4261  0.3700
 1107SOL    HW114783   0.390   2.013  16.220 -0.6345 -0.7592  2.3260
 1107SOL    HW214784   0.419   1.883  16.177  0.4616 -0.2808  1.7980
 1108SOL     OW14785   3.775   2.677   2.232  0.5015  0.5137 -0.1149
 1108SOL    HW114786   3.758   2.765   2.197  0.4028 -0.1241 -1.6629
 1108SOL    HW214787   3.759   2.678   2.326  1.1832 -0.4741  0.0099
 1109SOL     OW14788   4.605   4.610   6.095  0.1973  0.1587  0.1158
 1109SOL    HW114789   4.563   4.651   6.019 -0.7982 -3.2109 -1.1244
 1109SOL    HW214790   4.659   4.536   6.067  0.6999  0.3587  0.5456
 1110SOL     OW14791   2.822   4.715   0.642  0.3550  0.4329  0.0124
 1110SOL    HW114792   2.762   0.028   0.578  0.8396  0.8094 -0.2231
 1110SOL    HW214793   2.825   0.065   0.703  0.5805 -0.7573  1.4705
 1111SOL     OW14794   1.037   3.289   6.930  0.0520 -0.5750 -0.3035
 1111SOL    HW114795   1.034   3.292   7.026 -0.6758 -0.5252 -0.3275
 1111SOL    HW214796   1.130   3.307   6.922  0.4996 -1.9974  1.8160
 1112SOL     OW14797   4.578   0.293   7.243  0.0129 -0.5295 -1.0775
 1112SOL    HW114798   4.670   0.308   7.267 -0.2091 -0.4934 -0.2506
 1112SOL    HW214799   4.567   0.344   7.163 -0.9331  0.9356 -0.0007
 1113SOL     OW14800   1.064   3.877  11.982  0.0656  0.1415  0.0748
 1113SOL    HW114801   1.123   3.945  11.949 -2.3120  1.3709 -1.7030
 1113SOL    HW214802   0.985   3.931  11.986  0.1390  0.4216 -1.9309
 1114SOL     OW14803   4.246   1.645   6.050 -0.3834 -0.2410  0.0211
 1114SOL    HW114804   4.206   1.676   5.968 -0.8064  2.5474  1.2676
 1114SOL    HW214805   4.171   1.667   6.106  0.4277 -2.1125  1.8082
 1115SOL     OW14806   2.401   0.032   5.393  0.6480 -0.5336 -0.3952
 1115SOL    HW114807   2.433   0.033   5.483  0.3700 -0.4836 -0.2997
 1115SOL    HW214808   2.489   0.044   5.357  1.2244  2.4872  2.0259
 1116SOL     OW14809   0.907   3.191   5.456 -0.0484 -0.0955 -0.2288
 1116SOL    HW114810   0.996   3.194   5.420  0.1245  3.3437  0.4986
 1116SOL    HW214811   0.901   3.247   5.533 -1.6007  0.6902 -0.9356
 1117SOL     OW14812   1.341   4.274   7.006  0.4123  0.2095  0.2719
 1117SOL    HW114813   1.296   4.239   7.083 -3.0137  0.7798 -1.4739
 1117SOL    HW214814   1.341   4.199   6.947 -1.4756  2.4374 -2.5122
 1118SOL     OW14815   3.990   2.613   8.733  0.5627  0.1473 -0.3322
 1118SOL    HW114816   4.012   2.702   8.761  1.9268 -0.6664  1.1764
 1118SOL    HW214817   4.032   2.558   8.798  0.5575  0.9071  0.3144
 1119SOL     OW14818   4.061   3.677  14.972 -0.4213 -0.5321  0.1876
 1119SOL    HW114819   4.037   3.585  14.978 -0.1134 -0.6044  0.3439
 1119SOL    HW214820   4.143   3.683  15.022  0.1111  1.9372 -1.0017
 1120SOL     OW14821   2.578   3.545   7.605  0.4942  0.2819  0.2400
 1120SOL    HW114822   2.672   3.532   7.620  0.2241 -0.2259  1.4491
 1120SOL    HW214823   2.584   3.640   7.592  1.2211  0.4890  2.2135
 1121SOL     OW14824   1.395   2.043   2.401 -0.7603 -0.6556  0.2806
 1121SOL    HW114825   1.338   2.119   2.388  0.1284 -0.5432 -2.8411
 1121SOL    HW214826   1.336   1.995   2.460 -1.4674 -3.5924 -2.7870
 1122SOL     OW14827   2.454   3.625   2.202 -0.4162 -0.1030 -0.1384
 1122SOL    HW114828   2.538   3.585   2.178  1.4504  2.5152  1.9531
 1122SOL    HW214829   2.448   3.702   2.145  1.9612 -1.1082 -1.7805
 1123SOL     OW14830   2.663   0.037   5.375 -0.3304  0.6413 -0.5716
 1123SOL    HW114831   2.661   4.714   5.458  0.6774  2.7222  0.6628
 1123SOL    HW214832   2.756   0.057   5.385  0.0025 -0.8618 -0.7466
 1124SOL     OW14833   2.398   2.512  11.861  0.4352  0.0371 -0.0553
 1124SOL    HW114834   2.401   2.439  11.799  0.6989  0.1630 -0.1894
 1124SOL    HW214835   2.313   2.551  11.844 -0.2006 -1.1305  0.4582
 1125SOL     OW14836   4.687   4.581   3.809  0.3040  0.1615  0.4078
 1125SOL    HW114837   0.040   4.525   3.819  1.2749  1.1701 -1.3474
 1125SOL    HW214838   4.665   4.550   3.722 -0.3263  0.6861  0.3829
 1126SOL     OW14839   0.081   3.774  15.412  0.0345 -0.0995 -0.4988
 1126SOL    HW114840   0.167   3.742  15.385 -0.6358 -0.9530 -1.5707
 1126SOL    HW214841   0.067   3.842  15.346 -0.5388  1.3289  1.0717
 1127SOL     OW14842   1.568   4.034   5.496  0.0681 -0.0729 -0.0407
 1127SOL    HW114843   1.637   3.996   5.442  1.1563  1.2673  0.3977
 1127SOL    HW214844   1.543   4.117   5.456 -2.3093 -0.2287  1.1407
 1128SOL     OW14845   3.041   0.779   2.977 -0.5165 -0.3996  0.0008
 1128SOL    HW114846   3.129   0.742   2.982 -0.8439 -0.8301  2.5722
 1128SOL    HW214847   3.066   0.870   2.960 -1.6287 -0.3393 -1.2316
 1129SOL     OW14848   1.263   2.607   6.863 -0.0386 -0.9184 -0.2050
 1129SOL    HW114849   1.347   2.645   6.886 -1.4496  2.8050 -1.1251
 1129SOL    HW214850   1.245   2.550   6.937 -2.5250 -2.9160 -2.3421
 1130SOL     OW14851   3.585   3.170   7.224  0.0989  0.0064 -0.5522
 1130SOL    HW114852   3.599   3.115   7.146 -3.0479 -2.1017  0.3470
 1130SOL    HW214853   3.511   3.125   7.265  0.0890 -0.3635 -0.9626
 1131SOL     OW14854   4.480   2.132  16.151  0.2890 -0.7734  0.2476
 1131SOL    HW114855   4.410   2.089  16.101 -1.6930 -0.4985  2.7667
 1131SOL    HW214856   4.554   2.126  16.091  0.1269 -2.8105  0.2260
 1132SOL     OW14857   2.382   1.381   8.351  0.0568  0.1571 -1.0484
 1132SOL    HW114858   2.292   1.359   8.376  0.3737  1.3724  1.2027
 1132SOL    HW214859   2.425   1.364   8.435  0.3025 -0.3287 -1.2730
 1133SOL     OW14860   3.232   2.848   7.421  0.7740 -0.1294 -0.0034
 1133SOL    HW114861   3.182   2.870   7.500  1.5791  2.0764 -0.1044
 1133SOL    HW214862   3.302   2.788   7.445 -0.4951 -1.7644 -0.4013
 1134SOL     OW14863   2.820   0.297   4.177  0.4079 -0.0163 -0.3938
 1134SOL    HW114864   2.841   0.316   4.086  2.3902  0.8184  0.2525
 1134SOL    HW214865   2.851   0.207   4.190  0.8867  0.4363  1.6568
 1135SOL     OW14866   1.098   0.692   9.750  0.1769  0.6367  0.2262
 1135SOL    HW114867   1.024   0.749   9.728 -3.0043 -2.2680  3.3438
 1135SOL    HW214868   1.049   0.613   9.774 -1.4686  1.4845 -0.3248
 1136SOL     OW14869   1.483   0.883   1.016  0.4356 -0.5944 -0.1664
 1136SOL    HW114870   1.486   0.891   1.111 -1.9136 -2.8077  0.0868
 1136SOL    HW214871   1.414   0.816   1.017 -1.9572  1.8437  0.0839
 1137SOL     OW14872   0.235   1.477  10.588 -0.0789 -0.3194  0.0609
 1137SOL    HW114873   0.289   1.482  10.667 -2.2049 -1.3569  1.5976
 1137SOL    HW214874   0.302   1.483  10.520  0.1820  0.6775  0.4189
 1138SOL     OW14875   1.983   1.966   4.784 -0.1439  0.6725  0.1652
 1138SOL    HW114876   1.959   1.940   4.873  2.3568 -1.5140  0.2108
 1138SOL    HW214877   2.042   2.039   4.804  1.2249 -0.5497  0.6210
 1139SOL     OW14878   3.596   3.405  15.509  0.4928 -0.2439  0.9047
 1139SOL    HW114879   3.650   3.416  15.588  1.2543  0.8710  0.2205
 1139SOL    HW214880   3.539   3.481  15.514  1.0793  0.1246  2.2288
 1140SOL     OW14881   4.544   2.749  16.997 -0.4906 -0.5381  0.7821
 1140SOL    HW114882   4.532   2.822  17.058  3.6189  0.3737  0.5188
 1140SOL    HW214883   4.639   2.755  16.986 -0.3557  2.9949  3.8664
 1141SOL     OW14884   2.118   1.047   3.617 -0.1222  0.0669 -0.9239
 1141SOL    HW114885   2.184   1.112   3.639  0.0313 -0.0906 -0.9202
 1141SOL    HW214886   2.157   1.008   3.539  2.0644  0.5081 -0.0360
 1142SOL     OW14887   2.811   2.778   1.409 -0.5338  0.0781 -0.4492
 1142SOL    HW114888   2.778   2.863   1.378 -0.5917  0.1846 -0.0967
 1142SOL    HW214889   2.765   2.780   1.493  0.2752 -0.7209  0.0062
 1143SOL     OW14890   3.779   3.220  12.884 -0.0588  0.3802 -0.1436
 1143SOL    HW114891   3.835   3.142  12.891 -1.8305 -0.8428  0.4785
 1143SOL    HW214892   3.846   3.274  12.842 -0.2845 -2.5127 -4.2905
 1144SOL     OW14893   2.186   1.281  14.385 -0.1687 -0.0153  0.3005
 1144SOL    HW114894   2.132   1.207  14.415 -0.4144  0.2132  0.4175
 1144SOL    HW214895   2.207   1.321  14.469  0.4409  1.3277 -0.5000
 1145SOL     OW14896   2.777   0.442   6.285  0.0199 -0.2248 -0.0833
 1145SOL    HW114897   2.786   0.485   6.370  2.6010 -0.7491 -0.1019
 1145SOL    HW214898   2.682   0.429   6.280 -0.0222  0.4353 -1.1906
 1146SOL     OW14899   4.425   3.688   3.966 -0.2558 -0.4206 -0.0696
 1146SOL    HW114900   4.499   3.650   3.918 -1.8454 -1.7496 -1.4419
 1146SOL    HW214901   4.465   3.774   3.983 -1.8315  0.1660  0.6719
 1147SOL     OW14902   1.646   1.965  17.357  0.0583 -0.1515  0.2882
 1147SOL    HW114903   1.714   1.898  17.350  1.1798  0.8522  1.6028
 1147SOL    HW214904   1.636   2.001  17.269 -1.2104 -3.0212 -0.7413
 1148SOL     OW14905   0.914   0.634   8.631 -0.0364 -0.3992  0.1440
 1148SOL    HW114906   0.899   0.681   8.550  0.1716  0.7093  0.7492
 1148SOL    HW214907   0.880   0.696   8.695  1.5075 -0.3812  0.9594
 1149SOL     OW14908   4.055   0.306  12.312 -0.5058 -0.4050  0.1900
 1149SOL    HW114909   4.110   0.376  12.276  0.6253 -1.6926 -0.5675
 1149SOL    HW214910   4.070   0.330  12.403  1.1445 -2.3953  0.4517
 1150SOL     OW14911   0.474   2.651  12.149 -0.3488 -0.1599 -0.9954
 1150SOL    HW114912   0.517   2.613  12.226  0.0100  0.9825 -0.6294
 1150SOL    HW214913   0.492   2.745  12.156 -0.0533 -0.1351 -2.1618
 1151SOL     OW14914   3.674   0.817   6.739 -0.0719  0.5072 -0.2662
 1151SOL    HW114915   3.599   0.779   6.784  0.1478  1.0045  0.5217
 1151SOL    HW214916   3.662   0.784   6.650  0.4192  0.2245 -0.2283
 1152SOL     OW14917   3.196   1.577   6.374  0.1728  0.3900 -0.6308
 1152SOL    HW114918   3.160   1.496   6.338  0.8108 -1.3193  2.5569
 1152SOL    HW214919   3.224   1.548   6.461  0.8731  2.0114 -0.3122
 1153SOL     OW14920   2.027   0.625   5.362 -0.3542 -0.3900  0.1091
 1153SOL    HW114921   2.069   0.601   5.280 -2.0520 -1.9495 -0.3098
 1153SOL    HW214922   2.099   0.661   5.414 -1.9079  0.4191  1.7110
 1154SOL     OW14923   0.519   0.320   7.568 -0.2639 -0.1432 -0.1576
 1154SOL    HW114924   0.424   0.334   7.575 -0.5463 -2.5625  1.0670
 1154SOL    HW214925   0.541   0.279   7.485 -0.5608 -3.2656  1.3091
 1155SOL     OW14926   4.063   2.119   5.498  0.2583  0.0803  0.4609
 1155SOL    HW114927   4.090   2.184   5.433  1.7444 -1.3169 -0.3044
 1155SOL    HW214928   3.975   2.155   5.508  1.2255  2.7283 -0.4387
 1156SOL     OW14929   2.972   0.570   5.078  0.4379  0.3658  0.0601
 1156SOL    HW114930   3.015   0.530   5.001  1.2173 -0.5293  0.9579
 1156SOL    HW214931   2.902   0.617   5.034  1.9539  0.8584 -1.8635
 1157SOL     OW14932   0.899   1.366   2.468 -0.3061 -0.1691 -0.4348
 1157SOL    HW114933   0.911   1.273   2.489 -2.4734  0.3379  2.9131
 1157SOL    HW214934   0.872   1.395   2.555  2.2757  0.6619  0.0895
 1158SOL     OW14935   4.465   4.294   1.102  0.2455 -0.2112  0.1288
 1158SOL    HW114936   4.451   4.282   1.008  1.4231  0.3523 -0.1254
 1158SOL    HW214937   4.385   4.344   1.112  0.4730 -0.0396  1.0807
 1159SOL     OW14938   2.168   0.204  11.335  1.2106  0.4570 -0.2766
 1159SOL    HW114939   2.225   0.280  11.348  0.6964  1.2295 -2.4223
 1159SOL    HW214940   2.229   0.141  11.295 -0.0754  0.0126 -1.5523
 1160SOL     OW14941   1.447   2.908   2.023 -0.3225 -0.5816  0.0555
 1160SOL    HW114942   1.370   2.866   2.062 -1.8362 -0.3736 -2.7666
 1160SOL    HW214943   1.508   2.840   2.052  1.4133  1.0404  0.2270
 1161SOL     OW14944   3.550   3.750   7.271  0.2141 -0.1151  0.6620
 1161SOL    HW114945   3.506   3.727   7.353 -0.5174 -1.1144 -0.0048
 1161SOL    HW214946   3.639   3.759   7.302 -0.3108 -0.3320  2.2088
 1162SOL     OW14947   4.414   4.632  14.096  0.7552  0.4639 -0.0756
 1162SOL    HW114948   4.341   4.580  14.061  1.5827 -1.5374  1.1361
 1162SOL    HW214949   4.398   4.713  14.047 -2.7682 -0.4969 -0.5462
 1163SOL     OW14950   3.578   0.074   7.097 -0.2849  0.1660  0.5894
 1163SOL    HW114951   3.597   0.003   7.036 -1.6322 -0.2181  0.6242
 1163SOL    HW214952   3.606   0.023   7.173  2.5451  1.4855  0.4294
 1164SOL     OW14953   2.424   0.329   7.193  0.2853  0.0648 -0.1218
 1164SOL    HW114954   2.425   0.239   7.225  0.1890 -0.1037 -0.5927
 1164SOL    HW214955   2.333   0.353   7.213  0.4243  1.2087 -0.8563
 1165SOL     OW14956   3.660   0.050   5.073 -0.0805 -0.3601  0.5137
 1165SOL    HW114957   3.743   0.055   5.120  0.4780 -0.3327 -0.4698
 1165SOL    HW214958   3.613   0.058   5.156  1.4056  2.4936  1.0730
 1166SOL     OW14959   4.222   4.151  12.309  0.7394 -0.1913  0.1715
 1166SOL    HW114960   4.249   4.223  12.365  1.1380  1.2970 -1.9552
 1166SOL    HW214961   4.273   4.077  12.344  0.0848  0.6275  2.8504
 1167SOL     OW14962   0.492   4.586   5.034 -0.2123  0.5413  0.3280
 1167SOL    HW114963   0.439   4.507   5.047 -0.5740  1.3317  3.5678
 1167SOL    HW214964   0.507   4.584   4.939  2.0019 -3.1581  0.7477
 1168SOL     OW14965   2.483   1.173   0.883 -0.1336  0.2303 -0.0010
 1168SOL    HW114966   2.550   1.215   0.828  1.7520 -2.0440  0.5595
 1168SOL    HW214967   2.522   1.157   0.969 -1.8827 -0.0364  0.7435
 1169SOL     OW14968   0.504   2.941   4.838 -0.3703 -0.6073 -0.0454
 1169SOL    HW114969   0.571   2.917   4.774 -2.1073 -1.3294 -1.5860
 1169SOL    HW214970   0.463   3.017   4.797 -1.8573 -0.8034  1.0844
 1170SOL     OW14971   3.993   0.720  10.099  0.5302 -0.0788 -0.2048
 1170SOL    HW114972   4.078   0.765  10.097  0.1270  0.5834 -2.6589
 1170SOL    HW214973   3.969   0.753  10.185  0.8257  2.0216 -0.9301
 1171SOL     OW14974   0.846   0.129  14.912 -0.0753 -0.1449  0.4335
 1171SOL    HW114975   0.804   0.057  14.959  1.1489 -2.3903 -1.9076
 1171SOL    HW214976   0.921   0.139  14.971 -1.1693  1.2364  1.5588
 1172SOL     OW14977   3.959   1.570  16.855 -0.4721 -0.1329 -0.9036
 1172SOL    HW114978   4.024   1.615  16.909  1.2684 -2.3106 -1.2012
 1172SOL    HW214979   3.885   1.578  16.915  0.5475  0.8002  0.2288
 1173SOL     OW14980   4.653   1.763  14.075 -0.3701  0.2611 -0.2650
 1173SOL    HW114981   4.608   1.683  14.047  1.1157  0.2740 -2.6976
 1173SOL    HW214982   4.641   1.775  14.170 -0.8297 -0.2800 -0.2567
 1174SOL     OW14983   1.361   2.644  13.230 -0.2530  0.4809  0.1210
 1174SOL    HW114984   1.425   2.714  13.248  1.3452 -0.9211 -0.0727
 1174SOL    HW214985   1.357   2.596  13.312 -0.0686  0.9455  0.4042
 1175SOL     OW14986   1.038   2.172   8.266 -0.3074  0.1868 -0.9414
 1175SOL    HW114987   0.992   2.096   8.302  0.8588  0.4675  1.0853
 1175SOL    HW214988   1.089   2.200   8.341  1.0750 -1.9217 -1.0957
 1176SOL     OW14989   0.646   4.019   3.718 -0.0957 -0.6362 -0.3037
 1176SOL    HW114990   0.675   4.109   3.701 -2.1066 -0.7364 -4.3868
 1176SOL    HW214991   0.695   4.012   3.800 -1.3868  0.0015  0.5389
 1177SOL     OW14992   3.407   4.592   7.676  0.9081  0.0163 -0.7241
 1177SOL    HW114993   3.485   4.640   7.705  1.8821 -0.9115 -1.7686
 1177SOL    HW214994   3.361   4.663   7.632 -2.0954 -1.7516 -0.4635
 1178SOL     OW14995   4.344   0.149  12.557  0.7180 -0.1354 -0.2418
 1178SOL    HW114996   4.381   0.229  12.518 -0.2675  0.2162 -0.4369
 1178SOL    HW214997   4.271   0.192  12.601 -1.5071 -3.8625 -0.3149
 1179SOL     OW14998   3.916   2.145   0.105 -0.5297  0.7721 -0.3805
 1179SOL    HW114999   3.822   2.149   0.124 -0.4087 -0.1908  0.4497
 1179SOL    HW215000   3.954   2.141   0.192 -0.2899 -2.1034 -0.6004
 1180SOL     OW15001   2.308   3.678   2.725 -0.0890 -0.0221  0.1319
 1180SOL    HW115002   2.381   3.689   2.785 -0.8344 -0.1197  1.0639
 1180SOL    HW215003   2.298   3.771   2.706 -3.8128 -1.0613 -3.1390
 1181SOL     OW15004   0.387   2.283   6.300 -0.2322  0.3316  0.5784
 1181SOL    HW115005   0.305   2.269   6.348 -0.1749 -2.2314 -0.0544
 1181SOL    HW215006   0.428   2.196   6.301 -0.7782  0.0631 -1.1360
 1182SOL     OW15007   4.087   2.718   6.691  0.3073 -0.4247 -0.1907
 1182SOL    HW115008   4.153   2.715   6.761  0.8910 -0.6870 -0.7506
 1182SOL    HW215009   4.107   2.634   6.650 -0.1036  0.4628 -2.1780
 1183SOL     OW15010   1.288   4.513  16.684 -0.2436  0.0695 -0.4489
 1183SOL    HW115011   1.348   4.443  16.656  0.4861  0.3134  0.5215
 1183SOL    HW215012   1.342   4.588  16.662  0.7400  0.1722  2.3514
 1184SOL     OW15013   0.524   4.621   7.491  0.0028 -0.9157  0.6326
 1184SOL    HW115014   0.457   4.553   7.496  0.5911 -1.4826  0.9855
 1184SOL    HW215015   0.479   4.694   7.532 -0.4615  0.4971 -2.4063
 1185SOL     OW15016   4.415   3.513   5.967  0.5203 -0.0370 -0.0902
 1185SOL    HW115017   4.394   3.574   5.896 -0.8858  0.5199  0.8112
 1185SOL    HW215018   4.481   3.463   5.918 -1.2435 -0.8260 -1.6698
 1186SOL     OW15019   0.398   1.555   2.850 -0.2226 -0.3828  0.1817
 1186SOL    HW115020   0.334   1.606   2.898 -0.7588 -0.5848 -0.3200
 1186SOL    HW215021   0.348   1.526   2.773 -0.4965 -1.9557  0.9462
 1187SOL     OW15022   4.239   2.642   8.064 -0.7242 -0.5940  0.0609
 1187SOL    HW115023   4.190   2.562   8.083  0.0487 -1.3846 -1.2805
 1187SOL    HW215024   4.310   2.641   8.129  1.3491 -0.1543 -2.2341
 1188SOL     OW15025   3.984   3.994   8.252 -0.0937  0.0704 -0.2120
 1188SOL    HW115026   3.939   3.912   8.227 -0.7702  1.1585 -2.5815
 1188SOL    HW215027   3.925   4.062   8.220 -0.2698 -0.0289 -0.0998
 1189SOL     OW15028   4.428   0.658   4.935 -0.4168 -0.0713  0.6644
 1189SOL    HW115029   4.451   0.749   4.916  0.1633 -0.6784 -1.5020
 1189SOL    HW215030   4.370   0.676   5.009 -0.0293 -0.3827  1.0350
 1190SOL     OW15031   3.454   0.660  14.428  0.3200  0.2735 -0.6947
 1190SOL    HW115032   3.488   0.612  14.352 -2.5115 -0.4920 -1.4575
 1190SOL    HW215033   3.524   0.642  14.491 -0.6217  2.4070  0.9797
 1191SOL     OW15034   3.808   4.135   3.845  0.0636 -0.0090  0.0823
 1191SOL    HW115035   3.749   4.084   3.901  1.2777 -1.1399  0.3340
 1191SOL    HW215036   3.861   4.070   3.800 -1.4033 -0.1289 -1.4693
 1192SOL     OW15037   1.791   0.146  15.615  0.0442 -0.1302  0.3452
 1192SOL    HW115038   1.807   0.233  15.580  0.2614 -0.3491 -0.1100
 1192SOL    HW215039   1.700   0.146  15.645 -0.3254 -0.2835 -0.7650
 1193SOL     OW15040   1.360   1.056  17.331 -0.2538  0.2262 -0.1094
 1193SOL    HW115041   1.371   1.072  17.425 -1.3160 -0.3807  0.1199
 1193SOL    HW215042   1.301   1.126  17.304  0.5772  1.3084  0.9356
 1194SOL     OW15043   2.444   1.254   4.043  0.1451  0.2400 -0.0140
 1194SOL    HW115044   2.407   1.277   3.958 -2.4838 -0.0188  1.0587
 1194SOL    HW215045   2.449   1.338   4.089  0.0938  0.2517 -0.0291
 1195SOL     OW15046   4.116   3.681  12.852  0.2431 -0.2905  0.2544
 1195SOL    HW115047   4.159   3.626  12.787 -0.5359  0.2354 -0.7130
 1195SOL    HW215048   4.028   3.676  12.813  0.9758  0.5246 -1.5044
 1196SOL     OW15049   2.300   3.069   6.520  0.0271 -0.1464  0.2034
 1196SOL    HW115050   2.311   2.980   6.552 -0.6258 -0.8497 -1.5232
 1196SOL    HW215051   2.340   3.067   6.433 -2.3591  1.6858 -0.9358
 1197SOL     OW15052   1.855   1.224  15.435  0.5641  0.1943 -0.2898
 1197SOL    HW115053   1.831   1.316  15.449 -2.7221 -0.5849 -0.8442
 1197SOL    HW215054   1.942   1.231  15.396  0.4584  0.8741 -0.4121
 1198SOL     OW15055   1.452   4.013  15.269 -0.0809 -0.1608  0.1389
 1198SOL    HW115056   1.474   3.980  15.181  0.4679  0.5387  0.0079
 1198SOL    HW215057   1.371   3.966  15.286  0.2909 -1.6081 -2.0925
 1199SOL     OW15058   0.707   4.715   0.106 -0.6553  0.5669  0.1442
 1199SOL    HW115059   0.741   0.013   0.192 -1.7463  1.2160  0.4018
 1199SOL    HW215060   0.620   0.030   0.105 -1.0962 -0.3745  1.2047
 1200SOL     OW15061   4.036   4.432   4.157 -0.0941 -0.3112 -0.3110
 1200SOL    HW115062   4.036   4.357   4.097 -2.2907  1.1803 -2.1796
 1200SOL    HW215063   3.976   4.407   4.227 -2.3761 -2.4779 -3.0411
 1201SOL     OW15064   1.028   1.775  11.008 -0.4406 -0.3288 -0.3044
 1201SOL    HW115065   0.998   1.685  11.002  0.5970 -0.5519 -2.0974
 1201SOL    HW215066   0.974   1.826  10.948  0.5912 -1.1478 -1.9245
 1202SOL     OW15067   1.507   1.098  12.982  0.0414  0.0535 -0.2570
 1202SOL    HW115068   1.437   1.161  13.000  0.5536  0.5008  0.1678
 1202SOL    HW215069   1.553   1.111  13.065 -0.0009  0.6206 -0.3213
 1203SOL     OW15070   3.399   1.497  14.628 -0.2795  0.1700 -0.3765
 1203SOL    HW115071   3.399   1.548  14.547 -0.7503 -0.0127 -0.4904
 1203SOL    HW215072   3.480   1.529  14.668 -0.5156 -0.5826  0.6995
 1204SOL     OW15073   1.805   4.122  15.505 -0.2900 -0.0803  0.4581
 1204SOL    HW115074   1.819   4.081  15.591  0.6186 -0.8212 -0.0308
 1204SOL    HW215075   1.713   4.146  15.510 -0.4563 -0.3634 -1.3490
 1205SOL     OW15076   1.855   0.675   3.527 -0.1126 -0.1434 -0.2689
 1205SOL    HW115077   1.905   0.735   3.582  0.0472 -0.1498 -0.4058
 1205SOL    HW215078   1.890   0.588   3.546  1.6547  0.9657  1.4969
 1206SOL     OW15079   3.756   1.752   3.732 -0.1283  0.8205  0.2691
 1206SOL    HW115080   3.809   1.809   3.789 -0.4472  1.1598  0.2271
 1206SOL    HW215081   3.664   1.768   3.753 -0.2009 -1.6409  1.8045
 1207SOL     OW15082   0.036   3.717   6.216 -0.2822  0.5609  0.4278
 1207SOL    HW115083   0.036   3.658   6.141 -1.1583  2.2170 -0.8639
 1207SOL    HW215084   0.012   3.800   6.176  1.2835  0.9262  0.2346
 1208SOL     OW15085   2.429   1.990  11.465 -0.1249 -0.2240  0.3414
 1208SOL    HW115086   2.399   1.912  11.512  0.2773 -1.5628 -1.6400
 1208SOL    HW215087   2.491   2.009  11.536  0.8590 -1.9161 -0.0636
 1209SOL     OW15088   0.393   4.603   7.148  0.5392  0.0261 -0.2839
 1209SOL    HW115089   0.452   4.678   7.157  2.1006 -1.0508 -1.4824
 1209SOL    HW215090   0.422   4.576   7.061  0.4632 -1.5921  0.1874
 1210SOL     OW15091   3.777   3.798   6.485 -0.6231 -0.3578 -0.0136
 1210SOL    HW115092   3.725   3.767   6.559  0.9100 -0.4024  1.0506
 1210SOL    HW215093   3.713   3.781   6.416 -1.8348 -0.4629  1.1285
 1211SOL     OW15094   4.178   1.884   3.035 -1.5757  0.0676 -0.4982
 1211SOL    HW115095   4.231   1.926   2.967 -1.7676  1.4583  0.2128
 1211SOL    HW215096   4.095   1.892   2.989 -1.3822  0.4858 -0.7778
 1212SOL     OW15097   1.253   0.164   1.710 -0.2306  0.4207 -0.5312
 1212SOL    HW115098   1.210   0.132   1.631  1.2732 -0.0390 -1.1499
 1212SOL    HW215099   1.336   0.117   1.708  0.0230  1.0168 -3.2840
 1213SOL     OW15100   2.532   3.744   0.755 -0.1435  0.3550 -0.6630
 1213SOL    HW115101   2.508   3.658   0.720 -1.3069 -0.2339  1.5878
 1213SOL    HW215102   2.449   3.779   0.786 -0.0944 -0.8978  0.8324
 1214SOL     OW15103   1.196   0.018   1.217  0.4052  0.5007  0.5990
 1214SOL    HW115104   1.166   4.702   1.136 -1.7116  1.2951  0.9939
 1214SOL    HW215105   1.265   0.079   1.189 -0.5161  1.2357 -0.0717
 1215SOL     OW15106   4.365   2.676  15.541 -0.2958  0.0053 -0.0898
 1215SOL    HW115107   4.317   2.753  15.568 -0.4186 -0.2437  0.3907
 1215SOL    HW215108   4.323   2.607  15.593  1.4678 -1.0182 -0.0109
 1216SOL     OW15109   0.687   2.919  11.891 -0.5729 -0.5097  1.0134
 1216SOL    HW115110   0.729   2.994  11.850  1.7351 -3.1705 -1.5137
 1216SOL    HW215111   0.637   2.968  11.956 -3.4990 -0.2744 -1.4105
 1217SOL     OW15112   4.241   0.006   8.841 -0.5104  0.2667 -0.4212
 1217SOL    HW115113   4.227   0.086   8.893 -0.3031  0.4685 -0.6744
 1217SOL    HW215114   4.333   4.722   8.867 -0.7828  0.3238  0.5499
 1218SOL     OW15115   3.726   2.694  16.429 -0.3997  0.1769 -0.6054
 1218SOL    HW115116   3.745   2.614  16.380  0.7766 -0.2803  0.5848
 1218SOL    HW215117   3.806   2.700  16.481 -0.4766  0.5597 -0.5330
 1219SOL     OW15118   3.682   0.278  12.950 -0.7417  0.7857 -0.1234
 1219SOL    HW115119   3.680   0.373  12.945  0.6998  0.8411  0.6073
 1219SOL    HW215120   3.594   0.261  12.984 -0.2953  1.8411  1.5600
 1220SOL     OW15121   0.418   2.399  16.405 -0.0483 -0.5255 -0.2930
 1220SOL    HW115122   0.404   2.311  16.372 -0.3347 -0.1887 -1.0760
 1220SOL    HW215123   0.330   2.413  16.442 -1.0272  1.5115 -3.4031
 1221SOL     OW15124   0.061   2.115   4.067  0.0502  0.2577 -0.2958
 1221SOL    HW115125   0.032   2.202   4.039  1.3787  0.6789 -0.3984
 1221SOL    HW215126   4.712   2.094   4.123  0.3178  0.7889  0.2582
 1222SOL     OW15127   1.785   2.462   4.904  0.4991  0.2449  0.6294
 1222SOL    HW115128   1.720   2.528   4.927  0.8881  0.3032  1.5678
 1222SOL    HW215129   1.731   2.383   4.906  1.0922 -0.1636  0.3762
 1223SOL     OW15130   0.282   1.592   7.798 -0.5064 -0.1282 -0.5811
 1223SOL    HW115131   0.310   1.652   7.729 -0.1981  1.1451  0.6373
 1223SOL    HW215132   0.348   1.586   7.867 -0.3922 -0.9432 -0.7560
 1224SOL     OW15133   1.417   3.824  15.082 -1.0094  0.3739  0.0695
 1224SOL    HW115134   1.331   3.866  15.078  0.3908  3.3738  1.2941
 1224SOL    HW215135   1.432   3.811  14.988  0.9739  0.4771  0.3746
 1225SOL     OW15136   2.882   0.575   4.184 -0.0405  0.5244 -0.0878
 1225SOL    HW115137   2.865   0.615   4.269  1.4381  2.2161 -0.5767
 1225SOL    HW215138   2.865   0.482   4.192 -1.2064  0.8764  1.6229
 1226SOL     OW15139   3.960   0.313  13.018 -0.2541  0.7668 -0.0121
 1226SOL    HW115140   3.994   0.366  12.946 -1.4724 -1.2320 -2.0889
 1226SOL    HW215141   3.874   0.296  12.980  0.1395 -1.7533  0.2042
 1227SOL     OW15142   2.750   2.362   3.644  0.0616  0.3118 -0.4157
 1227SOL    HW115143   2.840   2.394   3.634  0.3526 -0.8826 -1.6948
 1227SOL    HW215144   2.736   2.411   3.725 -0.1453 -0.8703  0.2776
 1228SOL     OW15145   0.248   1.578   5.721  0.6735  0.7573  0.0475
 1228SOL    HW115146   0.171   1.558   5.775 -0.2220  0.3144 -1.3974
 1228SOL    HW215147   0.320   1.571   5.784  1.6763 -1.2877 -1.3271
 1229SOL     OW15148   0.562   4.157   6.557 -0.0514  0.3260 -0.1156
 1229SOL    HW115149   0.508   4.187   6.484 -0.8134  0.9494  0.7116
 1229SOL    HW215150   0.574   4.064   6.537  1.7866  0.1977  1.5578
 1230SOL     OW15151   1.863   2.284  17.039  0.5061 -0.4159 -0.1120
 1230SOL    HW115152   1.917   2.305  17.115 -0.3667  0.9619  0.1308
 1230SOL    HW215153   1.925   2.307  16.970 -0.0665 -0.9245 -0.7961
 1231SOL     OW15154   4.180   1.639  13.023  0.3820 -0.6947  0.0408
 1231SOL    HW115155   4.095   1.617  13.061  0.8361  0.3191  1.6434
 1231SOL    HW215156   4.207   1.709  13.083 -0.1084 -0.1947 -0.3199
 1232SOL     OW15157   1.938   4.123   5.554  0.2905 -0.0789 -0.1387
 1232SOL    HW115158   1.873   4.193   5.568 -0.9630 -1.5670  1.5552
 1232SOL    HW215159   2.015   4.175   5.577  0.4177 -0.3280 -0.0060
 1233SOL     OW15160   0.792   1.071   5.377 -0.1157  0.0136  0.5979
 1233SOL    HW115161   0.743   1.008   5.326 -1.9276  3.5403 -2.0104
 1233SOL    HW215162   0.806   1.025   5.460 -0.5338  0.9389  1.1896
 1234SOL     OW15163   2.886   2.490   3.299  0.3999  0.0407 -0.5479
 1234SOL    HW115164   2.869   2.507   3.391 -0.1911  1.6296 -0.9389
 1234SOL    HW215165   2.947   2.417   3.296  0.3736 -0.0086  0.2256
 1235SOL     OW15166   4.206   1.009   0.410  0.4709 -0.1373 -0.1850
 1235SOL    HW115167   4.129   1.051   0.448  0.9910  1.2310 -0.6224
 1235SOL    HW215168   4.255   0.978   0.486 -0.2712 -1.2195 -0.1544
 1236SOL     OW15169   1.582   4.544   7.635 -0.1068 -0.1866 -0.5277
 1236SOL    HW115170   1.521   4.525   7.706  0.0066  1.7495  0.0894
 1236SOL    HW215171   1.652   4.480   7.646  1.8941  1.9575 -0.8614
 1237SOL     OW15172   4.406   0.147   3.608  0.6689 -0.7272  0.7377
 1237SOL    HW115173   4.358   0.147   3.525  1.2146  0.9516  0.4054
 1237SOL    HW215174   4.374   0.064   3.644 -0.0451 -0.8529 -0.1873
 1238SOL     OW15175   3.548   1.927  13.995 -0.9744  0.3216  0.1034
 1238SOL    HW115176   3.483   1.902  14.059 -0.0305 -0.1377  0.8870
 1238SOL    HW215177   3.587   2.000  14.044 -0.4018 -0.8361  1.3811
 1239SOL     OW15178   0.680   0.455   2.660 -0.4884  0.2212  0.2350
 1239SOL    HW115179   0.740   0.406   2.717 -1.2031  0.7470  1.4479
 1239SOL    HW215180   0.711   0.424   2.575 -1.0291 -0.9222  0.4568
 1240SOL     OW15181   2.279   0.186   7.511  0.1805 -0.0709  0.1233
 1240SOL    HW115182   2.288   0.188   7.606 -0.1571 -2.1270  0.1975
 1240SOL    HW215183   2.344   0.253   7.489  1.2038 -1.5603 -1.4056
 1241SOL     OW15184   2.463   2.544  13.742 -0.6246  0.4574  0.8293
 1241SOL    HW115185   2.368   2.533  13.741 -0.3709 -1.6806 -0.5484
 1241SOL    HW215186   2.489   2.582  13.826  0.3816  1.4009  0.0994
 1242SOL     OW15187   3.167   0.080   9.205  0.1815  0.6364 -0.9876
 1242SOL    HW115188   3.124   0.106   9.287 -1.8493 -2.5547 -1.0285
 1242SOL    HW215189   3.109   0.016   9.165  1.1555  0.5944 -2.3414
 1243SOL     OW15190   1.714   4.195   7.532 -0.3006  0.2723 -0.2436
 1243SOL    HW115191   1.809   4.197   7.547  0.1385 -0.7687 -2.8044
 1243SOL    HW215192   1.681   4.220   7.618  1.9362  0.1124  0.6763
 1244SOL     OW15193   3.689   1.134   5.607 -0.4667 -0.3335 -0.4728
 1244SOL    HW115194   3.646   1.064   5.657  0.6897  2.2792  4.2466
 1244SOL    HW215195   3.648   1.214   5.639  1.4747  0.4080  0.1755
 1245SOL     OW15196   4.056   2.193   8.997 -0.2042 -0.3511  0.2223
 1245SOL    HW115197   4.138   2.145   9.003  1.6089  2.6804 -0.1281
 1245SOL    HW215198   3.997   2.169   9.068 -0.6698  1.8739  0.5830
 1246SOL     OW15199   4.263   3.228  16.972  0.2808  0.0596 -0.7586
 1246SOL    HW115200   4.290   3.319  16.986  1.3760 -0.5380  1.0906
 1246SOL    HW215201   4.340   3.191  17.014 -0.6392 -0.8506  0.1292
 1247SOL     OW15202   2.282   4.721  11.795  0.1114  0.6724 -0.2793
 1247SOL    HW115203   2.294   4.703  11.702 -0.3323  2.1635 -0.6239
 1247SOL    HW215204   2.200   0.046  11.794  0.6465  1.5730  0.3769
 1248SOL     OW15205   3.466   0.013   6.434  0.1565  0.5262 -0.0581
 1248SOL    HW115206   3.420   0.073   6.493 -3.7036 -1.5012 -1.0269
 1248SOL    HW215207   3.493   4.673   6.500 -0.1907 -0.0870 -0.5175
 1249SOL     OW15208   0.649   3.845   8.855  0.0781 -0.2117 -0.6638
 1249SOL    HW115209   0.561   3.808   8.860  0.1569 -0.0055  2.4537
 1249SOL    HW215210   0.696   3.787   8.794 -2.4712 -1.3032 -1.6047
 1250SOL     OW15211   4.537   0.817   8.787  0.1027  0.5030 -0.5806
 1250SOL    HW115212   4.507   0.822   8.696 -0.4343 -1.5866 -0.5073
 1250SOL    HW215213   4.477   0.881   8.827 -1.6077 -1.1896 -0.4338
 1251SOL     OW15214   2.996   0.502   2.398 -0.0456  0.4940  0.6596
 1251SOL    HW115215   3.064   0.443   2.429 -0.0193 -0.8098 -1.8342
 1251SOL    HW215216   2.984   0.470   2.308 -0.4255 -1.1179  1.2779
 1252SOL     OW15217   3.904   3.829  16.820 -0.2777 -0.0753  0.0557
 1252SOL    HW115218   3.938   3.862  16.737  0.0046 -1.3688 -0.3394
 1252SOL    HW215219   3.929   3.891  16.888 -0.0090 -2.8813  2.5107
 1253SOL     OW15220   0.816   2.299   5.254  0.2051  0.6206 -1.0020
 1253SOL    HW115221   0.757   2.238   5.210 -0.4262  0.5468 -0.0516
 1253SOL    HW215222   0.861   2.238   5.311 -3.1230 -0.9424 -0.0262
 1254SOL     OW15223   2.078   1.577   3.316 -0.5660 -0.1831 -0.0270
 1254SOL    HW115224   2.090   1.583   3.221 -0.2404 -1.1797 -0.0463
 1254SOL    HW215225   2.072   1.482   3.319 -1.0151 -0.0953  1.8404
 1255SOL     OW15226   3.003   2.837   0.381  0.3238 -0.1948  0.0932
 1255SOL    HW115227   3.055   2.846   0.301  2.1235 -1.3877  1.1205
 1255SOL    HW215228   2.972   2.926   0.398  0.0962  0.0410 -1.5962
 1256SOL     OW15229   3.401   0.534   4.246 -0.4589  0.9261 -0.2616
 1256SOL    HW115230   3.484   0.581   4.239  0.0411 -0.4150 -3.5510
 1256SOL    HW215231   3.357   0.561   4.165 -0.3163  2.3056  0.1296
 1257SOL     OW15232   1.693   2.713  14.832 -0.6883  0.3794 -0.7364
 1257SOL    HW115233   1.648   2.798  14.840 -2.8733 -0.9022  0.5863
 1257SOL    HW215234   1.778   2.740  14.796  1.0596  0.0709  3.1908
 1258SOL     OW15235   3.924   4.153  12.926  0.1318 -0.3298 -0.0079
 1258SOL    HW115236   4.008   4.145  12.970 -0.1153 -1.7704  0.1994
 1258SOL    HW215237   3.872   4.077  12.952 -1.0863  0.7569  0.7386
 1259SOL     OW15238   1.918   0.165   3.842  0.3486 -0.0719 -0.5838
 1259SOL    HW115239   1.866   0.116   3.778  0.0912 -1.4726  0.6846
 1259SOL    HW215240   1.857   0.158   3.915  1.1076 -1.6254 -0.0840
 1260SOL     OW15241   1.776   2.658   9.833  1.1098 -0.0805  0.1101
 1260SOL    HW115242   1.828   2.714   9.776 -1.8071  3.0733  0.5372
 1260SOL    HW215243   1.762   2.582   9.776  1.6984 -0.3914  0.3720
 1261SOL     OW15244   3.584   3.671  14.678  0.1631  0.4997  0.4516
 1261SOL    HW115245   3.511   3.612  14.659  0.7269  0.2190 -0.8262
 1261SOL    HW215246   3.621   3.627  14.755  1.4157 -0.0928 -0.4861
 1262SOL     OW15247   4.164   0.377  15.004 -0.2113  0.5031  0.0393
 1262SOL    HW115248   4.125   0.370  14.917 -1.2074  1.7929  0.3775
 1262SOL    HW215249   4.247   0.418  14.983 -1.0142  1.8207 -0.5665
 1263SOL     OW15250   2.182   2.614   4.873  0.4307 -0.7447  0.2940
 1263SOL    HW115251   2.245   2.596   4.803 -0.4384 -0.7266 -0.4985
 1263SOL    HW215252   2.130   2.691   4.849 -0.7360 -2.0296 -1.3084
 1264SOL     OW15253   2.427   4.282   1.081  0.4436  0.3348  0.2017
 1264SOL    HW115254   2.421   4.366   1.127  1.9801  1.9775 -2.6055
 1264SOL    HW215255   2.336   4.258   1.100  0.9990 -2.3379 -0.5884
 1265SOL     OW15256   0.756   1.712   3.745 -0.0483 -0.1975  0.2067
 1265SOL    HW115257   0.739   1.806   3.752  0.6745  0.0540 -1.3417
 1265SOL    HW215258   0.713   1.696   3.661 -0.9886  0.9671  0.4633
 1266SOL     OW15259   4.143   3.767   7.727  0.2898 -0.7867 -0.3422
 1266SOL    HW115260   4.091   3.689   7.747 -3.1187  1.6326  0.2116
 1266SOL    HW215261   4.118   3.822   7.801 -0.1757  0.1821 -1.2215
 1267SOL     OW15262   1.227   3.009   2.240  0.0054 -0.2957 -0.3267
 1267SOL    HW115263   1.134   3.020   2.223  0.0390 -0.1606 -0.4219
 1267SOL    HW215264   1.237   2.945   2.310 -0.4362 -1.0059 -0.9137
 1268SOL     OW15265   4.626   0.727  12.542 -0.2959 -0.3863  0.5041
 1268SOL    HW115266   4.650   0.812  12.577 -1.5050 -0.1166  0.6882
 1268SOL    HW215267   4.531   0.738  12.534 -0.2689 -0.1186  0.5466
 1269SOL     OW15268   2.750   0.067   9.382  0.0914  0.3606  0.0424
 1269SOL    HW115269   2.781   0.111   9.303 -0.5104 -0.1470 -0.4845
 1269SOL    HW215270   2.714   0.138   9.435 -0.7421 -0.0193 -0.0072
 1270SOL     OW15271   0.448   4.212   4.023 -0.2193  0.2759  0.0727
 1270SOL    HW115272   0.365   4.233   4.066 -1.1650  0.6041 -1.9281
 1270SOL    HW215273   0.421   4.130   3.982 -0.4161  0.1292  0.4962
 1271SOL     OW15274   1.373   0.332   2.402  0.2159 -0.0014 -0.2233
 1271SOL    HW115275   1.377   0.237   2.408 -0.2706 -0.1090 -1.5797
 1271SOL    HW215276   1.442   0.364   2.460 -0.3674  2.3431 -0.8243
 1272SOL     OW15277   1.944   2.766   7.108  0.0775  0.2357  0.2622
 1272SOL    HW115278   1.977   2.853   7.083 -1.5438  0.5946 -0.6349
 1272SOL    HW215279   2.013   2.721   7.157 -0.8982  1.6178  2.8861
 1273SOL     OW15280   1.083   1.102   9.615  0.5402 -0.5094  0.3551
 1273SOL    HW115281   1.096   1.135   9.526  1.9037 -0.2375  0.6441
 1273SOL    HW215282   1.028   1.024   9.610  1.5638 -1.3499  2.1099
 1274SOL     OW15283   3.088   0.318   7.805 -0.2558  0.5985  0.7841
 1274SOL    HW115284   3.026   0.385   7.836 -1.0085 -0.4156  1.4900
 1274SOL    HW215285   3.155   0.370   7.761 -0.2148  0.0344  0.1861
 1275SOL     OW15286   2.383   2.135   1.201  0.0198 -0.4833 -0.1008
 1275SOL    HW115287   2.462   2.152   1.252 -0.5364  0.0051  0.5968
 1275SOL    HW215288   2.395   2.041   1.186 -2.3289 -0.4405 -2.2416
 1276SOL     OW15289   1.800   3.928  14.992  0.3372 -0.1880 -0.3434
 1276SOL    HW115290   1.775   3.838  15.014  1.2556 -0.4976 -0.5735
 1276SOL    HW215291   1.728   3.974  15.037  0.3929  0.3982 -0.8686
 1277SOL     OW15292   0.464   4.083   7.488 -0.7438 -0.0849  0.3666
 1277SOL    HW115293   0.427   4.130   7.413 -3.0290 -1.0188  0.9095
 1277SOL    HW215294   0.395   4.027   7.525  0.1185 -0.3531  1.5489
 1278SOL     OW15295   3.363   3.855   8.606 -0.2417 -0.5685  0.5938
 1278SOL    HW115296   3.307   3.854   8.528  0.6179 -0.8202 -0.0102
 1278SOL    HW215297   3.338   3.769   8.639 -3.0566  0.7282  1.8667
 1279SOL     OW15298   3.669   0.757  12.361 -0.2832  0.3568 -0.5808
 1279SOL    HW115299   3.652   0.668  12.393  1.1357  0.1863 -0.2826
 1279SOL    HW215300   3.764   0.755  12.348 -0.0455 -0.3465  1.1542
 1280SOL     OW15301   1.954   3.747  15.158  0.3359  0.5328  0.8141
 1280SOL    HW115302   1.895   3.788  15.221 -0.7983  0.0246  0.0835
 1280SOL    HW215303   1.918   3.779  15.075  0.6029  2.1510  1.3114
 1281SOL     OW15304   0.192   3.955   5.558  0.1270  0.8994 -0.0494
 1281SOL    HW115305   0.251   3.948   5.483 -2.8948  2.7456 -2.6273
 1281SOL    HW215306   0.135   4.023   5.521  0.7203  1.2496 -0.3062
 1282SOL     OW15307   2.439   1.614   0.134  0.9355  0.2046  0.0814
 1282SOL    HW115308   2.406   1.561   0.207  1.5298  0.1622  0.3196
 1282SOL    HW215309   2.511   1.559   0.102  1.2450  0.8175 -0.2591
 1283SOL     OW15310   3.663   2.184  15.682  0.6298  0.3046 -0.0127
 1283SOL    HW115311   3.569   2.170  15.676  0.6674 -0.4219  1.2804
 1283SOL    HW215312   3.671   2.178  15.586 -0.7517 -0.4603 -0.0757
 1284SOL     OW15313   4.113   0.966  10.241 -0.1481 -0.0173 -0.5508
 1284SOL    HW115314   4.179   0.910  10.281 -0.4923 -1.2990 -1.7923
 1284SOL    HW215315   4.153   1.053  10.243 -2.4261  1.0313 -0.9199
 1285SOL     OW15316   1.058   1.833   5.692  0.3124 -0.4042  0.4409
 1285SOL    HW115317   1.129   1.851   5.630 -0.9991  0.3092 -0.8533
 1285SOL    HW215318   1.011   1.755   5.663  2.9635 -1.0112 -2.1905
 1286SOL     OW15319   3.676   1.953   8.450  0.0220 -0.0993  0.2046
 1286SOL    HW115320   3.672   1.876   8.506 -1.8193 -0.9476 -1.0905
 1286SOL    HW215321   3.685   2.006   8.529  1.2747  1.0369 -0.6913
 1287SOL     OW15322   1.370   0.208  16.098  0.2978  0.3079  0.3695
 1287SOL    HW115323   1.286   0.211  16.144  0.7065 -2.6618  1.3249
 1287SOL    HW215324   1.431   0.236  16.166  1.0131 -1.1485  0.3335
 1288SOL     OW15325   4.518   0.360   8.881  0.1262 -0.7294 -0.0817
 1288SOL    HW115326   4.571   0.360   8.961 -0.3541  2.1901  0.2315
 1288SOL    HW215327   4.450   0.419   8.913 -0.6104 -1.6552  0.0625
 1289SOL     OW15328   1.238   1.859   8.352  0.1171 -0.1396  0.0192
 1289SOL    HW115329   1.315   1.856   8.294  0.8575  1.3001  0.9285
 1289SOL    HW215330   1.263   1.931   8.409  1.9638 -0.9443  0.2284
 1290SOL     OW15331   4.364   3.303  13.105 -0.2450 -0.5799 -0.6982
 1290SOL    HW115332   4.304   3.251  13.051  0.8029 -1.0727 -1.4030
 1290SOL    HW215333   4.324   3.389  13.112  2.7563  0.7551  0.1695
 1291SOL     OW15334   1.631   2.401  16.385  0.2246  0.6018 -0.4102
 1291SOL    HW115335   1.660   2.487  16.354  0.9477  0.3343 -0.4947
 1291SOL    HW215336   1.541   2.393  16.355  0.2196 -1.0908  0.0427
 1292SOL     OW15337   1.237   4.206   3.760  0.5113 -0.0784 -0.4203
 1292SOL    HW115338   1.323   4.185   3.723 -0.2677  0.6153 -2.6464
 1292SOL    HW215339   1.188   4.186   3.680  0.6547 -1.3554 -0.1916
 1293SOL     OW15340   2.999   2.532   9.024  0.1816  0.1132 -0.4449
 1293SOL    HW115341   3.055   2.559   8.952 -1.1055  1.0931 -1.0745
 1293SOL    HW215342   2.912   2.521   8.986  0.8970 -0.7180 -1.8573
 1294SOL     OW15343   1.955   3.461   5.866 -0.5069 -0.2634  0.3905
 1294SOL    HW115344   1.909   3.543   5.845  0.0670  0.0080  0.1843
 1294SOL    HW215345   2.035   3.503   5.896 -1.7390  1.8620  0.7121
 1295SOL     OW15346   3.478   3.226  17.232 -0.1762  0.1451  0.4259
 1295SOL    HW115347   3.432   3.275  17.300  0.4406 -2.5452  2.8027
 1295SOL    HW215348   3.448   3.136  17.246  1.5787 -0.2601  1.5855
 1296SOL     OW15349   1.070   2.530   5.388  0.2643 -0.3868 -0.1754
 1296SOL    HW115350   0.997   2.528   5.326 -0.8720  0.5934  1.1203
 1296SOL    HW215351   1.040   2.604   5.440  1.1238 -0.1809  0.0264
 1297SOL     OW15352   1.221   0.452  10.590 -0.3206 -0.1980  0.4608
 1297SOL    HW115353   1.157   0.382  10.575 -0.4217 -0.1351  0.6123
 1297SOL    HW215354   1.170   0.513  10.642  0.7823  0.7356  0.4485
 1298SOL     OW15355   0.936   0.656   0.450  0.2517  0.2823  0.8436
 1298SOL    HW115356   0.904   0.729   0.504 -0.6398  2.3796 -2.5502
 1298SOL    HW215357   0.985   0.617   0.523 -0.2024 -2.0656 -0.1186
 1299SOL     OW15358   0.686   2.477   4.548 -0.1491 -0.1235 -0.0044
 1299SOL    HW115359   0.699   2.406   4.485 -1.0803 -1.3736  1.2070
 1299SOL    HW215360   0.752   2.451   4.613 -0.5513  0.2316  0.5472
 1300SOL     OW15361   1.851   1.122   8.996 -0.3638  0.2305 -0.1358
 1300SOL    HW115362   1.773   1.102   8.945 -0.4262 -0.0707  0.0793
 1300SOL    HW215363   1.812   1.140   9.081  0.2707  1.3722 -0.0869
 1301SOL     OW15364   3.948   0.208   4.396  0.0436 -0.0610 -0.3086
 1301SOL    HW115365   3.866   0.195   4.348  0.7766  1.3194 -1.9313
 1301SOL    HW215366   4.005   0.158   4.338  1.4241 -0.6611  1.5677
 1302SOL     OW15367   1.697   3.215  14.163 -0.4724 -0.5720 -0.3939
 1302SOL    HW115368   1.733   3.130  14.189 -0.1569 -0.6212 -1.0112
 1302SOL    HW215369   1.760   3.232  14.093  0.4469 -1.3104  0.2438
 1303SOL     OW15370   2.367   1.453   5.479  0.2958 -0.3006  0.3636
 1303SOL    HW115371   2.281   1.481   5.511 -0.0938 -1.8534  0.6810
 1303SOL    HW215372   2.343   1.434   5.389 -1.6749  0.2399  0.7742
 1304SOL     OW15373   2.680   0.612   3.506  0.3772  0.1630 -0.3490
 1304SOL    HW115374   2.698   0.518   3.509  0.9580  0.3426  1.5382
 1304SOL    HW215375   2.767   0.650   3.518  0.8149 -1.4809  1.5655
 1305SOL     OW15376   1.236   2.529   0.597 -0.5351  0.1818 -0.6080
 1305SOL    HW115377   1.190   2.511   0.516  1.2853 -1.2042 -1.3282
 1305SOL    HW215378   1.325   2.555   0.573 -1.1170  2.2313 -0.5534
 1306SOL     OW15379   2.562   4.370   8.476  0.3899  0.0735  0.5574
 1306SOL    HW115380   2.607   4.451   8.502  0.2846  0.3253 -0.0444
 1306SOL    HW215381   2.562   4.325   8.560  0.4525 -2.7723 -0.9598
 1307SOL     OW15382   3.091   1.138   4.335 -0.3771  0.6198  0.2442
 1307SOL    HW115383   3.121   1.204   4.273  0.4840  0.8759  0.9385
 1307SOL    HW215384   3.010   1.113   4.290  0.3694 -0.6240 -0.4144
 1308SOL     OW15385   0.689   3.799   7.121  0.1899 -0.3256  0.1916
 1308SOL    HW115386   0.675   3.881   7.074 -1.0129  0.1413  1.3525
 1308SOL    HW215387   0.682   3.828   7.212  2.9635 -2.5782  1.1155
 1309SOL     OW15388   4.099   3.656   3.191  0.4900 -0.1991 -0.2008
 1309SOL    HW115389   4.165   3.704   3.242  1.1442 -1.8422  0.5419
 1309SOL    HW215390   4.025   3.714   3.176  0.4685 -0.3787 -0.7825
 1310SOL     OW15391   0.337   3.231   4.971  0.3251  0.5342  0.8554
 1310SOL    HW115392   0.363   3.153   5.020 -0.7537  0.1735  0.8319
 1310SOL    HW215393   0.249   3.246   5.004 -0.1327 -0.2744 -0.0202
 1311SOL     OW15394   3.017   0.636   4.432 -0.0563 -0.2108 -0.3359
 1311SOL    HW115395   3.081   0.572   4.461 -1.4153 -0.9644  1.0530
 1311SOL    HW215396   3.073   0.710   4.408 -0.0141 -0.4697 -1.0383
 1312SOL     OW15397   2.117   3.380  16.064 -0.0634 -0.0787 -0.4650
 1312SOL    HW115398   2.170   3.436  16.007  1.5889 -0.8203  0.3451
 1312SOL    HW215399   2.033   3.421  16.083 -1.5819 -3.3102 -0.1885
 1313SOL     OW15400   4.189   4.281   9.337 -0.0822  0.1851  0.5073
 1313SOL    HW115401   4.255   4.351   9.340 -0.3544  0.3521  3.1547
 1313SOL    HW215402   4.176   4.263   9.244  2.0062  0.7120  0.1148
 1314SOL     OW15403   0.302   1.516   2.595  0.2428 -0.5265  0.2871
 1314SOL    HW115404   0.324   1.562   2.514 -0.9549  2.3783  1.6201
 1314SOL    HW215405   0.221   1.468   2.575 -0.8253  1.3021  0.2338
 1315SOL     OW15406   1.752   1.487   4.399 -0.1036  0.0011  0.2592
 1315SOL    HW115407   1.731   1.514   4.488 -1.6712  1.7398 -0.6384
 1315SOL    HW215408   1.666   1.469   4.362  0.0718  1.0698 -0.6615
 1316SOL     OW15409   0.898   3.982   7.843  0.0908  0.1290  0.3016
 1316SOL    HW115410   0.842   3.928   7.899  0.0160 -0.6468 -0.5315
 1316SOL    HW215411   0.981   3.952   7.880 -0.3777  0.1604  1.3874
 1317SOL     OW15412   0.468   1.761   5.922 -0.0806 -0.0251  0.5684
 1317SOL    HW115413   0.475   1.673   5.959 -0.7740 -1.1854 -2.0160
 1317SOL    HW215414   0.375   1.781   5.933 -0.2818 -0.1176 -0.9160
 1318SOL     OW15415   0.586   2.736   6.302  0.2026  0.0684  0.5450
 1318SOL    HW115416   0.567   2.775   6.388 -2.1559  1.1139 -0.4768
 1318SOL    HW215417   0.676   2.760   6.280 -0.2669  0.5556 -0.8133
 1319SOL     OW15418   3.196   4.531  16.765 -0.6829  0.6416  0.9153
 1319SOL    HW115419   3.286   4.531  16.732 -0.1466 -0.5305  2.4158
 1319SOL    HW215420   3.147   4.547  16.684 -0.3340 -1.4347  0.3033
 1320SOL     OW15421   0.866   0.285   2.750 -0.5341  0.1163 -0.0812
 1320SOL    HW115422   0.949   0.318   2.786 -0.3992  1.9208 -2.0147
 1320SOL    HW215423   0.888   0.235   2.671 -2.7675 -1.0660  0.0456
 1321SOL     OW15424   2.406   2.420   8.874 -0.1743  0.5713 -0.3551
 1321SOL    HW115425   2.418   2.496   8.818  0.7503  0.6032 -0.1160
 1321SOL    HW215426   2.444   2.454   8.955  1.6030 -0.5094 -0.7200
 1322SOL     OW15427   3.651   2.686  16.013  0.0043  0.1230  0.0060
 1322SOL    HW115428   3.632   2.739  16.091  1.2906  1.0268 -0.2992
 1322SOL    HW215429   3.611   2.605  16.044  2.0873 -0.6824  0.5286
 1323SOL     OW15430   0.674   0.525   5.777 -0.1672  1.2635  0.1861
 1323SOL    HW115431   0.659   0.476   5.696  1.2810  1.0087  0.0697
 1323SOL    HW215432   0.593   0.503   5.823  1.1942  0.3954  2.1737
 1324SOL     OW15433   0.852   4.611   8.660  0.7037  0.1243  0.0659
 1324SOL    HW115434   0.889   4.695   8.687  1.6963 -0.5111  0.6864
 1324SOL    HW215435   0.888   4.558   8.731 -0.1833  0.5721  0.8531
 1325SOL     OW15436   4.073   2.218   1.421 -0.1196  0.7561  0.7949
 1325SOL    HW115437   4.139   2.242   1.356  0.0169  0.8010  0.9510
 1325SOL    HW215438   4.003   2.188   1.364  0.1986 -0.0729  0.8486
 1326SOL     OW15439   2.220   4.667   5.701 -0.2194 -0.1571 -0.6797
 1326SOL    HW115440   2.251   4.722   5.773 -0.3803 -2.8208  1.4247
 1326SOL    HW215441   2.261   4.585   5.727 -0.8776 -0.3448 -0.2068
 1327SOL     OW15442   2.738   2.368   8.672 -0.5659 -0.0056  0.1155
 1327SOL    HW115443   2.814   2.382   8.615  0.0518  1.1591  1.2391
 1327SOL    HW215444   2.698   2.455   8.680 -0.3606  0.1057 -0.0479
 1328SOL     OW15445   0.433   2.343  10.111 -0.1346 -0.4410 -0.2920
 1328SOL    HW115446   0.458   2.252  10.130 -2.3779 -0.9386  0.2970
 1328SOL    HW215447   0.462   2.351  10.020  0.4202 -0.4984 -0.1217
 1329SOL     OW15448   4.530   1.492   5.084 -0.1388  0.6792  0.3328
 1329SOL    HW115449   4.502   1.516   5.173 -3.0256  1.6860 -0.8356
 1329SOL    HW215450   4.448   1.509   5.038  0.1158 -0.7396 -0.6286
 1330SOL     OW15451   2.042   3.159   2.414  0.2918  0.1895  0.7359
 1330SOL    HW115452   2.040   3.088   2.350  0.8314  1.4576 -0.6818
 1330SOL    HW215453   2.125   3.198   2.386  0.3744  0.2103  1.0075
 1331SOL     OW15454   1.384   4.230   1.870 -0.1525  0.4220 -0.3783
 1331SOL    HW115455   1.479   4.224   1.884 -0.4910 -0.8903  1.2975
 1331SOL    HW215456   1.390   4.309   1.816  0.9172  0.4940 -0.1535
 1332SOL     OW15457   1.916   0.507   7.978  0.2014  0.3464  0.2887
 1332SOL    HW115458   1.915   0.466   7.892 -0.0410 -0.7193  0.7946
 1332SOL    HW215459   2.007   0.532   7.993 -0.2618  2.9505 -1.3928
 1333SOL     OW15460   2.908   2.858   6.786  0.0389  0.4261  0.4746
 1333SOL    HW115461   2.971   2.925   6.761  1.1821 -1.0835 -0.7461
 1333SOL    HW215462   2.840   2.882   6.722 -0.9211 -1.3389  0.8182
 1334SOL     OW15463   0.351   2.416   8.083 -0.1310 -0.2235 -0.0827
 1334SOL    HW115464   0.438   2.442   8.052 -0.7696 -1.6693 -3.0596
 1334SOL    HW215465   0.363   2.398   8.177 -1.5018  0.4472  0.2192
 1335SOL     OW15466   0.876   1.709   6.597 -0.3691 -0.4007 -0.5550
 1335SOL    HW115467   0.900   1.792   6.558  1.4532  0.1992  1.8722
 1335SOL    HW215468   0.857   1.751   6.681 -2.9450 -2.3117 -0.1569
 1336SOL     OW15469   2.900   2.887  16.676 -0.3682 -0.0043 -0.1095
 1336SOL    HW115470   2.823   2.845  16.714  0.9826 -1.2312  1.3159
 1336SOL    HW215471   2.970   2.871  16.740 -1.1815  1.7833  1.2117
 1337SOL     OW15472   0.442   4.533   6.901  0.2391 -0.0914  0.0571
 1337SOL    HW115473   0.466   4.455   6.851 -2.0237 -1.0405  0.4821
 1337SOL    HW215474   0.437   4.601   6.834  1.6061  1.6183  1.6874
 1338SOL     OW15475   2.552   0.297   9.958  0.0405  0.2487 -0.1008
 1338SOL    HW115476   2.648   0.289   9.962 -0.0781 -0.8413  0.3209
 1338SOL    HW215477   2.542   0.284   9.864 -0.0842  0.7669 -0.1641
 1339SOL     OW15478   2.573   3.203   5.518  0.5546  0.4201  0.3521
 1339SOL    HW115479   2.597   3.121   5.560 -2.3689 -0.6390 -0.0261
 1339SOL    HW215480   2.661   3.234   5.498  0.2015  1.9990  1.1973
 1340SOL     OW15481   0.602   3.495  16.219  0.1727 -0.3280 -0.1746
 1340SOL    HW115482   0.533   3.551  16.185  1.1013  0.3337 -0.9744
 1340SOL    HW215483   0.665   3.504  16.148  1.6206 -2.5176  0.8322
 1341SOL     OW15484   0.914   0.888   9.673 -0.1027  0.1548 -0.2180
 1341SOL    HW115485   0.874   0.860   9.591  1.0738  1.1282 -1.1291
 1341SOL    HW215486   0.872   0.967   9.710 -2.4644 -0.6369 -1.2296
 1342SOL     OW15487   3.976   3.384   8.808  0.2759  0.2542  0.2216
 1342SOL    HW115488   4.027   3.453   8.766  0.8941  0.1472  0.8134
 1342SOL    HW215489   4.026   3.306   8.788  1.8485  1.6243 -1.1475
 1343SOL     OW15490   2.512   0.264  10.731 -0.6201 -0.1545  0.2712
 1343SOL    HW115491   2.489   0.282  10.640 -1.1524  0.8446  0.6051
 1343SOL    HW215492   2.432   0.284  10.780 -0.6450  0.2010  0.0849
 1344SOL     OW15493   0.980   2.192   5.453  0.3058  0.3728  0.2001
 1344SOL    HW115494   1.012   2.104   5.470 -0.4572  0.5173  2.3332
 1344SOL    HW215495   1.050   2.243   5.494  0.6539  0.2660 -0.2607
 1345SOL     OW15496   1.848   4.517  16.488 -0.2260  0.0229  0.3142
 1345SOL    HW115497   1.925   4.568  16.510  0.3581  0.4386 -2.7012
 1345SOL    HW215498   1.788   4.541  16.559  0.0156 -1.5048  1.0503
 1346SOL     OW15499   3.772   0.173   2.581 -0.5710 -0.2066 -0.3757
 1346SOL    HW115500   3.733   0.248   2.536  0.7439  2.1848  2.5271
 1346SOL    HW215501   3.689   0.138   2.613 -0.2043  0.0945  0.8669
 1347SOL     OW15502   1.815   3.704   6.516  0.1353  0.0234  0.2288
 1347SOL    HW115503   1.789   3.691   6.607  0.6430  0.1680  0.3965
 1347SOL    HW215504   1.821   3.799   6.510  1.1009  0.0185  1.0560
 1348SOL     OW15505   4.501   0.847   3.385 -0.1847 -0.1390  0.1415
 1348SOL    HW115506   4.596   0.849   3.397 -0.1059  0.7727 -0.6023
 1348SOL    HW215507   4.481   0.757   3.361  2.5662 -1.0492  1.3589
 1349SOL     OW15508   3.953   0.078   5.140  1.0806 -0.0214 -0.2420
 1349SOL    HW115509   3.989   0.081   5.052  0.2604  0.5337 -0.5590
 1349SOL    HW215510   3.951   4.707   5.148 -0.0504  0.0117 -0.1541
 1350SOL     OW15511   4.269   2.560  12.674  0.1555 -0.3178  0.0060
 1350SOL    HW115512   4.208   2.572  12.601 -1.2363  0.7244  1.3710
 1350SOL    HW215513   4.313   2.645  12.678 -2.3803  0.9552  0.6499
 1351SOL     OW15514   3.576   1.287  10.214 -0.3825 -0.0891 -0.4101
 1351SOL    HW115515   3.651   1.246  10.171  1.6127  2.2735  0.7598
 1351SOL    HW215516   3.522   1.209  10.203 -2.1870  0.9704  0.7902
 1352SOL     OW15517   3.585   1.191   3.584 -0.1104  0.4209 -0.5443
 1352SOL    HW115518   3.613   1.193   3.675 -0.0125 -0.0627 -0.5584
 1352SOL    HW215519   3.548   1.103   3.577  1.1221 -0.1990  0.6545
 1353SOL     OW15520   1.457   2.249   5.746  0.6786  0.1329 -0.3278
 1353SOL    HW115521   1.524   2.227   5.811 -0.3799 -2.2503 -0.0275
 1353SOL    HW215522   1.415   2.322   5.791  0.9596 -1.0840  1.9151
 1354SOL     OW15523   3.524   2.452  14.845 -0.1430 -0.0049 -0.4545
 1354SOL    HW115524   3.552   2.538  14.815 -0.6046  0.4913  0.5150
 1354SOL    HW215525   3.517   2.404  14.763 -2.8578  0.1497 -0.3139
 1355SOL     OW15526   3.758   3.669   8.419  0.3847  0.0756 -0.4654
 1355SOL    HW115527   3.776   3.593   8.473  0.1910  0.0873 -0.3813
 1355SOL    HW215528   3.848   3.684   8.391  1.1283 -1.8076  0.9438
 1356SOL     OW15529   2.872   4.270   7.972 -0.2887 -0.3706 -0.7074
 1356SOL    HW115530   2.891   4.198   7.912 -0.8262 -0.6982 -0.4860
 1356SOL    HW215531   2.917   4.349   7.942  0.1248 -0.4238 -0.2146
 1357SOL     OW15532   0.752   0.041  16.167  0.0764 -0.2305 -1.1667
 1357SOL    HW115533   0.755   0.098  16.090  0.8029 -0.7522 -1.5209
 1357SOL    HW215534   0.836   4.721  16.159  0.8660  1.5704 -2.9703
 1358SOL     OW15535   0.648   3.745  16.627 -0.0839 -0.3139  0.1701
 1358SOL    HW115536   0.716   3.688  16.664  0.2712 -0.1864 -0.2702
 1358SOL    HW215537   0.677   3.734  16.536 -0.2431 -1.0548  0.2164
 1359SOL     OW15538   3.930   1.594   4.644  0.3664  0.0830 -0.2165
 1359SOL    HW115539   3.864   1.564   4.582  1.0877 -0.7947 -0.5563
 1359SOL    HW215540   3.995   1.524   4.633  1.8370  1.1488  1.6677
 1360SOL     OW15541   0.444   3.006   2.162  0.2182  0.5306 -0.9051
 1360SOL    HW115542   0.502   3.045   2.227  1.7872 -1.4498 -1.1473
 1360SOL    HW215543   0.367   2.998   2.220 -0.2285 -1.3106 -1.7799
 1361SOL     OW15544   2.310   1.242  16.367  0.1877  0.1375  0.5059
 1361SOL    HW115545   2.291   1.238  16.461  0.3970  2.9390  0.6673
 1361SOL    HW215546   2.219   1.243  16.338  0.6695  0.8690 -0.9819
 1362SOL     OW15547   0.960   0.144   0.559  0.0880  0.1001 -0.0992
 1362SOL    HW115548   1.004   0.219   0.517  0.2582  0.7508  1.2223
 1362SOL    HW215549   1.028   0.095   0.604 -0.0918 -1.2207 -1.2795
 1363SOL     OW15550   4.562   4.704   8.937 -0.0295  0.0007 -0.1921
 1363SOL    HW115551   4.544   4.611   8.927  0.1586 -0.0603  0.0410
 1363SOL    HW215552   4.611   4.705   9.020 -1.6685  2.0650  0.7708
 1364SOL     OW15553   4.177   4.174  13.157 -0.3391  0.2841  0.0457
 1364SOL    HW115554   4.160   4.085  13.187  3.4259 -1.9860 -4.5434
 1364SOL    HW215555   4.209   4.217  13.236 -0.6585 -0.3835  0.5389
 1365SOL     OW15556   4.229   0.454  11.514  0.5062  0.2316 -0.1986
 1365SOL    HW115557   4.233   0.546  11.540 -3.1407 -0.3437  2.3433
 1365SOL    HW215558   4.322   0.432  11.505  0.2313 -0.8023 -0.5307
 1366SOL     OW15559   4.372   3.266   2.936 -0.7287 -0.0700  0.1063
 1366SOL    HW115560   4.409   3.305   2.857  0.6880 -1.5141  0.0686
 1366SOL    HW215561   4.380   3.176   2.907  2.3354  0.2955 -0.1347
 1367SOL     OW15562   0.516   0.102   9.111  0.2711  0.3637 -0.2175
 1367SOL    HW115563   0.519   0.165   9.183 -0.0806  1.0596 -0.8161
 1367SOL    HW215564   0.608   0.107   9.084 -0.1367 -0.7384 -1.8569
 1368SOL     OW15565   0.582   1.999   0.084 -0.0987  0.4481 -0.4616
 1368SOL    HW115566   0.665   2.017   0.038  1.3839 -0.2456  1.9479
 1368SOL    HW215567   0.588   1.911   0.121  0.1079  1.6101  2.3057
 1369SOL     OW15568   1.204   1.583   7.626 -0.2850 -0.5186  0.0226
 1369SOL    HW115569   1.158   1.649   7.574 -1.7323 -0.0065  1.9457
 1369SOL    HW215570   1.240   1.641   7.693 -1.5109  1.7186 -1.2427
 1370SOL     OW15571   3.264   2.565   5.356  0.2991  0.4283  0.3210
 1370SOL    HW115572   3.289   2.505   5.287  1.5163 -0.9745  1.9847
 1370SOL    HW215573   3.256   2.647   5.308 -1.8170  0.7364  1.1845
 1371SOL     OW15574   0.562   4.002  14.100  0.1375 -0.1521  0.4464
 1371SOL    HW115575   0.645   3.982  14.143  0.2632 -0.2992  0.1388
 1371SOL    HW215576   0.518   3.917  14.106 -0.4971  0.2181  0.9763
 1372SOL     OW15577   1.943   3.718   8.635 -0.5648  0.4108 -0.0094
 1372SOL    HW115578   1.923   3.798   8.586 -1.5316  1.3685  1.9712
 1372SOL    HW215579   1.910   3.748   8.719 -1.4787 -0.2698 -0.1236
 1373SOL     OW15580   2.581   1.287   0.533 -0.1916 -0.6202  0.2399
 1373SOL    HW115581   2.486   1.277   0.522 -0.4166  1.2917  0.3614
 1373SOL    HW215582   2.605   1.345   0.460 -2.1104 -0.0781  0.0395
 1374SOL     OW15583   1.889   4.019   3.292 -0.2642 -0.2839  0.3536
 1374SOL    HW115584   1.933   3.934   3.286 -0.1067 -0.1096 -0.9503
 1374SOL    HW215585   1.798   3.991   3.287 -0.5336  0.2445  2.4752
 1375SOL     OW15586   2.393   1.631   3.359 -0.2769  0.0084 -0.1959
 1375SOL    HW115587   2.343   1.570   3.305  0.4623 -0.0101 -0.8596
 1375SOL    HW215588   2.345   1.714   3.355 -1.6686 -0.7972 -0.0960
 1376SOL     OW15589   4.376   2.388   5.507 -0.1785 -0.2468  1.2001
 1376SOL    HW115590   4.292   2.396   5.462  0.2777 -1.4591  0.1136
 1376SOL    HW215591   4.383   2.465   5.563  1.3532 -0.2294  0.9790
 1377SOL     OW15592   2.783   1.496   7.228 -0.1431 -0.0014  0.0114
 1377SOL    HW115593   2.798   1.539   7.143 -0.7939 -1.3889 -0.8061
 1377SOL    HW215594   2.702   1.543   7.249 -0.3760  0.0988 -1.0852
 1378SOL     OW15595   1.151   4.137   6.679  0.4047  0.3319  0.2728
 1378SOL    HW115596   1.069   4.180   6.655  1.4762  0.8570 -2.4412
 1378SOL    HW215597   1.167   4.074   6.609  0.4379 -1.5596  1.9871
 1379SOL     OW15598   2.220   4.178   5.300 -0.0508 -0.6741  0.9103
 1379SOL    HW115599   2.183   4.130   5.226 -1.7492  2.1652 -0.1134
 1379SOL    HW215600   2.149   4.234   5.331 -2.4378 -2.5099 -1.3160
 1380SOL     OW15601   0.940   0.484  14.522  0.2013 -0.3331  0.3749
 1380SOL    HW115602   0.988   0.446  14.595  1.0366  0.6226  0.3330
 1380SOL    HW215603   0.885   0.415  14.486 -0.0499 -0.2749  0.6546
 1381SOL     OW15604   2.929   2.621   6.513 -0.5469 -0.0658 -0.3118
 1381SOL    HW115605   2.864   2.571   6.562  0.0856  0.2167  0.8165
 1381SOL    HW215606   2.904   2.609   6.421 -0.5995 -0.4537 -0.2472
 1382SOL     OW15607   1.671   3.698  15.034  0.0180 -0.7257 -0.1447
 1382SOL    HW115608   1.601   3.722  15.095  2.2183  0.6872  1.8514
 1382SOL    HW215609   1.640   3.620  14.989  0.3532  0.3149 -2.1418
 1383SOL     OW15610   3.092   2.578   2.450 -0.9570  0.4034  0.1535
 1383SOL    HW115611   3.040   2.510   2.491 -0.1630  1.1601  2.4133
 1383SOL    HW215612   3.124   2.622   2.529 -1.2359 -2.3170  1.7458
 1384SOL     OW15613   4.296   3.321   8.487 -0.4436  0.1575 -0.3191
 1384SOL    HW115614   4.263   3.379   8.556  1.0014  1.2225 -0.5312
 1384SOL    HW215615   4.304   3.243   8.541 -1.4941 -0.8296 -1.5895
 1385SOL     OW15616   2.787   4.038   6.407 -0.1385 -0.2004  0.0153
 1385SOL    HW115617   2.718   4.076   6.352  0.2594  2.8468  1.6610
 1385SOL    HW215618   2.859   4.096   6.385 -1.4336  1.8735  1.2367
 1386SOL     OW15619   1.584   0.815   1.866  0.5560 -0.4719 -0.3520
 1386SOL    HW115620   1.626   0.901   1.864 -1.7531  0.6189 -1.7154
 1386SOL    HW215621   1.605   0.774   1.781  0.7073 -1.7924  0.3205
 1387SOL     OW15622   0.337   3.924  14.998  0.1890  0.2605 -0.3309
 1387SOL    HW115623   0.386   3.922  15.080 -2.6953  1.9466  1.4267
 1387SOL    HW215624   0.258   3.873  15.017 -0.2847  0.9789 -0.3744
 1388SOL     OW15625   4.307   3.736   5.787 -0.0902 -0.5970 -0.6288
 1388SOL    HW115626   4.390   3.722   5.740  0.1161  0.1892 -0.5022
 1388SOL    HW215627   4.253   3.672   5.741  1.8064 -1.3226 -1.8824
 1389SOL     OW15628   3.858   0.205  17.277 -0.5168  0.2686 -0.2496
 1389SOL    HW115629   3.932   0.206  17.217  0.2714 -0.2116  0.7159
 1389SOL    HW215630   3.810   0.274  17.231  1.2907  1.4968 -0.2846
 1390SOL     OW15631   2.549   2.370  16.822 -0.2903 -0.8320  0.2595
 1390SOL    HW115632   2.625   2.420  16.795 -1.1749  0.1878 -0.3665
 1390SOL    HW215633   2.486   2.423  16.773  1.1084  1.6188  1.1491
 1391SOL     OW15634   1.302   4.648   4.983  0.0748 -0.4967  0.4574
 1391SOL    HW115635   1.250   4.615   4.909  0.2901  0.1945  0.0069
 1391SOL    HW215636   1.267   0.012   4.989  1.2787  0.0900 -1.4125
 1392SOL     OW15637   4.383   2.607   0.969  0.3955 -0.1908 -1.1009
 1392SOL    HW115638   4.456   2.559   0.930 -1.3088 -2.4206 -1.5495
 1392SOL    HW215639   4.436   2.676   1.009 -1.2248 -0.3354  1.3635
 1393SOL     OW15640   0.756   4.112   0.872 -0.1566  0.9758 -0.5333
 1393SOL    HW115641   0.802   4.046   0.924 -1.1569  0.6975 -0.0071
 1393SOL    HW215642   0.805   4.095   0.792 -0.5046 -1.2369 -0.2572
 1394SOL     OW15643   2.986   4.671   9.061 -0.1908  0.4605  0.4014
 1394SOL    HW115644   2.898   4.633   9.052  0.6970 -2.2457  3.4344
 1394SOL    HW215645   3.035   4.654   8.981  0.2426 -0.3725  0.8562
 1395SOL     OW15646   0.313   2.631   7.022  0.2216 -0.0137  0.3562
 1395SOL    HW115647   0.369   2.569   6.976 -0.6727 -0.0551 -0.6705
 1395SOL    HW215648   0.299   2.698   6.955  2.2778  0.0992  0.0585
 1396SOL     OW15649   2.605   2.780  13.682  0.4618  0.2095  0.5169
 1396SOL    HW115650   2.577   2.703  13.632  0.9482 -0.5630  1.4450
 1396SOL    HW215651   2.623   2.739  13.766  0.5779  0.7504  0.7611
 1397SOL     OW15652   4.395   3.010   3.698  0.3439 -0.1773 -0.0769
 1397SOL    HW115653   4.318   3.047   3.655 -0.4496  0.1155  1.6154
 1397SOL    HW215654   4.367   2.919   3.709 -0.5142 -0.0445 -1.1801
 1398SOL     OW15655   1.029   3.040  16.492 -0.2228  0.0332  0.4742
 1398SOL    HW115656   1.039   3.127  16.454 -1.0079  0.1681  0.5649
 1398SOL    HW215657   1.062   3.069  16.577 -4.1868 -1.8854  2.6773
 1399SOL     OW15658   2.567   2.504  11.535  0.0489 -0.4317  0.8538
 1399SOL    HW115659   2.645   2.477  11.487  0.2053  1.5154 -0.0283
 1399SOL    HW215660   2.567   2.431  11.596 -1.5336 -2.3587 -1.4213
 1400SOL     OW15661   4.364   3.355   2.141  0.1115  0.6157  0.5978
 1400SOL    HW115662   4.388   3.311   2.060  0.7020 -0.4727  1.3598
 1400SOL    HW215663   4.433   3.325   2.199  0.1442  0.1359  0.3097
 1401SOL     OW15664   3.563   2.551   3.201 -0.2202 -0.0015 -0.0773
 1401SOL    HW115665   3.578   2.612   3.273 -1.3354 -0.6177  0.6772
 1401SOL    HW215666   3.638   2.492   3.206 -0.3327 -0.2406 -1.1632
 1402SOL     OW15667   4.393   1.566   7.576  0.6216  0.2775 -0.1897
 1402SOL    HW115668   4.426   1.503   7.513 -1.6553  0.5768 -1.7164
 1402SOL    HW215669   4.338   1.619   7.517 -0.7983  0.6970  1.5074
 1403SOL     OW15670   3.426   0.114   2.459  0.0506 -0.2406  0.5202
 1403SOL    HW115671   3.483   0.078   2.527  1.4586 -1.8246 -1.4580
 1403SOL    HW215672   3.369   0.040   2.440 -3.5599  3.2669 -2.1982
 1404SOL     OW15673   4.054   0.951  11.437  0.3063  0.3034 -0.1210
 1404SOL    HW115674   4.077   1.010  11.366  0.5478 -0.0155 -0.3089
 1404SOL    HW215675   4.075   1.001  11.516 -1.4322  1.0091 -0.0962
 1405SOL     OW15676   3.289   3.887   5.686 -0.2226 -0.2717 -0.2392
 1405SOL    HW115677   3.246   3.883   5.772  0.4268 -0.3146  0.0826
 1405SOL    HW215678   3.371   3.842   5.703 -1.0263 -2.0063 -0.9988
 1406SOL     OW15679   0.629   4.642   1.577 -0.0653  0.0625  0.1521
 1406SOL    HW115680   0.604   4.602   1.493 -0.9031 -2.4771  1.6262
 1406SOL    HW215681   0.596   0.007   1.568  0.4319  0.0523 -1.9057
 1407SOL     OW15682   2.245   2.356   6.189  0.2959  0.1389 -0.1177
 1407SOL    HW115683   2.336   2.352   6.218  0.4585 -1.4214 -0.8314
 1407SOL    HW215684   2.239   2.447   6.159  1.3811  0.8703  1.8557
 1408SOL     OW15685   3.940   0.873  15.063 -0.1450 -0.4347 -0.4597
 1408SOL    HW115686   3.943   0.844  14.972  0.6927 -2.6592  0.2832
 1408SOL    HW215687   4.029   0.891  15.094  0.1398 -0.7574 -1.0993
 1409SOL     OW15688   2.853   4.345   6.906 -0.0446 -0.2355  0.4057
 1409SOL    HW115689   2.902   4.416   6.865 -0.5636 -0.0812  0.0421
 1409SOL    HW215690   2.853   4.282   6.835  3.7846 -1.6067  1.6495
 1410SOL     OW15691   2.389   3.283  17.012  0.4657 -0.1443  0.6919
 1410SOL    HW115692   2.378   3.378  17.016 -2.4336 -0.3960 -1.1997
 1410SOL    HW215693   2.479   3.276  17.044  1.0191 -0.6517 -0.9458
 1411SOL     OW15694   3.607   4.313  14.706  0.1868  0.0390 -0.2337
 1411SOL    HW115695   3.547   4.361  14.763  0.4177 -0.5398  0.5045
 1411SOL    HW215696   3.596   4.339  14.615 -2.7003 -1.3492 -0.2568
 1412SOL     OW15697   2.179   0.879  15.749  0.2349 -0.1199 -0.3131
 1412SOL    HW115698   2.230   0.930  15.813 -0.4071 -1.4635  1.2830
 1412SOL    HW215699   2.247   0.864  15.684  0.6033 -0.5691  0.1712
 1413SOL     OW15700   3.565   0.838   9.407 -0.0990 -0.5967 -0.1768
 1413SOL    HW115701   3.561   0.913   9.466  0.4896 -0.1259 -0.7390
 1413SOL    HW215702   3.642   0.790   9.437 -1.1440 -2.1825 -0.0267
 1414SOL     OW15703   1.470   3.453   0.952 -0.0864 -0.3588 -0.0544
 1414SOL    HW115704   1.515   3.374   0.984  1.2433  1.0373  1.5148
 1414SOL    HW215705   1.388   3.408   0.928 -1.5907  1.5027  1.5929
 1415SOL     OW15706   1.982   3.008   8.582  0.5394 -0.1838  0.4460
 1415SOL    HW115707   2.073   3.022   8.557  0.3285 -1.4298 -1.0437
 1415SOL    HW215708   1.941   2.975   8.503 -1.3939 -0.9400  1.7634
 1416SOL     OW15709   2.298   2.297   9.758 -0.3380 -0.2966  0.4725
 1416SOL    HW115710   2.341   2.233   9.701 -0.0574 -0.0764  0.4328
 1416SOL    HW215711   2.214   2.309   9.715  0.1218 -1.7889 -0.8528
 1417SOL     OW15712   3.952   4.462   1.650 -0.0269  0.0093  0.3422
 1417SOL    HW115713   3.958   4.366   1.651  0.5765  0.0407 -0.7876
 1417SOL    HW215714   3.869   4.480   1.605 -1.1447 -0.6089  2.1602
 1418SOL     OW15715   2.420   2.833   2.274 -0.0081 -0.2041 -0.2309
 1418SOL    HW115716   2.360   2.800   2.207 -2.7698  0.6091  1.8234
 1418SOL    HW215717   2.363   2.888   2.328  0.8710  0.0257  0.4536
 1419SOL     OW15718   0.801   0.976  12.529  0.4694 -0.2756 -0.1166
 1419SOL    HW115719   0.752   0.897  12.506  0.1909 -0.9157  2.6291
 1419SOL    HW215720   0.798   1.024  12.446  0.2741  0.3117  0.2336
 1420SOL     OW15721   1.520   2.027  13.568 -0.5477 -0.1306  0.0430
 1420SOL    HW115722   1.481   2.084  13.502 -1.0230 -0.6363 -0.1060
 1420SOL    HW215723   1.486   2.075  13.643  0.2081 -1.0335  0.9758
 1421SOL     OW15724   3.340   2.636   9.035  0.1290  0.0051 -0.1037
 1421SOL    HW115725   3.372   2.571   9.097  0.7097  1.1632  0.8067
 1421SOL    HW215726   3.403   2.707   9.024  2.0508 -1.6905  0.1077
 1422SOL     OW15727   4.706   4.083  14.991  0.2298  0.0059  0.3527
 1422SOL    HW115728   4.643   4.154  14.986  0.0953 -0.1401 -0.0426
 1422SOL    HW215729   0.028   4.094  14.909 -2.1976 -1.8749 -1.2618
 1423SOL     OW15730   3.961   0.098   8.283  0.8316  0.4151 -0.2882
 1423SOL    HW115731   3.905   0.055   8.217 -1.7955  3.6181 -0.1353
 1423SOL    HW215732   3.954   0.066   8.373  4.6063 -1.6600 -0.7547
 1424SOL     OW15733   1.923   2.973   3.035  0.1295 -0.1948 -0.2278
 1424SOL    HW115734   1.985   3.008   2.971  0.5332 -1.2286 -0.3902
 1424SOL    HW215735   1.987   2.931   3.092  0.8029 -0.1569 -0.9645
 1425SOL     OW15736   2.193   3.095   4.510  0.3862 -0.5683 -0.0378
 1425SOL    HW115737   2.177   3.025   4.447  0.5020 -0.8457  0.2417
 1425SOL    HW215738   2.105   3.111   4.545  1.0494 -0.0483  1.3807
 1426SOL     OW15739   3.121   1.164   2.086 -0.2378 -0.2343 -0.0608
 1426SOL    HW115740   3.138   1.214   2.007  2.1823 -0.4567  0.3093
 1426SOL    HW215741   3.105   1.078   2.048 -1.3180 -0.3414  0.6493
 1427SOL     OW15742   1.578   1.935  15.431  0.7429  0.1522 -0.0469
 1427SOL    HW115743   1.508   1.954  15.493  0.2516 -0.9002 -0.2800
 1427SOL    HW215744   1.553   1.847  15.402  2.0698 -0.2544  0.0762
 1428SOL     OW15745   4.125   4.612  16.835 -0.2657  0.1819 -0.6083
 1428SOL    HW115746   4.191   4.543  16.836 -1.6160 -1.0938 -3.2432
 1428SOL    HW215747   4.088   4.603  16.923  1.5547 -2.1734 -0.1014
 1429SOL     OW15748   3.753   3.776   9.849  0.1980 -0.1129 -0.1322
 1429SOL    HW115749   3.721   3.865   9.862  0.8480 -0.0433  0.9990
 1429SOL    HW215750   3.735   3.729   9.930 -0.6792  0.2493 -0.1217
 1430SOL     OW15751   2.074   4.618   8.985 -0.1960 -0.6390 -0.4548
 1430SOL    HW115752   2.086   4.663   9.068 -0.0791 -1.1541 -0.1931
 1430SOL    HW215753   2.153   4.567   8.970 -1.1837 -2.8101  1.7301
 1431SOL     OW15754   1.971   2.559  10.890 -0.0318  0.9986 -0.2221
 1431SOL    HW115755   1.906   2.574  10.958 -0.4983 -3.0303  0.2504
 1431SOL    HW215756   2.027   2.634  10.909  2.8357 -1.6253  1.8441
 1432SOL     OW15757   1.092   1.666  13.261 -0.5284  0.3214 -0.2150
 1432SOL    HW115758   1.079   1.608  13.336 -1.7135 -3.4077 -3.3098
 1432SOL    HW215759   1.012   1.718  13.263 -0.4652  0.3453  1.4056
 1433SOL     OW15760   2.672   1.817   8.926  0.2484  0.2939  0.0767
 1433SOL    HW115761   2.726   1.739   8.910  1.4717  1.7924 -2.9438
 1433SOL    HW215762   2.733   1.867   8.980  1.3745 -1.5200  0.5119
 1434SOL     OW15763   2.530   1.123  10.107  0.0913  0.2349  0.4004
 1434SOL    HW115764   2.456   1.167  10.149 -0.5401 -1.0085  0.6036
 1434SOL    HW215765   2.579   1.092  10.184  1.0631 -3.2127 -1.6325
 1435SOL     OW15766   2.920   1.685   7.676 -0.3806 -0.1586 -0.0394
 1435SOL    HW115767   2.968   1.607   7.703  0.4895  0.1090 -0.8324
 1435SOL    HW215768   2.990   1.734   7.632  0.4685  0.8154  2.3762
 1436SOL     OW15769   1.861   3.838   5.492  0.5498  0.0549  0.8944
 1436SOL    HW115770   1.794   3.827   5.425  3.2637 -0.5844 -1.7011
 1436SOL    HW215771   1.877   3.932   5.492 -1.6671  0.4344 -1.6932
 1437SOL     OW15772   0.373   2.554   6.213 -0.4070  0.5261 -0.2403
 1437SOL    HW115773   0.381   2.473   6.263 -3.2095  0.4369  0.0363
 1437SOL    HW215774   0.449   2.611   6.224  1.2627 -1.8833  0.8195
 1438SOL     OW15775   2.846   4.361   0.534 -0.3131 -0.1885  0.8741
 1438SOL    HW115776   2.932   4.399   0.518  0.3778 -1.7028  0.9332
 1438SOL    HW215777   2.823   4.331   0.447  4.9388 -1.2639 -0.1084
 1439SOL     OW15778   1.079   4.207   9.208 -0.4018 -0.1892 -0.5453
 1439SOL    HW115779   1.051   4.118   9.231  1.8848 -0.5565  0.8718
 1439SOL    HW215780   1.128   4.189   9.128  2.5055  1.1512  0.9095
 1440SOL     OW15781   2.370   3.870   3.208  0.0697  0.3919 -0.2200
 1440SOL    HW115782   2.426   3.898   3.280 -0.4968 -1.0535  0.7737
 1440SOL    HW215783   2.290   3.921   3.226 -0.2310 -0.4051  0.6955
 1441SOL     OW15784   4.279   3.744  16.490 -0.0551  0.4567  0.0645
 1441SOL    HW115785   4.220   3.728  16.416 -0.8851 -2.0321  1.2603
 1441SOL    HW215786   4.361   3.739  16.441 -1.3439 -2.8633 -1.8266
 1442SOL     OW15787   1.272   2.855   2.480 -0.5345 -0.4829  0.3543
 1442SOL    HW115788   1.354   2.904   2.485  0.1268 -1.5170 -0.2225
 1442SOL    HW215789   1.305   2.765   2.491  1.1921  0.3415  1.8941
 1443SOL     OW15790   2.620   2.694   6.043  0.1201 -0.7910  0.0599
 1443SOL    HW115791   2.713   2.704   6.022 -0.2304 -2.7395 -2.3253
 1443SOL    HW215792   2.611   2.599   6.034 -1.3155 -0.6584  0.1464
 1444SOL     OW15793   3.237   3.796   1.566  0.3114  0.2949  0.1212
 1444SOL    HW115794   3.189   3.725   1.609 -0.9486  2.2242  1.9165
 1444SOL    HW215795   3.269   3.753   1.487 -2.3638  0.5109 -1.1086
 1445SOL     OW15796   1.746   2.120   2.384  0.5248  0.6735 -0.0333
 1445SOL    HW115797   1.834   2.084   2.373 -0.6003 -1.8638 -0.7255
 1445SOL    HW215798   1.771   2.212   2.396  1.0929  0.2921  1.7441
 1446SOL     OW15799   3.938   0.609   0.925  0.1916  0.2776  0.2649
 1446SOL    HW115800   3.886   0.622   1.004  0.7878  1.0137  0.5320
 1446SOL    HW215801   4.006   0.675   0.934 -0.9344  1.4139  0.4377
 1447SOL     OW15802   3.243   3.119  13.635 -0.2331  0.5925  0.7117
 1447SOL    HW115803   3.321   3.070  13.608 -1.0787 -0.5463  0.3069
 1447SOL    HW215804   3.170   3.064  13.606 -0.7773  2.9799 -2.3883
 1448SOL     OW15805   4.545   2.460   3.747 -0.2627 -0.1172  0.1572
 1448SOL    HW115806   4.476   2.406   3.784  0.5832 -2.1513 -1.2569
 1448SOL    HW215807   4.552   2.433   3.656 -3.0688  0.0953 -0.1345
 1449SOL     OW15808   1.257   3.805  13.856 -0.6726 -0.2158  0.7866
 1449SOL    HW115809   1.338   3.798  13.806 -1.7432 -3.0916 -0.5548
 1449SOL    HW215810   1.202   3.794  13.778  2.3555 -0.6269 -1.2798
 1450SOL     OW15811   1.155   3.226   1.586  0.3656 -0.1914  0.1122
 1450SOL    HW115812   1.063   3.248   1.596  0.4267  0.1673 -0.1172
 1450SOL    HW215813   1.194   3.304   1.547  1.5072 -1.8319 -2.1255
 1451SOL     OW15814   4.259   3.049   3.140 -0.3178 -0.0485 -0.3203
 1451SOL    HW115815   4.337   3.025   3.190 -0.7890 -0.1972  0.3382
 1451SOL    HW215816   4.240   3.139   3.166 -2.9227 -0.4880 -0.7093
 1452SOL     OW15817   1.190   0.263   3.356  0.4232  0.3921 -0.1778
 1452SOL    HW115818   1.133   0.306   3.419 -1.8634  0.4353 -2.2843
 1452SOL    HW215819   1.256   0.328   3.331  2.2155 -1.7268 -1.0928
 1453SOL     OW15820   1.960   1.412   9.063 -0.7853 -0.4671 -0.4201
 1453SOL    HW115821   1.940   1.325   9.028  0.5961 -0.2498 -1.7748
 1453SOL    HW215822   2.051   1.400   9.091 -1.1651 -1.7424  0.2937
 1454SOL     OW15823   0.862   1.547   7.483  0.4085 -0.3177  0.7580
 1454SOL    HW115824   0.943   1.599   7.482  0.4524 -0.4034 -0.6366
 1454SOL    HW215825   0.807   1.597   7.543 -0.2372  2.5317 -2.2169
 1455SOL     OW15826   3.372   1.378   9.580 -0.0737 -0.1454  0.0438
 1455SOL    HW115827   3.313   1.320   9.533  0.4244 -1.4112  0.9812
 1455SOL    HW215828   3.331   1.459   9.550 -0.9286 -0.7396 -0.4001
 1456SOL     OW15829   3.555   1.244  13.295 -0.5094  0.2181  0.0528
 1456SOL    HW115830   3.635   1.255  13.245 -1.5901 -0.7072 -1.8601
 1456SOL    HW215831   3.566   1.310  13.364  0.2537  0.2283 -0.0749
 1457SOL     OW15832   1.683   2.256   6.681 -0.1634  0.4674  1.0746
 1457SOL    HW115833   1.683   2.281   6.588  0.2439 -0.4632  0.8302
 1457SOL    HW215834   1.641   2.170   6.682 -1.2260  0.9707  0.6171
 1458SOL     OW15835   1.915   1.110   0.139 -0.7022  0.0686  0.0760
 1458SOL    HW115836   1.903   1.178   0.206 -0.1365  1.5332 -1.2881
 1458SOL    HW215837   1.943   1.032   0.186 -1.3560 -1.8424 -2.6910
 1459SOL     OW15838   3.816   2.188   5.502 -0.3954 -0.2593 -0.3849
 1459SOL    HW115839   3.780   2.276   5.515 -0.4022 -0.4594  0.9600
 1459SOL    HW215840   3.750   2.142   5.552  0.9499 -1.1671  0.5607
 1460SOL     OW15841   3.930   0.547   1.636 -0.6482  0.4166 -0.2756
 1460SOL    HW115842   3.891   0.524   1.720 -2.1128  1.8464 -0.5778
 1460SOL    HW215843   4.017   0.557   1.675 -0.0819  0.3739 -1.4981
 1461SOL     OW15844   3.535   4.296   6.566 -0.7091 -0.4550 -0.1238
 1461SOL    HW115845   3.565   4.232   6.630 -0.0934 -0.7756 -0.7427
 1461SOL    HW215846   3.588   4.277   6.490  1.0740  0.9997  0.7500
 1462SOL     OW15847   3.321   2.682  17.356 -0.6034  0.0040  0.1153
 1462SOL    HW115848   3.323   2.771  17.319  1.2152 -0.4066 -0.7722
 1462SOL    HW215849   3.248   2.638  17.313  0.9787 -1.5507 -0.9964
 1463SOL     OW15850   3.980   1.849  14.604  0.3221  0.0122 -0.3012
 1463SOL    HW115851   3.981   1.944  14.616 -1.4599 -0.2641  1.9454
 1463SOL    HW215852   3.946   1.850  14.514 -0.5119 -0.5986  0.0075
 1464SOL     OW15853   1.976   0.606  10.759  0.4809  0.2327 -1.0807
 1464SOL    HW115854   2.023   0.547  10.700 -0.6950 -0.7460 -1.0336
 1464SOL    HW215855   1.892   0.560  10.758  1.1173 -0.9432  0.4613
 1465SOL     OW15856   3.338   3.669   4.272  0.7541  0.2548  0.0546
 1465SOL    HW115857   3.353   3.589   4.222  1.0449 -0.2078  0.8905
 1465SOL    HW215858   3.363   3.643   4.360  1.4494 -0.6134 -0.3999
 1466SOL     OW15859   3.180   3.110  13.891 -0.1613 -0.0797 -0.0911
 1466SOL    HW115860   3.131   3.192  13.895 -1.6482 -1.1692  3.6641
 1466SOL    HW215861   3.204   3.116  13.799  0.8224 -0.8086  0.1222
 1467SOL     OW15862   1.536   4.164   0.532  0.3352  0.0736 -0.0297
 1467SOL    HW115863   1.466   4.106   0.564  0.6299  0.9045  2.1271
 1467SOL    HW215864   1.505   4.245   0.573  1.2029 -0.7279  2.2446
 1468SOL     OW15865   2.366   0.780  14.422 -0.0842 -0.5185 -0.2054
 1468SOL    HW115866   2.384   0.688  14.407 -0.1732 -0.6311  0.3742
 1468SOL    HW215867   2.452   0.814  14.399 -0.2525 -0.5448 -0.8843
 1469SOL     OW15868   2.725   2.673   0.495 -0.1725  0.5943 -0.6534
 1469SOL    HW115869   2.647   2.719   0.462 -0.4953  1.2196  1.0056
 1469SOL    HW215870   2.759   2.622   0.421 -0.6374 -1.4572  0.5324
 1470SOL     OW15871   2.072   0.782   4.726 -0.4248  0.9416 -0.4450
 1470SOL    HW115872   2.055   0.873   4.749  1.1003  0.7848  1.2926
 1470SOL    HW215873   2.014   0.737   4.788  1.7011 -0.6920  0.3740
 1471SOL     OW15874   0.158   0.980   7.903  0.6094 -0.6259 -0.1265
 1471SOL    HW115875   0.088   0.924   7.871  0.3062 -0.7717  0.8011
 1471SOL    HW215876   0.145   1.056   7.846  0.7056  0.4718  1.3227
 1472SOL     OW15877   2.512   1.419   5.089  0.2689 -0.3773  0.2481
 1472SOL    HW115878   2.440   1.381   5.139 -1.1511 -1.7654 -2.8421
 1472SOL    HW215879   2.577   1.391   5.153 -1.1923  0.6796  2.1943
 1473SOL     OW15880   1.770   1.911   9.165 -0.0105  0.1485 -0.3034
 1473SOL    HW115881   1.786   1.818   9.152 -1.6545 -0.1436 -0.2535
 1473SOL    HW215882   1.706   1.900   9.235 -0.4451  0.6589 -0.6257
 1474SOL     OW15883   2.723   4.237  13.275 -0.3542  0.2490 -0.0035
 1474SOL    HW115884   2.740   4.184  13.197  0.1086  1.1596 -0.5237
 1474SOL    HW215885   2.630   4.219  13.284 -0.2825  0.9918  2.2374
 1475SOL     OW15886   1.317   3.708   4.869  0.4892 -0.6935  0.1216
 1475SOL    HW115887   1.336   3.710   4.963  1.3312 -0.0212 -0.0714
 1475SOL    HW215888   1.221   3.700   4.864  0.3977  0.9991 -0.6621
 1476SOL     OW15889   4.302   4.121   7.452 -0.3102 -0.2420 -0.9650
 1476SOL    HW115890   4.256   4.084   7.376 -0.3647 -2.3067  0.0831
 1476SOL    HW215891   4.270   4.211   7.449  0.3306 -0.0365 -1.5925
 1477SOL     OW15892   2.307   2.300   9.464 -0.0319  0.2333 -0.3342
 1477SOL    HW115893   2.333   2.388   9.493  0.9567 -0.6716  1.4972
 1477SOL    HW215894   2.219   2.312   9.501 -0.2724 -0.3006 -0.7271
 1478SOL     OW15895   3.013   1.218   4.589  0.1318  0.3167  0.2367
 1478SOL    HW115896   3.037   1.207   4.497  0.6450 -2.0835  0.6481
 1478SOL    HW215897   3.054   1.136   4.616 -1.6595 -0.0904  1.7565
 1479SOL     OW15898   2.260   2.307   2.302  0.2149 -0.0612 -0.3907
 1479SOL    HW115899   2.259   2.280   2.209 -0.5899 -0.5429 -0.2466
 1479SOL    HW215900   2.348   2.343   2.304 -0.1423  0.7277  0.6552
 1480SOL     OW15901   3.466   2.619   3.691  0.5460 -0.0729  0.8739
 1480SOL    HW115902   3.482   2.663   3.774  1.7745  3.0077 -0.9692
 1480SOL    HW215903   3.435   2.695   3.641  3.0109  1.4060  1.5877
 1481SOL     OW15904   3.859   4.525   6.146  0.5363 -0.1482  0.0519
 1481SOL    HW115905   3.773   4.557   6.174  0.6091 -1.4052  1.6853
 1481SOL    HW215906   3.835   4.433   6.137  0.4654 -0.3182  1.9703
 1482SOL     OW15907   2.599   2.463   5.628  0.4358 -0.5110 -0.2525
 1482SOL    HW115908   2.587   2.411   5.708  0.7086  1.5000  1.0904
 1482SOL    HW215909   2.523   2.440   5.575  1.6771  1.3826 -2.8233
 1483SOL     OW15910   4.655   0.486  13.074  0.1334  0.4476 -0.0501
 1483SOL    HW115911   4.625   0.563  13.122  0.6344 -0.4685  1.7235
 1483SOL    HW215912   4.700   0.526  13.000  3.3229 -1.7342  0.7116
 1484SOL     OW15913   2.620   2.424   9.794 -0.6659  0.3903  0.0211
 1484SOL    HW115914   2.552   2.401   9.857  1.0526 -2.1168  0.9465
 1484SOL    HW215915   2.703   2.399   9.835 -1.8305 -0.4027  1.8761
 1485SOL     OW15916   1.678   0.286   4.718 -0.4697 -0.0300  0.5449
 1485SOL    HW115917   1.593   0.313   4.751 -1.5584 -3.2096  0.3885
 1485SOL    HW215918   1.726   0.330   4.789 -1.3560  0.5860  0.7499
 1486SOL     OW15919   0.189   3.933   3.055  0.5540 -0.3762 -0.1708
 1486SOL    HW115920   0.247   3.984   3.111  0.9198 -0.9333 -0.0441
 1486SOL    HW215921   0.105   3.954   3.095  0.2863  0.6414 -1.2431
 1487SOL     OW15922   4.046   0.362   8.487 -0.2857  0.2211  0.6751
 1487SOL    HW115923   3.976   0.357   8.422  0.3429 -1.8792  0.1429
 1487SOL    HW215924   4.096   0.280   8.474  0.7548  1.3875 -2.8393
 1488SOL     OW15925   3.908   3.412  10.472 -0.6622 -0.2182  0.0169
 1488SOL    HW115926   3.890   3.464  10.550  0.1891  0.7076 -0.3954
 1488SOL    HW215927   3.997   3.430  10.442 -0.6470  1.2245  0.9425
 1489SOL     OW15928   1.104   1.424   7.827  0.7034  0.0581  0.0695
 1489SOL    HW115929   1.137   1.499   7.778  0.2281  0.3519  0.2036
 1489SOL    HW215930   1.152   1.427   7.909  2.0715 -2.0256 -0.6312
 1490SOL     OW15931   0.628   0.112  13.142  0.0568 -0.5271  0.2140
 1490SOL    HW115932   0.607   0.206  13.144  0.4439 -0.4278 -0.8406
 1490SOL    HW215933   0.635   0.088  13.050 -1.6741  2.1025 -0.6286
 1491SOL     OW15934   3.681   3.718   1.883  0.6530 -0.1894 -0.0879
 1491SOL    HW115935   3.714   3.734   1.795 -1.4427  1.0656 -0.6349
 1491SOL    HW215936   3.597   3.675   1.873 -0.2663  1.7167 -0.5322
 1492SOL     OW15937   4.107   1.994   2.150 -0.1111 -0.5676 -0.3876
 1492SOL    HW115938   4.069   1.953   2.228 -1.4786  0.0194 -0.7522
 1492SOL    HW215939   4.069   2.082   2.154  0.9738 -0.1333  0.3831
 1493SOL     OW15940   3.675   3.249   3.639  0.4837 -0.0437 -0.0435
 1493SOL    HW115941   3.725   3.205   3.571 -1.1001  0.3237 -1.4484
 1493SOL    HW215942   3.704   3.200   3.716 -0.0109  1.1430  0.9142
 1494SOL     OW15943   3.284   0.702   2.339  0.3994 -0.0174 -0.1466
 1494SOL    HW115944   3.320   0.781   2.297  0.0425 -0.4358 -1.2200
 1494SOL    HW215945   3.289   0.647   2.261  1.4720 -0.0736 -0.0328
 1495SOL     OW15946   2.779   2.177   1.691 -0.5916  0.1929 -0.1149
 1495SOL    HW115947   2.784   2.271   1.712 -0.2479  0.3400 -0.8559
 1495SOL    HW215948   2.870   2.159   1.668 -0.1623  0.3337  1.4444
 1496SOL     OW15949   4.557   0.608  10.433 -0.0527  0.3112 -0.1182
 1496SOL    HW115950   4.536   0.690  10.390 -1.1262  0.4123  0.6136
 1496SOL    HW215951   4.621   0.568  10.373 -0.7715 -1.5154  0.3316
 1497SOL     OW15952   0.507   0.252   4.129 -0.1313  0.6279  0.7169
 1497SOL    HW115953   0.514   0.347   4.127  2.7423  0.3917 -1.3059
 1497SOL    HW215954   0.599   0.226   4.129 -0.0797  0.7845 -1.3683
 1498SOL     OW15955   0.460   2.511   6.835  0.5537 -0.6136 -0.0506
 1498SOL    HW115956   0.555   2.496   6.838  0.8332  1.5132  1.5357
 1498SOL    HW215957   0.452   2.514   6.739 -0.2993  1.2986  0.0731
 1499SOL     OW15958   1.027   0.509   4.440 -0.4456  0.4351 -0.1616
 1499SOL    HW115959   0.955   0.451   4.415  0.3101 -0.0982 -1.1211
 1499SOL    HW215960   1.017   0.575   4.371 -3.3498 -0.6358 -0.7732
 1500SOL     OW15961   0.069   3.283   7.877 -0.0623  0.3196  0.0321
 1500SOL    HW115962   0.024   3.199   7.873 -0.3527  0.4907 -0.3347
 1500SOL    HW215963   0.161   3.259   7.876 -0.1683 -0.2216  2.0454
 1501SOL     OW15964   4.582   3.896   2.862  0.2189  0.2737  0.3254
 1501SOL    HW115965   4.511   3.960   2.850 -1.1458 -1.5012 -1.0501
 1501SOL    HW215966   4.628   3.926   2.941 -2.8127  0.5071  2.0229
 1502SOL     OW15967   1.838   0.508   4.868 -0.1550 -0.2880  0.1510
 1502SOL    HW115968   1.778   0.572   4.830  0.7397  0.6567  0.3290
 1502SOL    HW215969   1.894   0.565   4.921  1.8325 -0.9272 -1.2365
 1503SOL     OW15970   2.155   4.330  14.416 -0.2540 -0.2418 -0.0169
 1503SOL    HW115971   2.178   4.267  14.485 -0.7560  1.1728  1.4367
 1503SOL    HW215972   2.062   4.310  14.409  0.1262 -1.3096 -1.9294
 1504SOL     OW15973   0.234   2.780  13.352 -0.2496 -0.2382 -0.5382
 1504SOL    HW115974   0.311   2.722  13.362  2.0375  2.9375  0.1717
 1504SOL    HW215975   0.241   2.804  13.260 -2.6599  0.7519 -0.4423
 1505SOL     OW15976   0.162   0.830   7.258  0.4919  0.3107 -0.4113
 1505SOL    HW115977   0.201   0.761   7.311  0.5835 -0.4529 -1.4731
 1505SOL    HW215978   0.083   0.849   7.309  0.7686  0.0440  0.1140
 1506SOL     OW15979   3.365   1.653  14.427 -0.2850 -0.1713  0.0070
 1506SOL    HW115980   3.282   1.653  14.379 -0.4026 -0.2049  0.2124
 1506SOL    HW215981   3.405   1.729  14.385 -1.0591 -1.3813 -2.9145
 1507SOL     OW15982   4.156   1.673   3.199  0.1419  0.3450 -0.1347
 1507SOL    HW115983   4.162   1.745   3.136 -0.3388 -0.3674 -0.9908
 1507SOL    HW215984   4.237   1.626   3.180  0.3345  0.4303  0.4783
 1508SOL     OW15985   1.365   2.330   5.123  0.4935  0.1711  0.2712
 1508SOL    HW115986   1.430   2.337   5.193  0.6137  0.5851  0.1193
 1508SOL    HW215987   1.301   2.272   5.164 -1.2281  1.8367 -0.0590
 1509SOL     OW15988   0.221   4.391   2.096 -0.1079 -0.1536 -0.6411
 1509SOL    HW115989   0.173   4.313   2.125 -2.1913  1.8665  1.2707
 1509SOL    HW215990   0.285   4.360   2.031  1.0887  2.6243 -0.7949
 1510SOL     OW15991   4.239   1.994   5.136 -0.0773 -0.1629  0.3031
 1510SOL    HW115992   4.323   1.973   5.175 -0.9632 -2.4177  0.9746
 1510SOL    HW215993   4.182   1.974   5.210  0.5013  0.1356  0.8199
 1511SOL     OW15994   2.327   1.767   9.793 -0.3314 -0.5615  0.5454
 1511SOL    HW115995   2.261   1.811   9.740  2.3799  0.5156 -1.9488
 1511SOL    HW215996   2.405   1.821   9.777  0.4609 -1.6631  0.6873
 1512SOL     OW15997   3.521   1.905   5.501  0.3862  0.3810  0.2859
 1512SOL    HW115998   3.493   1.814   5.505 -0.8241  0.7324 -0.6191
 1512SOL    HW215999   3.605   1.896   5.456 -0.5428 -1.8611 -1.0116
 1513SOL     OW16000   4.364   1.343   7.393  0.9016 -0.2705  0.3933
 1513SOL    HW116001   4.314   1.356   7.312  1.6614 -2.0532 -0.3651
 1513SOL    HW216002   4.451   1.365   7.359  0.4788  0.6608 -0.0849
 1514SOL     OW16003   1.948   2.632   1.713  0.2823 -0.6621  0.4907
 1514SOL    HW116004   1.988   2.690   1.648 -0.4304 -0.6316  0.0735
 1514SOL    HW216005   1.914   2.562   1.656 -0.7142  0.4666 -0.3018
 1515SOL     OW16006   1.890   1.187   4.481  0.3734 -0.4517 -0.2732
 1515SOL    HW116007   1.966   1.130   4.473  1.6752  1.5520 -2.1234
 1515SOL    HW216008   1.858   1.205   4.393  0.0155 -1.9507 -0.4421
 1516SOL     OW16009   1.809   0.116   9.110 -0.2340  0.4334  0.1539
 1516SOL    HW116010   1.882   0.071   9.152 -0.7708  0.0886  0.7394
 1516SOL    HW216011   1.732   0.068   9.143  0.1282 -0.2492 -0.0079
 1517SOL     OW16012   0.141   3.960   4.475 -0.0833  0.1458 -0.1799
 1517SOL    HW116013   0.158   3.942   4.568 -1.3566 -2.2082 -0.3995
 1517SOL    HW216014   0.117   3.871   4.450 -0.8423  0.3433 -0.1526
 1518SOL     OW16015   1.077   0.038   6.956  0.1849  0.0818 -0.3079
 1518SOL    HW116016   1.054   4.715   6.876  2.3076  1.3931 -1.6550
 1518SOL    HW216017   1.113   4.691   7.009 -1.2410 -1.7575 -1.7998
 1519SOL     OW16018   0.176   4.267  10.457 -0.7088  0.4468  0.0616
 1519SOL    HW116019   0.210   4.346  10.499  0.4252  0.1812 -0.3265
 1519SOL    HW216020   0.168   4.200  10.525  0.6290 -0.5284 -0.7406
 1520SOL     OW16021   4.128   1.082   3.531  0.1719 -0.4133 -0.0708
 1520SOL    HW116022   4.139   1.090   3.626 -1.0897  3.6971 -0.2859
 1520SOL    HW216023   4.111   1.174   3.511 -0.2868 -0.3500  0.6150
 1521SOL     OW16024   1.517   4.039   2.735  0.4181  0.1487 -0.2871
 1521SOL    HW116025   1.448   4.104   2.722  0.2829  0.6292  2.9401
 1521SOL    HW216026   1.590   4.090   2.699 -0.2333 -0.4800 -2.4839
 1522SOL     OW16027   2.210   3.458   5.612  0.5598  0.1986 -0.4743
 1522SOL    HW116028   2.141   3.512   5.574  0.9791  2.1298  1.5168
 1522SOL    HW216029   2.202   3.392   5.544 -0.9742  0.9393 -1.0061
 1523SOL     OW16030   4.102   3.471   4.537 -0.0436 -0.0275 -0.4199
 1523SOL    HW116031   4.123   3.564   4.546 -0.3459  0.1968 -2.0249
 1523SOL    HW216032   4.048   3.458   4.615 -1.6250  0.6227 -1.4001
 1524SOL     OW16033   1.016   1.139   9.121 -0.1625 -0.1081  0.6394
 1524SOL    HW116034   1.058   1.147   9.207 -0.1283  2.0774  0.4276
 1524SOL    HW216035   1.037   1.050   9.093  1.2193  0.4750 -0.1734
 1525SOL     OW16036   0.071   1.117  16.638  0.4307 -0.0300 -0.0052
 1525SOL    HW116037   0.097   1.207  16.659 -0.3977  0.1069  0.4448
 1525SOL    HW216038   0.142   1.077  16.688  0.1699 -0.1266  0.2877
 1526SOL     OW16039   3.955   2.122   1.787 -0.0830  0.0327 -0.3346
 1526SOL    HW116040   4.007   2.195   1.752  0.0893  0.7581  1.4074
 1526SOL    HW216041   3.873   2.141   1.743 -1.5781 -0.1785  2.3595
 1527SOL     OW16042   0.670   3.928   5.499 -0.0349  0.0701  0.1583
 1527SOL    HW116043   0.739   3.959   5.441 -0.4418 -2.0488 -1.4573
 1527SOL    HW216044   0.674   4.006   5.553  2.8638 -0.9200  1.3767
 1528SOL     OW16045   2.408   0.243  11.659 -0.0231 -0.2048  0.0711
 1528SOL    HW116046   2.381   0.165  11.707 -0.3508  0.8879  1.6623
 1528SOL    HW216047   2.398   0.316  11.720  0.6098  0.0108 -0.0790
 1529SOL     OW16048   2.243   3.067   6.809  0.2820  0.5009 -0.2676
 1529SOL    HW116049   2.199   3.033   6.731 -0.1244  2.2526 -0.7900
 1529SOL    HW216050   2.294   3.143   6.784 -2.3381  1.8710 -1.3978
 1530SOL     OW16051   0.020   0.862   3.433 -0.2534  0.1562 -0.2184
 1530SOL    HW116052   0.067   0.812   3.367  0.8367  0.8203  0.0604
 1530SOL    HW216053   0.055   0.816   3.509 -1.7519  0.0353  0.4072
 1531SOL     OW16054   2.027   3.565   0.916  0.4009 -0.3337 -0.0912
 1531SOL    HW116055   2.012   3.584   0.823  0.4797 -0.4115 -0.1203
 1531SOL    HW216056   1.937   3.539   0.934  0.0358  0.7389 -0.3727
 1532SOL     OW16057   0.408   1.973  15.152  0.1631 -0.1697  0.1964
 1532SOL    HW116058   0.449   1.888  15.163 -1.0178 -0.8910 -0.9660
 1532SOL    HW216059   0.359   1.965  15.234 -0.3696 -0.0382 -0.1042
 1533SOL     OW16060   1.550   0.544   4.898 -0.6167  0.0631 -0.1107
 1533SOL    HW116061   1.621   0.564   4.959 -1.2744  0.6494  0.4660
 1533SOL    HW216062   1.474   0.583   4.943 -0.3115 -0.1969  0.6328
 1534SOL     OW16063   0.306   2.299   4.123 -0.1063  0.1720 -0.5195
 1534SOL    HW116064   0.372   2.251   4.073  1.0839 -0.7184  1.9178
 1534SOL    HW216065   0.270   2.231   4.180  0.4810  1.2871  1.1648
 1535SOL     OW16066   0.941   1.461   3.392 -0.3182  0.0177  0.1670
 1535SOL    HW116067   0.951   1.382   3.339  1.0340  0.5013 -0.2903
 1535SOL    HW216068   0.993   1.432   3.468  0.9636 -0.9256 -1.0718
 1536SOL     OW16069   4.027   1.415   8.079 -0.8472 -0.0834  0.9728
 1536SOL    HW116070   4.014   1.339   8.136 -0.6436 -1.0337 -0.2444
 1536SOL    HW216071   3.943   1.415   8.033  0.3950  0.2016 -1.3070
 1537SOL     OW16072   4.066   0.705  11.308  0.4938 -0.6548 -0.3701
 1537SOL    HW116073   4.042   0.794  11.333 -1.3485 -1.0613 -0.6628
 1537SOL    HW216074   3.983   0.666  11.281  0.0977  0.8699 -1.2933
 1538SOL     OW16075   4.196   4.125   5.190  0.2657  0.1898  0.1211
 1538SOL    HW116076   4.115   4.114   5.240  0.7116  1.6224  1.1836
 1538SOL    HW216077   4.201   4.217   5.162 -0.9516  1.0100  2.5059
 1539SOL     OW16078   3.925   0.672  12.650 -0.5711 -0.0256 -0.4566
 1539SOL    HW116079   3.883   0.660  12.565  0.7951 -3.1210 -0.7104
 1539SOL    HW216080   4.014   0.691  12.622 -1.5800  0.9381 -2.9738
 1540SOL     OW16081   4.504   1.048   4.545 -0.0648 -0.1787  0.2787
 1540SOL    HW116082   4.498   1.064   4.451 -1.7097  2.4324  0.8304
 1540SOL    HW216083   4.533   1.129   4.586 -0.7973  0.7008 -0.9284
 1541SOL     OW16084   1.640   0.322   8.005 -0.1544  0.6862  0.8449
 1541SOL    HW116085   1.603   0.405   7.976 -0.4329  0.1260 -0.4528
 1541SOL    HW216086   1.734   0.338   8.005  0.0697 -0.5912  1.5100
 1542SOL     OW16087   1.533   1.530   7.788 -0.1147 -0.0071 -0.0178
 1542SOL    HW116088   1.624   1.517   7.818  0.3914  1.8595 -0.7688
 1542SOL    HW216089   1.504   1.439   7.782  2.0399 -0.7678  0.9207
 1543SOL     OW16090   0.429   1.326  16.515 -0.0768 -0.2736  0.2059
 1543SOL    HW116091   0.421   1.234  16.541  2.9288 -0.1992  1.3799
 1543SOL    HW216092   0.446   1.359  16.603  1.4660 -0.0989 -0.1527
 1544SOL     OW16093   2.256   2.025   5.319 -0.1901 -0.0029 -0.2616
 1544SOL    HW116094   2.334   2.072   5.290  0.3730 -0.6406  0.2208
 1544SOL    HW216095   2.271   2.012   5.412  0.7190  0.7582 -0.3088
 1545SOL     OW16096   3.749   0.599   4.183  0.0360  0.4896 -0.3948
 1545SOL    HW116097   3.811   0.539   4.223 -0.5842  1.1695  1.5799
 1545SOL    HW216098   3.717   0.647   4.260 -3.0548 -1.5846 -0.3820
 1546SOL     OW16099   3.560   0.606  15.135  0.3305  0.1481 -0.2161
 1546SOL    HW116100   3.650   0.618  15.166  0.5229 -1.1966 -0.2458
 1546SOL    HW216101   3.520   0.630  15.218  0.2573 -0.5427 -0.0449
 1547SOL     OW16102   3.627   4.144   6.779 -0.0077 -0.0828  0.2276
 1547SOL    HW116103   3.628   4.174   6.870 -0.6152  1.0715 -0.1466
 1547SOL    HW216104   3.718   4.115   6.770 -0.1701 -0.1669 -1.1116
 1548SOL     OW16105   2.538   0.408  11.031  0.0000  0.0287  0.3737
 1548SOL    HW116106   2.447   0.394  11.004 -0.1861  1.1525  0.4474
 1548SOL    HW216107   2.546   0.502  11.018 -1.9423  0.0399 -0.6990
 1549SOL     OW16108   1.300   1.351  10.230  0.0073  0.4127  0.4889
 1549SOL    HW116109   1.316   1.263  10.193  0.9497  0.8725 -0.2164
 1549SOL    HW216110   1.240   1.386  10.164 -2.3430 -0.7027  2.0339
 1550SOL     OW16111   0.815   3.555   8.092 -0.3968  0.6544 -0.1586
 1550SOL    HW116112   0.884   3.527   8.152 -0.8132 -1.0185 -0.4498
 1550SOL    HW216113   0.744   3.519   8.146 -0.9324  2.3814  0.2974
 1551SOL     OW16114   4.566   3.922   4.009 -0.3547  0.0715 -0.0006
 1551SOL    HW116115   4.537   4.005   3.971 -0.6330  0.1801  0.4411
 1551SOL    HW216116   4.632   3.953   4.072 -1.4052  1.8759  0.2171
 1552SOL     OW16117   2.734   0.165   6.925 -0.1249 -0.9194 -0.3205
 1552SOL    HW116118   2.661   0.119   6.965 -1.0098 -0.5269 -1.4963
 1552SOL    HW216119   2.813   0.118   6.951  1.0996  1.5935  0.5774
 1553SOL     OW16120   0.367   3.223   6.005  1.0111 -0.0635  0.7293
 1553SOL    HW116121   0.410   3.189   5.927  2.5893 -1.3169  2.1304
 1553SOL    HW216122   0.385   3.161   6.077 -0.5408  1.1802  2.1955
 1554SOL     OW16123   4.666   2.962  13.198  0.5611  0.7140 -0.8076
 1554SOL    HW116124   4.657   2.925  13.110  0.6612 -0.3909 -0.3545
 1554SOL    HW216125   4.606   2.910  13.251  2.6725 -2.4933 -1.5318
 1555SOL     OW16126   2.266   2.236  10.890  0.0523 -0.6769 -0.3006
 1555SOL    HW116127   2.200   2.186  10.842 -1.4799 -1.1030  2.2677
 1555SOL    HW216128   2.202   2.270  10.953  0.4539 -0.7512  0.1498
 1556SOL     OW16129   3.573   2.868   7.382  0.6810 -0.1571 -0.0739
 1556SOL    HW116130   3.504   2.815   7.342 -0.9047  2.1328 -0.3790
 1556SOL    HW216131   3.617   2.890   7.300  1.5674  1.2437  0.7805
 1557SOL     OW16132   1.970   3.512   8.042 -0.8440  0.1676  0.1187
 1557SOL    HW116133   1.975   3.546   8.131  1.4447  2.5076 -0.8694
 1557SOL    HW216134   1.902   3.446   8.053  1.3865 -2.1249  0.1468
 1558SOL     OW16135   0.548   2.548  15.620  0.0022 -0.4485 -0.0290
 1558SOL    HW116136   0.469   2.565  15.672 -1.7242  3.0959 -3.7760
 1558SOL    HW216137   0.564   2.627  15.568 -2.6557  0.4385  0.4778
 1559SOL     OW16138   1.865   4.313   5.105  0.7531  0.3891 -0.2707
 1559SOL    HW116139   1.795   4.360   5.060 -1.0512 -1.6017  0.4289
 1559SOL    HW216140   1.820   4.307   5.190  0.0629 -1.8239 -0.7831
 1560SOL     OW16141   1.419   1.173   1.698  0.2886  0.0959 -0.4292
 1560SOL    HW116142   1.447   1.264   1.703  0.2127  0.2048 -1.8392
 1560SOL    HW216143   1.329   1.173   1.730  0.1024 -1.0528 -0.9436
 1561SOL     OW16144   0.095   4.055   8.183  0.5478 -0.1332  0.2237
 1561SOL    HW116145   0.095   4.062   8.088  0.0491  0.1810  0.2488
 1561SOL    HW216146   0.159   3.984   8.193  1.1439  0.3644 -0.0666
 1562SOL     OW16147   1.640   1.897   2.233  0.0170 -0.2183  0.2126
 1562SOL    HW116148   1.667   1.860   2.149 -0.6304  0.9415 -0.5066
 1562SOL    HW216149   1.592   1.972   2.197 -1.2777 -2.1868 -2.1487
 1563SOL     OW16150   0.787   0.294  15.359  0.1922 -0.1766  0.1799
 1563SOL    HW116151   0.762   0.339  15.279 -0.3640 -1.8779 -0.5838
 1563SOL    HW216152   0.880   0.314  15.346 -0.4244  1.5404 -1.4996
 1564SOL     OW16153   0.043   4.052   7.915 -0.5660  0.2796  0.4375
 1564SOL    HW116154   4.707   4.027   7.846 -3.5285  2.7634  2.1528
 1564SOL    HW216155   0.031   4.146   7.918 -2.8658  0.0000 -0.5500
 1565SOL     OW16156   4.712   1.895   5.861  0.5809 -0.2949  0.5553
 1565SOL    HW116157   4.685   1.913   5.771  1.6152 -2.2145 -0.1264
 1565SOL    HW216158   4.639   1.843   5.896 -0.3318  1.0173  0.5949
 1566SOL     OW16159   0.364   0.469  16.257 -0.0089  0.3431  0.0903
 1566SOL    HW116160   0.304   0.518  16.202 -1.8714 -0.1580  1.6955
 1566SOL    HW216161   0.367   0.382  16.218  2.2685  0.4232  0.0789
 1567SOL     OW16162   4.394   3.986   5.685 -0.4354 -0.0145 -0.1562
 1567SOL    HW116163   4.324   4.047   5.660 -1.2625 -0.6493  0.6319
 1567SOL    HW216164   4.360   3.929   5.753  1.9367 -2.1436 -0.7610
 1568SOL     OW16165   0.418   4.519   8.948  0.1936 -0.0120 -0.7110
 1568SOL    HW116166   0.426   4.471   9.030  1.5794 -1.3558 -1.6306
 1568SOL    HW216167   0.356   4.462   8.902  1.4097 -0.9319 -1.2086
 1569SOL     OW16168   3.494   3.625   7.541  0.4755 -0.6357  0.5272
 1569SOL    HW116169   3.526   3.677   7.615  0.1081  0.0838  0.1840
 1569SOL    HW216170   3.563   3.559   7.533  0.3755 -0.6261 -0.3776
 1570SOL     OW16171   1.953   4.655  15.966  0.1971  0.4834 -0.0449
 1570SOL    HW116172   2.017   4.660  16.037 -1.3735 -0.0099  1.4078
 1570SOL    HW216173   1.929   0.021  15.944 -1.7017 -0.2298 -0.9118
 1571SOL     OW16174   2.925   0.111   3.513 -0.0097 -0.9387 -0.0149
 1571SOL    HW116175   2.919   0.059   3.433  0.6570  3.0283 -2.6449
 1571SOL    HW216176   2.971   0.185   3.475 -2.7154  0.4887 -0.4989
 1572SOL     OW16177   1.661   0.036   0.937  0.1367  0.0499  0.3412
 1572SOL    HW116178   1.680   4.685   0.881  1.1448  1.4909 -1.2767
 1572SOL    HW216179   1.692   0.104   0.877  0.0323 -1.6511 -1.6471
 1573SOL     OW16180   2.461   0.561   8.451 -0.3571 -0.1450 -0.2909
 1573SOL    HW116181   2.551   0.535   8.431  0.7308  1.8901  1.9011
 1573SOL    HW216182   2.449   0.650   8.417  1.6233  1.6778  3.7589
 1574SOL     OW16183   2.439   0.716   7.090  0.0332 -0.5071  0.5440
 1574SOL    HW116184   2.513   0.655   7.086  1.1526  0.8788  0.2902
 1574SOL    HW216185   2.421   0.720   7.184  0.5339  1.8185  0.5306
 1575SOL     OW16186   2.043   0.952   5.926  0.5450  0.1850 -0.0736
 1575SOL    HW116187   2.059   0.959   5.832  0.8820 -1.1276 -0.1241
 1575SOL    HW216188   1.964   0.997   5.953 -0.6302 -0.2632 -2.7883
 1576SOL     OW16189   0.891   1.859   4.122  0.9422 -0.4549 -0.1137
 1576SOL    HW116190   0.891   1.819   4.208  1.3592  1.1317  0.6168
 1576SOL    HW216191   0.955   1.806   4.075 -0.1049 -2.3893  0.6694
 1577SOL     OW16192   3.724   2.729   2.497  0.3030 -0.4201 -0.1351
 1577SOL    HW116193   3.790   2.794   2.523  0.1739 -0.1491 -0.4918
 1577SOL    HW216194   3.648   2.786   2.483  0.1433 -0.5514  0.1923
 1578SOL     OW16195   2.838   4.029   3.905 -0.7581 -0.1440  0.6197
 1578SOL    HW116196   2.924   4.070   3.896 -0.7356 -0.3781 -0.2595
 1578SOL    HW216197   2.852   3.948   3.856 -1.8434 -1.3175  2.2420
 1579SOL     OW16198   1.756   2.608   6.663 -0.2121  0.5882 -0.8168
 1579SOL    HW116199   1.849   2.586   6.661 -0.6298 -1.4687  1.6366
 1579SOL    HW216200   1.755   2.696   6.701  2.0740  0.7881 -1.1901
 1580SOL     OW16201   2.061   1.208  10.851 -0.1196  0.6731  0.0734
 1580SOL    HW116202   2.090   1.276  10.911  2.3560  0.4593 -0.8907
 1580SOL    HW216203   2.009   1.263  10.793 -0.0740 -0.2392 -0.8284
 1581SOL     OW16204   1.375   3.611   5.134  0.1887  0.4107  0.8072
 1581SOL    HW116205   1.370   3.530   5.082  4.4623 -0.9974  2.5658
 1581SOL    HW216206   1.467   3.636   5.126  0.3928 -0.3084  0.8705
 1582SOL     OW16207   2.504   1.436  14.198  0.0299  1.0648  0.1467
 1582SOL    HW116208   2.412   1.455  14.214 -0.2039 -0.4231  0.4696
 1582SOL    HW216209   2.528   1.378  14.270 -1.1618 -0.8495 -1.0186
 1583SOL     OW16210   3.821   0.502   2.969  0.0047 -0.3720  0.0460
 1583SOL    HW116211   3.875   0.563   3.019  1.9373 -2.9188  1.0581
 1583SOL    HW216212   3.817   0.545   2.884 -1.0209 -2.4686 -0.9750
 1584SOL     OW16213   4.261   2.091  11.337  0.0810 -0.5535 -0.6217
 1584SOL    HW116214   4.173   2.054  11.332 -0.9237  1.5858  0.9561
 1584SOL    HW216215   4.249   2.162  11.274 -1.0443 -1.8383 -1.8592
 1585SOL     OW16216   4.113   1.146   3.806 -0.1859 -0.6749  0.0891
 1585SOL    HW116217   4.071   1.080   3.861 -0.9337  0.0509  0.3745
 1585SOL    HW216218   4.146   1.206   3.872  2.2573 -1.2331 -0.6071
 1586SOL     OW16219   4.105   0.487   5.500 -0.1929  0.1252  0.0654
 1586SOL    HW116220   4.175   0.437   5.458  1.2036  1.2259  1.0606
 1586SOL    HW216221   4.151   0.555   5.549  0.6744 -0.2739 -0.1879
 1587SOL     OW16222   3.313   3.595   5.592 -0.2420 -0.4126  0.3755
 1587SOL    HW116223   3.356   3.655   5.652  0.4756  0.5689 -1.1120
 1587SOL    HW216224   3.391   3.590   5.537 -1.7754  0.0926 -1.8552
 1588SOL     OW16225   3.592   2.516   5.773  0.3127 -0.7319  0.3830
 1588SOL    HW116226   3.569   2.609   5.760 -0.3475 -1.1109 -1.1752
 1588SOL    HW216227   3.636   2.507   5.857 -0.3649  2.9436  1.1326
 1589SOL     OW16228   4.001   0.673   7.920  0.0975  0.1557  0.4799
 1589SOL    HW116229   3.929   0.611   7.907 -0.5697  0.8848  0.6940
 1589SOL    HW216230   3.976   0.741   7.858 -0.7997  2.2015  3.1088
 1590SOL     OW16231   3.889   3.428   3.439 -0.2853 -0.9993  0.2801
 1590SOL    HW116232   3.942   3.425   3.518 -1.2960  0.5620  1.0175
 1590SOL    HW216233   3.954   3.385   3.384  1.3607  0.8409  0.8224
 1591SOL     OW16234   2.219   0.308   3.307  0.1585  0.5752 -0.2389
 1591SOL    HW116235   2.292   0.352   3.350  1.0843 -0.3998 -0.8273
 1591SOL    HW216236   2.165   0.286   3.382  0.5905 -0.6367 -0.2925
 1592SOL     OW16237   3.374   4.695  17.550 -0.4407  0.3924  0.7260
 1592SOL    HW116238   3.304   0.018  17.594 -0.6945  0.8857 -0.2143
 1592SOL    HW216239   3.320   4.661  17.479  0.4832 -1.2232  0.7800
 1593SOL     OW16240   3.363   3.693  17.439  0.6793  0.7377  0.7362
 1593SOL    HW116241   3.365   3.732  17.526  1.4625 -0.1698  1.1318
 1593SOL    HW216242   3.447   3.731  17.411  0.6088 -0.0770 -0.6072
 1594SOL     OW16243   2.042   2.387  16.889  0.6575  0.0225 -0.0998
 1594SOL    HW116244   2.091   2.309  16.863  1.3697 -0.6884  3.3035
 1594SOL    HW216245   2.110   2.452  16.874  2.2205 -1.1741  1.8288
 1595SOL     OW16246   4.216   0.654  10.327 -0.0689  0.6246  0.5758
 1595SOL    HW116247   4.246   0.595  10.396  2.5661  1.4976  0.1586
 1595SOL    HW216248   4.256   0.733  10.364 -0.0481  0.7090  0.3710
 1596SOL     OW16249   2.458   0.564   1.159  0.0378 -0.5035 -0.0594
 1596SOL    HW116250   2.363   0.551   1.155 -0.3175  2.1463 -0.2966
 1596SOL    HW216251   2.482   0.603   1.074 -0.7919  2.1891  0.9564
 1597SOL     OW16252   3.258   1.495   5.373  0.7858  0.0825 -0.1286
 1597SOL    HW116253   3.285   1.453   5.292  1.3529 -0.8502  0.5404
 1597SOL    HW216254   3.176   1.533   5.340 -0.8103 -1.8050  1.6388
 1598SOL     OW16255   2.784   4.608   7.073 -0.4558  1.0328  0.2645
 1598SOL    HW116256   2.760   4.540   7.010  0.7026  2.4469 -1.7115
 1598SOL    HW216257   2.873   4.634   7.050 -0.6448 -0.1731 -1.7971
 1599SOL     OW16258   4.093   2.560   3.062  0.1269  0.1619  0.0456
 1599SOL    HW116259   4.090   2.653   3.040 -0.2502  0.2386  0.4058
 1599SOL    HW216260   4.059   2.571   3.151 -2.9921  0.5161 -1.1908
 1600SOL     OW16261   3.420   4.547   8.717  0.6041 -0.5826 -0.0445
 1600SOL    HW116262   3.478   4.471   8.728 -0.2884 -1.2584 -0.0090
 1600SOL    HW216263   3.468   4.617   8.761  0.4756  0.2142 -1.1600
 1601SOL     OW16264   4.439   4.404  11.022 -0.0994 -0.1980 -0.4582
 1601SOL    HW116265   4.496   4.474  11.052  2.3582 -2.2198 -0.4466
 1601SOL    HW216266   4.490   4.330  11.055 -1.6896  0.1834  2.9596
 1602SOL     OW16267   0.667   1.696   7.640  0.1963 -0.0920 -0.6608
 1602SOL    HW116268   0.645   1.781   7.601 -3.3311 -0.3404  0.7634
 1602SOL    HW216269   0.586   1.654   7.669  1.0406 -1.5963 -0.4869
 1603SOL     OW16270   0.879   2.633   8.130  0.0659 -0.1765  0.4124
 1603SOL    HW116271   0.804   2.631   8.189 -0.3457  1.8461 -0.0557
 1603SOL    HW216272   0.849   2.586   8.053  0.7113 -0.3248  0.2479
 1604SOL     OW16273   2.871   3.095   1.765 -0.0677 -0.2519  0.2203
 1604SOL    HW116274   2.775   3.089   1.766 -0.1380  0.6773 -1.8884
 1604SOL    HW216275   2.905   3.087   1.676 -1.2704  0.4466 -0.3076
 1605SOL     OW16276   3.081   1.751   4.455 -0.0255  0.2488 -0.6052
 1605SOL    HW116277   3.041   1.666   4.438 -0.3171 -0.0104  1.3942
 1605SOL    HW216278   3.130   1.730   4.535  1.0498 -1.4663 -1.7153
 1606SOL     OW16279   1.744   2.344   3.102  0.3799  0.1487 -0.2625
 1606SOL    HW116280   1.789   2.273   3.057 -5.6138 -2.1470 -2.6621
 1606SOL    HW216281   1.816   2.392   3.144  1.8337 -1.7141 -0.6585
 1607SOL     OW16282   4.317   4.126  12.935  0.5889 -0.8208  0.3244
 1607SOL    HW116283   4.270   4.154  13.013 -2.0671 -1.6226 -1.0075
 1607SOL    HW216284   4.388   4.069  12.965  1.4182  0.8558  1.5543
 1608SOL     OW16285   1.087   4.052   4.615  0.0813 -0.3023  0.2731
 1608SOL    HW116286   1.153   4.113   4.582  0.8304 -1.0792  0.3093
 1608SOL    HW216287   1.142   3.973   4.609  0.4980  0.3206 -4.2705
 1609SOL     OW16288   4.387   0.979   6.517  0.0932  0.4269  0.0926
 1609SOL    HW116289   4.419   1.041   6.583 -1.2230  0.0273  1.1167
 1609SOL    HW216290   4.370   1.038   6.443 -1.2891 -0.5225 -0.3476
 1610SOL     OW16291   3.600   1.521   6.271 -0.2818  0.3461  0.0239
 1610SOL    HW116292   3.629   1.453   6.332 -1.6496 -0.2159  0.0372
 1610SOL    HW216293   3.633   1.501   6.183  0.7146  2.0347  0.0236
 1611SOL     OW16294   1.007   4.352   7.282  0.1914  0.1014 -0.2479
 1611SOL    HW116295   1.005   4.446   7.296  1.7019 -0.5044  4.1795
 1611SOL    HW216296   0.918   4.335   7.253  0.8732 -0.3479 -2.0568
 1612SOL     OW16297   2.948   1.665   3.024 -0.6677 -0.2786 -0.0489
 1612SOL    HW116298   2.993   1.581   3.020  1.6142  1.0186 -1.9577
 1612SOL    HW216299   2.861   1.641   2.994 -0.6901  2.5812 -2.3046
 1613SOL     OW16300   0.664   1.265  15.126  0.1770 -0.2734  0.1332
 1613SOL    HW116301   0.719   1.202  15.173 -0.0604  0.0837  0.8759
 1613SOL    HW216302   0.623   1.208  15.060 -0.6632 -0.4099  0.7681
 1614SOL     OW16303   1.686   0.617   8.971 -0.6317  1.0737  0.3146
 1614SOL    HW116304   1.610   0.574   9.010  1.9738 -1.6294  2.4872
 1614SOL    HW216305   1.736   0.632   9.051 -1.8730  2.9539  0.7185
 1615SOL     OW16306   0.830   1.668  13.453  0.1153  0.3133 -0.2878
 1615SOL    HW116307   0.766   1.629  13.394 -0.2252 -0.1675  0.4050
 1615SOL    HW216308   0.792   1.753  13.475 -0.9128  0.2283 -1.7046
 1616SOL     OW16309   2.405   1.110  14.315  0.2478  0.6606  0.5186
 1616SOL    HW116310   2.385   1.081  14.404 -0.9808  1.5995  0.5509
 1616SOL    HW216311   2.331   1.169  14.302  0.1334  0.4511  0.2110
 1617SOL     OW16312   3.065   2.668   8.562  0.3154  0.5138  0.0840
 1617SOL    HW116313   3.155   2.697   8.571  1.4751 -2.1554 -2.5873
 1617SOL    HW216314   3.033   2.718   8.486 -0.5886 -0.5350 -0.2335
 1618SOL     OW16315   1.066   3.969   8.419  0.0252  0.2218  0.1130
 1618SOL    HW116316   1.068   3.885   8.464  2.0938  0.3009  0.1954
 1618SOL    HW216317   0.997   3.963   8.353 -1.2723  0.7292  1.4065
 1619SOL     OW16318   2.518   0.258   2.819 -0.2919 -0.6952 -0.0352
 1619SOL    HW116319   2.549   0.223   2.736 -0.3995  0.7956 -0.7142
 1619SOL    HW216320   2.424   0.267   2.804  0.1057 -0.1366 -2.0882
 1620SOL     OW16321   0.741   1.790  14.446  0.4562 -0.8655  0.3563
 1620SOL    HW116322   0.811   1.759  14.388  0.9211  0.9486 -0.0613
 1620SOL    HW216323   0.674   1.782  14.378 -1.1909 -1.7766  2.1131
 1621SOL     OW16324   2.052   2.600   0.113 -0.3318  0.0728 -0.3545
 1621SOL    HW116325   2.016   2.539   0.049 -1.6815  1.2619 -0.7256
 1621SOL    HW216326   2.014   2.684   0.087  1.1671  0.5043 -1.1295
 1622SOL     OW16327   4.486   0.372  12.443  0.2653  0.1785 -0.4963
 1622SOL    HW116328   4.575   0.407  12.442  0.0482  0.7603  0.7655
 1622SOL    HW216329   4.440   0.437  12.496 -0.1391 -1.5996  1.3458
 1623SOL     OW16330   0.891   2.542   5.166  0.0774 -0.1593  0.0201
 1623SOL    HW116331   0.846   2.592   5.233 -1.0534  2.0707 -2.3821
 1623SOL    HW216332   0.853   2.455   5.180 -0.1928  0.2311  1.7008
 1624SOL     OW16333   0.605   2.045   4.870  0.5360  0.4549  0.0632
 1624SOL    HW116334   0.515   2.025   4.898  0.5677  2.8941  1.8724
 1624SOL    HW216335   0.622   1.971   4.812 -1.5548  0.3147 -0.3966
 1625SOL     OW16336   2.133   0.474   5.154 -0.2665  0.0694 -0.8337
 1625SOL    HW116337   2.219   0.445   5.124  0.4586 -1.5532  2.7176
 1625SOL    HW216338   2.079   0.395   5.168 -2.2149  1.4744 -0.4309
 1626SOL     OW16339   4.311   0.594  11.238 -0.0208  0.0807  0.1616
 1626SOL    HW116340   4.270   0.523  11.189 -3.0922  1.5973  0.5725
 1626SOL    HW216341   4.233   0.620  11.286 -0.8989 -1.3876 -0.4771
 1627SOL     OW16342   2.446   0.308   8.654  0.0844 -0.1914  0.1129
 1627SOL    HW116343   2.496   0.389   8.667 -0.5701  0.0159  1.3247
 1627SOL    HW216344   2.372   0.325   8.713 -0.9346  0.9709 -1.5260
 1628SOL     OW16345   3.596   3.442   4.941  0.4591  0.1730 -0.0108
 1628SOL    HW116346   3.618   3.381   5.011  0.9126  2.5471  1.9199
 1628SOL    HW216347   3.565   3.383   4.872 -0.3287  0.5263  0.0440
 1629SOL     OW16348   0.039   1.738  16.518 -0.3264  0.0519  0.0204
 1629SOL    HW116349   0.035   1.818  16.570 -0.7637  0.1344 -0.1420
 1629SOL    HW216350   0.044   1.774  16.429 -2.2823 -0.1744 -0.1787
 1630SOL     OW16351   4.152   3.594   5.244 -0.2156  0.7570 -0.3073
 1630SOL    HW116352   4.143   3.682   5.280  1.8574  1.2852 -1.1124
 1630SOL    HW216353   4.238   3.569   5.276 -0.1241 -0.6223 -1.5851
 1631SOL     OW16354   3.449   3.144   1.323  0.3350 -0.2768  0.0028
 1631SOL    HW116355   3.539   3.145   1.356  0.2356 -1.7125  0.3333
 1631SOL    HW216356   3.430   3.236   1.304  0.8860  0.2350  1.8883
 1632SOL     OW16357   1.203   1.131   2.613  0.2555  0.1624  0.1402
 1632SOL    HW116358   1.109   1.118   2.599  0.3138 -0.7033  0.5674
 1632SOL    HW216359   1.205   1.118   2.707 -0.8502 -0.8078  0.0289
 1633SOL     OW16360   1.307   1.419  10.551 -0.0295  0.5096  0.2519
 1633SOL    HW116361   1.213   1.398  10.552  0.1394 -0.3092 -0.7081
 1633SOL    HW216362   1.309   1.498  10.605 -0.1573  0.9423 -0.3715
 1634SOL     OW16363   4.543   4.683   7.182 -0.2891 -0.1866 -0.1400
 1634SOL    HW116364   4.507   0.002   7.259  1.8284  0.5802  0.4097
 1634SOL    HW216365   4.629   4.647   7.205 -0.1233  0.5990  0.4582
 1635SOL     OW16366   4.406   2.338  10.693 -0.4550 -0.5407  0.3729
 1635SOL    HW116367   4.454   2.303  10.618  0.5442  0.1797  0.6771
 1635SOL    HW216368   4.362   2.413  10.652  1.7167 -0.1425 -1.2393
 1636SOL     OW16369   4.510   2.754   1.815 -0.2167 -0.0118  0.2564
 1636SOL    HW116370   4.552   2.756   1.729 -0.9746 -0.9686 -0.1366
 1636SOL    HW216371   4.416   2.756   1.793 -0.1022  0.9159 -0.1725
 1637SOL     OW16372   2.437   0.415  12.742  0.2891  0.2807 -0.0450
 1637SOL    HW116373   2.349   0.449  12.759 -0.4193 -0.4545 -2.2573
 1637SOL    HW216374   2.431   0.324  12.769  0.3348  0.0531 -0.7951
 1638SOL     OW16375   1.531   2.354   3.880  0.5675 -0.1750 -0.3321
 1638SOL    HW116376   1.588   2.431   3.889 -0.4455  0.5002  0.3062
 1638SOL    HW216377   1.547   2.320   3.968 -0.5254 -0.1451 -0.1155
 1639SOL     OW16378   2.446   3.232  17.368 -0.1100  0.7355  0.3549
 1639SOL    HW116379   2.502   3.257  17.295 -1.2848  1.5479 -0.2831
 1639SOL    HW216380   2.506   3.204  17.437  0.2782  2.4043  0.6963
 1640SOL     OW16381   4.098   0.815  13.587  0.3406 -0.1833 -0.2543
 1640SOL    HW116382   4.176   0.848  13.632  0.3150 -0.9202  0.3280
 1640SOL    HW216383   4.045   0.894  13.576  1.4888  0.7501  0.7824
 1641SOL     OW16384   4.396   4.405   2.215  0.6060  0.6148  0.3406
 1641SOL    HW116385   4.403   4.338   2.146  1.7448 -1.5468  2.5649
 1641SOL    HW216386   4.448   4.472   2.172 -0.2195  0.4894 -0.8566
 1642SOL     OW16387   3.245   0.722   3.805 -0.3429  0.0776  0.0870
 1642SOL    HW116388   3.310   0.734   3.874 -0.3979 -0.6735  0.2680
 1642SOL    HW216389   3.170   0.707   3.863  1.1595  0.3550  2.1129
 1643SOL     OW16390   4.669   2.386   7.731 -0.0668 -0.2619  0.6178
 1643SOL    HW116391   0.029   2.384   7.777  0.3965  0.1867 -0.2123
 1643SOL    HW216392   4.641   2.469   7.769  0.2554  0.2059 -0.1688
 1644SOL     OW16393   2.211   0.399   7.924  0.0974  0.3239 -0.1158
 1644SOL    HW116394   2.262   0.480   7.928  0.4537  0.1564 -1.2633
 1644SOL    HW216395   2.225   0.368   8.013 -0.8860  0.8064  0.2084
 1645SOL     OW16396   3.083   3.744   4.190  0.3236 -0.1574  0.0384
 1645SOL    HW116397   3.073   3.719   4.098 -1.7560 -0.4616  0.3462
 1645SOL    HW216398   3.172   3.712   4.205 -0.3190 -0.5412  3.0257
 1646SOL     OW16399   1.868   4.650   9.920 -0.1647  0.8435  0.1000
 1646SOL    HW116400   1.803   4.587   9.888 -0.9418  1.0307  1.3128
 1646SOL    HW216401   1.802   4.710   9.955 -2.4444 -0.8023 -1.4094
 1647SOL     OW16402   4.591   2.792  14.416 -0.1439 -0.1977 -0.2971
 1647SOL    HW116403   4.571   2.862  14.478 -0.6551 -1.3152  0.7857
 1647SOL    HW216404   4.519   2.785  14.354  0.2534  0.5118 -0.8349
 1648SOL     OW16405   1.260   1.111   7.839  0.3255 -0.2668  0.0858
 1648SOL    HW116406   1.225   1.029   7.804  0.5294  0.6091 -2.2212
 1648SOL    HW216407   1.217   1.175   7.782  1.6469 -0.4060 -1.0638
 1649SOL     OW16408   4.652   0.570   5.869  0.2558  0.3532 -0.3284
 1649SOL    HW116409   4.631   0.638   5.933  1.5827 -2.2676  2.9203
 1649SOL    HW216410   4.571   0.520   5.880  0.2761  0.5643  0.8403
 1650SOL     OW16411   1.151   1.165   1.771  0.2123  1.0868  0.0767
 1650SOL    HW116412   1.123   1.229   1.706 -0.9959  1.6790  1.1842
 1650SOL    HW216413   1.139   1.223   1.846  0.4881  0.0311  0.9450
 1651SOL     OW16414   1.662   4.083   0.274  0.2875  0.2680  0.4410
 1651SOL    HW116415   1.598   4.139   0.231  1.3004 -0.3431 -1.8586
 1651SOL    HW216416   1.624   4.087   0.362  0.5186  1.0181  0.5033
 1652SOL     OW16417   3.957   0.540   6.715 -0.2415 -0.3068  0.5731
 1652SOL    HW116418   3.865   0.565   6.725 -0.5696 -1.7747  1.2795
 1652SOL    HW216419   3.957   0.471   6.782  0.1738 -0.2202  0.6581
 1653SOL     OW16420   1.249   3.586   9.513 -0.3166  0.0173 -0.1969
 1653SOL    HW116421   1.310   3.651   9.549 -0.2887 -1.0239  1.6455
 1653SOL    HW216422   1.190   3.648   9.470 -2.2505 -1.6383  0.0894
 1654SOL     OW16423   1.846   0.187   7.163  0.4299 -0.0267  0.3738
 1654SOL    HW116424   1.777   0.250   7.186 -1.1488 -0.8926 -1.9840
 1654SOL    HW216425   1.897   0.180   7.244 -0.6020  2.9918  1.3156
 1655SOL     OW16426   1.191   0.757   0.958 -0.2308  0.1976 -0.0193
 1655SOL    HW116427   1.253   0.689   0.984 -1.0731 -1.5293 -2.5119
 1655SOL    HW216428   1.142   0.775   1.038 -0.9718  0.1339 -0.4550
 1656SOL     OW16429   2.003   1.775   3.483 -0.4300  0.5364 -0.3955
 1656SOL    HW116430   2.040   1.698   3.439  0.7351  0.4626  0.7120
 1656SOL    HW216431   2.034   1.854   3.438 -0.2363  1.1151  0.7486
 1657SOL     OW16432   1.697   4.129   2.107 -0.0435 -0.2687  0.0228
 1657SOL    HW116433   1.676   4.120   2.014  0.1340 -3.4825  0.3048
 1657SOL    HW216434   1.790   4.152   2.107 -0.7821  2.7261  2.0651
 1658SOL     OW16435   2.924   0.911  15.530  0.4634 -0.5210 -0.0521
 1658SOL    HW116436   2.941   0.928  15.437  1.4919  0.4232  0.3214
 1658SOL    HW216437   3.011   0.916  15.568  0.6887  3.1275 -1.0921
 1659SOL     OW16438   3.996   2.323   9.991  0.4471 -0.1562  0.1130
 1659SOL    HW116439   3.922   2.377   9.962  0.6182  0.3369  0.6059
 1659SOL    HW216440   4.046   2.395  10.030 -0.5705 -0.2731  1.6335
 1660SOL     OW16441   3.344   3.421   3.064  0.3015  0.2737 -0.3626
 1660SOL    HW116442   3.434   3.451   3.049  0.3443 -0.0679 -0.8006
 1660SOL    HW216443   3.338   3.396   2.972 -0.7485 -1.1082  0.0875
 1661SOL     OW16444   2.841   1.084   8.911  0.0918 -0.0065  0.6974
 1661SOL    HW116445   2.759   1.035   8.917  0.9950 -1.8365 -2.0208
 1661SOL    HW216446   2.896   1.029   8.968  0.8997 -0.5396 -0.5975
 1662SOL     OW16447   2.781   0.516   9.623  0.2484  0.0354  0.3072
 1662SOL    HW116448   2.819   0.554   9.702  2.8477 -2.5433  0.2986
 1662SOL    HW216449   2.693   0.542   9.649  0.6895  1.5425  0.3199
 1663SOL     OW16450   3.953   1.073   3.230 -0.5445 -0.0799  0.3453
 1663SOL    HW116451   3.886   1.104   3.291 -2.0140 -1.0449 -0.7965
 1663SOL    HW216452   4.027   1.095   3.287  0.5205 -2.4386 -0.1364
 1664SOL     OW16453   3.069   3.609  11.982 -0.0130  0.2425 -0.5466
 1664SOL    HW116454   3.098   3.608  11.891  1.1364 -1.8963 -0.1422
 1664SOL    HW216455   3.067   3.516  12.005  1.3651  0.4413  0.3412
 1665SOL     OW16456   2.875   0.430   4.666  0.1206 -0.1638 -0.0296
 1665SOL    HW116457   2.824   0.432   4.585 -0.7597  2.3616  0.6092
 1665SOL    HW216458   2.814   0.393   4.729 -0.4974 -0.3374 -0.7283
 1666SOL     OW16459   3.256   3.487  11.715  0.1331 -1.1332  0.1234
 1666SOL    HW116460   3.228   3.418  11.774 -0.1404 -1.7494 -0.7275
 1666SOL    HW216461   3.204   3.466  11.637  0.4960  0.3018 -0.5032
 1667SOL     OW16462   2.084   4.299   8.097 -0.2885 -0.3345 -0.2382
 1667SOL    HW116463   2.153   4.250   8.052 -0.9121 -1.1478 -0.3028
 1667SOL    HW216464   2.068   4.366   8.031  1.4594  1.1555  0.8308
 1668SOL     OW16465   3.273   1.307  17.422 -0.2819  0.7135  0.2427
 1668SOL    HW116466   3.289   1.226  17.470  0.4977  1.5741  1.4421
 1668SOL    HW216467   3.205   1.346  17.476 -1.9662  0.6227 -1.8161
 1669SOL     OW16468   4.141   3.914  11.914 -0.0297  0.0276 -0.1803
 1669SOL    HW116469   4.114   3.989  11.966 -0.2037 -0.9411  1.1180
 1669SOL    HW216470   4.113   3.939  11.826  1.5821  0.8394 -0.4666
 1670SOL     OW16471   1.668   3.864   1.515  0.2780  0.3038  0.2423
 1670SOL    HW116472   1.679   3.776   1.551  0.7989  0.0778 -0.4764
 1670SOL    HW216473   1.759   3.891   1.505 -0.2676  1.6095 -1.0355
 1671SOL     OW16474   1.646   3.598   0.772 -0.0653 -0.1961  0.5803
 1671SOL    HW116475   1.559   3.559   0.770 -1.1816  2.3636 -0.0387
 1671SOL    HW216476   1.624   3.675   0.720  0.3365  0.7980  1.8900
 1672SOL     OW16477   3.285   2.823  10.368 -0.6393  0.3316 -0.4259
 1672SOL    HW116478   3.194   2.822  10.397 -0.5154 -1.5962 -0.1232
 1672SOL    HW216479   3.326   2.873  10.439  1.7444 -0.6749 -1.0785
 1673SOL     OW16480   4.461   2.552   3.351  0.5036  0.0358  0.7531
 1673SOL    HW116481   4.398   2.621   3.374  1.0480  0.9186 -0.3688
 1673SOL    HW216482   4.520   2.607   3.298  1.4405 -0.6522  1.0727
 1674SOL     OW16483   0.679   2.615  13.202  0.3435 -0.2174 -0.6222
 1674SOL    HW116484   0.667   2.580  13.114  0.5047 -0.4333 -0.5586
 1674SOL    HW216485   0.772   2.635  13.199  0.1086  1.6060  3.5797
 1675SOL     OW16486   1.542   3.447  14.995 -0.8240 -0.0412 -0.1751
 1675SOL    HW116487   1.548   3.430  14.901 -1.1478  1.3230 -0.4421
 1675SOL    HW216488   1.451   3.477  15.000 -0.9416 -0.5508  0.7471
 1676SOL     OW16489   4.170   4.058   3.429 -0.1858  0.0095  0.4776
 1676SOL    HW116490   4.122   4.140   3.439 -0.3788  0.1254 -1.3394
 1676SOL    HW216491   4.220   4.060   3.347  2.9588  0.7578  2.4712
 1677SOL     OW16492   1.798   2.924   2.013  0.0767 -0.0960  0.0903
 1677SOL    HW116493   1.721   2.939   2.067  0.1481 -0.6429  0.3496
 1677SOL    HW216494   1.793   2.830   1.992 -0.4998  0.2216 -1.1586
 1678SOL     OW16495   2.599   4.280   2.287 -0.7513  0.0564  0.0368
 1678SOL    HW116496   2.597   4.189   2.256 -1.6610 -0.1868  0.7784
 1678SOL    HW216497   2.546   4.279   2.367  0.2557  2.0080  0.7040
 1679SOL     OW16498   1.486   0.941   0.145 -0.2258 -0.7038 -0.7009
 1679SOL    HW116499   1.551   0.980   0.204 -1.9241  0.9289  0.0596
 1679SOL    HW216500   1.421   0.912   0.209 -0.8865  0.8613 -0.6822
 1680SOL     OW16501   2.732   2.592   8.974 -0.3133 -0.0951  0.0435
 1680SOL    HW116502   2.732   2.660   9.041 -0.6789  1.8757 -1.9586
 1680SOL    HW216503   2.663   2.534   9.006 -0.0938  0.0690  0.8314
 1681SOL     OW16504   1.562   1.636   7.449  0.1245 -0.0904  0.2381
 1681SOL    HW116505   1.627   1.585   7.497  1.0443  0.0189 -0.8975
 1681SOL    HW216506   1.519   1.563   7.405 -3.3108  3.3765 -2.2097
 1682SOL     OW16507   3.045   4.518  11.882  0.5400 -0.4689  0.3242
 1682SOL    HW116508   3.009   4.580  11.945  2.0146 -0.9255  1.6304
 1682SOL    HW216509   3.078   4.446  11.936  0.8348 -2.0099 -1.9563
 1683SOL     OW16510   2.587   0.658  13.800 -0.1806  0.4793  0.3833
 1683SOL    HW116511   2.512   0.622  13.753  0.0395 -0.8708  1.0689
 1683SOL    HW216512   2.579   0.747  13.766  0.8248  0.6220  0.5161
 1684SOL     OW16513   4.138   0.461   9.772 -0.2535  0.1749  0.3610
 1684SOL    HW116514   4.056   0.506   9.793 -0.5451  0.1956 -0.8138
 1684SOL    HW216515   4.110   0.375   9.802  1.7335 -0.5827  0.0202
 1685SOL     OW16516   4.713   4.193   8.456 -0.0184  0.0450 -0.4763
 1685SOL    HW116517   0.041   4.272   8.440  0.1117  0.4260  1.9223
 1685SOL    HW216518   4.676   4.170   8.371  0.3301  1.9110 -1.1439
 1686SOL     OW16519   0.087   3.266   2.331 -0.1945  0.7377  0.6193
 1686SOL    HW116520   0.103   3.325   2.258  0.4468  2.1248  1.8844
 1686SOL    HW216521   0.129   3.189   2.292 -0.8413 -0.4718  2.3260
 1687SOL     OW16522   1.752   1.563   8.973  0.5978 -0.7408 -0.0731
 1687SOL    HW116523   1.828   1.507   8.988  1.2788 -0.0025 -0.7966
 1687SOL    HW216524   1.713   1.556   9.060  0.5903  1.8969  0.1250
 1688SOL     OW16525   3.236   0.588   3.248  0.4315 -0.1132  0.3068
 1688SOL    HW116526   3.158   0.538   3.224  0.2900  0.6553 -0.8834
 1688SOL    HW216527   3.205   0.617   3.334 -2.6273 -0.4363 -0.6530
 1689SOL     OW16528   0.074   4.379   6.038 -0.1294 -0.5240  0.1892
 1689SOL    HW116529   0.003   4.377   5.975 -1.6721  0.3487  1.9250
 1689SOL    HW216530   0.049   4.307   6.096 -2.9351  1.1149  0.9968
 1690SOL     OW16531   1.224   1.355   9.776  0.0941  0.6600  0.4145
 1690SOL    HW116532   1.139   1.399   9.771 -1.1120 -1.6037  0.6912
 1690SOL    HW216533   1.275   1.423   9.819 -0.0981  1.0357  0.0405
 1691SOL     OW16534   1.728   4.337   4.188 -0.6324  0.1646 -0.2698
 1691SOL    HW116535   1.796   4.403   4.203  0.0153 -0.2185 -1.4711
 1691SOL    HW216536   1.767   4.251   4.203 -2.5144 -0.3807  1.5273
 1692SOL     OW16537   0.358   2.032   7.491  0.3848 -0.0025  0.7630
 1692SOL    HW116538   0.330   2.095   7.557  0.3840  0.4318  0.3491
 1692SOL    HW216539   0.316   2.071   7.414 -1.8861  0.0821  2.0316
 1693SOL     OW16540   0.339   4.591   4.260  0.7194  0.3654  1.4503
 1693SOL    HW116541   0.388   4.654   4.312  1.8956  0.4967  0.1673
 1693SOL    HW216542   0.405   4.539   4.215 -0.5017 -0.0951  0.1647
 1694SOL     OW16543   3.215   2.282   1.697 -0.6178 -0.0323  0.6450
 1694SOL    HW116544   3.162   2.341   1.644  0.2462 -1.2932 -1.6241
 1694SOL    HW216545   3.289   2.334   1.730 -0.6799  0.2779  0.2947
 1695SOL     OW16546   2.129   2.140   3.115  0.0197  0.2930 -0.5991
 1695SOL    HW116547   2.106   2.221   3.162  0.7573  0.5465 -0.6774
 1695SOL    HW216548   2.224   2.144   3.108  0.1427 -1.9031 -0.1158
 1696SOL     OW16549   0.378   0.632   3.064  0.3327  0.1326  0.4476
 1696SOL    HW116550   0.473   0.637   3.078  0.0398  2.9164  1.4710
 1696SOL    HW216551   0.377   0.548   3.017  2.0382  0.7694 -0.7277
 1697SOL     OW16552   3.679   3.736  15.580 -0.6560  1.0485  0.3508
 1697SOL    HW116553   3.765   3.755  15.617 -0.2076 -0.4707  0.0687
 1697SOL    HW216554   3.690   3.751  15.486  0.8536  1.1253  0.5312
 1698SOL     OW16555   0.627   0.169   7.812  0.0069 -0.1409  0.1530
 1698SOL    HW116556   0.711   0.127   7.797  0.5015  1.0351 -0.3655
 1698SOL    HW216557   0.625   0.211   7.727  0.0276 -0.8196 -0.1828
 1699SOL     OW16558   2.517   4.519   1.236 -0.3142  0.3336  0.7476
 1699SOL    HW116559   2.447   4.565   1.282  0.8775  2.1179  0.7636
 1699SOL    HW216560   2.576   4.592   1.218 -0.3247  0.0908 -0.2974
 1700SOL     OW16561   1.832   4.328   8.228 -0.3510 -0.0664 -0.5041
 1700SOL    HW116562   1.837   4.417   8.262 -0.7020 -0.6528  1.0823
 1700SOL    HW216563   1.921   4.317   8.195  1.3139 -0.5833  4.1848
 1701SOL     OW16564   3.915   2.401   2.624 -0.1264 -0.9610 -0.4574
 1701SOL    HW116565   3.852   2.387   2.695  0.7560  2.0878  0.9262
 1701SOL    HW216566   3.957   2.315   2.632  0.0363 -0.8684 -0.3015
 1702SOL     OW16567   4.579   2.974   6.956 -0.0889  0.2729  0.2602
 1702SOL    HW116568   4.567   3.042   6.890  2.3699  1.1125  0.6876
 1702SOL    HW216569   4.585   2.891   6.910 -0.9868  0.0252  0.5902
 1703SOL     OW16570   1.986   2.804   8.990 -0.7229 -0.4930 -0.1043
 1703SOL    HW116571   2.010   2.794   8.898  2.5493  1.7924  0.5252
 1703SOL    HW216572   1.981   2.710   9.008  0.9612 -0.5129  0.2153
 1704SOL     OW16573   4.300   0.464   0.435 -0.3544  0.2927 -0.0977
 1704SOL    HW116574   4.338   0.428   0.355  0.0610 -0.4702  0.4408
 1704SOL    HW216575   4.237   0.398   0.464  0.8552  0.1855  2.2793
 1705SOL     OW16576   2.244   0.834  10.107 -0.1167 -0.6515 -0.1650
 1705SOL    HW116577   2.175   0.898  10.091 -0.2112 -1.2005 -1.9681
 1705SOL    HW216578   2.300   0.864  10.035 -1.6729 -0.1813 -1.1805
 1706SOL     OW16579   0.093   1.359   5.394  0.2213 -0.3649 -0.1847
 1706SOL    HW116580   0.014   1.414   5.389  0.9298  0.5551 -1.1859
 1706SOL    HW216581   0.049   1.274   5.396 -0.4258 -0.0441 -0.6873
 1707SOL     OW16582   1.238   0.314   4.454  0.8215  0.3661  0.2421
 1707SOL    HW116583   1.231   0.410   4.461  1.9045  0.2458  2.9559
 1707SOL    HW216584   1.276   0.312   4.366  3.2441  2.3670  1.2424
 1708SOL     OW16585   3.176   2.226  11.455  0.5338  0.0040  0.1464
 1708SOL    HW116586   3.089   2.229  11.414  1.2038  1.3201 -1.1537
 1708SOL    HW216587   3.215   2.140  11.437  1.7923  0.5766  0.2120
 1709SOL     OW16588   0.733   2.340   5.657  0.6498  0.4450  0.3785
 1709SOL    HW116589   0.806   2.325   5.718 -1.1459 -1.2500  2.1252
 1709SOL    HW216590   0.775   2.348   5.571 -0.0796 -1.5343 -0.1555
 1710SOL     OW16591   1.428   4.322   1.594  0.1420 -0.1335 -0.4180
 1710SOL    HW116592   1.442   4.361   1.508 -0.6807 -0.0700 -0.5145
 1710SOL    HW216593   1.446   4.235   1.558  0.5402 -0.7174  1.1794
 1711SOL     OW16594   2.308   1.091   0.088 -0.7885  0.3444 -0.2846
 1711SOL    HW116595   2.264   1.019   0.133  2.6381 -0.6089  1.5687
 1711SOL    HW216596   2.241   1.135   0.035 -0.5499 -0.2544 -1.0828
 1712SOL     OW16597   0.060   3.129   2.994 -0.4404  0.0019  0.6884
 1712SOL    HW116598   0.046   3.181   2.915 -0.5561 -2.1643 -0.7416
 1712SOL    HW216599   0.151   3.139   3.021  0.2919 -1.0138 -1.3942
 1713SOL     OW16600   2.564   0.423   5.474 -0.0872 -0.1846  0.0612
 1713SOL    HW116601   2.541   0.505   5.518 -0.3420  1.0490 -2.3736
 1713SOL    HW216602   2.525   0.349   5.520  0.2087 -1.1230 -1.2360
 1714SOL     OW16603   2.869   4.235   7.166  0.0442 -0.2618  0.4605
 1714SOL    HW116604   2.828   4.259   7.082  0.1980  1.6221  0.9237
 1714SOL    HW216605   2.959   4.266   7.158 -0.4460  1.4096  1.5523
 1715SOL     OW16606   0.099   2.477   2.926  0.6156  0.1892  0.1647
 1715SOL    HW116607   0.038   2.407   2.949 -2.3113  2.4526 -0.6670
 1715SOL    HW216608   0.182   2.429   2.917 -0.4151 -1.6963  0.7274
 1716SOL     OW16609   3.505   3.791   6.336 -0.2106 -0.2940  0.0948
 1716SOL    HW116610   3.544   3.708   6.308  0.1760 -0.1142  0.0973
 1716SOL    HW216611   3.423   3.775   6.289 -0.8513 -1.7846  1.7118
 1717SOL     OW16612   2.950   3.882   3.378 -0.0572  0.2104  0.4682
 1717SOL    HW116613   2.871   3.918   3.418 -1.5366 -2.9299  0.3142
 1717SOL    HW216614   2.978   3.964   3.336 -2.0136  1.4275  1.5470
 1718SOL     OW16615   3.352   2.490  16.294 -0.3046  0.7377  0.1641
 1718SOL    HW116616   3.277   2.510  16.350 -0.2220 -1.3317  1.0166
 1718SOL    HW216617   3.420   2.551  16.322  1.0619 -1.9674  2.7521
 1719SOL     OW16618   4.444   4.111   6.275  0.5648  0.2548 -0.1104
 1719SOL    HW116619   4.431   4.062   6.356 -1.9808 -0.0353 -0.6631
 1719SOL    HW216620   4.519   4.064   6.238  0.4203 -1.2077  1.4432
 1720SOL     OW16621   0.897   1.843   6.832  0.1602 -0.2794  0.0908
 1720SOL    HW116622   0.863   1.911   6.891 -0.8820 -0.1642 -0.6328
 1720SOL    HW216623   0.984   1.875   6.808  1.8803 -3.7302  1.7084
 1721SOL     OW16624   0.169   3.866   1.476  0.4668  0.0640  0.8691
 1721SOL    HW116625   0.141   3.866   1.568 -1.0628 -1.1145  0.3906
 1721SOL    HW216626   0.097   3.908   1.428  1.5100 -1.9703 -2.4661
 1722SOL     OW16627   3.540   4.361  12.132 -0.6779  0.4351  0.0976
 1722SOL    HW116628   3.472   4.326  12.190 -1.1731 -0.6200 -1.0961
 1722SOL    HW216629   3.613   4.374  12.192 -0.5820 -2.7085  0.6600
 1723SOL     OW16630   1.882   0.645   4.484 -0.3285  0.6998  0.6863
 1723SOL    HW116631   1.933   0.700   4.544  0.2527 -0.4181  1.2329
 1723SOL    HW216632   1.812   0.706   4.464 -1.2270 -0.2850  0.8016
 1724SOL     OW16633   3.873   1.179  10.388  0.4185  0.0181 -0.3480
 1724SOL    HW116634   3.794   1.163  10.440  1.1502 -0.6170  0.5560
 1724SOL    HW216635   3.914   1.094  10.403 -0.5011 -0.2184  0.7966
 1725SOL     OW16636   0.301   3.015  15.515 -0.6866 -0.2454 -0.1082
 1725SOL    HW116637   0.328   3.104  15.537 -0.6443 -0.7047  1.6989
 1725SOL    HW216638   0.328   2.980  15.600 -1.4534  1.6812  0.9296
 1726SOL     OW16639   3.106   0.020  16.911 -0.5121 -0.5622 -0.6116
 1726SOL    HW116640   3.139   4.663  16.875  0.6557 -1.9845  3.6987
 1726SOL    HW216641   3.011   0.007  16.900 -0.1028 -2.5163 -1.8013
 1727SOL     OW16642   3.472   1.532   3.594 -0.1529  0.0716  0.3431
 1727SOL    HW116643   3.415   1.456   3.607 -1.9689  1.4293  0.1620
 1727SOL    HW216644   3.416   1.607   3.578  0.6867  0.6337  0.0219
 1728SOL     OW16645   2.772   1.767   5.209 -0.5267 -0.0383  0.1238
 1728SOL    HW116646   2.736   1.698   5.265 -0.4025  0.1705  0.4609
 1728SOL    HW216647   2.746   1.749   5.119 -0.8165 -0.6618  0.3335
 1729SOL     OW16648   3.104   0.287   6.426 -0.7631 -0.6646 -0.1700
 1729SOL    HW116649   3.117   0.271   6.332 -0.2268 -0.9770 -0.0447
 1729SOL    HW216650   3.091   0.381   6.422  1.2918 -0.2977  1.8499
 1730SOL     OW16651   3.812   4.336  16.894 -0.0336  0.2426  0.4364
 1730SOL    HW116652   3.888   4.284  16.920  0.9290  0.4632 -1.9349
 1730SOL    HW216653   3.768   4.258  16.859 -0.5255  1.2785 -1.2556
 1731SOL     OW16654   1.742   0.437   5.828 -0.0708 -0.3026  0.1974
 1731SOL    HW116655   1.812   0.381   5.862  1.2632 -0.3683 -2.6935
 1731SOL    HW216656   1.794   0.504   5.784 -0.5291 -0.4217 -0.5343
 1732SOL     OW16657   1.274   2.866   5.030 -0.3115  0.2471 -1.2907
 1732SOL    HW116658   1.296   2.778   4.998  0.9594  0.1879 -0.2242
 1732SOL    HW216659   1.318   2.912   4.958  0.2950  1.6612 -0.0145
 1733SOL     OW16660   2.776   2.159   1.111  0.0701 -0.1422  0.2934
 1733SOL    HW116661   2.793   2.070   1.082 -2.3537 -0.3476 -0.4879
 1733SOL    HW216662   2.693   2.150   1.158 -0.9106 -0.2460 -1.4965
 1734SOL     OW16663   1.106   3.335   7.701  0.3617  0.0792  0.6627
 1734SOL    HW116664   1.089   3.420   7.742 -0.0016  1.1471 -1.6844
 1734SOL    HW216665   1.074   3.350   7.612  0.4017  0.7177  0.7553
 1735SOL     OW16666   0.485   2.761   5.471  0.4430  0.3803  0.4802
 1735SOL    HW116667   0.406   2.799   5.433  0.2714 -0.2532  0.2002
 1735SOL    HW216668   0.445   2.680   5.504 -1.0743  1.5436  1.4606
 1736SOL     OW16669   2.991   0.921   3.253  0.3729 -0.4746 -0.8060
 1736SOL    HW116670   3.028   0.958   3.172  0.1132  1.8724  0.1452
 1736SOL    HW216671   2.951   0.841   3.218  0.7412 -0.4166 -1.3576
 1737SOL     OW16672   0.552   0.672   6.938  0.2403  0.2447 -0.1415
 1737SOL    HW116673   0.568   0.755   6.984 -0.3383  0.5912 -0.5818
 1737SOL    HW216674   0.600   0.691   6.858  0.3432 -0.3896 -0.2312
 1738SOL     OW16675   3.326   2.998   7.008  0.0254 -0.1764 -0.1215
 1738SOL    HW116676   3.337   2.904   7.001  1.7701 -0.2213  2.9364
 1738SOL    HW216677   3.318   3.006   7.104 -0.5950  2.8336 -0.4130
 1739SOL     OW16678   4.158   0.726  17.529 -0.0620 -0.4189  0.7440
 1739SOL    HW116679   4.120   0.650  17.574  0.1524 -0.9892 -0.0423
 1739SOL    HW216680   4.212   0.761  17.601 -1.1462 -0.0406  1.3672
 1740SOL     OW16681   1.103   2.789   6.722 -0.2735  0.3403  0.2043
 1740SOL    HW116682   1.174   2.739   6.761 -0.5761  0.3618  0.7976
 1740SOL    HW216683   1.105   2.848   6.798 -0.7523  1.1282 -0.3986
 1741SOL     OW16684   0.287   4.187   7.316 -0.1886 -0.2441 -0.1888
 1741SOL    HW116685   0.253   4.276   7.314  0.7250  0.0553 -3.4602
 1741SOL    HW216686   0.203   4.142   7.326 -0.0662 -0.1617  1.1904
 1742SOL     OW16687   2.394   2.989  17.225  0.1263  0.0400  0.4733
 1742SOL    HW116688   2.434   2.962  17.308 -0.6566 -3.3419 -0.2453
 1742SOL    HW216689   2.387   3.083  17.240  0.5610 -0.0247  1.0909
 1743SOL     OW16690   2.332   4.538   2.313 -0.5055 -0.1819  0.3257
 1743SOL    HW116691   2.427   4.548   2.323 -0.2886 -0.7158 -1.2007
 1743SOL    HW216692   2.322   4.588   2.232  0.9234  1.1451  0.9665
 1744SOL     OW16693   1.723   4.186   8.706  0.0699  0.1207 -0.0654
 1744SOL    HW116694   1.794   4.135   8.744  0.3751  0.2400 -0.4840
 1744SOL    HW216695   1.750   4.278   8.703  2.4688 -0.5484  0.9243
 1745SOL     OW16696   0.101   3.923   6.755  0.2824  0.3724 -0.4453
 1745SOL    HW116697   0.082   3.938   6.848 -0.2002  0.1410 -0.5069
 1745SOL    HW216698   0.169   3.855   6.762 -0.0409 -0.0260 -1.1479
 1746SOL     OW16699   1.494   3.098  15.261 -0.0637  0.2362  0.2123
 1746SOL    HW116700   1.432   3.029  15.285 -0.6765 -0.0516 -2.1570
 1746SOL    HW216701   1.519   3.155  15.333 -3.8971  1.6215  0.4099
 1747SOL     OW16702   0.437   0.207   6.129  0.1820  0.8511  0.3189
 1747SOL    HW116703   0.459   0.138   6.191  2.2563  0.5793 -0.7134
 1747SOL    HW216704   0.518   0.225   6.081  0.5602  1.0925  1.0532
 1748SOL     OW16705   1.006   0.912   3.272  0.1040 -0.5206 -0.5534
 1748SOL    HW116706   1.091   0.938   3.236 -0.5987  0.5115 -1.4944
 1748SOL    HW216707   1.034   0.908   3.363  0.2593 -0.7205 -0.6108
 1749SOL     OW16708   2.084   1.241   6.561 -0.5184  0.6977  0.3886
 1749SOL    HW116709   2.063   1.148   6.570 -0.1968  0.6557  0.6978
 1749SOL    HW216710   2.045   1.254   6.475 -1.1876  3.1190  1.0531
 1750SOL     OW16711   1.930   0.000   4.227 -0.2603 -0.5397 -0.2444
 1750SOL    HW116712   1.987   4.681   4.164 -0.3408 -0.1808 -0.5697
 1750SOL    HW216713   1.918   0.087   4.188 -1.9339  0.0296  1.5048
 1751SOL     OW16714   0.843   3.361   3.457  0.1078 -0.4991  0.6405
 1751SOL    HW116715   0.833   3.358   3.362  1.1325  0.3136  0.5143
 1751SOL    HW216716   0.805   3.447   3.477 -0.6218 -1.0765  1.7715
 1752SOL     OW16717   1.001   3.676   0.926  0.5210 -0.1382  0.2100
 1752SOL    HW116718   1.053   3.696   1.004  1.0528 -1.4111  0.1868
 1752SOL    HW216719   0.923   3.731   0.921  0.8816  0.1314 -2.7772
 1753SOL     OW16720   2.304   2.170   2.844  0.0225  0.7812  0.1950
 1753SOL    HW116721   2.345   2.184   2.929 -0.3099 -0.0498  0.4888
 1753SOL    HW216722   2.367   2.112   2.802  0.0889  0.2995  0.9580
 1754SOL     OW16723   0.332   2.136  13.940 -0.7729 -0.2079 -0.1381
 1754SOL    HW116724   0.391   2.201  13.903  0.8507 -1.8253 -0.4095
 1754SOL    HW216725   0.261   2.183  13.984 -2.4085 -0.9351 -1.9966
 1755SOL     OW16726   3.693   0.781   5.281  0.8595 -0.1545 -0.5195
 1755SOL    HW116727   3.653   0.806   5.198  0.0081 -0.6063 -0.2334
 1755SOL    HW216728   3.687   0.867   5.323 -3.1607 -0.8396  0.2684
 1756SOL     OW16729   2.163   0.958   0.282  0.6235 -0.0460  0.0683
 1756SOL    HW116730   2.080   0.960   0.329  0.4481  1.0894 -0.3031
 1756SOL    HW216731   2.220   0.922   0.351 -0.1184  0.8221  1.1409
 1757SOL     OW16732   4.076   1.886  17.628 -0.1843  0.0334 -0.3347
 1757SOL    HW116733   4.079   1.862  17.535  4.3225  0.2016 -0.2355
 1757SOL    HW216734   4.098   1.979  17.621  1.8462 -0.5244 -1.3468
 1758SOL     OW16735   3.608   1.699  14.668  0.4051 -0.0740  0.9829
 1758SOL    HW116736   3.646   1.787  14.676  0.8969 -0.0647 -1.4177
 1758SOL    HW216737   3.681   1.647  14.634 -1.9798 -2.7833  0.0533
 1759SOL     OW16738   1.276   3.463   7.278 -0.1331 -0.5514 -0.7645
 1759SOL    HW116739   1.331   3.528   7.234  0.1509  2.0798  3.4275
 1759SOL    HW216740   1.201   3.454   7.221 -0.9652  1.5999 -0.0120
 1760SOL     OW16741   4.127   3.252   9.707  0.6470  0.0240  0.9774
 1760SOL    HW116742   4.067   3.326   9.699 -1.7427 -2.0874 -0.7770
 1760SOL    HW216743   4.102   3.210   9.625 -0.0486  2.6674 -0.1593
 1761SOL     OW16744   2.294   3.987  11.381 -0.4883  0.1756 -0.3990
 1761SOL    HW116745   2.329   4.027  11.301  0.7097 -0.8475 -0.3886
 1761SOL    HW216746   2.229   3.935  11.335 -0.7684  1.1361 -1.0931
 1762SOL     OW16747   3.269   0.554   4.507 -0.3588 -0.1167 -0.1418
 1762SOL    HW116748   3.287   0.460   4.507 -1.0869 -0.2532 -0.2782
 1762SOL    HW216749   3.329   0.572   4.434 -1.6860  1.3514 -0.8810
 1763SOL     OW16750   0.286   3.556  10.976 -0.4797  0.0047 -0.2145
 1763SOL    HW116751   0.377   3.550  11.008 -0.9531  0.9341  1.3155
 1763SOL    HW216752   0.258   3.466  10.991 -2.2430  0.3988 -1.2132
 1764SOL     OW16753   2.629   1.883   5.510 -0.5529  0.0855 -0.5987
 1764SOL    HW116754   2.556   1.863   5.452  1.1899  0.9005 -3.0687
 1764SOL    HW216755   2.604   1.829   5.585  0.0855  0.3943 -0.1569
 1765SOL     OW16756   2.473   1.893  10.342 -0.4603 -0.3067 -0.2036
 1765SOL    HW116757   2.544   1.911  10.280  0.3833  2.0046  1.4612
 1765SOL    HW216758   2.468   1.977  10.387  0.8744 -0.0981 -0.4388
 1766SOL     OW16759   1.668   2.954   4.639  0.3489  0.1389  0.4172
 1766SOL    HW116760   1.718   2.952   4.721  1.9683  1.7758 -0.5148
 1766SOL    HW216761   1.640   2.863   4.637  3.6754 -0.8591 -0.2787
 1767SOL     OW16762   4.699   3.392   7.199  0.1006 -0.1199  0.6716
 1767SOL    HW116763   4.619   3.409   7.149  1.1309  3.5742  0.2837
 1767SOL    HW216764   4.692   3.296   7.203 -4.1086  0.1000 -1.7440
 1768SOL     OW16765   0.805   1.978   7.047 -0.2744  0.4743 -0.0308
 1768SOL    HW116766   0.714   1.949   7.039  0.0617 -0.2883 -1.0373
 1768SOL    HW216767   0.813   2.001   7.140 -2.3131 -1.9161  0.7341
 1769SOL     OW16768   4.128   2.686   4.055  0.1136  0.3211  0.0608
 1769SOL    HW116769   4.208   2.636   4.040  0.2321  0.3051  0.7502
 1769SOL    HW216770   4.145   2.734   4.135  2.0486 -0.8207  0.3228
 1770SOL     OW16771   0.311   1.097   7.440  0.1401  0.2832 -0.0994
 1770SOL    HW116772   0.386   1.042   7.460 -0.8978 -0.7369  0.9750
 1770SOL    HW216773   0.250   1.067   7.508  0.5822  1.7606  0.9593
 1771SOL     OW16774   0.216   1.817   6.759  0.3141  0.0453  0.5662
 1771SOL    HW116775   0.212   1.722   6.746  0.2728  0.0585  0.4805
 1771SOL    HW216776   0.311   1.828   6.760  0.1719  1.3826 -0.9824
 1772SOL     OW16777   1.632   4.465  13.856 -0.1603 -0.2494 -0.3241
 1772SOL    HW116778   1.672   4.551  13.846  2.1580 -1.4812 -1.7105
 1772SOL    HW216779   1.711   4.431  13.898 -0.2795  0.5498  0.5427
 1773SOL     OW16780   3.085   1.249   2.643  0.2601  0.0117 -0.0683
 1773SOL    HW116781   3.110   1.157   2.637 -0.4226 -0.0629 -1.7118
 1773SOL    HW216782   3.010   1.248   2.583 -0.1658 -2.5961  0.4852
 1774SOL     OW16783   3.746   3.046   8.313  0.5536  0.4316 -0.2227
 1774SOL    HW116784   3.668   3.005   8.351 -0.0019  1.7405  0.0508
 1774SOL    HW216785   3.804   2.970   8.317  0.2525  0.2637  0.8510
 1775SOL     OW16786   1.165   2.571   7.327  0.2995  0.2505  0.1362
 1775SOL    HW116787   1.123   2.596   7.410 -1.5312  0.2082 -0.7797
 1775SOL    HW216788   1.094   2.518   7.290  1.2697 -1.3958  0.6330
 1776SOL     OW16789   2.927   2.551   4.116 -0.1753 -0.6994  0.5566
 1776SOL    HW116790   2.975   2.585   4.040  0.2072  0.4128  1.2790
 1776SOL    HW216791   2.918   2.634   4.164 -0.7885 -0.0922 -0.6262
 1777SOL     OW16792   0.717   4.404   2.060  0.0673  0.4513 -0.1475
 1777SOL    HW116793   0.790   4.460   2.033  0.4213  0.2699  0.4338
 1777SOL    HW216794   0.684   4.377   1.975 -1.1872 -1.5105  0.9622
 1778SOL     OW16795   1.800   2.280  10.807  0.0225 -0.1224  0.1882
 1778SOL    HW116796   1.756   2.334  10.872 -1.0387  0.0620 -0.6664
 1778SOL    HW216797   1.860   2.344  10.771  1.5256 -0.9550  1.2109
 1779SOL     OW16798   3.573   0.829   9.826  0.2740  0.2755  0.2918
 1779SOL    HW116799   3.499   0.838   9.887  1.1055 -0.6401  1.4375
 1779SOL    HW216800   3.545   0.898   9.765 -1.4056  0.5492  1.3604
 1780SOL     OW16801   4.724   3.234  12.225 -0.5523  0.0486  0.2072
 1780SOL    HW116802   4.646   3.289  12.238 -0.9581 -0.5499  0.3037
 1780SOL    HW216803   0.046   3.250  12.307  0.2064 -2.1897  0.2092
 1781SOL     OW16804   4.377   2.900   6.384 -0.7054 -0.1487 -0.0476
 1781SOL    HW116805   4.403   2.851   6.462  1.6114  0.8448 -0.2118
 1781SOL    HW216806   4.367   2.823   6.329  1.8887  1.4738 -2.8048
 1782SOL     OW16807   4.409   4.290   3.539 -0.2111 -0.4998  0.0126
 1782SOL    HW116808   4.337   4.322   3.485  0.3757 -1.4743 -1.3438
 1782SOL    HW216809   4.367   4.263   3.621 -1.3766 -0.5133 -0.5829
 1783SOL     OW16810   3.313   2.391  11.641 -0.6326 -0.6577 -0.0472
 1783SOL    HW116811   3.252   2.439  11.585  0.0074  0.2441  0.0326
 1783SOL    HW216812   3.310   2.308  11.592 -0.7951 -0.3277 -0.5998
 1784SOL     OW16813   1.786   1.734  10.662 -0.1027  0.2057  0.2700
 1784SOL    HW116814   1.828   1.738  10.576 -0.6896 -1.4751 -0.1045
 1784SOL    HW216815   1.785   1.826  10.689  2.2612  0.1318  0.6189
 1785SOL     OW16816   4.452   2.174   2.754  0.0084  0.5716 -0.6459
 1785SOL    HW116817   4.420   2.088   2.728  0.6821 -0.2894  1.4084
 1785SOL    HW216818   4.430   2.233   2.682  1.3684 -2.2947 -3.3963
 1786SOL     OW16819   0.370   0.470   8.281  0.2957 -0.1724  0.1058
 1786SOL    HW116820   0.365   0.540   8.216 -3.2293  0.2140  0.7731
 1786SOL    HW216821   0.278   0.452   8.299  0.3489  0.7412  1.2780
 1787SOL     OW16822   2.155   3.243   5.006 -0.3884  0.6026 -0.2267
 1787SOL    HW116823   2.228   3.263   5.065 -0.9411 -0.9149  0.9960
 1787SOL    HW216824   2.138   3.149   5.020  1.0877  0.1998 -1.1519
 1788SOL     OW16825   3.686   3.108   3.328 -0.0373  0.2374  0.2549
 1788SOL    HW116826   3.637   3.058   3.393  0.9479  2.0724  2.3840
 1788SOL    HW216827   3.776   3.086   3.352 -0.4875  1.1642  2.7566
 1789SOL     OW16828   0.723   0.837   8.499 -0.3316  0.0048 -0.0013
 1789SOL    HW116829   0.656   0.877   8.445  1.3773  1.1267 -1.3099
 1789SOL    HW216830   0.709   0.886   8.580 -1.6329 -0.5457  0.1045
 1790SOL     OW16831   0.969   1.330   4.813 -0.4074 -0.0063  0.0728
 1790SOL    HW116832   0.876   1.337   4.791 -0.8343  0.5301  2.1370
 1790SOL    HW216833   0.979   1.412   4.860  0.1078 -0.6443  1.0694
 1791SOL     OW16834   1.161   0.984   3.728  0.1052  0.0245  0.4497
 1791SOL    HW116835   1.066   0.997   3.724  0.0690  0.0743  1.4170
 1791SOL    HW216836   1.194   1.052   3.670 -2.8348  1.0593 -0.0318
 1792SOL     OW16837   2.291   4.644   1.298  0.3432  0.2358 -0.6303
 1792SOL    HW116838   2.270   4.710   1.231 -0.0453 -0.1148 -0.8452
 1792SOL    HW216839   2.226   4.663   1.365 -0.5961 -1.7952 -0.9937
 1793SOL     OW16840   3.934   3.193   6.531 -0.2258 -0.8562 -0.1615
 1793SOL    HW116841   3.839   3.191   6.540 -0.4444  0.5220 -2.0843
 1793SOL    HW216842   3.945   3.099   6.547  0.0541 -1.1983 -2.4927
 1794SOL     OW16843   0.175   0.808   3.036  0.8907  0.5067  0.5921
 1794SOL    HW116844   0.219   0.725   3.050 -0.3098 -0.2322 -0.0176
 1794SOL    HW216845   0.192   0.821   2.942  1.7549  0.1827  0.7043
 1795SOL     OW16846   0.529   3.556   8.636 -0.3611  0.1439 -0.2790
 1795SOL    HW116847   0.552   3.617   8.566  0.4406 -0.6550 -0.7104
 1795SOL    HW216848   0.439   3.573   8.663 -0.4266 -0.0482 -0.3713
 1796SOL     OW16849   1.105   4.361   2.986  0.2737  0.4500 -0.6488
 1796SOL    HW116850   1.127   4.400   2.901 -0.8773 -1.5733 -1.8878
 1796SOL    HW216851   1.010   4.353   2.985  0.3961 -0.8914 -0.8463
 1797SOL     OW16852   2.179   3.929   2.737  0.4155  0.7775 -0.4754
 1797SOL    HW116853   2.090   3.893   2.735  0.1423  1.3651  1.2874
 1797SOL    HW216854   2.171   3.994   2.807 -1.9819  0.3409 -0.3402
 1798SOL     OW16855   3.571   1.070   1.674  0.3505 -0.1524  0.8088
 1798SOL    HW116856   3.555   1.117   1.756 -2.7577 -0.6871  0.5340
 1798SOL    HW216857   3.481   1.049   1.647 -0.0971  1.3862  1.0893
 1799SOL     OW16858   0.020   1.028   5.309 -0.1858 -0.0230 -0.2807
 1799SOL    HW116859   4.661   0.991   5.279 -0.3729 -1.2961  1.8074
 1799SOL    HW216860   0.005   1.061   5.398 -3.4696  0.7715 -1.1295
 1800SOL     OW16861   3.285   1.992  14.162 -0.3637  0.1773 -0.7851
 1800SOL    HW116862   3.262   2.084  14.151  0.0843  0.4336  0.3856
 1800SOL    HW216863   3.371   2.000  14.203 -1.6407  1.2719  1.6875
 1801SOL     OW16864   2.231   4.721   2.495  0.0586 -0.0273 -0.4073
 1801SOL    HW116865   2.265   0.070   2.443 -0.4093  1.4551  1.3624
 1801SOL    HW216866   2.241   4.652   2.429  1.6806  2.0017 -2.3107
 1802SOL     OW16867   0.394   1.881   5.638  0.7537  0.1595 -0.2363
 1802SOL    HW116868   0.461   1.877   5.571 -0.6291  1.6205 -1.6971
 1802SOL    HW216869   0.420   1.838   5.720  0.7715 -0.7939 -0.7343
 1803SOL     OW16870   1.939   4.511  10.776  0.0437 -0.2241 -0.3017
 1803SOL    HW116871   1.936   4.442  10.709 -1.4169  1.5475 -2.0289
 1803SOL    HW216872   2.033   4.509  10.797 -0.4721 -1.9518  1.8911
 1804SOL     OW16873   2.171   4.641   8.664  0.4387  0.3407 -0.3869
 1804SOL    HW116874   2.185   4.634   8.758 -2.4379 -0.6276 -0.0287
 1804SOL    HW216875   2.084   4.682   8.659 -0.7117 -1.7841  2.3938
 1805SOL     OW16876   0.747   3.857   1.793  0.6520  0.8402  0.7897
 1805SOL    HW116877   0.668   3.844   1.739  0.1909 -1.4624  1.9916
 1805SOL    HW216878   0.780   3.770   1.815 -1.0374 -0.1178 -0.4249
 1806SOL     OW16879   1.506   4.339   0.738  0.4991  0.1067  0.1781
 1806SOL    HW116880   1.451   4.317   0.813 -0.0407 -2.3391 -0.9348
 1806SOL    HW216881   1.596   4.342   0.770  0.7288 -1.2080 -0.3499
 1807SOL     OW16882   4.352   1.735   4.337  0.6539  0.4424 -0.6902
 1807SOL    HW116883   4.269   1.776   4.316  0.2180 -1.3004 -2.4437
 1807SOL    HW216884   4.369   1.777   4.421 -0.8518 -1.0663  0.3511
 1808SOL     OW16885   4.391   3.473   3.195  0.3237  0.0864  0.2048
 1808SOL    HW116886   4.465   3.469   3.134 -0.3744 -1.3731 -0.5312
 1808SOL    HW216887   4.314   3.459   3.140  1.8763  1.8020 -2.4079
 1809SOL     OW16888   2.226   3.886   5.719 -0.8278  0.1248  0.3140
 1809SOL    HW116889   2.217   3.791   5.718  0.7013 -0.0137 -0.5508
 1809SOL    HW216890   2.257   3.903   5.630  3.3624  1.0812  1.9542
 1810SOL     OW16891   1.151   0.129   5.559  0.3258  0.3480 -0.1109
 1810SOL    HW116892   1.226   0.188   5.560  0.0530  0.6854  0.6363
 1810SOL    HW216893   1.078   0.191   5.557 -0.6244 -0.6886  1.9554
 1811SOL     OW16894   3.022   0.202  13.098 -0.0080  0.2981 -0.3033
 1811SOL    HW116895   3.068   0.240  13.023  0.9588  1.2454  0.7545
 1811SOL    HW216896   3.067   0.118  13.102  0.1368  0.1448 -5.1830
 1812SOL     OW16897   0.009   1.990  16.629 -0.0857 -0.0422 -0.0467
 1812SOL    HW116898   4.665   2.003  16.696  0.9413 -0.8944  1.1710
 1812SOL    HW216899   4.687   2.039  16.561 -0.8965 -2.2506 -1.0953
 1813SOL     OW16900   3.231   3.653   8.010 -0.7552 -0.6256  0.3141
 1813SOL    HW116901   3.172   3.672   8.083 -0.8259  0.0651  0.0772
 1813SOL    HW216902   3.314   3.684   8.046 -1.1342  0.4963  0.2102
 1814SOL     OW16903   2.553   2.458   3.173  0.1070  0.0322 -0.1802
 1814SOL    HW116904   2.579   2.456   3.265  0.8519 -0.9559 -0.4109
 1814SOL    HW216905   2.511   2.544   3.179 -1.9474 -0.9114 -1.3847
 1815SOL     OW16906   0.647   0.561   1.885 -1.1135 -0.0626 -0.0073
 1815SOL    HW116907   0.666   0.650   1.854 -0.8985  0.1443  0.7205
 1815SOL    HW216908   0.703   0.509   1.828 -1.4403  1.4982 -1.7561
 1816SOL     OW16909   0.245   0.641   4.691  0.0751  0.3041  0.1954
 1816SOL    HW116910   0.151   0.622   4.700 -0.3814  1.6413 -1.7959
 1816SOL    HW216911   0.265   0.588   4.614  0.2552  0.6866 -0.0164
 1817SOL     OW16912   0.047   2.338   2.622 -0.2803  0.7775  0.3257
 1817SOL    HW116913   4.688   2.291   2.629  0.1230 -0.1891 -1.3090
 1817SOL    HW216914   0.117   2.289   2.664 -1.3517 -2.6324 -1.9306
 1818SOL     OW16915   1.416   1.672   4.560 -0.0422  0.2322  0.1640
 1818SOL    HW116916   1.389   1.742   4.618 -1.0905  0.0760 -0.1436
 1818SOL    HW216917   1.404   1.707   4.472  0.9351  0.8038  0.2640
 1819SOL     OW16918   1.081   1.396   1.922 -0.4092  0.4200  0.0825
 1819SOL    HW116919   1.163   1.406   1.971  0.8045  1.3398 -2.1443
 1819SOL    HW216920   1.049   1.484   1.942 -0.3460  0.6258 -0.7050
 1820SOL     OW16921   0.287   4.131  15.260  0.5579  0.4250 -0.5052
 1820SOL    HW116922   0.260   4.183  15.335 -2.4769  0.6796 -1.7576
 1820SOL    HW216923   0.380   4.146  15.243  0.4743  1.5677  0.0877
 1821SOL     OW16924   0.745   3.247   2.969  0.1391 -0.4736 -0.5397
 1821SOL    HW116925   0.786   3.176   2.920 -0.1584 -0.8153 -0.2889
 1821SOL    HW216926   0.666   3.254   2.915 -0.0378  0.1776 -0.1943
 1822SOL     OW16927   0.784   2.146   4.112 -0.4884  0.8295  0.2468
 1822SOL    HW116928   0.794   2.052   4.094 -0.8174  0.6812  0.8481
 1822SOL    HW216929   0.735   2.180   4.037 -0.0284  0.1805 -0.3537
 1823SOL     OW16930   4.282   0.712   7.177 -0.7809  0.0548 -0.5295
 1823SOL    HW116931   4.248   0.670   7.256  0.1760  0.9016  0.3372
 1823SOL    HW216932   4.374   0.694   7.199 -1.5383 -1.7576  1.2168
 1824SOL     OW16933   4.154   3.388   4.014  0.2670 -0.3677 -0.1532
 1824SOL    HW116934   4.090   3.319   3.998 -3.9133  3.3378  0.5181
 1824SOL    HW216935   4.235   3.361   3.971  0.6506  1.1384 -0.3675
 1825SOL     OW16936   0.543   1.622  16.578 -0.2773 -0.0429  0.4391
 1825SOL    HW116937   0.615   1.676  16.610  0.8489 -1.2026 -0.1565
 1825SOL    HW216938   0.511   1.607  16.667 -2.3067 -0.9506 -0.4355
 1826SOL     OW16939   2.550   2.218   8.564 -0.1029 -0.4512  0.1705
 1826SOL    HW116940   2.478   2.200   8.625  0.6347 -2.0935  0.5527
 1826SOL    HW216941   2.617   2.273   8.606  1.4391 -1.4280 -0.9998
 1827SOL     OW16942   3.674   4.553  11.973 -0.0577 -0.5508  0.1311
 1827SOL    HW116943   3.621   4.495  12.027  0.4411 -1.1305 -0.0109
 1827SOL    HW216944   3.752   4.560  12.027 -0.4860 -0.0732  0.6864
 1828SOL     OW16945   1.858   4.047  12.181  0.1734 -0.3218  0.2617
 1828SOL    HW116946   1.907   4.110  12.234 -0.4328  0.6614 -0.3407
 1828SOL    HW216947   1.798   4.017  12.249 -0.0371 -0.7786 -0.1255
 1829SOL     OW16948   4.136   3.007   6.266  0.0013  0.3405  0.1071
 1829SOL    HW116949   4.063   2.958   6.305  1.7252 -2.2403  0.1074
 1829SOL    HW216950   4.213   2.972   6.311 -1.2609 -2.6555 -0.0098
 1830SOL     OW16951   0.417   1.221  10.251 -0.0549  0.7565 -0.0258
 1830SOL    HW116952   0.478   1.281  10.208 -0.1487  1.6226  1.0479
 1830SOL    HW216953   0.431   1.249  10.341 -0.2242 -1.0003  0.5473
 1831SOL     OW16954   3.646   4.208  17.559 -0.2951  0.4151  0.6792
 1831SOL    HW116955   3.553   4.186  17.568 -0.8102  2.4092  0.2889
 1831SOL    HW216956   3.664   4.222  17.652  2.2017  1.4857  0.0276
 1832SOL     OW16957   0.273   1.184  12.659  0.8122  0.6304  0.1246
 1832SOL    HW116958   0.242   1.240  12.731 -0.3116 -1.5825  1.3564
 1832SOL    HW216959   0.225   1.224  12.587 -0.1035 -0.0161  0.3815
 1833SOL     OW16960   3.564   0.968   5.794  0.3927  0.2016 -0.3298
 1833SOL    HW116961   3.470   0.957   5.807  0.3715 -0.1575 -0.7708
 1833SOL    HW216962   3.603   0.889   5.833 -0.7915 -0.3610 -0.2814
 1834SOL     OW16963   4.370   3.177   7.057  0.2186 -0.3317 -0.6099
 1834SOL    HW116964   4.292   3.196   7.005  1.2213 -0.6950 -2.2433
 1834SOL    HW216965   4.414   3.113   7.002  0.6770  0.2400 -0.9032
 1835SOL     OW16966   3.137   0.277   2.750  0.2422 -0.4058  0.6081
 1835SOL    HW116967   3.174   0.191   2.769 -2.7611 -1.6145  0.9418
 1835SOL    HW216968   3.162   0.284   2.658 -1.7568 -1.7831 -0.0272
 1836SOL     OW16969   3.256   3.549   6.519 -0.2169 -0.5259 -0.6689
 1836SOL    HW116970   3.209   3.574   6.599  2.5741 -1.3157  1.2209
 1836SOL    HW216971   3.252   3.455   6.536 -0.0581 -0.5879 -0.9700
 1837SOL     OW16972   0.160   4.262   4.108  0.4284  0.4948 -0.1579
 1837SOL    HW116973   0.179   4.308   4.190  0.3064 -0.0729  0.1883
 1837SOL    HW216974   0.154   4.171   4.135  1.9022  0.4427  0.0188
 1838SOL     OW16975   2.097   2.080   8.778  0.0005  0.5266  0.0579
 1838SOL    HW116976   2.054   2.060   8.695  0.8860 -0.5902 -0.1440
 1838SOL    HW216977   2.055   2.027   8.845  2.0073 -1.5887 -0.3596
 1839SOL     OW16978   0.723   1.190   9.434  0.4963  0.6295 -0.6874
 1839SOL    HW116979   0.642   1.142   9.450  0.4250  0.4241 -1.7199
 1839SOL    HW216980   0.705   1.235   9.352  0.8156  0.3687 -0.8999
 1840SOL     OW16981   0.214   3.119   8.385 -0.1648 -0.1494  0.5080
 1840SOL    HW116982   0.144   3.113   8.320 -0.3488  1.9653  0.5089
 1840SOL    HW216983   0.208   3.031   8.423 -1.7760 -0.3451 -0.1867
 1841SOL     OW16984   2.018   3.513   4.095 -0.1084  0.2829 -0.2638
 1841SOL    HW116985   1.939   3.490   4.145 -1.5321  2.4196 -1.5665
 1841SOL    HW216986   2.031   3.439   4.035  0.2682  1.7947 -2.0299
 1842SOL     OW16987   2.174   1.286   8.469 -0.0910 -0.1171 -0.3581
 1842SOL    HW116988   2.133   1.210   8.425 -1.5953 -0.0164  0.8715
 1842SOL    HW216989   2.138   1.265   8.555 -0.1604  1.9335  0.1121
 1843SOL     OW16990   0.449   4.572   5.594 -0.0725 -0.2255  0.3839
 1843SOL    HW116991   0.460   4.503   5.659 -0.6763  0.2504  0.9975
 1843SOL    HW216992   0.472   4.529   5.512 -2.0501 -1.5564  0.5340
 1844SOL     OW16993   2.231   4.210   9.609  0.6971 -0.0976  0.5270
 1844SOL    HW116994   2.306   4.230   9.666 -0.4470  1.5333  1.4845
 1844SOL    HW216995   2.259   4.257   9.531 -0.2842  1.9465  1.4140
 1845SOL     OW16996   0.911   3.386   5.706 -0.1705 -0.0848  0.0080
 1845SOL    HW116997   0.978   3.347   5.761 -0.4472 -2.8418 -1.5965
 1845SOL    HW216998   0.880   3.450   5.770 -1.4350 -1.9235  1.2029
 1846SOL     OW16999   1.524   4.582  11.238  0.1570 -0.1528  0.0720
 1846SOL    HW117000   1.431   4.604  11.237  0.8633  2.8867  0.2444
 1846SOL    HW217001   1.530   4.487  11.246 -1.0825  0.1141  3.9309
 1847SOL     OW17002   1.632   0.999  15.699 -0.7004  0.4171  0.2484
 1847SOL    HW117003   1.693   0.929  15.723  1.0088  2.1436  0.8769
 1847SOL    HW217004   1.668   1.016  15.613 -0.7860  2.9919  0.7271
 1848SOL     OW17005   0.384   0.328   9.335 -0.0459  0.1707  0.4674
 1848SOL    HW117006   0.460   0.363   9.382 -0.2298  0.5440  0.4872
 1848SOL    HW217007   0.374   0.384   9.258 -0.5281 -3.4897 -2.1263
 1849SOL     OW17008   0.736   3.364   5.280 -0.0771 -0.2827  0.7788
 1849SOL    HW117009   0.794   3.317   5.339  0.9974  0.6794  0.4860
 1849SOL    HW217010   0.674   3.295   5.257 -0.2928  0.6935 -1.6595
 1850SOL     OW17011   3.112   1.778  14.366  0.0224 -0.1736  0.7973
 1850SOL    HW117012   3.084   1.869  14.358  0.3038 -0.1377  0.2503
 1850SOL    HW217013   3.069   1.732  14.294  1.1698 -1.0088  0.6520
 1851SOL     OW17014   3.392   2.200   8.459  0.5773 -0.1272  0.2590
 1851SOL    HW117015   3.459   2.259   8.494  1.6465 -1.2946  0.1732
 1851SOL    HW217016   3.411   2.114   8.498  0.8755 -0.2068 -0.0667
 1852SOL     OW17017   0.141   3.676   8.851 -0.4480  0.4559 -0.3380
 1852SOL    HW117018   0.103   3.610   8.792 -0.0359  0.0170 -0.0995
 1852SOL    HW217019   0.082   3.751   8.841  2.0655  2.6106  0.9749
 1853SOL     OW17020   4.162   0.703   5.629  0.4789 -0.4392  0.5222
 1853SOL    HW117021   4.103   0.749   5.568  1.1611  1.2609  1.1632
 1853SOL    HW217022   4.112   0.703   5.711 -1.7989 -1.9579 -0.8361
 1854SOL     OW17023   1.823   0.768   9.511 -0.1079 -0.0829  0.4902
 1854SOL    HW117024   1.837   0.855   9.474 -1.0311 -0.5363 -0.9215
 1854SOL    HW217025   1.900   0.764   9.567 -1.6613 -1.2556  2.5214
 1855SOL     OW17026   3.979   4.381  12.754 -0.1285 -0.5990 -0.1430
 1855SOL    HW117027   4.073   4.371  12.765 -0.0214 -0.3858 -0.8647
 1855SOL    HW217028   3.961   4.299  12.799 -0.7332  0.6507  1.9073
 1856SOL     OW17029   1.171   4.310  13.334 -0.1325 -0.3132  0.9427
 1856SOL    HW117030   1.123   4.389  13.359  0.7145 -0.0130  1.6343
 1856SOL    HW217031   1.222   4.303  13.414  0.0215 -0.0638  0.8668
 1857SOL     OW17032   3.448   2.411  15.106  0.1195  0.4080 -0.0034
 1857SOL    HW117033   3.386   2.481  15.085 -0.0656 -0.3253 -1.9379
 1857SOL    HW217034   3.476   2.384  15.018  2.2156 -0.0162  0.8011
 1858SOL     OW17035   0.512   1.403   3.466  0.3692 -0.4135 -0.1897
 1858SOL    HW117036   0.580   1.469   3.481 -0.4216  0.1521  1.0270
 1858SOL    HW217037   0.449   1.457   3.418  1.9596  0.4364 -1.3303
 1859SOL     OW17038   0.355   1.149   5.309  0.7247 -0.0788 -0.1783
 1859SOL    HW117039   0.381   1.058   5.327  0.8675 -0.0575 -0.2815
 1859SOL    HW217040   0.311   1.183   5.387 -0.0427  2.7346 -1.8491
 1860SOL     OW17041   0.051   1.111  13.960 -0.5140  0.1227 -0.0142
 1860SOL    HW117042   0.113   1.100  13.888 -0.3318 -0.2308  0.1923
 1860SOL    HW217043   0.083   1.191  14.001 -0.6900 -0.5093  1.3927
 1861SOL     OW17044   2.235   0.858   2.611  0.1335 -0.4433  0.1703
 1861SOL    HW117045   2.174   0.786   2.629 -0.9162  0.7572  1.4691
 1861SOL    HW217046   2.240   0.870   2.516  0.1227  1.8338  0.4373
 1862SOL     OW17047   4.604   1.089   6.704 -0.1673  0.0481 -0.8323
 1862SOL    HW117048   4.565   1.089   6.792 -2.0362  2.1032 -1.6685
 1862SOL    HW217049   4.697   1.108   6.719 -0.7227  2.5565 -0.4939
 1863SOL     OW17050   4.396   3.733   7.652 -0.3160 -0.1040  0.2688
 1863SOL    HW117051   4.307   3.764   7.667 -1.3763 -2.2391 -1.6250
 1863SOL    HW217052   4.382   3.639   7.666 -2.5432  0.2413  0.2085
 1864SOL     OW17053   1.998   3.915   7.638  0.2235  0.0379 -0.0273
 1864SOL    HW117054   1.935   3.919   7.710  1.0460 -1.3846  0.7649
 1864SOL    HW217055   1.992   4.006   7.609 -2.5898 -0.7511 -1.9767
 1865SOL     OW17056   2.789   3.845   0.701  0.6210 -0.6648 -0.0176
 1865SOL    HW117057   2.700   3.813   0.715 -0.4218  2.3636  0.3998
 1865SOL    HW217058   2.836   3.784   0.757  0.1043  0.9697  2.2134
 1866SOL     OW17059   1.660   2.114  17.124  0.1470  0.3054 -0.3044
 1866SOL    HW117060   1.725   2.180  17.103  0.6517 -0.2762 -0.5610
 1866SOL    HW217061   1.647   2.084  17.034 -0.9434 -0.0472 -0.0345
 1867SOL     OW17062   3.097   2.490   1.501  0.6040  0.1664  0.4309
 1867SOL    HW117063   3.076   2.583   1.499  3.0165  0.6654 -1.8889
 1867SOL    HW217064   3.036   2.467   1.572  1.1385 -1.5637  0.3313
 1868SOL     OW17065   4.609   0.583   3.078 -0.1794  0.5668 -0.0635
 1868SOL    HW117066   4.679   0.518   3.067 -0.0347  0.7339 -0.1242
 1868SOL    HW217067   4.593   0.569   3.171 -0.8360 -0.8575 -0.3911
 1869SOL     OW17068   2.422   0.868  11.301 -0.5711 -0.2763  0.5103
 1869SOL    HW117069   2.465   0.921  11.234  0.6036 -3.2263 -1.0637
 1869SOL    HW217070   2.357   0.829  11.243 -1.7819 -0.6730  2.1332
 1870SOL     OW17071   4.485   3.945   6.527  0.2611  0.1072  0.0112
 1870SOL    HW117072   4.428   3.870   6.511 -0.1204 -0.0106  1.9249
 1870SOL    HW217073   4.571   3.904   6.526  0.5759  0.8178 -1.9086
 1871SOL     OW17074   1.949   2.867   8.348 -0.1277  0.1935  0.4769
 1871SOL    HW117075   1.977   2.940   8.294  0.0263  0.3386  0.7506
 1871SOL    HW217076   1.958   2.800   8.281 -3.5824  2.5024 -2.2560
 1872SOL     OW17077   2.455   3.128   9.323 -0.0824  0.2908 -0.2732
 1872SOL    HW117078   2.368   3.088   9.323  0.1190 -0.1699 -2.0173
 1872SOL    HW217079   2.500   3.068   9.264  2.5742  2.1864 -0.1703
 1873SOL     OW17080   4.665   2.820   0.574 -0.5455 -0.2905  0.8526
 1873SOL    HW117081   4.666   2.726   0.556  1.5415 -0.3656  1.3344
 1873SOL    HW217082   4.580   2.851   0.544  0.9147  1.7860 -1.1425
 1874SOL     OW17083   3.951   0.069  16.680  0.1162 -0.1333 -0.4015
 1874SOL    HW117084   4.018   0.007  16.710  0.6090 -1.4891 -4.2779
 1874SOL    HW217085   3.876   0.017  16.709 -0.5865  0.3221 -1.4200
 1875SOL     OW17086   2.742   1.289   7.880  0.6126  0.1648 -0.3058
 1875SOL    HW117087   2.792   1.288   7.962  1.0349 -3.3529 -0.5908
 1875SOL    HW217088   2.706   1.377   7.870 -1.2875 -0.3822  1.7372
 1876SOL     OW17089   0.112   0.284   3.274  0.0767 -0.1101  0.7029
 1876SOL    HW117090   0.094   0.350   3.342 -3.6915 -0.2439 -0.1398
 1876SOL    HW217091   0.103   0.204   3.325  0.4370 -1.2076 -0.9644
 1877SOL     OW17092   1.923   2.878  14.886 -0.2408 -0.1653 -0.3045
 1877SOL    HW117093   1.936   2.807  14.949  1.0476  0.7479  0.4600
 1877SOL    HW217094   1.985   2.949  14.904  1.1499 -0.9774 -1.8453
 1878SOL     OW17095   3.213   4.196   1.412 -0.1536 -0.0712  0.2929
 1878SOL    HW117096   3.141   4.183   1.350 -0.1910  1.5571 -0.0183
 1878SOL    HW217097   3.248   4.272   1.365 -0.5108  1.0197  1.8057
 1879SOL     OW17098   1.649   4.253   9.167  0.4506  0.2105  0.2252
 1879SOL    HW117099   1.628   4.346   9.179  1.0603  0.3942 -0.1225
 1879SOL    HW217100   1.601   4.212   9.239  0.7380 -1.4066 -0.5072
 1880SOL     OW17101   3.826   4.053   7.188  1.0583  0.1876  0.7163
 1880SOL    HW117102   3.805   4.007   7.107  0.1392 -0.0082  1.0624
 1880SOL    HW217103   3.741   4.058   7.232  0.4519  2.0298 -0.6050
 1881SOL     OW17104   1.607   2.658   1.755 -0.0872 -0.5637 -0.2161
 1881SOL    HW117105   1.591   2.564   1.750 -0.7008 -0.5467  1.4907
 1881SOL    HW217106   1.700   2.666   1.733 -0.3505  2.3778 -0.3042
 1882SOL     OW17107   4.175   3.803  11.244 -0.5661  0.7822  0.2212
 1882SOL    HW117108   4.126   3.800  11.162 -0.4271  2.1833  0.0872
 1882SOL    HW217109   4.229   3.881  11.236 -1.4943  1.3573 -0.3928
 1883SOL     OW17110   2.020   1.847  14.420 -0.2467  0.4483  0.0148
 1883SOL    HW117111   2.016   1.755  14.392 -0.3800  0.4466  0.0421
 1883SOL    HW217112   2.114   1.858  14.435  0.0136  0.8307 -1.9173
 1884SOL     OW17113   3.518   1.611   2.868 -0.9454 -0.3908 -0.1194
 1884SOL    HW117114   3.525   1.515   2.861 -2.9092 -0.5671  0.2790
 1884SOL    HW217115   3.514   1.618   2.963 -2.5620 -0.4901 -0.1869
 1885SOL     OW17116   4.025   2.708   4.668  0.0355 -0.0606 -0.4929
 1885SOL    HW117117   4.064   2.622   4.682  1.5265  0.6405 -0.2745
 1885SOL    HW217118   3.960   2.723   4.736  1.2515  0.1984  0.6115
 1886SOL     OW17119   2.283   3.976   2.149  0.1372 -0.5265 -0.0758
 1886SOL    HW117120   2.266   3.930   2.067 -1.0364  1.3606 -0.8738
 1886SOL    HW217121   2.377   3.986   2.169  0.6240 -2.5879 -1.3535
 1887SOL     OW17122   1.755   0.374  16.118 -0.6159  0.4489  0.2849
 1887SOL    HW117123   1.787   0.415  16.199 -0.2539 -0.4319  0.5885
 1887SOL    HW217124   1.670   0.415  16.103 -1.6636 -1.9539 -0.1948
 1888SOL     OW17125   0.142   4.500  11.737 -0.0153 -0.6515  0.2031
 1888SOL    HW117126   0.156   4.502  11.832 -2.4155  1.4103  0.5109
 1888SOL    HW217127   0.152   4.406  11.726  0.8731 -0.2925 -1.8965
 1889SOL     OW17128   4.703   1.266  12.622 -0.4083  0.1890 -0.0792
 1889SOL    HW117129   4.674   1.357  12.617  2.2710  1.0073 -0.4296
 1889SOL    HW217130   0.046   1.267  12.554  0.2763 -2.3009  0.5485
 1890SOL     OW17131   4.134   2.417   4.983 -0.2097  0.2538 -0.0638
 1890SOL    HW117132   4.172   2.419   5.070  1.4087  1.5612 -0.8067
 1890SOL    HW217133   4.150   2.327   4.954 -0.3053  0.1908  0.0796
 1891SOL     OW17134   2.251   1.398   6.366 -0.0885  0.0276 -0.2302
 1891SOL    HW117135   2.293   1.315   6.344  1.0304  0.4421  0.3666
 1891SOL    HW217136   2.161   1.375   6.341  0.1780  0.8405 -1.9279
 1892SOL     OW17137   1.748   0.661  11.239  0.5103  0.1068  0.4053
 1892SOL    HW117138   1.793   0.598  11.296  2.5484  1.4355  0.2870
 1892SOL    HW217139   1.661   0.657  11.279 -0.6105 -2.5587 -2.2983
 1893SOL     OW17140   3.079   2.455   0.149  0.0870  0.6268  0.1823
 1893SOL    HW117141   3.156   2.510   0.156  0.6707 -0.3669  1.5781
 1893SOL    HW217142   3.118   2.374   0.182  1.4847  0.6079 -1.5499
 1894SOL     OW17143   4.318   2.271   5.759 -0.2191 -0.5995 -0.2289
 1894SOL    HW117144   4.336   2.316   5.676  0.7845 -0.3877  0.1030
 1894SOL    HW217145   4.379   2.197   5.753  1.9765  1.3169 -1.2332
 1895SOL     OW17146   4.248   2.140  15.651  0.3482  0.3161 -0.3276
 1895SOL    HW117147   4.178   2.082  15.619 -0.8350  1.9197 -0.6464
 1895SOL    HW217148   4.328   2.093  15.627  0.4515  1.4814 -2.2933
 1896SOL     OW17149   2.419   2.274   7.045  0.7933 -0.3190 -0.0550
 1896SOL    HW117150   2.417   2.248   7.136 -1.1862 -1.5769 -0.4607
 1896SOL    HW217151   2.509   2.301   7.027 -0.1830  2.4510 -0.8804
 1897SOL     OW17152   4.453   1.383  11.773 -0.0504 -0.0761 -0.6969
 1897SOL    HW117153   4.459   1.469  11.813  1.5912 -1.7545  2.6774
 1897SOL    HW217154   4.362   1.392  11.745  0.2220  0.4911 -1.3933
 1898SOL     OW17155   0.463   0.852   5.275  0.0647 -0.2068 -0.0388
 1898SOL    HW117156   0.558   0.854   5.285 -0.1615  0.6894  1.9308
 1898SOL    HW217157   0.462   0.850   5.180 -1.9496 -0.8466 -0.0001
 1899SOL     OW17158   3.281   2.147   5.920 -0.0995 -0.1449 -0.1565
 1899SOL    HW117159   3.342   2.099   5.864 -0.2233 -1.5831  0.9460
 1899SOL    HW217160   3.300   2.128   6.011 -0.9449 -0.1049  0.0274
 1900SOL     OW17161   2.638   4.040  16.621 -0.6180 -0.2304  0.1150
 1900SOL    HW117162   2.730   4.066  16.620 -1.3704  2.4503  1.6686
 1900SOL    HW217163   2.608   4.067  16.707 -2.6265  1.0234 -0.9726
 1901SOL     OW17164   3.383   2.069   1.208  0.5157  0.0278  0.5926
 1901SOL    HW117165   3.318   2.014   1.165  1.2563 -2.2216  2.3199
 1901SOL    HW217166   3.343   2.099   1.289 -0.1736 -1.3513  0.7761
 1902SOL     OW17167   1.341   0.163   6.857 -0.0311 -0.0889 -0.1226
 1902SOL    HW117168   1.359   0.107   6.933  1.5499  0.6820  0.0614
 1902SOL    HW217169   1.290   0.229   6.904 -1.6832 -1.1731 -0.4030
 1903SOL     OW17170   4.241   2.105   4.237  0.0468  0.1542  0.0551
 1903SOL    HW117171   4.201   2.177   4.188 -0.4460 -0.0590  0.1451
 1903SOL    HW217172   4.331   2.129   4.216  0.0559  1.9150  2.0387
 1904SOL     OW17173   2.462   3.995   6.531  0.0209 -0.3013 -0.2728
 1904SOL    HW117174   2.469   3.939   6.454  2.3562  1.5779 -1.4059
 1904SOL    HW217175   2.516   4.071   6.511 -0.8765  0.2194 -0.7126
 1905SOL     OW17176   2.033   2.322  17.231 -0.5107  0.6948  0.5475
 1905SOL    HW117177   2.040   2.400  17.286  0.4391  0.3268  0.9524
 1905SOL    HW217178   2.120   2.308  17.192 -1.1253 -1.1454 -0.1624
 1906SOL     OW17179   2.362   2.986   7.867 -0.1573  0.5739 -1.0648
 1906SOL    HW117180   2.352   3.077   7.897  0.7966  0.7669 -1.3155
 1906SOL    HW217181   2.276   2.953   7.843 -0.4572 -0.1094  1.0404
 1907SOL     OW17182   2.447   3.373   8.350  0.5034 -0.1904  0.3446
 1907SOL    HW117183   2.368   3.395   8.300  1.5064 -0.5292 -1.4187
 1907SOL    HW217184   2.516   3.433   8.321  0.0920  0.2373  0.2468
 1908SOL     OW17185   1.014   0.812   7.416  0.3800 -0.1630 -0.3673
 1908SOL    HW117186   1.016   0.824   7.511 -0.7282 -2.0568 -0.1034
 1908SOL    HW217187   1.102   0.842   7.392  1.5365 -2.4075  1.0136
 1909SOL     OW17188   0.455   0.929   0.913 -0.1146  0.3407  0.3140
 1909SOL    HW117189   0.442   1.010   0.863 -1.5600 -0.6887 -0.9698
 1909SOL    HW217190   0.549   0.925   0.894 -0.5357  2.9805 -2.4543
 1910SOL     OW17191   0.804   3.107   3.208 -0.4347 -0.5538  0.2618
 1910SOL    HW117192   0.720   3.064   3.189  0.8460 -2.8763 -0.1058
 1910SOL    HW217193   0.813   3.155   3.126  0.9049 -0.2470  0.5913
 1911SOL     OW17194   1.615   4.308  13.588  0.2894 -0.1385  0.6217
 1911SOL    HW117195   1.565   4.233  13.556  1.3774 -0.4629 -0.3159
 1911SOL    HW217196   1.560   4.349  13.655  0.8662  1.4022  0.1448
 1912SOL     OW17197   3.733   1.628  16.696  0.3865 -0.1361  0.3828
 1912SOL    HW117198   3.794   1.557  16.676  0.4765 -0.1089  0.5613
 1912SOL    HW217199   3.755   1.637  16.788  1.6981  0.4844  0.0143
 1913SOL     OW17200   0.216   3.479   9.993 -0.0301  0.1322 -0.0496
 1913SOL    HW117201   0.248   3.538  10.061  1.0978 -1.0401  0.4343
 1913SOL    HW217202   0.171   3.543   9.938  1.1676  1.3904  0.4342
 1914SOL     OW17203   1.363   3.816   5.943  0.4267 -0.1714 -0.3353
 1914SOL    HW117204   1.436   3.820   5.881  1.7661  0.3277  1.2459
 1914SOL    HW217205   1.405   3.778   6.021  2.4019  0.5794 -1.0294
 1915SOL     OW17206   3.945   3.555   3.829  0.6881  0.3348 -0.0628
 1915SOL    HW117207   3.995   3.596   3.900  0.3087  1.7204 -0.6084
 1915SOL    HW217208   3.874   3.515   3.879  0.3386  0.8308 -0.1683
 1916SOL     OW17209   4.453   4.164  10.155  0.2679 -0.4108  0.2511
 1916SOL    HW117210   4.523   4.139  10.215 -0.4982 -1.5574  0.6700
 1916SOL    HW217211   4.488   4.239  10.106  1.4014 -1.3736 -0.4170
 1917SOL     OW17212   2.266   4.088   0.514 -0.2800  0.1940  0.3593
 1917SOL    HW117213   2.218   4.149   0.570 -0.2990 -0.8273  1.4599
 1917SOL    HW217214   2.352   4.070   0.551 -0.1247  0.8168  0.2990
 1918SOL     OW17215   0.959   1.924   2.461 -0.1525  0.4129 -0.7755
 1918SOL    HW117216   1.032   1.884   2.413  0.5054  1.1153 -0.3518
 1918SOL    HW217217   0.906   1.854   2.499 -0.1310  0.2123 -1.1187
 1919SOL     OW17218   0.336   2.357   3.828 -0.2998 -0.2885 -0.2235
 1919SOL    HW117219   0.295   2.386   3.909 -3.7084  0.0527 -2.0861
 1919SOL    HW217220   0.266   2.369   3.764 -0.7563  1.3263  0.5747
 1920SOL     OW17221   3.254   4.590   4.185  0.0204 -0.1650 -0.2076
 1920SOL    HW117222   3.194   4.535   4.134 -0.0332  0.2168 -0.5619
 1920SOL    HW217223   3.198   4.603   4.262  2.0830 -0.0804  1.2556
 1921SOL     OW17224   2.094   1.240   1.693  0.5704 -0.5753  0.5471
 1921SOL    HW117225   2.011   1.247   1.740  0.4134 -3.2006  0.6791
 1921SOL    HW217226   2.144   1.178   1.747 -1.6844 -2.4433  0.5256
 1922SOL     OW17227   1.467   4.700   4.589 -0.4237 -0.4998 -0.5011
 1922SOL    HW117228   1.394   0.031   4.617 -2.0905 -2.0419 -1.7712
 1922SOL    HW217229   1.522   0.035   4.538 -0.6228  0.1464  0.0565
 1923SOL     OW17230   4.070   1.356   3.465 -0.4289  0.5167  0.0486
 1923SOL    HW117231   4.138   1.350   3.398 -1.8972 -1.7410 -1.2406
 1923SOL    HW217232   4.059   1.446   3.497 -2.8484  0.5123 -0.7664
 1924SOL     OW17233   2.110   2.872   7.800 -0.2392 -0.1742  0.6503
 1924SOL    HW117234   2.046   2.884   7.731  1.2448  0.8853 -0.5486
 1924SOL    HW217235   2.148   2.787   7.778  0.4606  0.6508 -1.3374
 1925SOL     OW17236   2.800   3.819   6.573 -0.1924  0.4465 -0.4484
 1925SOL    HW117237   2.735   3.833   6.642  1.1657  2.1573  0.4915
 1925SOL    HW217238   2.787   3.894   6.515  0.7235  0.3775 -0.7359
 1926SOL     OW17239   1.523   2.254   2.802  0.2417  0.1808  0.3459
 1926SOL    HW117240   1.481   2.314   2.863 -0.4643  2.3301 -2.2319
 1926SOL    HW217241   1.615   2.257   2.827  0.2257 -0.1792  0.4378
 1927SOL     OW17242   3.135   2.664   5.004 -0.3303  0.8199  0.2039
 1927SOL    HW117243   3.106   2.732   4.943 -1.4218 -0.8330 -1.1343
 1927SOL    HW217244   3.162   2.718   5.078  2.1106 -1.5910  1.0732
 1928SOL     OW17245   3.627   3.952   3.982  0.4960  0.7482  0.4450
 1928SOL    HW117246   3.571   3.975   3.908 -0.1697 -1.8286  0.1484
 1928SOL    HW217247   3.566   3.965   4.055 -0.7399 -3.0822  0.0925
 1929SOL     OW17248   3.429   0.579  13.577 -0.4400 -0.2020 -0.8058
 1929SOL    HW117249   3.346   0.531  13.582 -1.3120  1.3292 -0.5219
 1929SOL    HW217250   3.485   0.508  13.547 -1.1724 -0.9464 -0.4061
 1930SOL     OW17251   3.370   0.477   6.156 -0.0005  0.1957 -0.2148
 1930SOL    HW117252   3.428   0.404   6.136 -1.4385 -0.8857 -0.4242
 1930SOL    HW217253   3.358   0.449   6.247  2.3907 -0.4522 -0.1034
 1931SOL     OW17254   4.254   0.123   8.587  0.0472  1.0900  0.5258
 1931SOL    HW117255   4.347   0.138   8.572  0.4202 -1.3223  0.4749
 1931SOL    HW217256   4.256   0.072   8.668 -1.2669 -3.3034 -2.2496
 1932SOL     OW17257   0.629   3.065  12.333 -0.5138 -0.0826 -0.3568
 1932SOL    HW117258   0.717   3.036  12.356 -0.4201  0.5784  0.1239
 1932SOL    HW217259   0.651   3.135  12.272  0.3843  2.6243  3.0514
 1933SOL     OW17260   1.026   2.458   2.584  0.3523 -0.0724 -0.4693
 1933SOL    HW117261   0.991   2.427   2.667  0.4781  3.7891  1.0405
 1933SOL    HW217262   0.966   2.416   2.522 -1.1342  4.4597 -2.1218
 1934SOL     OW17263   3.429   2.422   1.861 -0.1429  0.0957  0.7632
 1934SOL    HW117264   3.383   2.355   1.911  1.9176 -2.3285 -0.5527
 1934SOL    HW217265   3.464   2.467   1.938  0.3688  0.0824  0.5419
 1935SOL     OW17266   2.255   3.246  10.964 -0.1352  1.0002  0.3235
 1935SOL    HW117267   2.280   3.154  10.973 -0.6077  0.8281 -0.1376
 1935SOL    HW217268   2.176   3.248  10.910 -0.6950  1.8935  1.1587
 1936SOL     OW17269   1.029   0.659   0.723 -0.1588 -0.0034 -0.1015
 1936SOL    HW117270   0.954   0.629   0.774  1.7921 -2.8277  1.1384
 1936SOL    HW217271   1.088   0.692   0.791  0.8726 -0.0101 -0.9830
 1937SOL     OW17272   4.678   3.956   1.811  0.0935  0.3647 -0.1775
 1937SOL    HW117273   4.627   4.023   1.764  1.2107  1.9816  0.9244
 1937SOL    HW217274   4.621   3.939   1.885  0.4542 -0.1423 -0.0196
 1938SOL     OW17275   3.894   1.984   7.119 -0.1075  0.1991 -0.5783
 1938SOL    HW117276   3.873   1.906   7.171  0.8387  0.5173  0.2786
 1938SOL    HW217277   3.872   1.948   7.033 -1.2005  0.9280 -0.6076
 1939SOL     OW17278   1.304   1.767  11.054  0.4566  0.3335  0.0833
 1939SOL    HW117279   1.208   1.762  11.051  0.4946 -1.0656  0.9797
 1939SOL    HW217280   1.320   1.675  11.033 -1.1772  0.4517 -1.6512
 1940SOL     OW17281   4.364   3.745   2.618  0.4376 -0.2187  0.2517
 1940SOL    HW117282   4.323   3.774   2.699 -1.0339  2.1106 -1.3156
 1940SOL    HW217283   4.379   3.653   2.641  1.1270 -0.4266 -0.9797
 1941SOL     OW17284   3.925   2.015   0.612 -0.8163  0.3531  0.2526
 1941SOL    HW117285   3.923   2.043   0.703 -0.0928  0.9971  0.0681
 1941SOL    HW217286   3.925   1.920   0.624 -1.1554  0.1267 -1.4587
 1942SOL     OW17287   2.629   0.130   3.649  0.4579 -0.0183  0.5827
 1942SOL    HW117288   2.589   0.073   3.584 -0.2420  2.9235 -1.5159
 1942SOL    HW217289   2.698   0.173   3.599 -0.9998  1.7827  0.1636
 1943SOL     OW17290   0.587   0.441   9.533 -0.2907  0.1233  0.0752
 1943SOL    HW117291   0.567   0.359   9.577 -0.1611 -0.6559 -1.2970
 1943SOL    HW217292   0.594   0.500   9.607  3.4967 -1.2827  0.8127
 1944SOL     OW17293   1.733   3.193   0.350  0.1306  0.5046 -0.4697
 1944SOL    HW117294   1.748   3.132   0.277 -0.0379 -1.3629  1.0489
 1944SOL    HW217295   1.720   3.124   0.416  0.4693 -1.3730 -2.3495
 1945SOL     OW17296   3.869   0.394   5.579  0.0272  0.5619 -0.3920
 1945SOL    HW117297   3.908   0.312   5.611  0.3771  1.3171  1.0906
 1945SOL    HW217298   3.948   0.432   5.540  1.7577 -1.6537  0.9864
 1946SOL     OW17299   4.218   1.892   3.515  0.5908  0.5112  0.3422
 1946SOL    HW117300   4.297   1.846   3.542  0.1288 -1.1384 -1.1468
 1946SOL    HW217301   4.154   1.823   3.500 -0.5945  1.5409  0.6801
 1947SOL     OW17302   1.665   3.797   2.845 -0.0799  0.5685 -0.6689
 1947SOL    HW117303   1.684   3.857   2.918 -1.6951  0.0020  0.2183
 1947SOL    HW217304   1.593   3.849   2.809 -2.2003 -1.8483  0.0970
 1948SOL     OW17305   4.376   1.830   0.080 -0.0218  0.3014 -0.0473
 1948SOL    HW117306   4.311   1.881   0.129  1.1849  2.0687 -0.2768
 1948SOL    HW217307   4.314   1.772   0.036 -1.5790  2.2706 -0.4377
 1949SOL     OW17308   2.524   1.642   7.225 -0.0430  0.0285  0.9358
 1949SOL    HW117309   2.502   1.688   7.144 -1.4288 -2.5024 -0.1156
 1949SOL    HW217310   2.491   1.709   7.285 -1.8049 -0.1516  0.1661
 1950SOL     OW17311   4.444   3.641  12.377  0.9819 -0.2607 -0.1458
 1950SOL    HW117312   4.429   3.619  12.285 -0.8382  0.5049 -0.0327
 1950SOL    HW217313   4.379   3.584  12.418 -0.9326  2.1730  0.2527
 1951SOL     OW17314   3.604   4.470  16.094 -0.0915 -0.4189 -0.2542
 1951SOL    HW117315   3.516   4.435  16.105 -0.1871 -0.4776 -1.2403
 1951SOL    HW217316   3.638   4.472  16.184  0.5947  0.9515 -0.5537
 1952SOL     OW17317   0.473   1.698   6.319 -0.1868  0.2234  0.4344
 1952SOL    HW117318   0.386   1.679   6.284  0.1198 -2.8778  1.3626
 1952SOL    HW217319   0.479   1.618   6.371  0.9805  1.3325  2.0170
 1953SOL     OW17320   4.143   4.096   6.953  0.1867  1.0728 -0.5994
 1953SOL    HW117321   4.199   4.163   6.914  0.7760  0.1762 -1.2844
 1953SOL    HW217322   4.183   4.086   7.039 -0.3683  1.0169 -0.3472
 1954SOL     OW17323   2.327   2.230  13.739 -0.1958 -0.1370  0.5820
 1954SOL    HW117324   2.394   2.282  13.694 -0.2353 -0.0963  0.5707
 1954SOL    HW217325   2.376   2.148  13.744  0.4244  0.0949 -1.8394
 1955SOL     OW17326   2.059   2.621   7.477 -0.1154  0.0335 -0.2620
 1955SOL    HW117327   2.001   2.694   7.501 -0.2622 -0.0618 -0.3256
 1955SOL    HW217328   2.117   2.652   7.407 -2.1113  2.4895 -0.8147
 1956SOL     OW17329   3.874   1.145  16.865 -0.3502  0.1989 -0.6095
 1956SOL    HW117330   3.845   1.085  16.796  0.3606  0.9255 -1.5494
 1956SOL    HW217331   3.805   1.211  16.875 -0.8489 -0.4369  0.0879
 1957SOL     OW17332   2.525   1.063   8.305 -0.1567  0.2278  0.5318
 1957SOL    HW117333   2.512   1.155   8.327  1.2914  0.6375 -0.3298
 1957SOL    HW217334   2.538   1.080   8.212 -0.0519 -2.1030  0.1286
 1958SOL     OW17335   3.843   1.551   3.221  0.4999  0.1339  0.2862
 1958SOL    HW117336   3.791   1.551   3.301 -1.4494 -0.7922 -0.9825
 1958SOL    HW217337   3.898   1.628   3.234  0.2541  0.9127 -3.0574
 1959SOL     OW17338   4.363   3.457   9.571 -0.2112 -0.9371  0.2783
 1959SOL    HW117339   4.369   3.375   9.523  0.5104  0.8206 -2.6137
 1959SOL    HW217340   4.275   3.482   9.543 -0.0244  0.9898  1.3897
 1960SOL     OW17341   1.298   2.095   6.292  0.0450 -0.1219  0.2605
 1960SOL    HW117342   1.327   2.115   6.204 -0.9684 -1.1072 -0.3039
 1960SOL    HW217343   1.374   2.059   6.338 -0.4724  0.2853  1.4421
 1961SOL     OW17344   1.418   3.048   6.069  0.1262  0.2663  0.2646
 1961SOL    HW117345   1.466   3.025   5.989  1.1897  0.1863  0.9350
 1961SOL    HW217346   1.418   3.144   6.068  0.3718  0.2723  2.7215
 1962SOL     OW17347   4.348   1.874   5.383 -0.2263 -0.4940 -0.1230
 1962SOL    HW117348   4.346   1.955   5.434 -1.4748  0.2708 -1.3883
 1962SOL    HW217349   4.301   1.822   5.449 -0.1783 -0.3826 -0.0005
 1963SOL     OW17350   3.426   2.589  16.955  0.2254  0.2898 -0.6273
 1963SOL    HW117351   3.507   2.586  16.905 -0.2403 -0.4315 -1.3262
 1963SOL    HW217352   3.449   2.527  17.024  1.1326  1.8961  0.5085
 1964SOL     OW17353   0.507   2.348   7.250 -0.1206 -0.2164 -0.0413
 1964SOL    HW117354   0.578   2.382   7.196 -0.9012  0.3183 -0.7231
 1964SOL    HW217355   0.562   2.347   7.329  1.0804 -2.4805 -0.9069
 1965SOL     OW17356   2.858   3.699   4.608  0.0175 -0.0353  0.0265
 1965SOL    HW117357   2.868   3.732   4.519  1.0772 -0.9005 -0.1755
 1965SOL    HW217358   2.949   3.710   4.635  0.9896  0.5399 -3.4915
 1966SOL     OW17359   1.269   1.681  16.574  0.1605 -0.0874 -0.4311
 1966SOL    HW117360   1.291   1.592  16.547  1.0391  0.3980 -1.3478
 1966SOL    HW217361   1.311   1.735  16.506  1.8998  0.3161  0.9439
 1967SOL     OW17362   1.855   0.419  12.290  0.1436  0.3122 -0.2751
 1967SOL    HW117363   1.839   0.496  12.345 -3.0153 -0.6277  0.0958
 1967SOL    HW217364   1.918   0.374  12.346  0.0374  1.2210  0.5845
 1968SOL     OW17365   4.121   2.381   1.155 -0.3117 -0.4375  0.0546
 1968SOL    HW117366   4.028   2.388   1.176 -0.6136  0.0895 -1.4389
 1968SOL    HW217367   4.150   2.472   1.169 -1.3329 -0.4706  2.3910
 1969SOL     OW17368   4.263   3.556  13.035  0.4985  0.3001  0.2606
 1969SOL    HW117369   4.339   3.596  12.992  0.9463 -0.9814 -0.1469
 1969SOL    HW217370   4.190   3.586  12.981 -0.0895 -1.4604  0.0846
 1970SOL     OW17371   1.727   1.063   1.872 -0.5050 -0.2432 -0.1347
 1970SOL    HW117372   1.685   1.121   1.936 -1.6195 -0.1408 -0.9649
 1970SOL    HW217373   1.769   1.124   1.811 -1.1913 -0.8195 -1.1818
 1971SOL     OW17374   1.573   4.022   7.971 -0.2371  0.4997 -0.0305
 1971SOL    HW117375   1.567   4.001   8.064  0.9296  0.6135  0.0652
 1971SOL    HW217376   1.478   4.029   7.956  0.1614  3.8094 -0.9612
 1972SOL     OW17377   1.272   0.013  14.578  0.1029 -0.2448 -0.2310
 1972SOL    HW117378   1.212   4.720  14.651 -0.9543 -1.5180 -1.4062
 1972SOL    HW217379   1.295   4.647  14.554  1.2058 -0.3012  1.0382
 1973SOL     OW17380   0.271   4.633   7.959  0.4856  0.6604 -0.0821
 1973SOL    HW117381   0.315   4.548   7.961 -1.0959 -0.1533  0.3119
 1973SOL    HW217382   0.202   4.618   8.024  2.5408  0.5130  2.0298
 1974SOL     OW17383   3.469   4.531  16.753 -0.1805  0.7283 -0.3531
 1974SOL    HW117384   3.550   4.575  16.780 -0.2216 -0.2117  1.3047
 1974SOL    HW217385   3.502   4.477  16.681  2.5196  2.1614 -0.1876
 1975SOL     OW17386   0.083   1.648   3.769 -0.5751 -0.1911  0.2309
 1975SOL    HW117387   0.027   1.688   3.836 -0.4624 -0.8052  0.6907
 1975SOL    HW217388   0.170   1.682   3.790 -0.7445  2.0389 -2.7648
 1976SOL     OW17389   3.350   3.534  14.612 -0.4684  0.1143 -0.5366
 1976SOL    HW117390   3.340   3.449  14.654 -0.9284  0.3361 -0.1898
 1976SOL    HW217391   3.292   3.596  14.657 -1.3426 -2.0089  1.2095
 1977SOL     OW17392   4.482   4.082  14.662 -0.2176 -0.1476  0.2196
 1977SOL    HW117393   4.530   4.066  14.744 -2.8298 -0.1969  1.7247
 1977SOL    HW217394   4.390   4.092  14.686 -0.2665  1.4829 -0.6774
 1978SOL     OW17395   2.459   1.854   9.119  0.4022 -0.6354  0.3766
 1978SOL    HW117396   2.379   1.814   9.086  0.3500  0.3604 -0.7304
 1978SOL    HW217397   2.528   1.840   9.054  0.4229  0.5193  0.1458
 1979SOL     OW17398   4.210   2.165   8.178 -0.3746 -0.5769  1.0042
 1979SOL    HW117399   4.289   2.189   8.226  0.4772 -2.5577  0.5888
 1979SOL    HW217400   4.248   2.092   8.129 -0.1209 -0.0273  0.3813
 1980SOL     OW17401   3.473   0.370  13.321 -0.3898 -0.4057 -0.2701
 1980SOL    HW117402   3.521   0.450  13.299  1.1018 -0.9830  0.9343
 1980SOL    HW217403   3.501   0.352  13.410 -2.3491 -0.9590  0.2317
 1981SOL     OW17404   0.665   3.301   5.709  0.7235 -0.1047 -0.0655
 1981SOL    HW117405   0.759   3.312   5.699  0.5792  0.4388 -0.8095
 1981SOL    HW217406   0.661   3.283   5.803  0.8070 -1.8769 -0.4006
 1982SOL     OW17407   4.152   1.008  11.022  0.0756  0.2144  0.8326
 1982SOL    HW117408   4.165   1.029  11.115  0.8964  1.6228  0.3941
 1982SOL    HW217409   4.123   1.085  10.974 -0.5478 -0.9086 -0.5917
 1983SOL     OW17410   4.528   4.620   4.979  0.3804 -0.2100 -0.2523
 1983SOL    HW117411   4.569   4.690   4.927  0.2862  1.5226  2.0470
 1983SOL    HW217412   4.601   4.559   4.976  0.3822 -0.1286 -2.2194
 1984SOL     OW17413   2.165   1.601   2.198  0.2194 -0.3647 -0.0599
 1984SOL    HW117414   2.134   1.511   2.190  0.5375 -0.2903 -2.0306
 1984SOL    HW217415   2.113   1.649   2.133  1.0075 -0.1875 -0.5564
 1985SOL     OW17416   1.867   2.738   2.699  0.0227 -0.2379 -0.1437
 1985SOL    HW117417   1.848   2.697   2.614 -0.4257 -1.1710  0.4028
 1985SOL    HW217418   1.877   2.665   2.760 -0.7330 -0.6151 -0.4694
 1986SOL     OW17419   3.268   1.278  14.679  0.1585  0.0858 -0.2275
 1986SOL    HW117420   3.292   1.362  14.639 -2.2696 -0.0443 -1.9999
 1986SOL    HW217421   3.296   1.301  14.767  2.3367 -0.6368 -0.7106
 1987SOL     OW17422   4.650   0.798   7.855  0.0600  0.2656  0.0892
 1987SOL    HW117423   4.587   0.869   7.836 -0.7618 -0.4529  0.1092
 1987SOL    HW217424   4.622   0.731   7.793  0.9713  0.0580 -0.0910
 1988SOL     OW17425   3.230   1.468   3.312  0.4416 -0.2512  0.2606
 1988SOL    HW117426   3.258   1.434   3.397  0.8585 -0.0796  0.1876
 1988SOL    HW217427   3.311   1.505   3.279 -0.4159  2.1424  0.8304
 1989SOL     OW17428   0.884   3.517  16.197 -0.7064  0.0669  0.6761
 1989SOL    HW117429   0.961   3.484  16.243 -1.1943  0.5992  1.8682
 1989SOL    HW217430   0.912   3.558  16.115 -0.4586 -2.9975 -0.8111
 1990SOL     OW17431   1.470   2.911   3.150  0.3309 -0.3753 -0.1633
 1990SOL    HW117432   1.481   2.963   3.070  1.0722  3.7301  2.6325
 1990SOL    HW217433   1.552   2.861   3.155  0.4486 -0.3075 -1.3506
 1991SOL     OW17434   0.972   0.646  14.273 -0.7045  0.1659 -0.0820
 1991SOL    HW117435   0.926   0.590  14.336 -1.3340 -0.2223 -0.8970
 1991SOL    HW217436   1.040   0.692  14.323 -1.8154  0.5600  1.0692
 1992SOL     OW17437   4.719   2.851   2.997  0.0721 -0.4098 -0.2129
 1992SOL    HW117438   0.040   2.934   3.010 -1.7309  0.4182  0.7314
 1992SOL    HW217439   0.068   2.801   2.960  0.7363  0.5145 -0.1438
 1993SOL     OW17440   0.113   1.807  16.261 -0.3490 -0.0290  0.1688
 1993SOL    HW117441   0.078   1.796  16.173 -0.6595 -2.1184  0.5616
 1993SOL    HW217442   0.198   1.848  16.243 -0.1484 -0.6482 -0.2989
 1994SOL     OW17443   3.118   0.797  14.260 -0.0235 -0.3128 -0.1104
 1994SOL    HW117444   3.083   0.867  14.315  4.3194  0.7638  1.3260
 1994SOL    HW217445   3.165   0.856  14.200  1.1236  1.8430  2.9014
 1995SOL     OW17446   0.105   3.331   9.016  0.0819 -0.3526  0.0237
 1995SOL    HW117447   0.091   3.360   9.106 -1.1099 -0.2074 -0.2087
 1995SOL    HW217448   0.193   3.365   9.003 -0.2455  0.9113  1.1534
 1996SOL     OW17449   4.044   4.021   4.371 -0.1509  0.5018 -0.0681
 1996SOL    HW117450   4.058   3.939   4.323 -0.2781  0.4985 -0.0994
 1996SOL    HW217451   3.958   4.037   4.333 -0.5844 -0.2333  0.6048
 1997SOL     OW17452   3.402   2.333  12.880  0.2119  0.1190  0.0165
 1997SOL    HW117453   3.379   2.267  12.815  1.1827 -2.3448  2.2083
 1997SOL    HW217454   3.485   2.300  12.913 -0.3200  0.9243  2.1713
 1998SOL     OW17455   0.872   3.239   0.582 -0.1475  0.5072  0.3052
 1998SOL    HW117456   0.934   3.222   0.511  1.1770 -0.5170  1.7383
 1998SOL    HW217457   0.824   3.156   0.583  1.6731 -0.5190  1.2922
 1999SOL     OW17458   2.762   2.815   4.242 -0.5721 -0.3738  0.0815
 1999SOL    HW117459   2.696   2.883   4.225 -0.0918  0.0712  0.0139
 1999SOL    HW217460   2.705   2.739   4.256 -1.1069  0.0873  0.4088
 2000SOL     OW17461   1.808   1.822   2.552  0.1297 -0.2275 -0.3598
 2000SOL    HW117462   1.780   1.730   2.553  2.2216 -0.9045 -1.5159
 2000SOL    HW217463   1.803   1.852   2.642  0.5047  0.4508 -0.5663
 2001SOL     OW17464   1.419   1.957   4.215 -0.1592 -0.1204  0.0779
 2001SOL    HW117465   1.469   1.927   4.291  1.3189 -1.4920 -1.4351
 2001SOL    HW217466   1.425   2.051   4.233  0.6799 -0.0570 -0.5302
 2002SOL     OW17467   4.392   4.586   6.806 -0.2821  0.4016  0.2318
 2002SOL    HW117468   4.351   4.659   6.759 -0.8675 -0.7676 -1.1043
 2002SOL    HW217469   4.390   4.519   6.737  0.2511 -1.0662  1.6493
 2003SOL     OW17470   1.977   0.817  10.901  0.0039 -0.4346 -0.2388
 2003SOL    HW117471   1.976   0.744  10.840  0.9494  0.5421 -1.4313
 2003SOL    HW217472   1.883   0.813  10.913  0.5667 -1.8703  3.5999
 2004SOL     OW17473   1.358   3.827   3.597 -0.2175  0.2718  0.2139
 2004SOL    HW117474   1.281   3.874   3.629 -0.3345 -1.1802  2.0212
 2004SOL    HW217475   1.355   3.849   3.504 -1.3128 -0.6901  0.0191
 2005SOL     OW17476   0.813   0.002   0.359 -0.2085 -0.1870  1.0210
 2005SOL    HW117477   0.852   4.642   0.383 -2.6477 -1.9302 -1.1529
 2005SOL    HW217478   0.863   0.057   0.419  1.3710 -1.2326  0.6682
 2006SOL     OW17479   0.493   4.651   3.306 -0.5615  0.2090  0.5270
 2006SOL    HW117480   0.407   4.611   3.294 -0.3613 -0.0180 -0.1443
 2006SOL    HW217481   0.458   0.011   3.338  0.2284  1.3663 -1.7071
 2007SOL     OW17482   0.515   1.825   7.910 -0.2334 -0.6362  0.0384
 2007SOL    HW117483   0.485   1.843   7.821 -2.1281  2.1670  1.2538
 2007SOL    HW217484   0.529   1.730   7.908 -1.0114 -0.8020  2.0863
 2008SOL     OW17485   3.937   2.354   7.940 -0.6006 -0.7572  0.0484
 2008SOL    HW117486   3.899   2.267   7.934 -1.0962 -0.4665 -0.9285
 2008SOL    HW217487   3.880   2.408   7.885 -2.0041 -0.7314  1.5140
 2009SOL     OW17488   2.253   4.329  13.184 -0.0316 -0.0368  0.0497
 2009SOL    HW117489   2.166   4.300  13.211 -0.2535 -0.5190 -1.2275
 2009SOL    HW217490   2.282   4.377  13.262  0.0187  0.5118 -0.3070
 2010SOL     OW17491   4.443   0.475   6.432  0.0560  0.4944  0.1092
 2010SOL    HW117492   4.410   0.530   6.362 -0.5507  0.9317  0.7370
 2010SOL    HW217493   4.501   0.418   6.381 -0.7127  1.0059 -1.3263
 2011SOL     OW17494   4.695   0.599   4.695 -0.3060 -0.4209 -0.2675
 2011SOL    HW117495   4.681   0.617   4.788 -0.9875 -1.3338 -0.1869
 2011SOL    HW217496   4.673   0.682   4.652  2.0386  0.7423  0.7839
 2012SOL     OW17497   3.979   3.727   0.100 -0.1084 -0.3774 -0.0586
 2012SOL    HW117498   4.059   3.677   0.081 -0.5548  0.0916 -3.1048
 2012SOL    HW217499   3.984   3.740   0.194 -0.0765  0.0706 -0.1245
 2013SOL     OW17500   3.875   1.705   5.645  0.1210 -0.3439  0.5580
 2013SOL    HW117501   3.823   1.714   5.724 -1.4412  0.3386 -0.5616
 2013SOL    HW217502   3.813   1.669   5.581 -0.9582 -0.9334  1.9561
 2014SOL     OW17503   2.371   2.699  11.483 -0.4628  0.2362 -0.2185
 2014SOL    HW117504   2.302   2.667  11.426 -0.8985 -0.1517  0.5206
 2014SOL    HW217505   2.435   2.629  11.494  0.9587  1.4803 -0.5344
 2015SOL     OW17506   3.013   1.858   5.598 -0.1692  0.2107 -0.2814
 2015SOL    HW117507   2.940   1.831   5.654 -0.4661  1.0481 -0.2648
 2015SOL    HW217508   2.966   1.871   5.515 -0.5775  1.2378  0.1150
 2016SOL     OW17509   1.270   2.440   3.963 -0.5376 -0.4820  0.2681
 2016SOL    HW117510   1.366   2.435   3.954 -0.8698 -1.0881 -3.0979
 2016SOL    HW217511   1.244   2.448   3.871  0.2121  0.6703  0.1684
 2017SOL     OW17512   0.843   1.453  15.057 -0.4880 -0.8392 -0.2250
 2017SOL    HW117513   0.775   1.388  15.069 -0.2042 -1.4471 -1.9273
 2017SOL    HW217514   0.801   1.534  15.086  1.9038  0.0602  0.7771
 2018SOL     OW17515   2.719   0.974   6.600  0.2005  0.2875 -0.2569
 2018SOL    HW117516   2.801   0.989   6.646 -1.9635 -0.4089  3.8858
 2018SOL    HW217517   2.707   0.884   6.630  1.0355  0.2988  0.0865
 2019SOL     OW17518   0.877   3.712   3.790  0.2639  0.3522  0.2883
 2019SOL    HW117519   0.903   3.622   3.807 -1.7367 -0.0898  0.8980
 2019SOL    HW217520   0.924   3.718   3.707  0.7060  5.5738  0.9107
 2020SOL     OW17521   3.310   1.392   5.134  0.1305 -0.3111  0.1783
 2020SOL    HW117522   3.380   1.389   5.069  1.0804 -1.0221  1.2233
 2020SOL    HW217523   3.231   1.379   5.083 -1.2142  0.2555  2.1243
 2021SOL     OW17524   2.255   1.770   5.178  0.2047 -0.5631  0.6991
 2021SOL    HW117525   2.166   1.749   5.206  0.1452  0.3905  1.2164
 2021SOL    HW217526   2.254   1.866   5.176 -2.3354 -0.6553 -1.8211
 2022SOL     OW17527   2.785   2.681   7.874  0.5182  0.1725  0.1944
 2022SOL    HW117528   2.747   2.609   7.925 -1.6034  0.7890 -0.5333
 2022SOL    HW217529   2.770   2.756   7.931  0.6184  0.4732 -0.1817
 2023SOL     OW17530   0.106   4.234   3.212  0.0915  0.2543 -0.2659
 2023SOL    HW117531   0.106   4.320   3.172 -0.9504  0.5553  0.3686
 2023SOL    HW217532   0.048   4.248   3.288 -0.7302  0.6381 -0.9645
 2024SOL     OW17533   3.247   1.361   3.555  0.0631 -0.2612 -0.3496
 2024SOL    HW117534   3.249   1.317   3.640  1.3155  2.2025  0.8971
 2024SOL    HW217535   3.163   1.324   3.529 -1.3297  2.5741  0.0199
 2025SOL     OW17536   4.162   3.610   2.380  0.5835  0.3655  0.2520
 2025SOL    HW117537   4.115   3.627   2.299  1.1096 -1.7944 -0.4966
 2025SOL    HW217538   4.107   3.657   2.443 -0.2938 -0.3713  0.0457
 2026SOL     OW17539   1.526   4.223  17.229 -0.1253 -0.3066 -0.2979
 2026SOL    HW117540   1.553   4.294  17.172 -0.4963  0.0466 -0.0417
 2026SOL    HW217541   1.598   4.162  17.213 -1.6256 -1.8943 -1.0759
 2027SOL     OW17542   4.011   3.418   8.062  0.2267  0.1593 -0.1263
 2027SOL    HW117543   4.068   3.376   8.126 -0.5076  1.2171  1.2450
 2027SOL    HW217544   3.959   3.339   8.044 -2.4487  2.4922 -2.7678
 2028SOL     OW17545   3.274   4.385   4.491  0.3207 -0.5201 -0.1261
 2028SOL    HW117546   3.239   4.423   4.572  1.6854  0.2357  0.1192
 2028SOL    HW217547   3.219   4.431   4.429  0.4014 -1.0656 -0.6054
 2029SOL     OW17548   2.329   1.260   6.700  0.4377 -0.3591  0.4681
 2029SOL    HW117549   2.257   1.287   6.642 -0.3692 -2.0090  0.7067
 2029SOL    HW217550   2.322   1.165   6.691  0.2758 -0.5673  2.7248
 2030SOL     OW17551   2.653   3.459   6.298  0.3397 -0.0893 -0.6087
 2030SOL    HW117552   2.707   3.536   6.314 -1.4065  0.4575  2.6116
 2030SOL    HW217553   2.647   3.424   6.387  3.6984 -0.3583 -0.4887
 2031SOL     OW17554   0.892   4.464   5.633  0.0182 -0.2813 -0.2547
 2031SOL    HW117555   0.891   4.510   5.550  1.2241  0.9169  0.3928
 2031SOL    HW217556   0.810   4.416   5.625 -0.2787  0.0889  0.6108
 2032SOL     OW17557   3.266   1.307   3.837  0.0215 -0.1458 -0.4714
 2032SOL    HW117558   3.213   1.363   3.894 -2.0795  1.4223 -3.9270
 2032SOL    HW217559   3.347   1.297   3.886 -0.8162 -2.6804  0.3375
 2033SOL     OW17560   2.090   4.082   5.884  0.5117 -0.4038 -0.3352
 2033SOL    HW117561   2.055   3.993   5.891 -2.0245  0.5847 -0.3201
 2033SOL    HW217562   2.171   4.065   5.835 -0.1425  0.3239 -1.6787
 2034SOL     OW17563   2.507   4.272   7.242 -0.0037 -0.0920 -0.2693
 2034SOL    HW117564   2.452   4.260   7.165 -1.0355 -1.4577  0.6764
 2034SOL    HW217565   2.519   4.367   7.237  0.9590 -0.1390  1.1613
 2035SOL     OW17566   1.726   1.104   5.712 -0.2823 -0.2069 -0.0317
 2035SOL    HW117567   1.743   1.026   5.764  0.8837 -1.0312 -1.6709
 2035SOL    HW217568   1.631   1.105   5.722  0.0887  1.6419  3.3212
 2036SOL     OW17569   3.170   4.668   3.264  0.4236  0.6402  0.1965
 2036SOL    HW117570   3.236   4.660   3.195  0.2522  0.1256  0.0907
 2036SOL    HW217571   3.143   0.034   3.248  0.2651  0.5193 -0.2240
 2037SOL     OW17572   0.954   3.428   3.092 -0.1536  0.1271  0.1266
 2037SOL    HW117573   1.014   3.407   3.020 -2.6546 -2.1031 -1.2840
 2037SOL    HW217574   0.869   3.403   3.056 -0.3354  0.3428  0.4063
 2038SOL     OW17575   0.088   0.119   7.832  0.2839  1.0565 -0.7249
 2038SOL    HW117576   0.125   0.148   7.915 -0.9090 -0.1664  0.2346
 2038SOL    HW217577   0.115   0.027   7.839  0.4039  1.2138  0.8292
 2039SOL     OW17578   1.176   3.395   3.292 -0.1679  0.9367  0.5478
 2039SOL    HW117579   1.202   3.303   3.283 -1.6758  0.8529 -2.7858
 2039SOL    HW217580   1.084   3.388   3.267 -0.1615 -0.5929  0.9349
 2040SOL     OW17581   0.579   2.878   2.631  0.3859 -0.1190  0.1274
 2040SOL    HW117582   0.571   2.911   2.721  3.1307 -1.7658  0.9924
 2040SOL    HW217583   0.617   2.952   2.585  1.9716  0.5507  2.4777
 2041SOL     OW17584   3.712   4.617   7.274 -0.3815  0.0672  0.6043
 2041SOL    HW117585   3.804   4.623   7.250 -1.0989 -1.9215 -2.5567
 2041SOL    HW217586   3.703   4.522   7.275 -0.1314  0.0549  1.9073
 2042SOL     OW17587   2.900   2.973  14.786  0.4241  0.0412 -0.3426
 2042SOL    HW117588   2.850   3.053  14.804  0.1920 -0.1166 -0.2731
 2042SOL    HW217589   2.838   2.908  14.752 -1.5613  0.9952  1.4508
 2043SOL     OW17590   0.051   0.370   2.220  0.1345  0.4045 -0.7175
 2043SOL    HW117591   0.118   0.363   2.288 -0.2401 -1.1519 -0.4975
 2043SOL    HW217592   0.009   0.451   2.248 -0.7139  0.0149 -0.8873
 2044SOL     OW17593   3.703   0.819   8.487  0.2063 -0.1110  0.3540
 2044SOL    HW117594   3.752   0.739   8.506 -0.5946 -0.6784  0.0036
 2044SOL    HW217595   3.770   0.888   8.489 -0.1951  0.3837 -3.5499
 2045SOL     OW17596   3.395   2.828  15.784  0.1771 -0.2641 -0.4558
 2045SOL    HW117597   3.394   2.843  15.879 -2.3528 -0.0470 -0.5172
 2045SOL    HW217598   3.307   2.857  15.759  0.4212  0.8127 -0.1016
 2046SOL     OW17599   2.888   2.646   6.006  0.6141  0.9332  0.0836
 2046SOL    HW117600   2.906   2.563   5.961 -0.6743 -0.3835  1.9668
 2046SOL    HW217601   2.970   2.692   5.992  2.3970 -1.4167  2.8713
 2047SOL     OW17602   0.115   1.377   2.474  0.6949 -0.5439  0.4033
 2047SOL    HW117603   0.147   1.292   2.445  1.1767 -0.0410 -0.5437
 2047SOL    HW217604   0.081   1.403   2.389 -1.3598  0.2361  1.4733
 2048SOL     OW17605   1.791   1.241   2.547 -0.4262 -0.2473 -0.3404
 2048SOL    HW117606   1.852   1.182   2.591  1.7313  3.2035  1.3107
 2048SOL    HW217607   1.733   1.261   2.621 -0.8397 -1.5067 -0.3159
 2049SOL     OW17608   1.438   1.090   5.652  0.0269 -0.3426 -0.2830
 2049SOL    HW117609   1.373   1.025   5.678 -0.2618  0.2123  0.3684
 2049SOL    HW217610   1.425   1.094   5.558  2.0896 -1.2237 -0.6126
 2050SOL     OW17611   3.457   0.028   9.188  0.0306 -0.4535  0.0341
 2050SOL    HW117612   3.364   0.045   9.206  0.4185  0.9531  0.7022
 2050SOL    HW217613   3.455   4.661   9.160  0.9758  0.2233 -2.2457
 2051SOL     OW17614   3.433   4.294  10.899  0.5005 -0.3751 -0.0078
 2051SOL    HW117615   3.397   4.305  10.810 -0.5310 -3.1424  0.0671
 2051SOL    HW217616   3.398   4.210  10.928  1.0175  0.1348  2.0725
 2052SOL     OW17617   4.499   1.515  14.037 -0.2836  0.3406  0.1945
 2052SOL    HW117618   4.488   1.568  13.958  2.0831 -0.6258 -0.7899
 2052SOL    HW217619   4.432   1.448  14.024 -1.4601  1.6242 -0.2423
 2053SOL     OW17620   0.915   0.459   6.431 -0.0006 -0.2267 -0.0348
 2053SOL    HW117621   0.835   0.413   6.405  0.6868 -1.3551 -0.1851
 2053SOL    HW217622   0.896   0.543   6.391  1.9496 -0.5081 -1.5453
 2054SOL     OW17623   3.190   0.545   5.552  0.3386 -0.1961  0.3484
 2054SOL    HW117624   3.119   0.511   5.498  0.8388 -2.7593  1.2990
 2054SOL    HW217625   3.186   0.639   5.538 -2.0978 -0.5543 -1.3125
 2055SOL     OW17626   1.919   0.985  16.043  0.3401  0.3346  0.3833
 2055SOL    HW117627   1.924   0.963  15.950 -1.1664  2.4059 -0.1796
 2055SOL    HW217628   1.864   0.914  16.077  0.5803  0.9143  1.9759
 2056SOL     OW17629   3.695   0.723   5.876  0.0147  0.3713  0.0569
 2056SOL    HW117630   3.683   0.690   5.787  1.1393  1.7575 -0.6005
 2056SOL    HW217631   3.765   0.668   5.910 -0.5982  0.1782  0.9850
 2057SOL     OW17632   4.555   2.189   5.083 -0.0550  0.0395 -0.5234
 2057SOL    HW117633   4.594   2.160   5.165  0.7153 -0.8475 -1.2129
 2057SOL    HW217634   4.596   2.119   5.033 -1.8080 -0.1019 -1.7712
 2058SOL     OW17635   3.668   1.940  10.623  0.2706 -0.0842 -0.3211
 2058SOL    HW117636   3.742   1.925  10.564  2.0017  0.5318  1.7049
 2058SOL    HW217637   3.596   1.969  10.566 -0.8268 -3.6221 -0.7167
 2059SOL     OW17638   4.042   3.758   4.308 -0.3598  0.0688 -0.2421
 2059SOL    HW117639   4.023   3.668   4.282 -0.3597  0.7153 -2.5013
 2059SOL    HW217640   4.137   3.769   4.304 -0.4156  0.4596 -0.4488
 2060SOL     OW17641   4.202   1.653  12.218 -0.3480  0.2192 -0.3458
 2060SOL    HW117642   4.205   1.744  12.247  0.9043 -0.0088  0.2416
 2060SOL    HW217643   4.160   1.617  12.296  0.6886 -2.1783 -0.9019
 2061SOL     OW17644   3.350   0.645  14.750 -0.2724 -0.2994  0.6340
 2061SOL    HW117645   3.298   0.725  14.742  0.3015 -0.0380 -0.4608
 2061SOL    HW217646   3.416   0.651  14.681  0.1690  1.4569  1.2104
 2062SOL     OW17647   2.282   2.246  17.102  0.2198 -0.1547 -0.1231
 2062SOL    HW117648   2.376   2.238  17.086 -0.0979 -2.7309 -0.7700
 2062SOL    HW217649   2.251   2.185  17.035  0.4997 -0.8665  0.3899
 2063SOL     OW17650   1.356   0.937   8.022  0.1984 -0.1602  0.0779
 2063SOL    HW117651   1.364   1.010   7.961  1.2196 -0.1307  0.2457
 2063SOL    HW217652   1.327   0.868   7.962 -0.0883 -1.2470  1.4553
 2064SOL     OW17653   4.262   1.567   0.600 -0.1027  0.6644 -0.0440
 2064SOL    HW117654   4.241   1.659   0.588  2.2484  1.0834 -0.9434
 2064SOL    HW217655   4.182   1.541   0.645 -0.5388  1.1032 -0.5671
 2065SOL     OW17656   2.392   3.245  16.431  0.0268  0.2771  0.4648
 2065SOL    HW117657   2.352   3.228  16.345  1.2550 -0.4110  0.0226
 2065SOL    HW217658   2.483   3.263  16.408 -0.2050  0.1168 -0.6062
 2066SOL     OW17659   1.167   4.596   5.582 -0.7821  0.0055  0.1128
 2066SOL    HW117660   1.074   4.571   5.579 -0.7027 -0.2973  0.2883
 2066SOL    HW217661   1.161   4.692   5.579  1.9271  0.1808  1.0609
 2067SOL     OW17662   4.478   3.842   7.010 -0.4259 -0.1299  0.1399
 2067SOL    HW117663   4.455   3.870   7.099 -0.7741 -0.1804  0.0659
 2067SOL    HW217664   4.480   3.925   6.961 -2.1865 -0.8820 -1.1738
 2068SOL     OW17665   4.626   1.849   0.001 -0.4142 -0.2876 -0.6302
 2068SOL    HW117666   4.635   1.937   0.038 -1.5241 -0.7958  0.8968
 2068SOL    HW217667   4.530   1.848   0.001 -0.4001 -3.1859  0.5588
 2069SOL     OW17668   1.114   4.013   5.425  0.2464 -0.5086  0.3604
 2069SOL    HW117669   1.038   4.030   5.480  0.0275 -2.3172  0.6307
 2069SOL    HW217670   1.182   3.997   5.490  0.8127 -1.1779 -0.3910
 2070SOL     OW17671   2.772   2.372  17.052 -0.0806  0.0823  0.2407
 2070SOL    HW117672   2.713   2.322  16.995 -1.4030  1.1431  0.7191
 2070SOL    HW217673   2.784   2.314  17.127  0.4609 -1.1285 -0.7591
 2071SOL     OW17674   0.137   2.714   6.021 -0.0318  0.1954 -0.6691
 2071SOL    HW117675   0.095   2.762   6.093  0.2210  0.1699 -0.5012
 2071SOL    HW217676   0.210   2.676   6.071  0.8199  0.3646 -1.7951
 2072SOL     OW17677   0.859   3.975   6.714  0.0980  0.3271 -0.3120
 2072SOL    HW117678   0.798   3.961   6.642  0.3181 -2.1542 -0.0381
 2072SOL    HW217679   0.908   4.050   6.681 -0.0115  0.5811  0.1099
 2073SOL     OW17680   3.907   1.935   7.714  0.2807 -0.0477 -0.7513
 2073SOL    HW117681   3.981   1.996   7.716 -0.1882  0.5022  0.0093
 2073SOL    HW217682   3.879   1.928   7.806  0.8322  0.2534 -0.5602
 2074SOL     OW17683   3.574   2.854   7.829  0.9550  0.1045 -0.1946
 2074SOL    HW117684   3.607   2.910   7.760  0.4963  2.8650  1.8356
 2074SOL    HW217685   3.483   2.860   7.799  0.1931  0.6018  2.2666
 2075SOL     OW17686   3.690   1.053   4.858  0.1255 -0.5147 -0.1215
 2075SOL    HW117687   3.694   1.112   4.783 -2.5841 -1.5838 -1.1099
 2075SOL    HW217688   3.781   1.022   4.859  1.2702  2.9481  0.9570
 2076SOL     OW17689   2.504   2.579   3.757 -0.3789 -0.1420  0.0724
 2076SOL    HW117690   2.475   2.488   3.749  0.8094 -0.5277  0.1329
 2076SOL    HW217691   2.589   2.571   3.799 -0.5857 -2.0009  0.1195
 2077SOL     OW17692   0.103   0.472   7.765 -0.0572  0.2102  1.2802
 2077SOL    HW117693   0.163   0.433   7.828  0.4591 -2.1503 -0.6664
 2077SOL    HW217694   0.021   0.494   7.809  0.1195 -1.3313  2.3462
 2078SOL     OW17695   3.541   0.671   8.644 -0.3297 -0.3753 -0.4863
 2078SOL    HW117696   3.579   0.710   8.723  0.9579 -4.5089  0.9474
 2078SOL    HW217697   3.571   0.735   8.580 -0.2912  0.2897  0.1993
 2079SOL     OW17698   4.200   1.961   0.809  0.1239  0.2286 -0.2922
 2079SOL    HW117699   4.168   2.023   0.874  0.5454 -1.4379  1.5232
 2079SOL    HW217700   4.266   1.909   0.855 -1.1997  1.2740  2.7951
 2080SOL     OW17701   4.639   3.506   5.301 -0.1197  0.3889 -0.5199
 2080SOL    HW117702   4.648   3.602   5.300 -1.4059  0.5462  1.3225
 2080SOL    HW217703   4.723   3.484   5.342 -0.0249 -0.2903 -1.0960
 2081SOL     OW17704   2.270   3.737   1.639 -0.6774  0.3132  0.2054
 2081SOL    HW117705   2.306   3.786   1.566 -2.2622  2.3147  0.7786
 2081SOL    HW217706   2.348   3.685   1.658  0.1858  1.4067 -0.3425
 2082SOL     OW17707   3.292   1.139  14.419 -0.2147  0.1677  0.5670
 2082SOL    HW117708   3.315   1.052  14.450  0.3071  0.0183 -0.2425
 2082SOL    HW217709   3.294   1.198  14.495 -0.5121 -0.8065  1.3412
 2083SOL     OW17710   3.193   0.704  12.027  0.3647 -0.3232 -0.3032
 2083SOL    HW117711   3.142   0.780  12.054 -2.4552 -2.1704 -0.3927
 2083SOL    HW217712   3.179   0.726  11.935  1.5888 -1.3708 -0.7252
 2084SOL     OW17713   4.143   2.668   7.349 -0.5781 -0.0369 -0.1349
 2084SOL    HW117714   4.178   2.733   7.289  0.7611 -3.2008 -2.8065
 2084SOL    HW217715   4.226   2.621   7.361 -0.2752  0.3306 -0.8209
 2085SOL     OW17716   0.573   2.119   6.607 -0.7220  0.0514  0.6421
 2085SOL    HW117717   0.653   2.126   6.556 -2.0120  0.4456 -1.3089
 2085SOL    HW217718   0.613   2.122   6.695 -0.6870 -0.5985  0.6501
 2086SOL     OW17719   2.132   3.117  15.984 -0.4426 -0.2466  0.3232
 2086SOL    HW117720   2.101   3.191  16.036 -1.2771 -0.9545  0.8335
 2086SOL    HW217721   2.181   3.153  15.910  0.5253 -1.0072  0.5955
 2087SOL     OW17722   0.111   0.034   3.349  0.5691  0.2132 -0.2706
 2087SOL    HW117723   0.105   0.042   3.444  1.1439 -0.1999 -0.1987
 2087SOL    HW217724   0.156   4.674   3.354 -0.2337 -0.3026 -1.7016
 2088SOL     OW17725   3.369   2.109  15.724 -0.5394 -0.3617 -0.5136
 2088SOL    HW117726   3.351   2.133  15.815  2.1560 -2.6671  0.6085
 2088SOL    HW217727   3.279   2.112  15.691  0.5688  3.8189 -3.2301
 2089SOL     OW17728   4.412   3.077   5.196 -0.1645 -0.1978 -0.3214
 2089SOL    HW117729   4.416   3.165   5.158  0.1893 -0.9534 -2.0301
 2089SOL    HW217730   4.357   3.044   5.125 -0.9621  1.1213 -0.3150
 2090SOL     OW17731   2.935   1.300   5.089 -0.3443 -0.4148 -0.3117
 2090SOL    HW117732   2.992   1.232   5.125  0.7169 -0.3429 -1.8674
 2090SOL    HW217733   2.993   1.340   5.025  0.6775 -0.4928  0.5626
 2091SOL     OW17734   2.800   3.718  16.711  1.4291 -0.7560 -0.5935
 2091SOL    HW117735   2.782   3.625  16.698 -1.2391 -0.3528  0.1713
 2091SOL    HW217736   2.790   3.748  16.621 -3.6931 -0.9644 -0.1195
 2092SOL     OW17737   1.075   0.893   6.962 -0.0808 -0.0014  0.4931
 2092SOL    HW117738   1.071   0.979   7.004 -0.4374  0.5056 -0.5729
 2092SOL    HW217739   1.047   0.837   7.034  3.4186 -2.9358 -0.4546
 2093SOL     OW17740   3.609   2.525  15.356 -0.0240  0.2732  0.1394
 2093SOL    HW117741   3.654   2.444  15.331  1.8319  0.6516  2.2466
 2093SOL    HW217742   3.555   2.546  15.280  0.3533  1.8623  0.3014
 2094SOL     OW17743   0.975   1.351   9.443  0.0962  1.2246 -0.1543
 2094SOL    HW117744   1.048   1.297   9.411 -1.0073 -0.5120  0.2820
 2094SOL    HW217745   0.911   1.280   9.446 -0.3807  1.6651  0.2000
 2095SOL     OW17746   2.722   2.968   4.494  0.6043 -0.4687 -0.0345
 2095SOL    HW117747   2.778   2.896   4.466 -0.4225 -0.6960 -1.5045
 2095SOL    HW217748   2.683   2.984   4.408  0.2165 -3.8935 -0.4943
 2096SOL     OW17749   4.364   1.628  10.918  0.1979 -0.0201 -0.3624
 2096SOL    HW117750   4.292   1.691  10.909 -0.8953 -1.4194 -1.3059
 2096SOL    HW217751   4.426   1.673  10.861  0.3246  0.2563 -0.0114
 2097SOL     OW17752   3.465   3.517   5.192 -0.1770 -0.1693  0.6550
 2097SOL    HW117753   3.491   3.572   5.266 -0.2768 -0.6794  1.0716
 2097SOL    HW217754   3.505   3.561   5.117  1.5874 -1.0551  1.0730
 2098SOL     OW17755   4.073   1.677   5.474 -0.0242 -0.8987 -0.4039
 2098SOL    HW117756   4.058   1.746   5.408 -0.8154  0.7404  1.4912
 2098SOL    HW217757   4.002   1.690   5.536  0.0625 -0.2749 -0.4340
 2099SOL     OW17758   0.685   4.577   8.286 -0.5956 -0.3617  0.4924
 2099SOL    HW117759   0.686   4.591   8.191 -1.0034 -0.5572  0.4563
 2099SOL    HW217760   0.721   4.661   8.312 -1.0746 -0.2947  0.9470
 2100SOL     OW17761   2.027   2.116   9.372 -0.1051 -0.2941  0.3516
 2100SOL    HW117762   2.053   2.040   9.320 -0.1549 -0.3508  0.4100
 2100SOL    HW217763   1.959   2.075   9.425  0.1853 -0.5456  0.5284
 2101SOL     OW17764   4.540   3.510   8.635  0.6116  0.2854 -0.2274
 2101SOL    HW117765   4.541   3.441   8.569  2.6444 -0.0277  0.1347
 2101SOL    HW217766   4.626   3.493   8.674 -0.1416 -0.0949  1.2884
 2102SOL     OW17767   2.110   1.595   8.410  0.5935  0.1105  0.1260
 2102SOL    HW117768   2.071   1.669   8.456 -0.2243  0.3945 -1.0133
 2102SOL    HW217769   2.116   1.531   8.481  1.5282  1.6446  1.4186
 2103SOL     OW17770   3.445   3.913  14.884 -0.0285  0.3851  0.3352
 2103SOL    HW117771   3.370   3.936  14.939 -0.0944 -2.0446  1.2734
 2103SOL    HW217772   3.507   3.970  14.930 -1.5329  2.3467 -0.0728
 2104SOL     OW17773   3.420   1.946   5.781 -0.0389 -0.5634 -0.7395
 2104SOL    HW117774   3.465   1.967   5.699  1.2922  1.2433  0.4493
 2104SOL    HW217775   3.376   1.863   5.765 -0.1335 -0.2116 -2.4070
 2105SOL     OW17776   2.472   4.272   2.527  0.3695 -0.2212 -0.5588
 2105SOL    HW117777   2.427   4.189   2.541  0.9238 -0.5427 -0.7147
 2105SOL    HW217778   2.445   4.319   2.606  2.0357 -0.0625 -0.1037
 2106SOL     OW17779   1.375   0.006   3.769  0.0314  0.1658  0.2988
 2106SOL    HW117780   1.336   4.706   3.685  0.1271 -2.2683  0.9485
 2106SOL    HW217781   1.361   4.653   3.824 -1.7318  0.1696 -0.1628
 2107SOL     OW17782   0.850   1.834   2.818 -0.3841  0.4425 -0.5531
 2107SOL    HW117783   0.831   1.785   2.738 -0.9643  1.6271 -1.1444
 2107SOL    HW217784   0.764   1.830   2.859  0.5946 -1.2040  1.3011
 2108SOL     OW17785   1.036   1.358  10.604  0.2435  0.1740  0.1450
 2108SOL    HW117786   0.977   1.312  10.544 -0.8491  0.7486  0.7800
 2108SOL    HW217787   1.003   1.331  10.690  1.0012  0.1790  0.4333
 2109SOL     OW17788   1.215   2.866   6.033  0.4393  0.4995  0.0577
 2109SOL    HW117789   1.302   2.901   6.053  0.6974 -0.6650  0.9980
 2109SOL    HW217790   1.181   2.926   5.968 -2.1463 -0.4193  0.5671
 2110SOL     OW17791   3.801   4.644   5.498  0.0013  0.4617  0.1016
 2110SOL    HW117792   3.815   4.564   5.548 -1.8656  0.2339  0.2564
 2110SOL    HW217793   3.715   4.669   5.532 -1.6308 -3.0092 -1.5447
 2111SOL     OW17794   0.102   2.321   4.992 -0.1363  0.2232 -0.8239
 2111SOL    HW117795   0.027   2.379   4.996  0.1325  0.6392 -1.8116
 2111SOL    HW217796   0.143   2.348   5.074  1.1687  2.4199 -2.2004
 2112SOL     OW17797   1.722   0.655   5.126  0.5500  0.3625  0.6967
 2112SOL    HW117798   1.791   0.600   5.163 -0.3187 -0.6075  0.8679
 2112SOL    HW217799   1.778   0.722   5.087 -0.1557  0.8454  0.5186
 2113SOL     OW17800   0.359   0.667   1.348  0.0060 -0.2721  0.4131
 2113SOL    HW117801   0.381   0.733   1.283  0.5471 -0.6316  0.2319
 2113SOL    HW217802   0.274   0.702   1.374 -0.3885  1.8922 -3.7793
 2114SOL     OW17803   1.682   3.537  17.439  0.8252  0.1338  0.0193
 2114SOL    HW117804   1.739   3.500  17.507  0.2270  0.3636  0.6512
 2114SOL    HW217805   1.666   3.473  17.370 -3.3832 -1.9594  2.9474
 2115SOL     OW17806   1.166   0.092   2.251  0.1674 -0.0857  0.3267
 2115SOL    HW117807   1.211   0.106   2.168  3.4920  1.4662  2.3714
 2115SOL    HW217808   1.078   0.110   2.219  0.5741 -1.1096 -1.3334
 2116SOL     OW17809   4.049   2.907   8.560  0.1066 -0.7240 -0.3128
 2116SOL    HW117810   3.962   2.878   8.532 -1.0106  1.7245  0.5632
 2116SOL    HW217811   4.084   2.905   8.471 -0.6861  1.9973 -0.6958
 2117SOL     OW17812   0.576   2.436  13.604 -0.1438 -0.0181 -0.3150
 2117SOL    HW117813   0.534   2.518  13.577  0.3256  0.6183  0.8427
 2117SOL    HW217814   0.621   2.412  13.523 -2.6821 -0.7621 -1.4824
 2118SOL     OW17815   2.305   0.998   4.629  0.5663  0.4974 -0.5467
 2118SOL    HW117816   2.289   0.908   4.601 -1.5163  0.8342 -0.4783
 2118SOL    HW217817   2.250   1.044   4.566 -1.5986 -1.4336 -0.0879
 2119SOL     OW17818   1.388   4.037   6.755  0.1323 -0.4979 -0.5017
 2119SOL    HW117819   1.395   3.958   6.702  0.9128 -3.3571  3.8876
 2119SOL    HW217820   1.300   4.068   6.733  0.7535  1.0248 -0.8655
 2120SOL     OW17821   1.811   4.222  14.708  0.6127  0.1159  0.5119
 2120SOL    HW117822   1.833   4.315  14.710  0.1923  0.2555 -1.4911
 2120SOL    HW217823   1.875   4.176  14.762  1.5436 -3.6395 -3.7594
 2121SOL     OW17824   4.080   3.720   2.819 -0.3857 -0.8101 -0.2546
 2121SOL    HW117825   4.006   3.699   2.875  0.1361 -0.9002  0.3981
 2121SOL    HW217826   4.118   3.636   2.793  0.4955 -0.3178 -0.5751
 2122SOL     OW17827   3.197   3.766   5.410  0.4150  0.1978 -0.7459
 2122SOL    HW117828   3.214   3.718   5.492 -1.0849 -0.0072 -0.5644
 2122SOL    HW217829   3.147   3.700   5.362  0.0703 -1.3152  1.6747
 2123SOL     OW17830   2.121   2.769   2.883  0.7993  0.2799  0.7560
 2123SOL    HW117831   2.029   2.755   2.858  0.4851  3.2726  0.2394
 2123SOL    HW217832   2.165   2.765   2.798 -1.9341 -0.1748 -0.6712
 2124SOL     OW17833   0.233   1.958   6.179 -0.1211  0.6196 -0.0511
 2124SOL    HW117834   0.309   1.991   6.131  0.4543  0.3976  0.7005
 2124SOL    HW217835   0.251   1.976   6.271 -0.0454  1.0647 -0.1541
 2125SOL     OW17836   4.193   1.126   8.015 -0.3337 -0.0243 -0.1373
 2125SOL    HW117837   4.152   1.051   8.059  1.8995 -0.7862  0.6562
 2125SOL    HW217838   4.209   1.086   7.930  2.7000  1.6775 -0.3624
 2126SOL     OW17839   2.892   0.471   5.602  0.1478  0.5504  0.0423
 2126SOL    HW117840   2.898   0.559   5.639 -0.4029  0.2133  0.9284
 2126SOL    HW217841   2.903   0.489   5.509  2.6397 -1.3730 -0.0362
 2127SOL     OW17842   2.679   2.859   1.647  0.3356  0.1706 -0.2215
 2127SOL    HW117843   2.677   2.953   1.666 -1.2614  0.6039 -2.4711
 2127SOL    HW217844   2.591   2.843   1.612 -0.4284 -0.6093  2.0955
 2128SOL     OW17845   0.944   0.905   2.309  0.0004 -0.6253  0.3896
 2128SOL    HW117846   0.987   0.937   2.230  0.9641  0.0765  1.2035
 2128SOL    HW217847   0.872   0.851   2.275 -0.4734  0.9268 -1.0880
 2129SOL     OW17848   3.894   2.263   8.790 -0.1684  1.1696  0.0731
 2129SOL    HW117849   3.948   2.241   8.866 -1.2860 -1.1858  0.1548
 2129SOL    HW217850   3.960   2.269   8.721 -0.0398  1.4061  0.2147
 2130SOL     OW17851   1.660   3.463  14.275  0.2939 -0.3219 -0.7629
 2130SOL    HW117852   1.700   3.494  14.193 -0.8529  2.2070 -0.3772
 2130SOL    HW217853   1.677   3.369  14.271  0.0628 -0.3137 -2.0992
 2131SOL     OW17854   2.828   1.252   2.498 -0.0314 -0.5955 -0.1422
 2131SOL    HW117855   2.795   1.322   2.441 -0.6136 -0.1669  0.7209
 2131SOL    HW217856   2.808   1.172   2.451  2.6203 -0.4627 -1.4637
 2132SOL     OW17857   3.045   1.578  14.578  0.1399 -0.2143 -0.3208
 2132SOL    HW117858   3.138   1.577  14.602 -0.4594 -1.4420  1.9708
 2132SOL    HW217859   3.046   1.654  14.521 -0.7184 -0.6841 -0.9575
 2133SOL     OW17860   4.159   1.200   5.077 -0.6182 -0.4568 -0.5432
 2133SOL    HW117861   4.213   1.230   5.150  0.1511 -1.3039 -0.7673
 2133SOL    HW217862   4.211   1.221   4.999  1.3861  0.7461  1.1232
 2134SOL     OW17863   1.722   2.694   7.560 -0.1315  0.4540  0.0716
 2134SOL    HW117864   1.659   2.653   7.619  0.2529 -0.6462 -0.2712
 2134SOL    HW217865   1.728   2.617   7.503 -0.0996 -0.1793  0.9423
 2135SOL     OW17866   0.667   0.678   0.326 -0.5139 -0.2507 -0.1655
 2135SOL    HW117867   0.700   0.607   0.379 -0.1190  0.8499  1.0616
 2135SOL    HW217868   0.743   0.735   0.314 -1.1880  1.0704  1.8900
 2136SOL     OW17869   4.103   2.129   7.060 -0.2314 -0.4868 -0.0847
 2136SOL    HW117870   4.027   2.095   7.108  0.6626  0.9647  2.3637
 2136SOL    HW217871   4.163   2.150   7.132  1.7439 -1.9622 -1.3151
 2137SOL     OW17872   3.429   1.539   1.779  0.6887  0.2802  0.0268
 2137SOL    HW117873   3.494   1.602   1.811 -2.2520  2.2562  2.1009
 2137SOL    HW217874   3.419   1.562   1.687 -2.5613  1.7943  0.7621
 2138SOL     OW17875   3.007   0.365   3.448  0.1541  0.1632 -0.5719
 2138SOL    HW117876   3.064   0.441   3.455  0.3619  0.2229 -3.0040
 2138SOL    HW217877   2.940   0.388   3.383 -0.5257  0.6922  0.3161
 2139SOL     OW17878   0.212   2.131   8.011 -0.2890 -0.0590  0.6763
 2139SOL    HW117879   0.241   2.105   8.099 -1.1880  0.9341  1.2560
 2139SOL    HW217880   0.117   2.124   8.022 -0.4065 -0.4415 -0.6067
 2140SOL     OW17881   3.302   1.037   2.681  0.0337  0.0696  0.2140
 2140SOL    HW117882   3.358   0.961   2.693 -0.3029 -0.4571 -1.6266
 2140SOL    HW217883   3.318   1.066   2.591 -1.3944  1.4441  0.3993
 2141SOL     OW17884   1.993   3.415   8.488 -0.1028  0.6100  0.0626
 2141SOL    HW117885   1.926   3.473   8.451 -0.9242  0.3502  1.1404
 2141SOL    HW217886   2.063   3.477   8.503 -1.2717  2.1857 -1.0258
 2142SOL     OW17887   1.540   0.814   4.700 -0.2352  0.6069  0.0395
 2142SOL    HW117888   1.601   0.835   4.771  1.1904  0.2991 -1.0982
 2142SOL    HW217889   1.599   0.796   4.628 -0.2353  0.2607  0.1220
 2143SOL     OW17890   3.694   2.891   0.519 -0.4286  0.0021  0.5053
 2143SOL    HW117891   3.746   2.870   0.597 -1.6855 -1.4732  0.9450
 2143SOL    HW217892   3.746   2.964   0.485  2.0982 -1.1806  1.8535
 2144SOL     OW17893   2.677   3.170   3.093 -0.0329 -0.3270  0.4783
 2144SOL    HW117894   2.711   3.090   3.052 -0.1762  0.6288 -1.4872
 2144SOL    HW217895   2.728   3.182   3.173 -0.5608  1.8571  0.4890
 2145SOL     OW17896   0.377   3.355   4.340  0.2189 -0.4552  0.2723
 2145SOL    HW117897   0.319   3.304   4.397  1.9683 -2.1289  0.5462
 2145SOL    HW217898   0.365   3.440   4.383  2.3926 -0.3980  0.7702
 2146SOL     OW17899   3.753   3.843   1.623 -0.6003 -0.4258 -0.7745
 2146SOL    HW117900   3.661   3.858   1.600 -0.5920 -2.0951 -1.8737
 2146SOL    HW217901   3.786   3.811   1.539  0.0303  0.6807 -0.9392
 2147SOL     OW17902   2.879   3.522   7.573  0.7155  0.3005  0.4579
 2147SOL    HW117903   2.909   3.431   7.571 -0.2480 -0.0440  1.9646
 2147SOL    HW217904   2.934   3.565   7.639  1.2586  1.4207 -0.7115
 2148SOL     OW17905   0.334   0.429   8.654  0.2367 -0.0098 -0.0202
 2148SOL    HW117906   0.338   0.505   8.595  2.0778  0.8650  1.2728
 2148SOL    HW217907   0.345   0.351   8.599  1.7616 -0.3303  0.7487
 2149SOL     OW17908   4.537   2.059   8.872 -0.0609 -0.1711 -0.4831
 2149SOL    HW117909   4.539   2.013   8.956  0.8099  0.7639  0.0030
 2149SOL    HW217910   4.624   2.038   8.838  1.5749  0.8918  3.1068
 2150SOL     OW17911   4.236   4.309  12.743  0.0227  0.2095 -0.3091
 2150SOL    HW117912   4.261   4.249  12.813 -2.4321  0.4639  0.7908
 2150SOL    HW217913   4.323   4.349  12.740  0.5963 -1.0943 -1.0825
 2151SOL     OW17914   3.851   0.212   7.231  0.3664  0.0439  0.4996
 2151SOL    HW117915   3.764   0.175   7.215  1.1068 -0.9856 -1.1172
 2151SOL    HW217916   3.828   0.255   7.314 -1.9629 -0.1965 -0.0168
 2152SOL     OW17917   2.608   1.844  14.617 -0.1169 -0.1876 -0.4827
 2152SOL    HW117918   2.614   1.752  14.594  2.9876 -0.1383  0.1634
 2152SOL    HW217919   2.525   1.866  14.575 -0.2357 -1.9984 -1.1851
 2153SOL     OW17920   3.589   1.979   6.374  0.0358 -0.4446 -0.5229
 2153SOL    HW117921   3.564   2.051   6.433  1.0714 -0.4831 -0.0313
 2153SOL    HW217922   3.500   1.945   6.371 -0.4245  0.8923 -2.1975
 2154SOL     OW17923   1.012   1.871   4.777 -0.1666 -0.4021 -0.3082
 2154SOL    HW117924   1.046   1.879   4.688 -1.5487 -4.6180 -1.1951
 2154SOL    HW217925   0.980   1.960   4.797  0.8061 -0.6714  2.4890
 2155SOL     OW17926   2.197   3.146   2.051  0.9193  0.0857 -0.1194
 2155SOL    HW117927   2.126   3.210   2.058  0.8735  0.0522 -0.2837
 2155SOL    HW217928   2.224   3.142   2.143 -1.4502  0.4656  0.5951
 2156SOL     OW17929   1.904   2.540   2.913 -0.0546 -0.3941 -0.2029
 2156SOL    HW117930   1.945   2.477   2.853  0.5256  1.3781 -1.6755
 2156SOL    HW217931   1.948   2.514   2.993  1.0925 -0.3173 -0.8004
 2157SOL     OW17932   3.996   4.615  13.168  0.0097  0.6878 -0.0177
 2157SOL    HW117933   3.967   4.569  13.089 -0.5770 -0.5863  0.9356
 2157SOL    HW217934   3.931   4.577  13.227  0.6314 -2.2222 -1.2108
 2158SOL     OW17935   1.062   2.060   4.185  0.0925  0.3964  0.4160
 2158SOL    HW117936   1.006   2.023   4.117 -0.7026 -0.5843  1.5989
 2158SOL    HW217937   1.109   1.981   4.211  1.5931  1.2294  0.2636
 2159SOL     OW17938   3.500   3.711   5.734 -0.1543  0.4216 -0.5442
 2159SOL    HW117939   3.559   3.697   5.660  0.3791 -0.0393 -0.0263
 2159SOL    HW217940   3.567   3.711   5.801 -0.1866 -1.1393 -0.5102
 2160SOL     OW17941   3.833   3.460   8.579 -0.0623  0.4508 -0.4469
 2160SOL    HW117942   3.876   3.397   8.521  0.3322  0.4396 -0.1360
 2160SOL    HW217943   3.872   3.432   8.661 -1.7628 -1.2781 -0.2229
 2161SOL     OW17944   2.758   0.836   8.332  0.5873  0.0251  0.4731
 2161SOL    HW117945   2.663   0.851   8.331  0.7973  1.3575 -0.2886
 2161SOL    HW217946   2.760   0.746   8.362  0.9488  0.3911  1.5342
 2162SOL     OW17947   2.157   1.649   9.969  0.5676  0.0687  0.5185
 2162SOL    HW117948   2.220   1.677  10.035  0.2079  0.6417  0.6299
 2162SOL    HW217949   2.218   1.672   9.899  1.6073 -2.5270  0.5827
 2163SOL     OW17950   1.352   1.549   2.895 -0.7356 -0.2645  0.4612
 2163SOL    HW117951   1.376   1.519   2.808 -0.4549 -0.7790  0.7176
 2163SOL    HW217952   1.291   1.619   2.871  2.5436  1.9691 -1.2262
 2164SOL     OW17953   4.510   3.481   9.286 -0.2356 -0.2115 -0.7188
 2164SOL    HW117954   4.433   3.424   9.284 -0.6348  0.2429  1.0756
 2164SOL    HW217955   4.532   3.506   9.197 -0.0109  0.0617 -0.5871
 2165SOL     OW17956   2.571   0.437  14.098 -0.5443 -0.7562  0.0824
 2165SOL    HW117957   2.501   0.372  14.093 -0.0267 -1.1861 -1.5603
 2165SOL    HW217958   2.628   0.386  14.040 -0.8254 -0.5178 -0.3951
 2166SOL     OW17959   2.848   4.090   2.771 -0.7483  0.0512 -0.2061
 2166SOL    HW117960   2.834   4.100   2.677 -2.2416 -0.8575 -0.0790
 2166SOL    HW217961   2.777   4.032   2.797 -0.1150 -0.2955  0.7351
 2167SOL     OW17962   0.103   3.963   7.027 -0.0019  0.1911  0.2950
 2167SOL    HW117963   0.077   4.046   7.067  2.0587  0.8630  0.2222
 2167SOL    HW217964   0.091   3.902   7.100  1.1120  1.5335  1.6021
 2168SOL     OW17965   1.190   1.275   8.289 -0.4571 -0.3861 -0.1619
 2168SOL    HW117966   1.171   1.367   8.269  0.4226  0.2510  1.9469
 2168SOL    HW217967   1.154   1.285   8.377 -0.6437 -0.1884 -0.2584
 2169SOL     OW17968   2.016   1.261   6.301  0.0506  0.6309  0.0880
 2169SOL    HW117969   1.983   1.315   6.229  2.2703 -1.2708 -2.3701
 2169SOL    HW217970   2.022   1.173   6.263  0.4248  0.5746  0.2885
 2170SOL     OW17971   1.492   1.823   8.229  0.3578  0.1165 -0.5543
 2170SOL    HW117972   1.461   1.778   8.150 -0.8053 -1.4212  0.7887
 2170SOL    HW217973   1.563   1.875   8.192 -0.3721  2.7831  1.8517
 2171SOL     OW17974   2.588   4.567   5.828  0.5622 -0.6619 -0.2846
 2171SOL    HW117975   2.511   4.533   5.781  0.3080 -0.6619  0.1315
 2171SOL    HW217976   2.652   4.561   5.757  1.2879 -0.2678  0.3468
 2172SOL     OW17977   1.314   0.784   1.927  0.0215 -0.5158  0.5880
 2172SOL    HW117978   1.409   0.776   1.934 -0.1669 -2.4163  0.9463
 2172SOL    HW217979   1.311   0.815   1.837  1.9342 -1.0982  0.3218
 2173SOL     OW17980   0.447   0.959   8.090 -0.3525  0.3271  0.0684
 2173SOL    HW117981   0.392   0.886   8.118  0.6638 -0.1888  0.7301
 2173SOL    HW217982   0.407   1.027   8.143 -0.3121  1.3978 -1.2729
 2174SOL     OW17983   1.644   1.679  10.120 -0.5802 -0.1382 -0.0804
 2174SOL    HW117984   1.733   1.713  10.105 -0.8532  0.1732 -0.9974
 2174SOL    HW217985   1.610   1.668  10.031  1.6292 -0.0960 -0.9480
 2175SOL     OW17986   2.961   0.738   8.886  0.1821  0.3124  0.0824
 2175SOL    HW117987   3.044   0.693   8.898  0.9518  2.1986  1.7976
 2175SOL    HW217988   2.965   0.808   8.951 -0.4820  0.1244  0.3313
 2176SOL     OW17989   3.454   1.875   4.124  0.3278  0.2850 -0.9992
 2176SOL    HW117990   3.483   1.913   4.207  0.5782  2.6303 -2.1448
 2176SOL    HW217991   3.533   1.896   4.073  1.6760 -1.9127  0.2011
 2177SOL     OW17992   0.697   1.647   3.439 -0.3235 -0.2403  1.0146
 2177SOL    HW117993   0.763   1.708   3.470  0.9625 -1.6223  0.9915
 2177SOL    HW217994   0.740   1.599   3.368 -1.0025 -1.0851  1.1700
 2178SOL     OW17995   0.048   1.347   3.763  0.1892  0.4275  0.1196
 2178SOL    HW117996   0.025   1.435   3.792 -1.5004  0.4747 -1.4036
 2178SOL    HW217997   4.690   1.330   3.717  0.8131  0.3944 -0.9948
 2179SOL     OW17998   1.058   1.967  12.326  0.4475  0.0136 -0.2414
 2179SOL    HW117999   0.998   2.010  12.387 -0.6025  0.2556 -1.4359
 2179SOL    HW218000   1.126   2.033  12.335  1.0329 -0.7480  0.9394
 2180SOL     OW18001   4.195   2.099  16.066 -0.1601 -0.4263 -0.0184
 2180SOL    HW118002   4.242   2.159  16.007 -1.8161 -0.9678 -1.9033
 2180SOL    HW218003   4.168   2.031  16.004  1.5301 -1.3958  0.3052
 2181SOL     OW18004   1.557   4.337   3.537  1.0951  0.3619  0.0546
 2181SOL    HW118005   1.652   4.329   3.534  1.2633  1.8977  1.5880
 2181SOL    HW218006   1.545   4.423   3.576 -3.2921 -0.4275  0.4224
 2182SOL     OW18007   3.950   1.162   2.966  0.6551  0.3584  0.1172
 2182SOL    HW118008   3.927   1.140   3.056  0.6136 -0.2466 -0.0410
 2182SOL    HW218009   4.018   1.226   2.988  1.4548 -0.6592  0.6220
 2183SOL     OW18010   0.733   4.540   4.661  0.3576  0.2873 -0.3042
 2183SOL    HW118011   0.648   4.575   4.689  0.7202  1.1147 -0.2549
 2183SOL    HW218012   0.755   4.617   4.610  0.0206  0.8935  0.4605
 2184SOL     OW18013   4.007   4.138  12.167 -0.0615  0.4996 -0.2896
 2184SOL    HW118014   4.093   4.154  12.205  0.1737 -4.8262  1.4237
 2184SOL    HW218015   3.966   4.113  12.249 -0.4762  0.7870 -0.4078
 2185SOL     OW18016   4.358   2.585   5.712  0.2322 -0.3004 -0.7812
 2185SOL    HW118017   4.329   2.674   5.694 -1.6261 -1.2092 -2.1918
 2185SOL    HW218018   4.416   2.606   5.786  0.5283  1.9937 -1.6666
 2186SOL     OW18019   3.502   3.804   6.782 -0.0483 -0.4793 -0.2226
 2186SOL    HW118020   3.454   3.775   6.705  1.4588  1.1832 -1.7978
 2186SOL    HW218021   3.454   3.885   6.801  1.3946  0.3677 -0.2154
 2187SOL     OW18022   4.063   1.332   4.625 -0.9705  0.6024  0.2713
 2187SOL    HW118023   4.107   1.276   4.690  0.1590  0.7323 -0.3887
 2187SOL    HW218024   4.105   1.309   4.543  0.3184 -0.1474  1.1391
 2188SOL     OW18025   1.026   3.134   0.401  0.5847 -0.3936 -0.0099
 2188SOL    HW118026   1.092   3.074   0.366  1.6867  1.5792 -1.2887
 2188SOL    HW218027   1.040   3.217   0.355 -0.2322 -0.7431 -0.8806
 2189SOL     OW18028   2.150   4.428   3.221 -0.2331  0.1149 -0.7561
 2189SOL    HW118029   2.091   4.495   3.186 -1.2505 -0.4822 -0.1771
 2189SOL    HW218030   2.084   4.361   3.240  1.1863 -0.8022  0.8999
 2190SOL     OW18031   3.296   4.068  11.544  0.4663 -0.9503  0.2783
 2190SOL    HW118032   3.324   4.148  11.588  1.3701 -0.3477 -1.4214
 2190SOL    HW218033   3.379   4.041  11.504  1.1104  0.3477  0.7584
 2191SOL     OW18034   3.948   3.009  14.418 -0.0575 -0.0094 -0.1403
 2191SOL    HW118035   3.941   3.105  14.420  0.2977  0.0295 -0.8948
 2191SOL    HW218036   3.977   3.002  14.509  2.1059 -1.0809 -0.9267
 2192SOL     OW18037   0.010   4.169   8.879  0.1047 -0.3041 -0.0486
 2192SOL    HW118038   4.687   4.250   8.898 -1.3534 -1.2512  0.4049
 2192SOL    HW218039   0.083   4.164   8.940 -1.1766  0.3864  1.5436
 2193SOL     OW18040   0.324   1.733   1.936  0.0072 -0.2342 -0.4024
 2193SOL    HW118041   0.391   1.684   1.984 -0.2230  0.3655  0.5319
 2193SOL    HW218042   0.269   1.756   2.011  0.9276 -0.9430  0.4898
 2194SOL     OW18043   4.313   3.638   7.094  0.1367  0.1834  0.0709
 2194SOL    HW118044   4.357   3.722   7.082  0.4377 -0.2582 -1.8479
 2194SOL    HW218045   4.224   3.669   7.112  0.0128  1.1959 -2.3042
 2195SOL     OW18046   0.772   0.506   3.691 -0.5388  0.3398  0.1140
 2195SOL    HW118047   0.754   0.595   3.721  1.1039  0.2971  1.2320
 2195SOL    HW218048   0.841   0.488   3.755 -0.5527  0.2684  0.1095
 2196SOL     OW18049   4.368   1.703   7.311  0.6767  0.2233  0.5268
 2196SOL    HW118050   4.449   1.708   7.260  0.4383 -0.7062  0.0486
 2196SOL    HW218051   4.310   1.692   7.235  1.1027 -0.6042  0.3230
 2197SOL     OW18052   0.587   2.555   5.795 -0.5792  0.0395 -0.0476
 2197SOL    HW118053   0.623   2.498   5.726 -0.3150 -0.6543  0.6703
 2197SOL    HW218054   0.603   2.501   5.872 -0.7367  1.5256  1.0203
 2198SOL     OW18055   1.335   1.154   9.999  0.5000 -0.0819  0.3947
 2198SOL    HW118056   1.414   1.199   9.970 -1.3000  2.5083 -0.4748
 2198SOL    HW218057   1.361   1.062   9.997  1.7298  0.2431  1.9828
 2199SOL     OW18058   1.404   3.435   1.255  0.2515 -0.8450 -0.4799
 2199SOL    HW118059   1.317   3.453   1.291  0.3258  1.5861 -1.4992
 2199SOL    HW218060   1.456   3.493   1.310 -0.5448 -1.3573  0.8169
 2200SOL     OW18061   0.113   1.252   8.650  0.1117  0.8326  0.5897
 2200SOL    HW118062   0.109   1.312   8.725  2.1253 -1.9095  2.8909
 2200SOL    HW218063   0.035   1.278   8.600  2.1710  2.1235 -1.9488
 2201SOL     OW18064   1.788   3.157   8.726  0.2920 -0.0102 -0.1897
 2201SOL    HW118065   1.864   3.114   8.687  0.7643 -0.3111  1.0394
 2201SOL    HW218066   1.807   3.138   8.818  0.3208 -0.5120 -0.2996
 2202SOL     OW18067   0.172   4.215  11.752  0.0803  0.1781 -0.5569
 2202SOL    HW118068   0.118   4.150  11.797  0.2812  1.0413  0.9469
 2202SOL    HW218069   0.239   4.158  11.714  1.4458 -0.2353  2.4076
 2203SOL     OW18070   1.138   2.493   2.301  0.0255  0.0844 -0.0779
 2203SOL    HW118071   1.077   2.502   2.375 -1.1145 -0.8019 -0.9089
 2203SOL    HW218072   1.204   2.431   2.332  0.1680  0.2433 -0.0663
 2204SOL     OW18073   4.391   1.195   8.197  0.1598  0.3635  0.4056
 2204SOL    HW118074   4.368   1.257   8.266 -0.0801  0.4542  0.2409
 2204SOL    HW218075   4.311   1.174   8.150  0.1768  0.0008  0.5406
 2205SOL     OW18076   1.878   0.617   7.611  0.1184  0.3123 -0.4450
 2205SOL    HW118077   1.813   0.637   7.678  1.5641 -0.0110  1.0720
 2205SOL    HW218078   1.922   0.541   7.650 -0.3536 -0.2030 -0.9196
 2206SOL     OW18079   3.334   1.951   9.615  0.5656  0.3884  0.0729
 2206SOL    HW118080   3.241   1.941   9.596  0.5067  1.0025  0.0283
 2206SOL    HW218081   3.359   1.860   9.625 -0.0764  0.1236 -0.7475
 2207SOL     OW18082   2.016   3.146  12.718 -0.3507 -0.3957 -0.4153
 2207SOL    HW118083   2.006   3.053  12.699 -0.6231 -0.6116  0.7882
 2207SOL    HW218084   2.008   3.154  12.813  2.2481 -1.8712 -0.0629
 2208SOL     OW18085   4.552   4.667   2.900 -0.9558  0.4232  0.1005
 2208SOL    HW118086   4.604   4.602   2.853  0.7234  0.5364  1.8203
 2208SOL    HW218087   4.587   0.031   2.889  1.9245 -0.7416 -0.1715
 2209SOL     OW18088   4.587   2.774   1.045 -0.0991  0.9766  0.4938
 2209SOL    HW118089   4.635   2.706   0.997 -1.2358 -0.1420  0.9314
 2209SOL    HW218090   4.653   2.828   1.086 -1.0793  0.6361  2.5167
 2210SOL     OW18091   1.283   3.166   4.001  0.1876 -0.3058  0.6105
 2210SOL    HW118092   1.356   3.119   3.960 -1.0979 -1.0689 -0.8072
 2210SOL    HW218093   1.311   3.257   3.996  2.4339 -0.9487  1.2097
 2211SOL     OW18094   2.633   4.690  12.297 -0.5675  0.0720  0.0324
 2211SOL    HW118095   2.557   4.693  12.356 -0.1515 -4.0570  0.7240
 2211SOL    HW218096   2.704   4.663  12.355 -1.6478 -1.0353  0.8468
 2212SOL     OW18097   3.853   2.778  10.716 -0.0957 -0.5271 -0.2332
 2212SOL    HW118098   3.870   2.839  10.643 -0.5056 -0.3396 -0.1734
 2212SOL    HW218099   3.938   2.734  10.718 -0.2503 -0.8300 -0.3407
 2213SOL     OW18100   0.373   3.493  12.838  0.4116 -0.0384  0.7217
 2213SOL    HW118101   0.426   3.443  12.901  0.6980  0.1430  0.6255
 2213SOL    HW218102   0.444   3.547  12.803  0.0888  2.2474  3.5937
 2214SOL     OW18103   0.133   3.671   7.618 -0.6550  0.2059 -0.2546
 2214SOL    HW118104   0.085   3.653   7.538  1.5950  0.3090 -1.6248
 2214SOL    HW218105   0.052   3.684   7.666 -0.2982  0.9084  0.1652
 2215SOL     OW18106   0.217   0.542   6.572  0.0067 -0.2424  0.0729
 2215SOL    HW118107   0.207   0.617   6.514 -0.1643  1.4552  2.3192
 2215SOL    HW218108   0.204   0.470   6.510 -1.2086  0.5412 -0.5787
 2216SOL     OW18109   0.173   3.772   1.898 -1.3418  0.0209  0.1068
 2216SOL    HW118110   0.197   3.692   1.851  1.4893 -0.0785  1.6977
 2216SOL    HW218111   0.113   3.751   1.969 -2.2356 -0.2440 -0.7275
 2217SOL     OW18112   1.101   2.483   6.675  0.5552  0.5797  0.2538
 2217SOL    HW118113   1.164   2.510   6.742 -1.3905  0.8207  2.0061
 2217SOL    HW218114   1.035   2.542   6.711 -0.4727  1.1431 -2.6051
 2218SOL     OW18115   1.622   3.996   3.309  0.2644 -0.0769  0.2155
 2218SOL    HW118116   1.537   3.951   3.312  0.4582 -0.3304  1.7259
 2218SOL    HW218117   1.599   4.077   3.263  0.3495  0.2306  0.7153
 2219SOL     OW18118   2.777   3.727   5.285 -0.1874  0.3199 -0.5495
 2219SOL    HW118119   2.832   3.773   5.349  0.0504  0.3345 -0.7646
 2219SOL    HW218120   2.730   3.664   5.339  0.1619  2.0245  1.7324
 2220SOL     OW18121   1.497   1.333   2.980  0.6260 -0.2727  0.6403
 2220SOL    HW118122   1.504   1.320   3.075  0.0096 -0.3077  0.6855
 2220SOL    HW218123   1.452   1.418   2.982 -0.2271 -0.7455  2.0564
 2221SOL     OW18124   0.002   2.939   1.192  0.2383 -0.1208 -0.1120
 2221SOL    HW118125   0.097   2.938   1.184  0.1288  2.8792 -1.9624
 2221SOL    HW218126   0.003   2.945   1.288  2.0458 -2.0239 -0.0249
 2222SOL     OW18127   0.839   4.154   0.356 -0.0322 -0.1712 -0.2022
 2222SOL    HW118128   0.785   4.079   0.384  0.2311 -0.6307 -0.9438
 2222SOL    HW218129   0.820   4.165   0.263 -0.8033  0.2257 -0.0008
 2223SOL     OW18130   1.909   2.700   5.607  0.3805 -0.0865  0.2332
 2223SOL    HW118131   1.980   2.637   5.594  0.2078 -0.1658 -0.3314
 2223SOL    HW218132   1.890   2.712   5.514 -0.4881 -1.6115  0.2142
 2224SOL     OW18133   0.822   2.437   6.498  0.2588  0.5481 -0.1031
 2224SOL    HW118134   0.898   2.393   6.458 -2.2142 -2.2341 -1.7241
 2224SOL    HW218135   0.824   2.520   6.451  1.5333  0.8023  0.3828
 2225SOL     OW18136   4.095   4.466  12.274  0.1727  0.4762 -0.3862
 2225SOL    HW118137   4.087   4.550  12.319 -3.1145 -0.4735  0.7883
 2225SOL    HW218138   4.144   4.418  12.340 -1.9033  0.2134  0.9673
 2226SOL     OW18139   1.433   2.004   3.572  0.2568 -0.1851  0.6056
 2226SOL    HW118140   1.383   2.053   3.638  0.1781  0.9290 -0.2732
 2226SOL    HW218141   1.453   2.068   3.504  1.5468  1.5933  2.6646
 2227SOL     OW18142   3.037   4.005   1.902  0.0168  0.0651 -0.6055
 2227SOL    HW118143   3.035   3.912   1.883  1.2763 -0.0419 -0.2367
 2227SOL    HW218144   3.081   4.037   1.824  1.3740  0.4166  0.3003
 2228SOL     OW18145   3.854   1.279   2.746 -0.5884 -0.0110 -0.5052
 2228SOL    HW118146   3.889   1.263   2.834 -3.3290  0.1309  0.6182
 2228SOL    HW218147   3.935   1.292   2.697 -0.8257  0.4355 -0.7773
 2229SOL     OW18148   2.060   0.167   8.077 -0.0677  0.0944  0.1795
 2229SOL    HW118149   1.974   0.201   8.101 -0.3323 -0.8020  0.5203
 2229SOL    HW218150   2.112   0.233   8.122 -2.7289  0.8929  2.0954
 2230SOL     OW18151   1.826   1.697   5.239 -0.5051  0.1047  0.1631
 2230SOL    HW118152   1.842   1.626   5.302  1.0188 -0.4061 -0.7973
 2230SOL    HW218153   1.745   1.668   5.195 -0.6494 -2.1563  1.9257
 2231SOL     OW18154   4.183   1.677   7.115 -0.2775  0.2730  0.2547
 2231SOL    HW118155   4.159   1.764   7.081  0.6392  0.7361  0.7794
 2231SOL    HW218156   4.114   1.617   7.088  0.4227 -0.8907  1.0811
 2232SOL     OW18157   3.865   1.268   7.093 -0.0990 -0.4135  0.4153
 2232SOL    HW118158   3.852   1.179   7.124 -0.2514  0.1364  1.9575
 2232SOL    HW218159   3.779   1.307   7.106 -0.0378  0.1866 -0.9044
 2233SOL     OW18160   2.245   0.668  13.307 -0.5465  0.0359 -0.1582
 2233SOL    HW118161   2.215   0.577  13.301 -3.5580  1.1994 -2.3077
 2233SOL    HW218162   2.190   0.705  13.377  2.1514  1.6334  1.1225
 2234SOL     OW18163   4.007   4.163  16.922 -0.3906  0.7418  0.4589
 2234SOL    HW118164   4.031   4.129  16.835 -1.7314  0.6743  0.1260
 2234SOL    HW218165   4.100   4.183  16.939 -0.2574  2.8173 -2.6821
 2235SOL     OW18166   2.814   3.785   8.628  0.2422  0.0549 -0.2910
 2235SOL    HW118167   2.893   3.823   8.591  0.1301  0.4859 -0.0911
 2235SOL    HW218168   2.813   3.819   8.718  1.6849 -1.6924  0.4049
 2236SOL     OW18169   2.275   1.985   2.136  0.6271  0.1768 -0.6081
 2236SOL    HW118170   2.238   1.910   2.089 -2.1608  0.3020  1.3835
 2236SOL    HW218171   2.366   1.958   2.147 -0.6642 -3.4605  1.0891
 2237SOL     OW18172   2.831   1.432   3.312  0.2934  0.0327  0.6760
 2237SOL    HW118173   2.750   1.404   3.268 -0.6193  3.0953  0.3916
 2237SOL    HW218174   2.847   1.360   3.373  0.4203  1.8641  2.7951
 2238SOL     OW18175   3.616   2.677   4.459 -0.1609  0.1415  0.4337
 2238SOL    HW118176   3.631   2.626   4.380 -1.8122  1.2102 -0.5770
 2238SOL    HW218177   3.702   2.716   4.473 -0.2827 -0.4209  2.7680
 2239SOL     OW18178   3.343   2.330   4.316 -0.2794 -0.1845  0.1400
 2239SOL    HW118179   3.340   2.337   4.412 -1.1151 -1.0831  0.1891
 2239SOL    HW218180   3.249   2.340   4.299 -0.2361 -0.5315 -0.3002
 2240SOL     OW18181   2.180   1.686  11.632  0.2036 -0.2930  0.0714
 2240SOL    HW118182   2.109   1.694  11.696  0.6672  0.9820  0.4256
 2240SOL    HW218183   2.210   1.597  11.649 -3.2398 -1.4147  0.1614
 2241SOL     OW18184   1.437   0.481   9.006 -0.0795 -0.0322  0.5723
 2241SOL    HW118185   1.489   0.402   9.021 -0.9226 -0.8412 -0.7046
 2241SOL    HW218186   1.413   0.521   9.089 -0.5915  0.6875  0.0767
 2242SOL     OW18187   4.579   2.695   3.880  0.2769  0.4148  0.3603
 2242SOL    HW118188   4.573   2.606   3.843 -0.7795  1.1287 -1.1685
 2242SOL    HW218189   4.671   2.713   3.859  0.2192 -0.5792 -0.7551
 2243SOL     OW18190   1.208   1.383   6.251  0.1788 -0.1657  0.3798
 2243SOL    HW118191   1.202   1.426   6.336 -1.5307 -0.5943  0.4745
 2243SOL    HW218192   1.192   1.453   6.188  2.0941 -0.3401 -0.2862
 2244SOL     OW18193   0.331   3.900   6.265  0.1021 -0.4314  0.4725
 2244SOL    HW118194   0.291   3.950   6.194  3.8762  1.3801 -0.3692
 2244SOL    HW218195   0.406   3.871   6.213  0.3370 -0.5593  0.8798
 2245SOL     OW18196   4.426   4.201   4.862  0.0049 -0.4569  0.0919
 2245SOL    HW118197   4.354   4.226   4.921 -0.4367 -1.0160 -0.2099
 2245SOL    HW218198   4.406   4.256   4.786 -0.9284 -1.4633 -0.3935
 2246SOL     OW18199   2.555   3.244   5.879  0.1369  0.4811 -0.1137
 2246SOL    HW118200   2.583   3.184   5.810 -1.0585 -1.5048  1.1231
 2246SOL    HW218201   2.614   3.220   5.950  1.2944 -1.9252 -1.9069
 2247SOL     OW18202   0.320   1.104   6.156  0.1226 -0.1518 -0.0340
 2247SOL    HW118203   0.294   1.188   6.193 -0.4705  0.7090 -2.4154
 2247SOL    HW218204   0.274   1.109   6.073 -0.7468  1.3969  0.5552
 2248SOL     OW18205   4.380   1.983   9.924  0.0838 -0.4978  0.1930
 2248SOL    HW118206   4.367   1.901   9.876 -2.8376 -1.2352  2.2987
 2248SOL    HW218207   4.318   2.044   9.884  0.5153 -0.0673  0.1802
 2249SOL     OW18208   4.705   0.281   1.961 -0.5964 -0.1669  0.4664
 2249SOL    HW118209   0.016   0.335   2.032 -1.8573  0.0941  0.8909
 2249SOL    HW218210   4.617   0.265   1.994  0.1455 -3.3379  0.8304
 2250SOL     OW18211   2.439   2.805  15.172 -0.5013  0.4944 -0.3314
 2250SOL    HW118212   2.361   2.858  15.186 -2.2312 -1.3460 -3.1470
 2250SOL    HW218213   2.503   2.845  15.231 -1.5677  2.3491 -0.4476
 2251SOL     OW18214   3.932   3.113   3.064 -0.2639 -0.5602  0.0512
 2251SOL    HW118215   3.991   3.182   3.033 -0.5538  0.0579  0.9007
 2251SOL    HW218216   3.889   3.151   3.140  1.5791  0.3696  0.6348
 2252SOL     OW18217   0.323   1.250  15.958  0.3751  0.0125  0.5698
 2252SOL    HW118218   0.386   1.296  16.014 -0.0413  2.0784 -0.6772
 2252SOL    HW218219   0.238   1.269  15.998 -0.6719  3.2217 -3.2533
 2253SOL     OW18220   3.077   4.705   8.366  0.3299 -0.0800 -0.2927
 2253SOL    HW118221   3.114   4.654   8.438 -0.2931 -1.3903 -0.8992
 2253SOL    HW218222   3.015   4.643   8.329  0.6313 -1.3383  1.3261
 2254SOL     OW18223   2.196   1.127  15.549  0.1855  0.0354  1.0504
 2254SOL    HW118224   2.289   1.103  15.553  0.0113 -0.5102  1.8067
 2254SOL    HW218225   2.187   1.163  15.637 -1.1801 -2.1644  1.7833
 2255SOL     OW18226   3.086   0.275   5.639  0.3411 -0.1955  0.2229
 2255SOL    HW118227   3.159   0.289   5.579 -0.5492  0.3081 -0.7636
 2255SOL    HW218228   3.027   0.351   5.641  0.4765 -0.0386 -1.8330
 2256SOL     OW18229   4.431   1.990  11.164 -0.1886  0.0251 -0.4331
 2256SOL    HW118230   4.360   2.012  11.225  0.1190  2.1732 -0.8610
 2256SOL    HW218231   4.406   1.898  11.152 -0.6476  0.0247  0.4869
 2257SOL     OW18232   1.516   0.422  10.643  0.7423 -0.0330 -0.1154
 2257SOL    HW118233   1.427   0.439  10.672 -0.1936 -2.0723 -1.7692
 2257SOL    HW218234   1.508   0.449  10.551  0.7283 -2.7945 -0.9180
 2258SOL     OW18235   4.583   0.074  11.959  0.3678  0.7723 -0.0355
 2258SOL    HW118236   4.530   0.004  11.996  2.0385 -0.0100  0.8774
 2258SOL    HW218237   4.518   0.132  11.919  1.6338  3.1312  1.3598
 2259SOL     OW18238   4.439   1.608   9.491 -0.0918 -0.4474  0.2491
 2259SOL    HW118239   4.458   1.523   9.533  0.1180 -0.9025 -0.7840
 2259SOL    HW218240   4.346   1.621   9.509  0.4469  1.5052  1.6552
 2260SOL     OW18241   0.908   0.255   8.070 -0.7662 -0.4588  0.1292
 2260SOL    HW118242   0.814   0.255   8.087 -0.4603 -0.2616  1.8258
 2260SOL    HW218243   0.926   0.341   8.109 -0.2258 -0.4225 -0.1966
 2261SOL     OW18244   3.785   1.130   9.538 -0.2093  0.1649  0.0455
 2261SOL    HW118245   3.759   1.130   9.630 -1.1510  1.8328 -0.2323
 2261SOL    HW218246   3.722   1.193   9.505  0.7206  1.8436  1.4923
 2262SOL     OW18247   1.579   2.585   3.343 -0.4163 -0.2568  0.2333
 2262SOL    HW118248   1.539   2.665   3.376 -2.0116 -0.6878 -0.6442
 2262SOL    HW218249   1.497   2.538   3.327 -0.1004  0.1071 -2.4287
 2263SOL     OW18250   2.843   0.927   3.898 -0.2839 -0.3515  0.0543
 2263SOL    HW118251   2.762   0.974   3.916  0.7093  0.9584  1.0494
 2263SOL    HW218252   2.896   1.005   3.883  1.0230 -1.3570 -0.6309
 2264SOL     OW18253   2.323   1.082  11.455  0.1784 -0.0897  0.7583
 2264SOL    HW118254   2.370   1.011  11.410 -0.9773 -2.1231  2.7468
 2264SOL    HW218255   2.333   1.063  11.548  0.4983  1.8015  1.1056
 2265SOL     OW18256   3.660   3.592  14.238 -0.4809  0.1484  0.0191
 2265SOL    HW118257   3.585   3.600  14.297  1.3757  0.9743  2.2392
 2265SOL    HW218258   3.701   3.510  14.264 -0.2203  0.2959  0.0754
 2266SOL     OW18259   0.578   4.692   1.147 -0.4196 -0.4730 -0.3064
 2266SOL    HW118260   0.583   4.670   1.054 -1.3471  0.7067 -0.6368
 2266SOL    HW218261   0.569   0.062   1.140  1.3395 -0.3552 -1.0767
 2267SOL     OW18262   2.104   0.379  11.019 -0.6856 -0.4053  0.2162
 2267SOL    HW118263   2.017   0.356  10.984 -0.9630  0.3695  0.3968
 2267SOL    HW218264   2.080   0.429  11.097  2.7147  1.0580  0.2994
 2268SOL     OW18265   0.735   1.441   2.291  0.0914 -0.4960 -0.3678
 2268SOL    HW118266   0.679   1.364   2.300 -0.6491  0.2187  1.2646
 2268SOL    HW218267   0.809   1.414   2.346  0.6436  1.0513 -0.3451
 2269SOL     OW18268   4.551   0.019   8.203 -0.0909 -0.1050  0.4970
 2269SOL    HW118269   4.582   4.657   8.176  2.8079  1.4346 -1.0932
 2269SOL    HW218270   4.591   0.029   8.289  3.0162 -1.9426 -0.7229
 2270SOL     OW18271   1.165   1.983   8.660 -0.2084  0.7162 -0.1928
 2270SOL    HW118272   1.154   2.062   8.607  0.1704 -0.9992 -2.8175
 2270SOL    HW218273   1.255   1.960   8.636 -0.0699  1.6070 -0.5411
 2271SOL     OW18274   1.900   0.460   0.883 -0.1366  0.4479 -0.1648
 2271SOL    HW118275   1.901   0.554   0.869 -1.6713  0.2690 -1.4722
 2271SOL    HW218276   1.806   0.454   0.902  0.1320 -1.7163  0.4851
 2272SOL     OW18277   0.564   4.604   0.866  0.2711  0.1659  0.0241
 2272SOL    HW118278   0.642   4.656   0.848  0.8733 -0.5321  0.6021
 2272SOL    HW218279   0.593   4.525   0.820  1.1009 -0.5627  1.7821
 2273SOL     OW18280   3.889   0.911   2.324 -0.6992 -0.2396  0.4634
 2273SOL    HW118281   3.963   0.972   2.322 -1.0337  0.0611 -1.8818
 2273SOL    HW218282   3.818   0.952   2.275 -1.4368  0.0624  1.7644
 2274SOL     OW18283   0.726   4.373   5.244 -0.0142  0.1979  0.5311
 2274SOL    HW118284   0.670   4.333   5.178 -0.3339  0.2285  0.7799
 2274SOL    HW218285   0.757   4.451   5.199  0.9946 -0.4686  0.0565
 2275SOL     OW18286   1.377   4.568  13.470  0.1220  0.4042 -0.3278
 2275SOL    HW118287   1.348   4.481  13.494  1.4974  0.4327  1.4494
 2275SOL    HW218288   1.420   4.603  13.548 -3.1254  1.1545  1.1040
 2276SOL     OW18289   0.097   4.570   2.290 -0.4294  1.3277 -0.2759
 2276SOL    HW118290   0.052   4.637   2.237 -1.2103 -1.1140 -2.7224
 2276SOL    HW218291   0.142   4.527   2.218  2.9087  1.0905  1.9717
 2277SOL     OW18292   4.042   4.037  16.668  0.0992 -0.1902  0.2265
 2277SOL    HW118293   4.062   4.126  16.640  0.6010  0.0932  1.4541
 2277SOL    HW218294   4.035   3.996  16.583  0.0994 -0.9916  0.6133
 2278SOL     OW18295   2.971   4.190  10.180  0.4945  0.3331 -0.4407
 2278SOL    HW118296   2.976   4.185  10.084  1.2683  1.3032 -0.4499
 2278SOL    HW218297   3.020   4.114  10.213  1.2774  0.5428 -1.1058
 2279SOL     OW18298   0.806   0.838   6.232  0.7253 -0.3086  0.2800
 2279SOL    HW118299   0.892   0.805   6.258  1.2143  1.1828  0.5440
 2279SOL    HW218300   0.835   0.912   6.179  0.0253  0.5685  1.1178
 2280SOL     OW18301   3.127   2.398   2.748  0.0177  0.8194 -0.3542
 2280SOL    HW118302   3.153   2.469   2.806 -0.5470  0.3025  0.5346
 2280SOL    HW218303   3.034   2.392   2.769  0.5142 -2.2856  0.9521
 2281SOL     OW18304   3.503   1.062  14.217  0.0670 -0.1876 -0.4243
 2281SOL    HW118305   3.415   1.047  14.254 -0.1366 -0.0963 -0.8747
 2281SOL    HW218306   3.493   1.132  14.153  1.0681 -0.6894 -1.1205
 2282SOL     OW18307   0.433   2.490   0.584  0.0058  0.1340  0.0970
 2282SOL    HW118308   0.508   2.464   0.530  1.2148  0.2055  1.7125
 2282SOL    HW218309   0.473   2.529   0.663  0.6785  0.7149 -0.5294
 2283SOL     OW18310   4.035   1.287  12.993 -1.0194 -0.0526 -0.3292
 2283SOL    HW118311   4.112   1.307  12.941  1.5461 -1.3566  2.9863
 2283SOL    HW218312   4.050   1.197  13.022 -0.8013 -0.5549 -1.9710
 2284SOL     OW18313   2.993   4.335   5.727  0.0290 -0.4124  0.1889
 2284SOL    HW118314   2.927   4.287   5.677 -0.2665 -0.2960  0.4663
 2284SOL    HW218315   3.059   4.267   5.736  0.9364  0.2731 -1.3366
 2285SOL     OW18316   0.095   4.326   7.849 -0.1821 -0.4756  0.0280
 2285SOL    HW118317   0.108   4.334   7.754  0.1041 -1.2318  0.0035
 2285SOL    HW218318   0.071   4.414   7.877  1.3557  0.5159 -1.7747
 2286SOL     OW18319   3.710   4.018   5.143  0.8204  0.1209  0.1570
 2286SOL    HW118320   3.683   4.033   5.233 -3.5927 -0.4495 -1.0505
 2286SOL    HW218321   3.683   3.927   5.130 -2.4099  0.9997  0.7853
 2287SOL     OW18322   0.418   3.195  15.705 -0.1502  0.3911  0.2811
 2287SOL    HW118323   0.343   3.244  15.739  0.9549  0.2754  2.8901
 2287SOL    HW218324   0.464   3.163  15.782 -2.0171 -2.3910  0.2774
 2288SOL     OW18325   4.273   0.278   4.328 -0.0595 -0.3477  0.2756
 2288SOL    HW118326   4.343   0.292   4.265 -0.9922 -1.8277 -1.0840
 2288SOL    HW218327   4.253   0.190   4.297 -1.0046 -0.0230 -0.0588
 2289SOL     OW18328   0.334   3.973   9.445  0.2437 -0.2839 -0.0075
 2289SOL    HW118329   0.250   3.977   9.399  0.5331  1.9536 -0.3818
 2289SOL    HW218330   0.373   4.060   9.433 -1.5773  0.5623  0.1999
 2290SOL     OW18331   2.690   1.808  17.100  0.7788 -0.3177 -0.2288
 2290SOL    HW118332   2.619   1.757  17.139 -0.8600  2.6441  0.5693
 2290SOL    HW218333   2.700   1.744  17.028 -3.1626 -0.6296 -0.4971
 2291SOL     OW18334   1.258   1.042   4.721 -0.1925  0.2401  0.3566
 2291SOL    HW118335   1.270   0.963   4.773  0.4511 -0.1840 -0.4396
 2291SOL    HW218336   1.333   1.099   4.739  1.3699 -1.4357 -0.8484
 2292SOL     OW18337   4.458   2.151   7.050  0.2112 -0.3341 -0.1914
 2292SOL    HW118338   4.380   2.162   7.104 -0.4143 -0.0063 -1.1592
 2292SOL    HW218339   4.489   2.240   7.033 -0.7814 -0.2328 -1.4142
 2293SOL     OW18340   3.880   1.510   0.502  0.0350  0.4030  0.0906
 2293SOL    HW118341   3.874   1.495   0.408 -0.7362  0.4889  0.1298
 2293SOL    HW218342   3.786   1.523   0.517 -0.1757  0.1701 -1.0625
 2294SOL     OW18343   4.127   1.348   3.048 -0.0731  0.2976  0.0553
 2294SOL    HW118344   4.183   1.408   2.998 -0.5142  1.0969  0.5295
 2294SOL    HW218345   4.194   1.286   3.078  0.3527  0.8405  0.2244
 2295SOL     OW18346   2.236   2.795   5.264  0.1314 -0.2084  0.1339
 2295SOL    HW118347   2.286   2.732   5.212 -1.6283 -2.0109  0.6573
 2295SOL    HW218348   2.270   2.782   5.353  2.4819  0.5733 -0.6562
 2296SOL     OW18349   2.626   1.069  10.362  0.1931 -0.5351  0.3170
 2296SOL    HW118350   2.674   1.021  10.430  1.6071 -0.4648 -0.6278
 2296SOL    HW218351   2.567   1.115  10.422 -2.3253  0.7546 -3.1482
 2297SOL     OW18352   2.538   2.823   2.740  0.2825 -0.0165 -0.2315
 2297SOL    HW118353   2.533   2.733   2.774 -0.1963 -0.0223 -0.3233
 2297SOL    HW218354   2.634   2.831   2.742  0.3387  0.0437 -2.9934
 2298SOL     OW18355   2.057   1.525   3.753 -0.2532 -0.0160  0.2061
 2298SOL    HW118356   2.055   1.606   3.805  2.4245  1.5039 -2.0600
 2298SOL    HW218357   2.119   1.541   3.682 -0.5338 -0.6536 -0.1774
 2299SOL     OW18358   0.947   2.480  10.596  0.4435 -0.4337  0.4026
 2299SOL    HW118359   0.927   2.485  10.689  0.2889  1.4319  0.2693
 2299SOL    HW218360   1.028   2.531  10.590 -0.6460  0.9306 -2.7467
 2300SOL     OW18361   0.834   3.162   9.623 -0.2837 -0.5968 -0.3220
 2300SOL    HW118362   0.855   3.252   9.649 -0.9702 -0.4807 -0.1877
 2300SOL    HW218363   0.754   3.191   9.580 -1.1727  1.0363  2.4199
 2301SOL     OW18364   3.102   1.992  11.031  0.0753 -0.1451  0.0137
 2301SOL    HW118365   3.031   1.968  10.972  0.0224  0.2722 -0.0919
 2301SOL    HW218366   3.065   1.953  11.110 -0.1738  1.3893  0.6453
 2302SOL     OW18367   0.276   1.165   8.147  0.3419 -0.0913 -0.1495
 2302SOL    HW118368   0.238   1.116   8.073  1.9150 -2.3125  0.5231
 2302SOL    HW218369   0.197   1.187   8.196 -0.7775 -0.6634 -1.6737
 2303SOL     OW18370   0.723   2.669   3.147  0.1262  0.0745 -0.2772
 2303SOL    HW118371   0.775   2.712   3.080  1.3058 -0.4340  0.2958
 2303SOL    HW218372   0.708   2.744   3.204 -1.4747  0.6756 -1.5106
 2304SOL     OW18373   4.437   2.644  14.244 -1.1435 -0.1569  0.3543
 2304SOL    HW118374   4.445   2.567  14.300  1.0689 -2.0103 -2.5316
 2304SOL    HW218375   4.368   2.685  14.296 -0.6945  1.9450 -0.7084
 2305SOL     OW18376   1.194   2.968   1.779  0.0875 -0.3361 -0.1322
 2305SOL    HW118377   1.222   2.893   1.727  0.3556 -0.6275  0.4374
 2305SOL    HW218378   1.275   3.018   1.778 -1.3328  1.9569 -1.5611
 2306SOL     OW18379   2.799   2.570   1.884  0.1376  0.0478  0.4573
 2306SOL    HW118380   2.720   2.597   1.838 -0.9997  0.7104  2.8076
 2306SOL    HW218381   2.833   2.658   1.898  0.2393  0.1689 -0.5528
 2307SOL     OW18382   4.528   3.597   5.667  0.2799 -0.0825  0.0329
 2307SOL    HW118383   4.570   3.527   5.618 -1.9456 -1.7474  0.5312
 2307SOL    HW218384   4.599   3.638   5.717 -0.3220  1.3452 -0.2949
 2308SOL     OW18385   2.026   1.447   7.668 -0.3705  0.0363  0.0446
 2308SOL    HW118386   2.050   1.535   7.695  1.6134  0.0410 -1.6681
 2308SOL    HW218387   1.938   1.451   7.631 -0.8161 -0.2167  1.0757
 2309SOL     OW18388   4.200   1.758   9.597  0.0742 -0.6414 -1.2906
 2309SOL    HW118389   4.243   1.826   9.545 -0.0148  0.9239  0.6623
 2309SOL    HW218390   4.243   1.772   9.681  2.3516 -3.7512 -1.9153
 2310SOL     OW18391   0.738   1.120   9.142 -0.7266  0.8844  0.3291
 2310SOL    HW118392   0.828   1.146   9.123 -0.6908 -0.8968 -1.8823
 2310SOL    HW218393   0.754   1.034   9.180 -1.3108  0.3932 -0.5329
 2311SOL     OW18394   1.918   3.614  11.814 -0.1362  0.4127 -0.2769
 2311SOL    HW118395   2.001   3.661  11.817 -0.1021  0.4345 -1.6620
 2311SOL    HW218396   1.872   3.648  11.737 -1.4622  2.7267  1.5718
 2312SOL     OW18397   1.062   2.627   4.202  0.5833 -0.4788 -0.5636
 2312SOL    HW118398   1.007   2.700   4.232  0.8609  0.3574 -2.1124
 2312SOL    HW218399   1.106   2.677   4.134  0.7143 -0.9372 -0.8117
 2313SOL     OW18400   4.122   3.001   8.289  0.4877  0.3349  0.0549
 2313SOL    HW118401   4.216   3.019   8.280  0.4537 -0.5741 -2.0981
 2313SOL    HW218402   4.103   2.978   8.198 -1.8471 -0.3651  0.7120
 2314SOL     OW18403   0.750   3.629  16.415  0.5552 -0.1349 -0.8628
 2314SOL    HW118404   0.747   3.711  16.366 -2.9066  0.4301  0.2905
 2314SOL    HW218405   0.763   3.565  16.346 -0.3155  1.3082 -2.3591
 2315SOL     OW18406   2.205   1.103   7.166 -0.3643 -0.0814 -0.1995
 2315SOL    HW118407   2.184   1.145   7.249  1.0865  0.7388 -0.2497
 2315SOL    HW218408   2.277   1.151   7.126 -1.6318  0.9871 -1.2073
 2316SOL     OW18409   3.204   1.293   6.363 -0.0980 -0.1424  0.1552
 2316SOL    HW118410   3.284   1.278   6.412 -0.5391 -1.7587  0.3643
 2316SOL    HW218411   3.216   1.247   6.280 -1.6256  2.2276 -1.3956
 2317SOL     OW18412   3.082   4.151   3.866  0.7407  0.0729 -0.9864
 2317SOL    HW118413   3.039   4.228   3.829 -0.4957 -1.7071 -3.2478
 2317SOL    HW218414   3.111   4.180   3.953  1.3112 -3.2354 -0.0833
 2318SOL     OW18415   4.087   0.416   2.939 -0.3536  0.2493 -0.0054
 2318SOL    HW118416   4.092   0.334   2.989  0.6100  0.5119  0.3302
 2318SOL    HW218417   4.000   0.449   2.958 -0.4488  1.1402 -1.9955
 2319SOL     OW18418   1.850   1.199  11.043  0.1111 -0.3538  0.0658
 2319SOL    HW118419   1.888   1.145  11.113  0.1148 -0.0182  0.3207
 2319SOL    HW218420   1.929   1.210  10.990  0.1497 -0.6454  0.0622
 2320SOL     OW18421   1.469   0.513   7.890  0.5122 -0.3513  0.2112
 2320SOL    HW118422   1.477   0.543   7.799  2.0814  0.3143  0.5808
 2320SOL    HW218423   1.493   0.592   7.937  1.9330 -1.7348  1.7857
 2321SOL     OW18424   4.603   1.104   7.063  0.0219 -0.2548  0.1689
 2321SOL    HW118425   4.651   1.022   7.060 -1.6090 -1.2980  2.2309
 2321SOL    HW218426   4.644   1.136   7.144 -0.3779  3.7848 -1.2111
 2322SOL     OW18427   3.704   3.177  14.586 -0.2185 -0.3276  0.2186
 2322SOL    HW118428   3.787   3.181  14.634 -0.2962  2.0575  0.1300
 2322SOL    HW218429   3.652   3.250  14.619 -0.1887 -0.6935  1.0807
 2323SOL     OW18430   2.789   2.537   8.322  0.7550  0.3082 -0.1765
 2323SOL    HW118431   2.714   2.484   8.295  0.0172 -0.3044  3.0412
 2323SOL    HW218432   2.810   2.501   8.408  2.0245  1.8141  0.1295
 2324SOL     OW18433   0.820   0.377  16.823  0.7086  0.3956 -0.2732
 2324SOL    HW118434   0.789   0.357  16.735 -1.2790  0.4649  0.4260
 2324SOL    HW218435   0.784   0.309  16.880  0.8120 -0.2856 -1.0304
 2325SOL     OW18436   3.492   3.679   8.423  0.1411 -0.7904  0.2524
 2325SOL    HW118437   3.490   3.714   8.512 -1.2966  0.0616 -0.1011
 2325SOL    HW218438   3.586   3.680   8.406  0.4009 -2.0596  1.6792
 2326SOL     OW18439   2.987   2.339  17.387  0.4848  0.2257  0.3949
 2326SOL    HW118440   3.052   2.273  17.411  0.4961  0.1135  0.0598
 2326SOL    HW218441   2.935   2.287  17.326 -0.0087  1.6031 -0.3488
 2327SOL     OW18442   0.551   3.715   8.426  0.4441 -0.4260 -0.5249
 2327SOL    HW118443   0.602   3.786   8.465  1.3427 -0.3552 -1.8133
 2327SOL    HW218444   0.523   3.762   8.347  4.1051  1.0226 -0.9317
 2328SOL     OW18445   4.091   1.629  11.080  0.2464 -0.6242  0.3372
 2328SOL    HW118446   4.090   1.696  11.011 -0.0710 -1.5918 -0.5916
 2328SOL    HW218447   4.135   1.678  11.149 -0.4083 -1.2316  1.1759
 2329SOL     OW18448   4.055   0.877   7.496  0.6858  0.1591  0.3468
 2329SOL    HW118449   3.986   0.931   7.456  2.2247  0.3978 -1.9906
 2329SOL    HW218450   4.020   0.862   7.584  3.7936  0.8621  1.6915
 2330SOL     OW18451   3.759   0.024   8.087 -0.2441  0.2825  0.6394
 2330SOL    HW118452   3.783   0.083   8.015 -1.6878  1.9039  1.4853
 2330SOL    HW218453   3.665   0.014   8.072 -0.2674  0.7925  0.4247
 2331SOL     OW18454   4.309   3.705   6.685 -0.0746  0.4053  0.1565
 2331SOL    HW118455   4.379   3.674   6.742 -0.6015  1.6763  1.4858
 2331SOL    HW218456   4.309   3.632   6.623  0.1305  0.9479 -0.4955
 2332SOL     OW18457   4.656   1.952  13.270 -0.4367 -0.0690 -0.2924
 2332SOL    HW118458   4.579   2.003  13.243 -0.6649  1.5920  3.4929
 2332SOL    HW218459   0.001   2.017  13.284 -1.2690  0.4391  1.5812
 2333SOL     OW18460   1.772   1.220  12.741 -0.2377 -0.0717  0.1859
 2333SOL    HW118461   1.712   1.252  12.809 -0.1768 -0.2541  0.3260
 2333SOL    HW218462   1.829   1.294  12.764 -0.7689 -0.3694  2.4861
 2334SOL     OW18463   1.469   0.590   7.639  0.3437  0.4666  0.0867
 2334SOL    HW118464   1.400   0.541   7.594 -0.8652 -0.1723  2.6317
 2334SOL    HW218465   1.537   0.594   7.571 -1.2389 -1.4823 -1.6156
 2335SOL     OW18466   2.729   0.966  12.723 -0.0226  0.3541  0.1683
 2335SOL    HW118467   2.694   1.013  12.647 -0.6358 -1.7135 -0.8308
 2335SOL    HW218468   2.675   0.887  12.717 -1.6341  1.2708  3.2567
 2336SOL     OW18469   2.825   4.027   5.000  0.2775  0.2190 -0.6875
 2336SOL    HW118470   2.806   3.976   4.921  3.2395 -0.1887 -1.1143
 2336SOL    HW218471   2.835   4.115   4.965  2.6398 -0.0233 -0.6015
 2337SOL     OW18472   2.624   1.074   1.584 -0.3792 -0.4747  0.4430
 2337SOL    HW118473   2.677   1.154   1.588  2.4415 -2.3555  0.6377
 2337SOL    HW218474   2.635   1.047   1.675  0.6055 -4.0805 -0.7585
 2338SOL     OW18475   4.378   2.252   4.834  0.8517 -0.4164 -0.1710
 2338SOL    HW118476   4.424   2.270   4.916  1.1824 -0.2500 -0.3934
 2338SOL    HW218477   4.292   2.221   4.861  1.0658 -1.4386 -0.6349
 2339SOL     OW18478   1.240   4.678  10.819  0.3987 -0.1804  0.0731
 2339SOL    HW118479   1.179   0.023  10.843  1.5389  1.4875 -1.8554
 2339SOL    HW218480   1.299   0.009  10.768 -1.0957  0.7161 -0.6650
 2340SOL     OW18481   3.722   3.625   5.931  0.4938  0.1231  0.3408
 2340SOL    HW118482   3.659   3.685   5.972 -0.3018 -0.7810  0.4393
 2340SOL    HW218483   3.763   3.573   5.999 -0.8531  0.8908  1.7574
 2341SOL     OW18484   4.484   4.653   3.386  0.8649 -0.1026  0.0268
 2341SOL    HW118485   4.394   4.618   3.385  0.8964 -0.1518 -1.7451
 2341SOL    HW218486   4.467   0.018   3.357 -0.8089 -0.5399 -0.3478
 2342SOL     OW18487   2.555   0.123   2.569 -0.0082 -0.2893 -0.1660
 2342SOL    HW118488   2.650   0.121   2.555  0.3951  2.4332  2.1852
 2342SOL    HW218489   2.541   0.029   2.564 -0.6286 -0.1284 -1.4056
 2343SOL     OW18490   3.214   2.261   2.514 -0.2841 -0.0193 -0.0858
 2343SOL    HW118491   3.308   2.282   2.515 -0.4415  0.4789  2.6177
 2343SOL    HW218492   3.195   2.279   2.606  1.1106 -0.6565  0.3275
 2344SOL     OW18493   0.716   3.536   7.126  0.0060  0.3756 -0.1011
 2344SOL    HW118494   0.629   3.500   7.144 -0.5240  0.6044 -2.2371
 2344SOL    HW218495   0.693   3.628   7.114  2.3951  0.9490 -0.1307
 2345SOL     OW18496   1.496   3.858   0.379  0.7913 -0.9390 -0.3203
 2345SOL    HW118497   1.468   3.896   0.296 -0.7069  2.7520  1.8491
 2345SOL    HW218498   1.573   3.804   0.359  1.3028  0.7604 -2.9799
 2346SOL     OW18499   0.218   1.999  14.980  0.6303  0.5723  0.1908
 2346SOL    HW118500   0.252   2.074  14.931  1.1110 -0.4621 -1.0583
 2346SOL    HW218501   0.294   1.958  15.021 -0.1096  0.5624  1.5286
 2347SOL     OW18502   1.172   2.384   5.594  0.5143 -1.3009  0.2056
 2347SOL    HW118503   1.203   2.463   5.638 -1.8101  0.8361 -2.0366
 2347SOL    HW218504   1.134   2.432   5.521  2.0109  0.1129  0.3619
 2348SOL     OW18505   0.046   3.567   5.979  0.8597  0.0022  0.5087
 2348SOL    HW118506   4.699   3.628   5.959 -0.6313 -1.9340 -0.0541
 2348SOL    HW218507   0.087   3.560   5.893 -2.1103  0.9105 -0.9758
 2349SOL     OW18508   1.885   3.975   6.466  0.7964 -0.5465  0.0857
 2349SOL    HW118509   1.843   4.040   6.409 -0.2670 -2.8168 -1.7135
 2349SOL    HW218510   1.885   4.024   6.548  2.2849  2.0095 -1.4513
 2350SOL     OW18511   3.567   1.853  15.423 -0.1116 -0.3050  0.1519
 2350SOL    HW118512   3.663   1.851  15.423 -0.0837  1.3432  2.3399
 2350SOL    HW218513   3.547   1.792  15.352  1.7398 -0.6854 -0.0470
 2351SOL     OW18514   1.391   2.275   6.567  0.3507 -0.0391  0.0216
 2351SOL    HW118515   1.355   2.257   6.653 -1.5106  2.0374 -0.3208
 2351SOL    HW218516   1.381   2.195   6.515  1.3349 -0.0066 -0.2250
 2352SOL     OW18517   4.707   0.625   3.919 -0.2105 -0.1391  0.2161
 2352SOL    HW118518   0.039   0.551   3.943  0.6899  0.4860  0.0342
 2352SOL    HW218519   4.629   0.621   3.974 -1.3242 -1.0208 -1.4251
 2353SOL     OW18520   4.716   2.804  13.484 -0.3985 -0.1890 -0.4310
 2353SOL    HW118521   0.069   2.817  13.429 -0.2678  1.0050  0.0336
 2353SOL    HW218522   4.718   2.709  13.493 -0.1669 -0.3381 -2.0017
 2354SOL     OW18523   4.672   3.067  16.860  0.1050 -0.2084  0.3440
 2354SOL    HW118524   4.582   3.100  16.857 -0.1223 -0.4700  3.7659
 2354SOL    HW218525   4.708   3.088  16.946  1.5803 -1.0371 -0.0768
 2355SOL     OW18526   4.544   0.650   0.172 -0.0105  0.5964  0.5519
 2355SOL    HW118527   4.459   0.679   0.140 -0.1122 -1.4551 -1.0155
 2355SOL    HW218528   4.604   0.716   0.135 -1.2163  1.1080 -0.5029
 2356SOL     OW18529   1.216   1.237   4.509  0.0984  0.7003  0.0487
 2356SOL    HW118530   1.133   1.216   4.466  0.8876  0.1552 -1.2131
 2356SOL    HW218531   1.240   1.152   4.545  0.0004  0.8892  0.5653
 2357SOL     OW18532   1.069   4.694   2.988  0.4327 -0.3651  0.1594
 2357SOL    HW118533   1.135   4.695   2.920  1.2553  1.5764  0.9894
 2357SOL    HW218534   1.001   4.654   2.933  2.7962 -0.5539 -2.6216
 2358SOL     OW18535   3.139   1.971   6.541 -0.4781  0.4035 -0.6182
 2358SOL    HW118536   3.113   1.936   6.627 -1.4298  0.7569 -0.7631
 2358SOL    HW218537   3.126   2.065   6.548  0.2972  0.4958 -0.4732
 2359SOL     OW18538   0.805   4.160  16.881 -0.2023 -0.4180 -0.1500
 2359SOL    HW118539   0.822   4.222  16.811 -0.0325 -0.6635 -0.3295
 2359SOL    HW218540   0.710   4.151  16.877 -0.1770 -1.4080  1.3599
 2360SOL     OW18541   1.307   2.210   6.815 -0.0604 -0.7761  0.2990
 2360SOL    HW118542   1.373   2.254   6.868 -0.3477 -0.3158  0.2747
 2360SOL    HW218543   1.282   2.133   6.865 -0.7666  0.6094  2.0528
 2361SOL     OW18544   1.201   4.104   7.693 -0.4887 -0.3866 -0.3549
 2361SOL    HW118545   1.269   4.038   7.679 -0.2447 -0.0758 -0.6170
 2361SOL    HW218546   1.199   4.154   7.612 -0.0485  0.4163  0.1259
 2362SOL     OW18547   4.482   2.975   1.484  0.2883 -0.0159 -0.0468
 2362SOL    HW118548   4.396   2.971   1.526 -0.2389  0.2688 -1.1009
 2362SOL    HW218549   4.487   3.070   1.471 -1.2223 -0.3068 -2.7935
 2363SOL     OW18550   0.674   0.587   7.221 -0.0925 -0.2429  0.2048
 2363SOL    HW118551   0.723   0.507   7.240 -3.5626 -2.1562  1.1303
 2363SOL    HW218552   0.670   0.590   7.125  2.6176  1.0266  0.1135
 2364SOL     OW18553   2.794   2.179   8.155 -0.2524 -0.1941  0.4958
 2364SOL    HW118554   2.725   2.149   8.215 -1.5315  0.8776 -0.4284
 2364SOL    HW218555   2.794   2.102   8.097  0.2449  1.5905 -1.8706
 2365SOL     OW18556   2.996   1.426   5.709  1.0925  0.1296  0.4336
 2365SOL    HW118557   3.001   1.516   5.742  2.5359  0.5547 -0.9419
 2365SOL    HW218558   2.990   1.388   5.797 -0.9769 -2.4819 -0.8541
 2366SOL     OW18559   2.232   1.577   6.740  0.1301  0.5322  0.1557
 2366SOL    HW118560   2.204   1.541   6.656  1.2251 -0.5655  0.2597
 2366SOL    HW218561   2.286   1.653   6.721  1.0945  0.3871  2.3535
 2367SOL     OW18562   0.441   0.691   3.554 -0.4979 -0.2683 -0.4891
 2367SOL    HW118563   0.422   0.714   3.463  1.4032  2.9825 -0.0906
 2367SOL    HW218564   0.395   0.762   3.599  1.0033 -1.3890  2.8307
 2368SOL     OW18565   1.487   0.987  15.921 -0.0183  0.1527 -0.2183
 2368SOL    HW118566   1.433   0.912  15.898 -1.9997  0.7389  2.4874
 2368SOL    HW218567   1.535   0.997  15.839  2.2930  1.2518  1.2590
 2369SOL     OW18568   0.407   2.910   3.705  0.3940  0.4511  0.6228
 2369SOL    HW118569   0.473   2.978   3.693  0.6363  0.3079  1.1590
 2369SOL    HW218570   0.436   2.848   3.638  0.5022 -0.4172  1.4671
 2370SOL     OW18571   3.199   3.673   7.004  0.1604  0.6774  0.1944
 2370SOL    HW118572   3.285   3.636   7.024 -0.2951 -1.4737 -1.7222
 2370SOL    HW218573   3.218   3.764   7.023 -2.6950  0.8757  2.1701
 2371SOL     OW18574   1.761   2.858  17.062  0.1234 -0.5741  0.5726
 2371SOL    HW118575   1.791   2.770  17.039 -0.7376  0.0770 -3.0478
 2371SOL    HW218576   1.770   2.907  16.980  1.0084 -1.4726  0.1352
 2372SOL     OW18577   4.424   0.852   4.043 -0.5497 -0.5210 -0.2555
 2372SOL    HW118578   4.402   0.796   3.968  0.9375 -0.5591 -0.6617
 2372SOL    HW218579   4.493   0.803   4.087 -0.3544 -0.9587 -1.0499
 2373SOL     OW18580   1.344   2.109  15.359  0.0200  0.6917 -0.0746
 2373SOL    HW118581   1.334   2.073  15.447  1.0622  0.6743  0.0381
 2373SOL    HW218582   1.302   2.033  15.319  1.0812 -0.0318  0.1746
 2374SOL     OW18583   0.120   2.817   7.718  0.1226  0.4008  0.1092
 2374SOL    HW118584   0.203   2.854   7.750  0.0519  0.3574  0.3443
 2374SOL    HW218585   0.135   2.821   7.624 -0.7973 -0.5409 -0.0742
 2375SOL     OW18586   3.202   3.028   5.874  0.2229  0.6500  0.4470
 2375SOL    HW118587   3.196   2.984   5.790  0.3462  1.2152  0.1466
 2375SOL    HW218588   3.269   2.971   5.911  2.1881  2.1346 -0.8468
 2376SOL     OW18589   1.616   1.621   5.098 -0.9773 -0.9025 -0.0032
 2376SOL    HW118590   1.655   1.562   5.034 -0.8389  2.2329 -2.7952
 2376SOL    HW218591   1.583   1.691   5.041 -0.0883  0.6588  1.4132
 2377SOL     OW18592   1.677   1.751   5.611 -0.2149  0.0254 -0.0301
 2377SOL    HW118593   1.740   1.821   5.627  0.0163  0.2947 -2.1237
 2377SOL    HW218594   1.643   1.771   5.524 -0.0195  0.3310 -0.0348
 2378SOL     OW18595   0.641   4.283   1.703 -0.1449 -0.6788 -0.1933
 2378SOL    HW118596   0.711   4.233   1.661 -2.1241 -2.1361 -1.8087
 2378SOL    HW218597   0.593   4.317   1.627 -0.8584  0.3676  0.7292
 2379SOL     OW18598   3.131   4.562   7.501  0.8973 -0.1270  0.3474
 2379SOL    HW118599   3.181   4.481   7.500  0.9615 -0.0887  0.4265
 2379SOL    HW218600   3.112   4.570   7.594  0.2506 -0.1514  0.2225
 2380SOL     OW18601   2.511   1.297   7.067 -0.1865 -0.3732  0.2014
 2380SOL    HW118602   2.482   1.333   7.151 -0.5580  3.3582 -1.5471
 2380SOL    HW218603   2.519   1.375   7.012 -2.0055  0.8959  1.7054
 2381SOL     OW18604   0.316   1.016   3.211  0.2354 -0.4001 -0.5452
 2381SOL    HW118605   0.335   1.107   3.186  0.5395 -0.2309  0.3104
 2381SOL    HW218606   0.292   0.975   3.128  0.0574 -1.0763 -0.1498
 2382SOL     OW18607   4.015   3.470   9.607 -0.0426 -0.0398  0.1367
 2382SOL    HW118608   3.967   3.552   9.613  0.1401  0.1534 -1.0042
 2382SOL    HW218609   4.025   3.469   9.512 -1.2754 -2.6357  0.0515
 2383SOL     OW18610   0.618   1.471   6.810  0.5009 -0.1670  0.5659
 2383SOL    HW118611   0.638   1.534   6.740 -0.6379  0.9108  1.2050
 2383SOL    HW218612   0.624   1.533   6.883  4.4719  0.7686 -0.5436
 2384SOL     OW18613   0.015   1.758  15.536 -0.7023  0.5548  0.1265
 2384SOL    HW118614   4.710   1.711  15.458  2.4696 -1.3658  0.0657
 2384SOL    HW218615   0.107   1.731  15.544 -0.9853 -0.0683  1.3457
 2385SOL     OW18616   3.182   3.275  16.633  0.1396 -0.4958 -0.2238
 2385SOL    HW118617   3.229   3.293  16.714 -0.4011  0.5270 -0.1427
 2385SOL    HW218618   3.132   3.356  16.624  0.1910 -0.3605  0.7046
 2386SOL     OW18619   1.199   1.830   3.689 -0.5708  0.3675 -0.3507
 2386SOL    HW118620   1.179   1.910   3.737 -0.2261 -0.0257  0.4449
 2386SOL    HW218621   1.291   1.817   3.710 -0.5850  2.0420  0.7126
 2387SOL     OW18622   0.748   4.165   7.237  0.5064  0.0407 -0.1794
 2387SOL    HW118623   0.676   4.228   7.240  0.4368 -0.0481  0.0252
 2387SOL    HW218624   0.789   4.187   7.153 -2.6334  3.3294 -0.9023
 2388SOL     OW18625   4.428   1.303   8.606 -0.0757  0.6318  0.1231
 2388SOL    HW118626   4.498   1.335   8.549  0.8424  1.7257  1.8813
 2388SOL    HW218627   4.453   1.211   8.605 -0.2029  0.5884  1.1034
 2389SOL     OW18628   1.130   2.967   5.386 -0.7555  0.3968 -0.0813
 2389SOL    HW118629   1.092   2.921   5.311  1.0048  1.1581 -1.4268
 2389SOL    HW218630   1.145   3.052   5.347 -3.1715  0.6397 -0.5204
 2390SOL     OW18631   1.630   1.880   9.391 -0.0129 -0.6384 -0.2556
 2390SOL    HW118632   1.704   1.897   9.450 -1.4064  0.3402  1.2361
 2390SOL    HW218633   1.626   1.785   9.400 -0.9448 -0.5133  0.7442
 2391SOL     OW18634   0.041   1.682   0.188  0.1093  0.0183  0.2009
 2391SOL    HW118635   0.014   1.772   0.168  1.8325  0.5950  0.4834
 2391SOL    HW218636   4.717   1.639   0.117  1.5219  0.8359 -1.2644
 2392SOL     OW18637   0.378   3.551   9.656  0.2300 -0.4946  0.0254
 2392SOL    HW118638   0.317   3.596   9.714  0.0484  1.5164 -1.7105
 2392SOL    HW218639   0.359   3.460   9.679 -0.3941 -0.7764 -1.5975
 2393SOL     OW18640   3.309   3.063   7.261 -0.0632 -0.1658  0.8863
 2393SOL    HW118641   3.284   2.979   7.299 -0.9642  0.3683  1.4594
 2393SOL    HW218642   3.234   3.118   7.283 -1.0535  0.6488 -4.4637
 2394SOL     OW18643   1.273   0.609   9.559  0.1434  0.4850 -0.4331
 2394SOL    HW118644   1.210   0.648   9.619  1.4376  2.2857 -0.2361
 2394SOL    HW218645   1.254   0.664   9.482 -1.4720  1.0631  0.3722
 2395SOL     OW18646   3.695   0.825   1.721 -0.0418 -0.2488 -0.2076
 2395SOL    HW118647   3.643   0.904   1.707 -0.8698 -0.6836  0.4379
 2395SOL    HW218648   3.632   0.755   1.705  0.4311 -0.1698 -2.3834
 2396SOL     OW18649   1.364   1.671  10.370 -0.5858  0.2746 -0.3353
 2396SOL    HW118650   1.359   1.673  10.466 -2.2101 -0.1061 -0.4026
 2396SOL    HW218651   1.270   1.684  10.355 -0.0591  1.9052 -2.0997
 2397SOL     OW18652   4.573   3.980   2.569  0.1551 -0.0306 -0.7119
 2397SOL    HW118653   4.591   3.891   2.601 -0.5262  0.0594 -0.0805
 2397SOL    HW218654   4.483   3.971   2.540  0.4647  0.4031 -1.8127
 2398SOL     OW18655   2.475   2.450  12.108  0.3756  0.7678 -0.2393
 2398SOL    HW118656   2.393   2.443  12.157 -1.5849  1.4519 -3.4106
 2398SOL    HW218657   2.446   2.459  12.017  0.7273 -0.7016 -0.4863
 2399SOL     OW18658   3.484   2.869   9.098  0.6498 -1.0495 -0.2187
 2399SOL    HW118659   3.458   2.934   9.164 -0.8717 -1.1386 -0.7467
 2399SOL    HW218660   3.498   2.925   9.022 -0.1271  0.2546  0.6016
 2400SOL     OW18661   1.146   4.480   2.748 -0.3780 -0.2745 -0.1991
 2400SOL    HW118662   1.163   4.448   2.659  1.3750  1.5656 -0.5308
 2400SOL    HW218663   1.136   4.574   2.731 -0.1687 -0.3617 -0.8277
 2401SOL     OW18664   3.661   0.619   7.960  0.7181 -0.2893 -0.2867
 2401SOL    HW118665   3.664   0.714   7.949 -1.3353 -0.2672 -0.5998
 2401SOL    HW218666   3.587   0.604   8.019  0.6017 -1.5604 -0.7638
 2402SOL     OW18667   3.357   2.918   8.218  0.4613 -0.1575 -0.3357
 2402SOL    HW118668   3.332   3.006   8.244  1.9950  0.2598 -0.2352
 2402SOL    HW218669   3.428   2.909   8.282 -1.0823 -0.3435  1.3260
 2403SOL     OW18670   1.425   0.131   8.268 -0.2311 -0.3838  0.4134
 2403SOL    HW118671   1.331   0.119   8.272 -0.1058 -1.9930 -1.7744
 2403SOL    HW218672   1.428   0.227   8.270 -2.1376 -0.3595  2.5705
 2404SOL     OW18673   3.183   1.783   1.819  0.0599  0.4672  0.3033
 2404SOL    HW118674   3.242   1.857   1.806 -0.8150  1.0115 -0.5279
 2404SOL    HW218675   3.157   1.789   1.911  0.4710  0.3415  0.4291
 2405SOL     OW18676   3.106   2.568   3.015  0.3939  0.1322  0.1850
 2405SOL    HW118677   3.196   2.535   3.023 -0.0473 -0.8134  1.3265
 2405SOL    HW218678   3.069   2.481   3.031  0.2437  0.1050 -0.3023
 2406SOL     OW18679   3.386   1.413  14.313 -0.4743 -1.1014 -0.3642
 2406SOL    HW118680   3.391   1.508  14.321 -2.4060 -1.3091  4.0360
 2406SOL    HW218681   3.478   1.389  14.321 -0.4309 -0.7812  0.1359
 2407SOL     OW18682   3.682   4.112  12.096  0.5405  0.2503 -0.5340
 2407SOL    HW118683   3.667   4.207  12.096 -1.1331 -0.0146 -1.4113
 2407SOL    HW218684   3.764   4.109  12.146 -0.7213  0.8483  1.5630
 2408SOL     OW18685   3.198   3.526   5.039 -0.3247  0.2209 -0.1440
 2408SOL    HW118686   3.287   3.539   5.073 -0.1180  1.9799 -1.3598
 2408SOL    HW218687   3.190   3.595   4.973 -0.2965  0.5089  0.1537
 2409SOL     OW18688   2.120   3.535   0.018 -0.7709 -0.2276  0.1132
 2409SOL    HW118689   2.057   3.462   0.014  2.0557 -2.5692 -1.8768
 2409SOL    HW218690   2.096   3.572  17.632 -0.5407  1.4800  0.8068
 2410SOL     OW18691   3.415   1.748   8.328  0.0798  0.5931  0.1467
 2410SOL    HW118692   3.400   1.768   8.420 -3.2136  2.7145 -0.8774
 2410SOL    HW218693   3.322   1.747   8.304 -0.0238 -1.6459  0.6076
 2411SOL     OW18694   2.562   2.295   7.807  0.1284  0.5980  0.4227
 2411SOL    HW118695   2.601   2.347   7.736 -0.7892  1.0278  0.2250
 2411SOL    HW218696   2.585   2.360   7.873  0.4089 -0.5106  1.3997
 2412SOL     OW18697   3.937   1.054  17.513  0.0076  0.7592  0.1462
 2412SOL    HW118698   3.924   1.144  17.541  1.7993  1.5547 -1.6563
 2412SOL    HW218699   3.985   1.020  17.589 -0.4451 -1.5335 -0.5896
 2413SOL     OW18700   0.345   2.818   6.835  0.1824 -0.0546 -0.1754
 2413SOL    HW118701   0.432   2.783   6.819 -1.2467 -3.7520  0.1647
 2413SOL    HW218702   0.306   2.810   6.748  0.3170  0.3792 -0.2784
 2414SOL     OW18703   4.569   3.885   4.427  0.2179  0.6528  0.4772
 2414SOL    HW118704   4.570   3.981   4.433  0.2971  0.6988 -0.2618
 2414SOL    HW218705   4.594   3.859   4.515  2.1473  0.2266 -0.1882
 2415SOL     OW18706   4.690   2.229  10.814 -0.6296 -0.5508  0.3116
 2415SOL    HW118707   4.699   2.321  10.788 -3.8372 -0.8682 -1.8357
 2415SOL    HW218708   4.598   2.227  10.840 -0.3048 -0.7515  1.4500
 2416SOL     OW18709   2.907   3.254  17.224 -0.3064 -0.0240 -0.2806
 2416SOL    HW118710   2.993   3.297  17.221 -0.3003 -0.1003 -0.9988
 2416SOL    HW218711   2.876   3.270  17.313  1.9933 -3.6644  1.1673
 2417SOL     OW18712   1.011   3.914   9.196  0.4884  0.1590 -0.5125
 2417SOL    HW118713   1.070   3.888   9.126 -0.7143 -0.3446 -1.3367
 2417SOL    HW218714   0.928   3.908   9.148  0.2272  0.4565 -0.1087
 2418SOL     OW18715   1.674   1.342  12.961  0.1941  0.2257  0.4077
 2418SOL    HW118716   1.639   1.425  12.993  1.2544  0.0320  2.0539
 2418SOL    HW218717   1.673   1.295  13.044 -0.3427 -0.9009 -0.2345
 2419SOL     OW18718   3.800   2.459   7.725  0.4395 -0.0999  0.6772
 2419SOL    HW118719   3.772   2.400   7.654  0.8958 -0.8236  1.0950
 2419SOL    HW218720   3.854   2.525   7.681 -2.9803  2.2220 -0.0285
 2420SOL     OW18721   2.353   0.508   9.967  0.1361  0.1321 -0.1374
 2420SOL    HW118722   2.426   0.448   9.950 -0.2038  0.6898 -3.5230
 2420SOL    HW218723   2.371   0.532  10.058 -0.3045  3.0941 -0.8568
 2421SOL     OW18724   2.582   2.446   4.598  0.6709 -0.2071  0.9215
 2421SOL    HW118725   2.670   2.413   4.616  0.8353 -0.4957 -0.3641
 2421SOL    HW218726   2.544   2.368   4.556 -1.3587  0.6486  1.1840
 2422SOL     OW18727   1.715   2.472   2.164 -0.4884  0.0463  0.5811
 2422SOL    HW118728   1.688   2.381   2.149 -0.3464  0.1803 -0.4774
 2422SOL    HW218729   1.809   2.465   2.179 -0.5258  1.4660  1.4633
 2423SOL     OW18730   2.183   0.681  10.342 -0.0670 -0.2712 -0.7540
 2423SOL    HW118731   2.272   0.671  10.376 -1.2297 -2.1606  1.6929
 2423SOL    HW218732   2.200   0.693  10.249 -0.6297 -1.6348 -1.0273
 2424SOL     OW18733   2.058   1.997   2.864 -0.5381  0.4691 -0.2590
 2424SOL    HW118734   2.142   2.038   2.885 -0.0314 -0.2132 -0.9778
 2424SOL    HW218735   2.081   1.973   2.774  0.5767 -0.2373  0.2110
 2425SOL     OW18736   3.536   3.660   3.694 -0.0257  0.1356 -0.0134
 2425SOL    HW118737   3.621   3.640   3.655  0.5252  1.2199  0.6253
 2425SOL    HW218738   3.499   3.722   3.631  1.1106  1.1172  0.2832
 2426SOL     OW18739   0.179   1.939   4.708 -0.1548  0.2572 -0.2024
 2426SOL    HW118740   0.140   2.027   4.717  0.4999  0.4921  0.2965
 2426SOL    HW218741   0.230   1.943   4.788 -1.0754  0.3368  0.3847
 2427SOL     OW18742   1.598   2.660   5.012  0.7436 -0.8019 -0.0964
 2427SOL    HW118743   1.504   2.662   4.992  0.5417 -0.2727  0.8896
 2427SOL    HW218744   1.615   2.747   5.049 -2.5902 -0.6838  1.1968
 2428SOL     OW18745   2.872   1.378   4.757 -0.1034 -0.4659  0.5300
 2428SOL    HW118746   2.931   1.335   4.696  1.5460 -0.1878  1.9509
 2428SOL    HW218747   2.835   1.296   4.790  0.3046 -0.0918  1.9058
 2429SOL     OW18748   3.082   1.473   3.951 -0.7920  0.0512  0.7746
 2429SOL    HW118749   3.080   1.553   4.004  0.0384  1.3418 -1.1214
 2429SOL    HW218750   3.078   1.512   3.864  2.6989  1.1088  1.0607
 2430SOL     OW18751   3.024   4.716   4.642  0.2738  0.2928 -0.0427
 2430SOL    HW118752   2.955   0.059   4.644 -1.4248 -1.4268 -0.1907
 2430SOL    HW218753   3.004   4.654   4.712 -0.1808 -0.8837 -1.2067
 2431SOL     OW18754   3.916   0.074   6.494 -0.0256  0.2880  0.0723
 2431SOL    HW118755   3.896   4.706   6.510 -0.7474  0.2671 -0.9989
 2431SOL    HW218756   4.006   0.077   6.462 -0.6508  1.0434 -1.5851
 2432SOL     OW18757   2.242   2.033   7.746 -0.4108 -0.5196  0.6922
 2432SOL    HW118758   2.192   2.045   7.665  0.6509  1.6096  0.3407
 2432SOL    HW218759   2.273   2.124   7.747  1.5211 -1.1775  0.2775
 2433SOL     OW18760   0.120   1.156   5.098 -0.4171  0.6206 -0.3036
 2433SOL    HW118761   0.123   1.105   5.179  0.6311 -0.3425 -0.9454
 2433SOL    HW218762   0.027   1.177   5.097 -0.5693 -0.1463 -2.0678
 2434SOL     OW18763   2.365   1.134   8.993 -0.0170 -0.1588 -0.0626
 2434SOL    HW118764   2.449   1.179   8.998 -1.4300  2.1122  3.3799
 2434SOL    HW218765   2.373   1.058   9.051  0.7547  1.1495  1.5577
 2435SOL     OW18766   2.998   3.373   6.463 -0.2460 -0.4529 -0.4023
 2435SOL    HW118767   3.027   3.313   6.532 -0.9676 -1.1789 -0.7335
 2435SOL    HW218768   2.972   3.442   6.524  0.1740  0.2933 -1.0652
 2436SOL     OW18769   2.142   2.371   1.773 -0.1506 -0.0561  0.2535
 2436SOL    HW118770   2.088   2.350   1.849 -0.7532 -0.4992 -0.2979
 2436SOL    HW218771   2.122   2.289   1.728  1.4330 -0.6332  0.5954
 2437SOL     OW18772   0.763   3.261   1.374 -0.2821  0.0348 -0.2050
 2437SOL    HW118773   0.671   3.274   1.398 -0.3634  0.4044 -0.7396
 2437SOL    HW218774   0.783   3.345   1.335  1.2748 -0.4791 -0.5115
 2438SOL     OW18775   1.631   1.104   8.842  0.0765 -0.1480  0.2050
 2438SOL    HW118776   1.575   1.059   8.778 -1.4576 -0.1611  1.5501
 2438SOL    HW218777   1.599   1.194   8.831 -0.8417 -0.3432  1.2242
 2439SOL     OW18778   3.871   4.435   4.814 -0.3483 -0.2820 -0.0772
 2439SOL    HW118779   3.820   4.354   4.813 -1.1854  0.2479  1.0113
 2439SOL    HW218780   3.799   4.498   4.817 -1.1430 -1.2605  1.5446
 2440SOL     OW18781   2.512   2.987   9.070 -0.0071  0.5707 -0.3940
 2440SOL    HW118782   2.537   3.078   9.057  0.0160  0.9294  2.0835
 2440SOL    HW218783   2.447   2.986   9.000 -0.0768  1.5775 -0.3431
 2441SOL     OW18784   2.596   3.539   5.885 -0.1041 -0.7273 -0.1589
 2441SOL    HW118785   2.617   3.451   5.853 -1.4410 -1.0110 -0.2671
 2441SOL    HW218786   2.523   3.524   5.945 -0.0337 -2.1425 -0.4297
 2442SOL     OW18787   3.937   1.402   5.760 -0.5245  0.0108  0.7490
 2442SOL    HW118788   3.927   1.422   5.853 -2.6716 -1.8248  0.8981
 2442SOL    HW218789   3.929   1.492   5.729  0.8249 -0.3141 -0.5366
 2443SOL     OW18790   3.421   0.971  15.899 -0.3078 -0.1341  0.2642
 2443SOL    HW118791   3.421   1.028  15.822  0.4048 -0.1378  0.2611
 2443SOL    HW218792   3.478   1.020  15.958 -3.6827  1.0542  2.5589
 2444SOL     OW18793   4.533   4.373  14.659 -0.4754  0.4317  0.1056
 2444SOL    HW118794   4.524   4.292  14.610 -2.0257  2.0557 -2.3025
 2444SOL    HW218795   4.505   4.440  14.596 -4.0749 -0.0766  1.1574
 2445SOL     OW18796   4.527   4.023  12.487  0.2412 -0.3606 -0.3326
 2445SOL    HW118797   4.488   3.972  12.416 -0.7403  0.9396 -0.7184
 2445SOL    HW218798   4.463   4.002  12.555  0.3260 -0.0909 -0.1685
 2446SOL     OW18799   0.569   0.234   7.256 -0.3957 -0.1701  0.8248
 2446SOL    HW118800   0.590   0.195   7.172  0.8791 -0.9953  1.5336
 2446SOL    HW218801   0.529   0.313   7.218 -2.3574 -0.7953  1.5716
 2447SOL     OW18802   2.685   0.956   1.840  0.4790 -0.5568 -0.2632
 2447SOL    HW118803   2.747   0.944   1.912 -1.2334  2.1119  1.6877
 2447SOL    HW218804   2.607   0.966   1.895  0.8370 -0.1617  0.1745
 2448SOL     OW18805   2.007   1.133   3.177  0.2433  0.5355  0.0976
 2448SOL    HW118806   1.923   1.177   3.171  0.8590  1.6105 -0.6717
 2448SOL    HW218807   2.026   1.113   3.085  2.8334 -0.4623  0.8501
 2449SOL     OW18808   3.421   1.991   2.215  0.1027 -0.7350  0.3689
 2449SOL    HW118809   3.362   1.943   2.273  0.2646 -1.2192  0.1361
 2449SOL    HW218810   3.485   2.004   2.286 -0.0643  2.4560 -0.0408
 2450SOL     OW18811   1.988   2.746  16.160  0.3573  0.1344  0.4611
 2450SOL    HW118812   2.006   2.748  16.254 -1.0803  1.7184  0.7283
 2450SOL    HW218813   2.069   2.780  16.122 -1.4760  0.6858 -2.9449
 2451SOL     OW18814   4.176   1.415  11.742 -0.5159  0.0853  0.4756
 2451SOL    HW118815   4.117   1.341  11.752  0.8359 -1.1648 -1.0060
 2451SOL    HW218816   4.119   1.492  11.752 -1.0272 -0.4527  1.6895
 2452SOL     OW18817   1.998   3.615   2.909  0.0254  0.2652 -0.9156
 2452SOL    HW118818   2.043   3.614   2.825  0.8506 -1.4418 -0.4407
 2452SOL    HW218819   1.921   3.560   2.897 -0.6961  1.0747  0.0198
 2453SOL     OW18820   3.894   0.723  11.564  0.1758 -0.2264  0.0031
 2453SOL    HW118821   3.955   0.784  11.522  1.8774 -0.8565  1.5666
 2453SOL    HW218822   3.846   0.692  11.488 -2.9301  1.1932  1.3857
 2454SOL     OW18823   3.338   3.466   9.610  0.7357  0.0958 -0.1190
 2454SOL    HW118824   3.417   3.483   9.661  1.0538 -0.2916 -0.4813
 2454SOL    HW218825   3.381   3.430   9.533  0.6454  0.8767 -0.5275
 2455SOL     OW18826   2.922   4.341   0.103  0.1671  0.3050 -0.5070
 2455SOL    HW118827   2.944   4.248   0.095 -1.0282 -0.0165  0.0274
 2455SOL    HW218828   2.827   4.337   0.092  0.0832 -1.5423  0.9836
 2456SOL     OW18829   2.685   0.840   6.025  0.3686  0.2667 -0.0788
 2456SOL    HW118830   2.712   0.837   6.117  2.1020  0.5172 -0.5839
 2456SOL    HW218831   2.746   0.777   5.987 -0.8782 -1.5670  0.9281
 2457SOL     OW18832   2.784   4.305  17.026 -0.2594  0.0225 -0.0289
 2457SOL    HW118833   2.795   4.346  17.112 -0.5648 -1.5317  0.7347
 2457SOL    HW218834   2.838   4.363  16.972  1.1809 -0.5764  0.7592
 2458SOL     OW18835   1.088   1.606   6.113  0.4657 -0.3649  0.0210
 2458SOL    HW118836   1.120   1.588   6.025  0.5610  0.8706 -0.2043
 2458SOL    HW218837   1.040   1.687   6.094  1.9810  0.3604 -0.7117
 2459SOL     OW18838   0.635   4.563   7.752 -0.1824 -0.8121 -0.6643
 2459SOL    HW118839   0.621   4.626   7.681 -0.9725  0.2404  0.4253
 2459SOL    HW218840   0.687   4.500   7.702  1.0389 -0.1997 -0.1491
 2460SOL     OW18841   4.501   2.093   6.030  0.1598 -0.3466 -0.1010
 2460SOL    HW118842   4.575   2.096   5.968 -0.0307  1.5692 -0.2135
 2460SOL    HW218843   4.549   2.054   6.104 -0.2332  0.9316  0.8226
 2461SOL     OW18844   4.078   0.931  17.337 -0.3225 -0.1461 -0.6624
 2461SOL    HW118845   4.033   0.999  17.387  1.4057 -1.7196  3.0166
 2461SOL    HW218846   4.063   0.851  17.386 -2.2192  1.3539  1.1712
 2462SOL     OW18847   2.904   1.011  11.226 -0.4024 -0.1912 -0.5907
 2462SOL    HW118848   2.880   1.049  11.310  1.7327 -1.4663  0.5764
 2462SOL    HW218849   2.894   1.088  11.169  0.7096  0.9582  0.7990
 2463SOL     OW18850   4.650   3.340   5.914 -0.7125  0.0110  0.1674
 2463SOL    HW118851   4.666   3.274   5.982 -1.1018 -1.5500 -1.2761
 2463SOL    HW218852   4.686   3.418   5.957 -1.5726  1.4307 -1.6842
 2464SOL     OW18853   3.934   2.145  15.705  0.2784  0.2845  0.4709
 2464SOL    HW118854   3.956   2.199  15.629  1.8335 -1.0173 -0.0040
 2464SOL    HW218855   3.838   2.149  15.696  0.2320  0.7006  1.1869
 2465SOL     OW18856   0.274   4.582   6.441 -0.2715  0.3677 -0.4794
 2465SOL    HW118857   0.255   4.674   6.426 -0.2532  0.4902  0.2521
 2465SOL    HW218858   0.194   4.530   6.447  1.1735 -1.8679 -0.6940
 2466SOL     OW18859   4.558   1.396  10.967  0.1377  0.6974 -0.0167
 2466SOL    HW118860   4.496   1.469  10.968 -0.3726  0.2567  0.2878
 2466SOL    HW218861   4.642   1.442  10.963  0.8664 -0.6132  0.0777
 2467SOL     OW18862   2.839   1.273  11.258  0.0851 -0.7912  0.3483
 2467SOL    HW118863   2.922   1.300  11.219 -0.9662  1.2931 -0.4706
 2467SOL    HW218864   2.790   1.355  11.247  1.2125  0.1359  2.1866
 2468SOL     OW18865   2.337   0.633  11.449  0.2900  0.5969  0.3683
 2468SOL    HW118866   2.364   0.717  11.411 -1.1821  0.5960 -0.7096
 2468SOL    HW218867   2.315   0.651  11.540 -1.1386 -0.2113  0.1795
 2469SOL     OW18868   4.061   3.486   5.003 -0.1554  0.5992  0.4850
 2469SOL    HW118869   4.130   3.505   4.938  0.2806  0.0571  0.7886
 2469SOL    HW218870   4.086   3.541   5.077  0.6739  0.4325  0.3325
 2470SOL     OW18871   3.230   3.414  12.350 -0.5663 -0.3546  0.3426
 2470SOL    HW118872   3.278   3.399  12.268 -1.2534  0.4882 -0.2116
 2470SOL    HW218873   3.204   3.325  12.373 -0.9221 -0.6262 -1.0548
 2471SOL     OW18874   4.233   2.160  17.046 -0.1409 -0.0874 -0.0221
 2471SOL    HW118875   4.210   2.086  16.991  0.6228  0.4122 -1.0156
 2471SOL    HW218876   4.288   2.215  16.989 -1.6570  2.2577  0.7877
 2472SOL     OW18877   0.345   2.871   5.141  0.0859 -0.4372 -0.2547
 2472SOL    HW118878   0.437   2.855   5.119  0.2225  0.8128 -0.5874
 2472SOL    HW218879   0.296   2.803   5.094 -1.1917  1.0307 -1.0778
 2473SOL     OW18880   2.743   1.748   7.418 -0.6062 -0.5135 -0.3335
 2473SOL    HW118881   2.742   1.783   7.328  1.1162 -0.0272 -0.1603
 2473SOL    HW218882   2.815   1.685   7.419  0.1361  0.3725  2.2997
 2474SOL     OW18883   0.110   2.307   8.758  0.0246 -0.3615  0.4349
 2474SOL    HW118884   0.030   2.312   8.811 -0.2981  0.6726 -0.1626
 2474SOL    HW218885   0.082   2.262   8.678 -1.4711  1.7876 -0.2345
 2475SOL     OW18886   2.730   1.203   3.475 -0.1663 -0.2547 -0.2047
 2475SOL    HW118887   2.722   1.108   3.489  0.6044 -0.2293  0.4151
 2475SOL    HW218888   2.692   1.234   3.557  2.0099 -0.3391  0.8482
 2476SOL     OW18889   1.572   0.290  16.712  0.0656  0.1046 -0.2165
 2476SOL    HW118890   1.535   0.209  16.748 -0.9824  1.5409  1.9419
 2476SOL    HW218891   1.493   0.341  16.698  0.5332  0.8210 -0.2470
 2477SOL     OW18892   2.254   2.602  10.029 -0.1261 -0.1707 -0.5379
 2477SOL    HW118893   2.344   2.630  10.047 -0.7796  0.1847  2.1324
 2477SOL    HW218894   2.223   2.591  10.118  1.1881  0.6457  0.0204
 2478SOL     OW18895   3.183   0.903  15.623  0.5424  0.5813  0.1888
 2478SOL    HW118896   3.222   0.881  15.538 -2.7699 -0.4612 -1.0431
 2478SOL    HW218897   3.220   0.836  15.679 -0.2182 -0.3654 -0.4436
 2479SOL     OW18898   0.585   4.661   3.820 -0.4202  0.7516 -0.1333
 2479SOL    HW118899   0.606   4.645   3.728  2.1939 -1.3961  0.8548
 2479SOL    HW218900   0.508   4.716   3.807 -1.5415 -1.0191 -0.9284
 2480SOL     OW18901   0.247   0.332   2.419  0.1573  0.1222 -0.4669
 2480SOL    HW118902   0.330   0.315   2.463 -0.0723 -0.3230 -0.2049
 2480SOL    HW218903   0.207   0.245   2.415  1.0564 -0.3462  0.9505
 2481SOL     OW18904   1.463   2.078   7.304 -0.1231 -0.8571  0.4007
 2481SOL    HW118905   1.390   2.139   7.317  2.1699  2.2561 -1.3581
 2481SOL    HW218906   1.428   2.009   7.359  0.7584 -2.0985 -0.6073
 2482SOL     OW18907   4.502   1.525   3.651  0.9490 -0.0800  0.0284
 2482SOL    HW118908   4.520   1.485   3.566 -0.9297  1.1238 -0.9279
 2482SOL    HW218909   4.460   1.453   3.698  3.0171 -0.7959  0.7937
 2483SOL     OW18910   0.203   2.500   5.843 -0.0765  0.1679  0.4981
 2483SOL    HW118911   0.218   2.430   5.907  0.9584  0.9591  1.1282
 2483SOL    HW218912   0.166   2.573   5.892 -0.3593 -0.5247  1.3249
 2484SOL     OW18913   4.219   3.598  14.706  0.2423  0.0681 -0.5652
 2484SOL    HW118914   4.138   3.625  14.661  0.4372  1.0909 -0.3034
 2484SOL    HW218915   4.219   3.502  14.702  0.0956  0.0744 -0.7056
 2485SOL     OW18916   3.220   0.422  15.686  0.3950 -0.2226  0.1959
 2485SOL    HW118917   3.151   0.469  15.639 -0.3951 -0.4918  1.0685
 2485SOL    HW218918   3.188   0.428  15.776  0.8794  0.2785  0.3301
 2486SOL     OW18919   1.513   3.916   6.987  0.3050  0.0266 -0.2989
 2486SOL    HW118920   1.463   3.967   6.923 -0.0558  0.5145  0.3752
 2486SOL    HW218921   1.589   3.970   7.007  1.2686 -1.3911 -0.1717
 2487SOL     OW18922   1.219   1.330   5.543  0.2187  0.3189 -1.0828
 2487SOL    HW118923   1.192   1.263   5.481  2.4155  0.4303 -2.1656
 2487SOL    HW218924   1.145   1.339   5.603  0.1854  0.2792 -1.1181
 2488SOL     OW18925   1.325   4.407   9.798 -0.3556  0.4151  0.3949
 2488SOL    HW118926   1.383   4.481   9.780  0.5946 -0.6417 -0.9137
 2488SOL    HW218927   1.379   4.374   9.871  0.0753 -0.3928 -0.2870
 2489SOL     OW18928   2.529   2.752   3.275 -0.1661 -0.0896 -0.7706
 2489SOL    HW118929   2.556   2.836   3.312 -2.4945  0.6320 -0.7596
 2489SOL    HW218930   2.523   2.770   3.181 -2.5662 -0.2148 -0.6267
 2490SOL     OW18931   4.316   0.848   0.620 -0.3217 -0.0795  0.0113
 2490SOL    HW118932   4.410   0.855   0.602 -0.3655  1.4596  0.4058
 2490SOL    HW218933   4.308   0.753   0.632 -1.2617  0.2369  1.8632
 2491SOL     OW18934   2.078   1.450   5.535 -0.0312  0.0928 -0.1791
 2491SOL    HW118935   1.994   1.444   5.490 -0.3097 -2.3333  0.6757
 2491SOL    HW218936   2.068   1.382   5.602 -2.5073  0.9866  0.3345
 2492SOL     OW18937   2.854   3.350   8.605 -0.2924  0.1020  0.1518
 2492SOL    HW118938   2.923   3.405   8.568  1.2746 -0.5213  2.1629
 2492SOL    HW218939   2.810   3.308   8.531  0.2285 -0.7307  0.3144
 2493SOL     OW18940   1.977   1.748   8.624  0.2125  0.3143 -0.0322
 2493SOL    HW118941   1.933   1.781   8.703 -0.0490 -2.0143  0.7933
 2493SOL    HW218942   1.996   1.660   8.654 -0.9120 -0.4418 -1.5564
 2494SOL     OW18943   0.346   3.588   4.496  0.2250 -0.6751 -0.1267
 2494SOL    HW118944   0.287   3.601   4.570  0.6230 -0.6162  0.1795
 2494SOL    HW218945   0.431   3.590   4.539  0.2663 -0.8501 -0.2017
 2495SOL     OW18946   3.372   4.242   5.271  0.5841  0.4259  0.5442
 2495SOL    HW118947   3.364   4.157   5.314 -1.2238  0.0006 -0.6608
 2495SOL    HW218948   3.395   4.294   5.348 -0.8651  4.5221 -1.7727
 2496SOL     OW18949   2.965   1.066  15.307 -0.4455 -0.5555 -0.2224
 2496SOL    HW118950   3.031   1.132  15.324  0.0851 -1.3720  0.8621
 2496SOL    HW218951   2.895   1.122  15.273 -0.8494  0.3496  2.1422
 2497SOL     OW18952   0.261   1.582  16.349 -0.3199  0.5373  0.0294
 2497SOL    HW118953   0.190   1.540  16.398 -0.2066  1.1390  0.7084
 2497SOL    HW218954   0.217   1.651  16.299 -0.5075 -0.8584 -1.7091
 2498SOL     OW18955   2.762   1.354   8.706 -0.1873 -0.3829 -0.4614
 2498SOL    HW118956   2.794   1.284   8.761 -0.9741 -0.5926 -0.2640
 2498SOL    HW218957   2.733   1.412   8.777  3.7119  3.4433 -1.9878
 2499SOL     OW18958   4.160   3.504   7.403  0.5482  0.8323  0.0528
 2499SOL    HW118959   4.255   3.512   7.405  0.5546 -0.3868  3.5373
 2499SOL    HW218960   4.151   3.409   7.414  1.1384  1.0340  2.2593
 2500SOL     OW18961   3.942   0.220   2.343  0.6767  0.1004 -0.2024
 2500SOL    HW118962   3.914   0.252   2.429 -0.8985 -1.9876  0.0710
 2500SOL    HW218963   3.858   0.225   2.297  0.2088 -2.3496  0.3700
 2501SOL     OW18964   2.698   3.562   2.508 -0.2432  0.5723 -0.3518
 2501SOL    HW118965   2.720   3.476   2.473  1.9283  1.9549 -2.3360
 2501SOL    HW218966   2.759   3.578   2.580 -1.8386  0.2333  1.0756
 2502SOL     OW18967   4.443   1.100   3.451  0.0755  0.0770  0.2472
 2502SOL    HW118968   4.363   1.079   3.403 -0.4903 -1.1187  1.7037
 2502SOL    HW218969   4.477   1.013   3.434 -0.2691  0.1709 -0.9118
 2503SOL     OW18970   4.672   4.464   9.362  0.4715  0.0661  0.5712
 2503SOL    HW118971   0.040   4.463   9.335  0.9247 -0.3213  2.1689
 2503SOL    HW218972   4.663   4.378   9.403 -1.5455  0.6406  1.3301
 2504SOL     OW18973   4.206   3.816   8.164  0.0590 -0.5000 -0.0786
 2504SOL    HW118974   4.141   3.874   8.204  0.9612  0.4534  0.0130
 2504SOL    HW218975   4.149   3.743   8.142 -0.2387  0.6867 -3.2460
 2505SOL     OW18976   2.425   4.187   3.216 -0.0163  0.2116 -0.2050
 2505SOL    HW118977   2.334   4.170   3.240  0.4318 -0.1105  1.2170
 2505SOL    HW218978   2.477   4.151   3.287  0.5135  0.9780 -0.2042
 2506SOL     OW18979   4.328   4.337   6.227  0.4216 -0.0905 -0.4638
 2506SOL    HW118980   4.367   4.251   6.246  2.7448  0.8089 -1.1405
 2506SOL    HW218981   4.347   4.349   6.134  1.3006  0.6945 -0.1895
 2507SOL     OW18982   2.465   4.365   4.173 -0.2069 -0.1300 -0.2450
 2507SOL    HW118983   2.447   4.339   4.263 -0.5834 -1.1363 -0.6046
 2507SOL    HW218984   2.543   4.314   4.149 -1.6037 -1.9795 -0.8625
 2508SOL     OW18985   4.527   4.072   1.613  0.0860 -0.4751 -0.3135
 2508SOL    HW118986   4.521   4.108   1.524  0.8241  0.1289 -0.1138
 2508SOL    HW218987   4.454   4.010   1.619 -1.7558  1.6817 -0.2419
 2509SOL     OW18988   1.346   0.765   3.338  0.1050 -0.2521 -0.2595
 2509SOL    HW118989   1.361   0.748   3.431  0.1787 -0.0288 -0.2304
 2509SOL    HW218990   1.321   0.687   3.288 -1.8881 -1.2158  2.2333
 2510SOL     OW18991   3.084   1.940  15.847 -0.7682 -0.0350  0.7431
 2510SOL    HW118992   3.146   1.998  15.892 -0.8797  1.3518 -0.9320
 2510SOL    HW218993   3.032   2.003  15.798 -2.9378 -0.7806  2.0478
 2511SOL     OW18994   3.041   0.953  14.452 -0.1477 -0.7291 -0.4377
 2511SOL    HW118995   3.064   0.994  14.535 -3.2533  0.0914  0.0012
 2511SOL    HW218996   2.946   0.962  14.450  0.0440  0.8528 -2.3582
 2512SOL     OW18997   4.420   0.397  10.783  0.5300  0.0566 -0.3735
 2512SOL    HW118998   4.329   0.371  10.771 -0.4633  1.7453  3.5365
 2512SOL    HW218999   4.453   0.332  10.721  0.1885  0.7287 -1.2556
 2513SOL     OW19000   4.695   1.015   3.054 -0.1511 -0.0008 -0.0874
 2513SOL    HW119001   4.636   0.950   3.016  1.7479 -2.4306  1.1169
 2513SOL    HW219002   0.044   0.954   3.065 -1.4050 -1.3506  0.6360
 2514SOL     OW19003   4.681   1.341   6.032 -0.3142 -0.3108  0.6533
 2514SOL    HW119004   0.036   1.364   6.081  0.8537  0.0965 -1.4347
 2514SOL    HW219005   4.668   1.249   6.053 -0.6202  0.4880  3.9730
 2515SOL     OW19006   3.783   3.363   1.846  0.0019  0.6983 -0.7559
 2515SOL    HW119007   3.743   3.429   1.790  0.2416 -0.2977 -2.0901
 2515SOL    HW219008   3.849   3.327   1.787  0.7985  0.0654  0.5098
 2516SOL     OW19009   2.532   2.852   1.347  0.4052  0.1014 -0.1914
 2516SOL    HW119010   2.554   2.805   1.266 -3.0040 -0.3867 -0.8414
 2516SOL    HW219011   2.597   2.922   1.343  0.6586 -0.0248  1.9428
 2517SOL     OW19012   2.026   2.919   5.758  0.0055  0.7986 -0.6238
 2517SOL    HW119013   1.985   2.845   5.712 -0.9601  0.2543  1.0799
 2517SOL    HW219014   1.957   2.981   5.737 -0.4364  0.1790 -1.0185
 2518SOL     OW19015   0.868   1.662   8.431 -0.0664  0.1706  0.3951
 2518SOL    HW119016   0.802   1.666   8.500 -0.1825 -0.5458  0.3275
 2518SOL    HW219017   0.878   1.567   8.426 -0.4479  0.4299 -5.4597
 2519SOL     OW19018   3.022   1.919   2.597 -0.0867 -0.0480  0.2247
 2519SOL    HW119019   3.008   1.977   2.671  0.3161  0.7554 -0.3265
 2519SOL    HW219020   3.024   1.837   2.647  1.4494 -1.0083 -1.3750
 2520SOL     OW19021   3.129   1.651  15.421  0.0920  0.0168 -0.0427
 2520SOL    HW119022   3.066   1.668  15.351  2.8429  0.4769 -2.3700
 2520SOL    HW219023   3.078   1.674  15.499  2.5949 -1.1292  1.9437
 2521SOL     OW19024   3.977   0.606   6.427  0.4095 -0.1052  0.1945
 2521SOL    HW119025   3.971   0.700   6.410  0.2971  0.0789  1.2677
 2521SOL    HW219026   3.975   0.605   6.522  1.9871  0.5503  0.2452
 2522SOL     OW19027   2.549   0.770   3.320  0.0560 -0.4131  0.0064
 2522SOL    HW119028   2.580   0.722   3.397  1.9946  1.7384  0.5582
 2522SOL    HW219029   2.511   0.699   3.268  0.3284 -0.6442  0.1208
 2523SOL     OW19030   1.226   1.377   3.175 -0.3581 -0.3029 -0.0745
 2523SOL    HW119031   1.188   1.314   3.114 -1.7753 -1.2225  1.7700
 2523SOL    HW219032   1.193   1.457   3.134 -1.2468 -1.2968 -1.2621
 2524SOL     OW19033   0.696   0.318  15.093 -0.9744  0.2437  0.5561
 2524SOL    HW119034   0.727   0.384  15.031 -0.1473 -1.0019 -0.3588
 2524SOL    HW219035   0.742   0.243  15.054 -0.5338  0.0884  1.3901
 2525SOL     OW19036   4.673   1.049   8.948 -0.1985  0.9217  0.3253
 2525SOL    HW119037   4.583   1.024   8.970 -0.5331 -0.9785 -3.2795
 2525SOL    HW219038   0.010   0.980   8.974  0.2159  1.6424  1.2688
 2526SOL     OW19039   4.620   3.375  13.526 -0.2374 -0.5652  0.6674
 2526SOL    HW119040   4.530   3.355  13.501 -0.4769 -1.4302  2.2043
 2526SOL    HW219041   4.627   3.340  13.615 -1.1588 -1.9409  0.1948
 2527SOL     OW19042   0.926   4.217   8.168  0.1240 -0.4744 -0.4245
 2527SOL    HW119043   0.893   4.272   8.097  3.2438 -0.3101 -1.7269
 2527SOL    HW219044   0.908   4.271   8.245  1.3008 -0.9370  0.1690
 2528SOL     OW19045   1.255   0.781   7.797  0.2913  0.8622 -0.1935
 2528SOL    HW119046   1.326   0.726   7.767  0.2257  0.0387  1.1704
 2528SOL    HW219047   1.182   0.727   7.829  0.6472  0.8597  0.6140
 2529SOL     OW19048   0.113   3.711   2.895 -0.6971  0.3706  0.6690
 2529SOL    HW119049   0.032   3.717   2.946 -1.2845  1.8059 -0.4142
 2529SOL    HW219050   0.156   3.792   2.922 -3.2911  1.7011  0.8622
 2530SOL     OW19051   3.788   0.632   2.282  0.4502 -0.0486 -0.5104
 2530SOL    HW119052   3.813   0.644   2.190 -0.8458 -0.4250 -0.9077
 2530SOL    HW219053   3.793   0.725   2.306 -1.5702 -0.4890  1.5809
 2531SOL     OW19054   0.525   1.505   5.979 -0.0742  0.2517  0.2959
 2531SOL    HW119055   0.616   1.519   6.005  0.5395  1.0638 -2.3772
 2531SOL    HW219056   0.526   1.411   5.961 -2.6932  0.5551 -1.4767
 2532SOL     OW19057   1.727   2.107   8.715 -0.0007  0.0017 -0.4813
 2532SOL    HW119058   1.731   2.106   8.810  1.2760  0.3666 -0.5291
 2532SOL    HW219059   1.642   2.149   8.710  0.3871  0.7050 -1.1812
 2533SOL     OW19060   0.593   0.900   2.411 -0.5965 -0.1070  0.6692
 2533SOL    HW119061   0.612   0.852   2.330 -0.4506  0.6149  0.2753
 2533SOL    HW219062   0.635   0.848   2.480 -0.3173  0.6877  1.0946
 2534SOL     OW19063   2.379   3.449   4.007 -0.4859  0.0616  0.5837
 2534SOL    HW119064   2.376   3.442   3.912  1.9862  0.9664  0.4364
 2534SOL    HW219065   2.328   3.528   4.023 -0.8965 -0.0174 -0.3210
 2535SOL     OW19066   2.035   1.016   4.808  0.1644 -0.1044 -0.0650
 2535SOL    HW119067   2.019   1.095   4.861  0.5742  1.0149 -1.6004
 2535SOL    HW219068   2.129   1.031   4.792 -0.0874  3.3564  1.5975
 2536SOL     OW19069   1.552   2.548   2.995 -1.1412  0.2207  0.2785
 2536SOL    HW119070   1.597   2.633   2.997  0.3148 -0.4924 -2.3076
 2536SOL    HW219071   1.608   2.497   3.053 -2.0071 -1.8090 -0.6855
 2537SOL     OW19072   0.824   4.187   3.280  0.0216  0.4715  0.8149
 2537SOL    HW119073   0.783   4.265   3.242  0.3477  0.0189 -0.4843
 2537SOL    HW219074   0.804   4.112   3.223 -0.6981  0.0842  1.5792
 2538SOL     OW19075   1.157   3.994   2.466 -0.4578  0.2911  0.0803
 2538SOL    HW119076   1.147   3.940   2.545 -1.9590  1.5719  0.7637
 2538SOL    HW219077   1.115   3.934   2.403  0.2197  0.0313 -0.1246
 2539SOL     OW19078   4.240   1.927   2.760  0.5264 -0.1805 -0.1951
 2539SOL    HW119079   4.203   1.840   2.753  1.9293 -0.9749  2.0760
 2539SOL    HW219080   4.269   1.944   2.670  1.4620 -3.9670 -0.6084
 2540SOL     OW19081   3.950   1.800   0.337 -0.4137  0.4056  0.1911
 2540SOL    HW119082   4.015   1.791   0.407 -0.1279 -1.4922 -0.3192
 2540SOL    HW219083   3.906   1.715   0.329 -1.9788  1.2086  0.3539
 2541SOL     OW19084   3.912   0.960  15.925 -0.8357  0.6149  0.0536
 2541SOL    HW119085   3.920   0.950  16.020  1.3142  1.3565 -0.0664
 2541SOL    HW219086   3.822   0.934  15.903  0.4047 -3.0481 -0.6556
 2542SOL     OW19087   2.058   2.978   1.884  0.4033  0.5205  0.4403
 2542SOL    HW119088   1.985   2.935   1.928  0.7275 -0.6529 -0.1420
 2542SOL    HW219089   2.104   3.018   1.958  0.2855  1.0845  0.2011
 2543SOL     OW19090   0.221   0.766   6.131  0.2407  0.7375 -0.2557
 2543SOL    HW119091   0.126   0.759   6.115  0.1693 -0.9453  0.9067
 2543SOL    HW219092   0.245   0.690   6.079 -1.4119  0.6770 -0.9463
 2544SOL     OW19093   4.348   2.789   3.385  0.7703 -0.0785 -0.3145
 2544SOL    HW119094   4.388   2.873   3.360 -1.0999  1.6370  2.4058
 2544SOL    HW219095   4.364   2.786   3.480 -1.6729 -2.8330 -0.0287
 2545SOL     OW19096   1.330   3.112  13.093  0.1382 -0.3767  0.6320
 2545SOL    HW119097   1.305   3.079  13.180 -1.7950 -0.9381 -0.1334
 2545SOL    HW219098   1.353   3.034  13.043  1.3553  0.7788 -0.5801
 2546SOL     OW19099   2.256   3.137   1.728 -0.5241  0.5338  0.0986
 2546SOL    HW119100   2.223   3.078   1.660  0.3064 -0.9826  1.0198
 2546SOL    HW219101   2.263   3.075   1.800 -1.2779  0.1087 -0.1961
 2547SOL     OW19102   3.005   4.431   1.995 -0.3340  0.2526 -1.0254
 2547SOL    HW119103   2.938   4.454   1.931 -0.5439 -0.2472 -0.9881
 2547SOL    HW219104   3.046   4.516   2.004  1.6714 -0.7108 -1.1604
 2548SOL     OW19105   0.410   2.858  15.700  0.3273 -0.5076 -0.5073
 2548SOL    HW119106   0.448   2.895  15.781  0.2592  0.3196 -0.8545
 2548SOL    HW219107   0.391   2.768  15.726  3.3995 -0.8114  0.7215
 2549SOL     OW19108   0.279   4.443  13.389  0.0287  0.3900  0.3133
 2549SOL    HW119109   0.340   4.392  13.336  0.3628 -0.6616  1.7237
 2549SOL    HW219110   0.234   4.490  13.318  0.2843 -0.1353 -0.1946
 2550SOL     OW19111   0.630   2.720   7.053 -0.3141 -0.3105 -0.0366
 2550SOL    HW119112   0.571   2.716   7.128  0.6806 -2.5312  0.6269
 2550SOL    HW219113   0.652   2.627   7.043  0.8855 -0.2787  2.2784
 2551SOL     OW19114   1.851   2.994   3.735  0.5509  0.1287  0.0323
 2551SOL    HW119115   1.946   2.988   3.739  0.3996 -1.5717  1.1995
 2551SOL    HW219116   1.838   3.089   3.737 -0.6413 -0.0203 -0.6763
 2552SOL     OW19117   0.783   0.198   4.171 -0.3077  0.5286  0.7488
 2552SOL    HW119118   0.799   0.262   4.240 -0.3841  0.7134  0.5954
 2552SOL    HW219119   0.857   0.229   4.118  0.1938 -2.1533 -0.0912
 2553SOL     OW19120   0.842   2.135  15.047  0.4574  0.2193 -0.5302
 2553SOL    HW119121   0.936   2.118  15.045  0.2390 -1.3724  3.3653
 2553SOL    HW219122   0.820   2.121  15.139 -0.2315  0.8601 -0.5984
 2554SOL     OW19123   3.680   3.037   8.629  0.0869 -0.0644 -0.0983
 2554SOL    HW119124   3.664   3.128   8.653  0.0228  0.0865 -0.7216
 2554SOL    HW219125   3.724   3.005   8.708  0.7427  0.7823 -0.1257
 2555SOL     OW19126   2.475   2.917   5.948  0.2858 -0.5037  0.2785
 2555SOL    HW119127   2.541   2.864   5.992  0.3185 -2.8421 -2.5537
 2555SOL    HW219128   2.412   2.926   6.019 -2.2274  1.8175 -2.2441
 2556SOL     OW19129   3.534   3.053   8.889 -0.4811  0.5095  0.5731
 2556SOL    HW119130   3.551   3.147   8.877 -0.1658  0.6460  2.1489
 2556SOL    HW219131   3.569   3.017   8.807 -4.3506 -2.5181  0.2494
 2557SOL     OW19132   4.262   1.413   8.429 -0.2266  0.1505 -0.3382
 2557SOL    HW119133   4.308   1.380   8.506 -2.0044 -1.8345 -0.1533
 2557SOL    HW219134   4.241   1.502   8.458  1.1025  0.4097 -0.1741
 2558SOL     OW19135   3.609   2.437   8.390 -0.4171  0.2871  0.3735
 2558SOL    HW119136   3.686   2.481   8.426 -0.3968 -0.2719  0.9979
 2558SOL    HW219137   3.635   2.367   8.331  0.6208  1.0786 -0.1085
 2559SOL     OW19138   3.696   4.241   0.137 -0.0142 -0.5993  0.7043
 2559SOL    HW119139   3.607   4.235   0.171 -0.9735 -0.3545 -1.8133
 2559SOL    HW219140   3.748   4.173   0.181 -0.1686  0.9006  3.2165
 2560SOL     OW19141   1.541   3.813   5.712  0.2216  0.2880 -0.0474
 2560SOL    HW119142   1.606   3.865   5.666  2.0353 -1.2048  0.8235
 2560SOL    HW219143   1.458   3.850   5.680  0.0695 -0.7794 -0.8829
 2561SOL     OW19144   2.637   1.213  12.074  0.3927 -0.7706 -0.0933
 2561SOL    HW119145   2.701   1.273  12.110 -0.6166 -0.2390  0.8137
 2561SOL    HW219146   2.704   1.151  12.046  1.5565 -0.4061  1.8813
 2562SOL     OW19147   0.179   2.201   8.310  0.4219  0.2119 -0.5816
 2562SOL    HW119148   0.099   2.239   8.275 -1.1377 -0.4958  2.2773
 2562SOL    HW219149   0.144   2.133   8.366  0.7167 -0.2142 -0.9095
 2563SOL     OW19150   1.567   3.820   0.652 -0.4542 -0.2781  0.2389
 2563SOL    HW119151   1.616   3.845   0.574 -1.2831  1.0302  0.1434
 2563SOL    HW219152   1.481   3.854   0.627 -1.5334 -2.5961  0.7707
 2564SOL     OW19153   2.010   1.848   7.418  0.3770  0.1238 -0.7378
 2564SOL    HW119154   2.058   1.774   7.380 -0.5937  0.2157 -2.1265
 2564SOL    HW219155   1.934   1.796   7.443 -0.3518  1.5008 -0.0698
 2565SOL     OW19156   0.168   1.185   4.427  0.0524  0.1571  0.2628
 2565SOL    HW119157   0.095   1.243   4.407 -1.0141 -1.7182 -1.3002
 2565SOL    HW219158   0.220   1.254   4.467  2.8286 -3.0684  2.2085
 2566SOL     OW19159   0.108   0.060   3.625  0.2136 -0.1513 -0.6866
 2566SOL    HW119160   0.028   0.083   3.672  0.7270  1.0768 -0.4084
 2566SOL    HW219161   0.169   0.022   3.688 -0.6869 -0.6693 -0.1308
 2567SOL     OW19162   0.216   0.575   5.927  0.3849 -0.4324 -0.1778
 2567SOL    HW119163   0.258   0.498   5.888  2.1378  0.0763  0.7295
 2567SOL    HW219164   0.122   0.557   5.918  0.7211 -2.2033 -0.1543
 2568SOL     OW19165   0.151   2.281   0.607 -0.5273  0.6821  0.4676
 2568SOL    HW119166   0.199   2.221   0.550 -2.0414  0.9839 -1.1038
 2568SOL    HW219167   0.064   2.243   0.600  0.2050 -0.9443  0.0725
 2569SOL     OW19168   0.597   0.582   7.579 -0.7454  0.6271  0.1200
 2569SOL    HW119169   0.525   0.634   7.616  0.9372  0.7556  3.1871
 2569SOL    HW219170   0.551   0.498   7.566  0.8312 -0.2454  0.2379
 2570SOL     OW19171   3.076   0.076   2.483  0.6207  0.0731  0.0666
 2570SOL    HW119172   3.120   4.720   2.513  1.2457 -0.0689 -1.1960
 2570SOL    HW219173   3.136   0.147   2.504  0.0361  0.4684  0.3723
 2571SOL     OW19174   3.622   3.421   7.906 -0.1772 -0.2499  0.1275
 2571SOL    HW119175   3.631   3.508   7.866  0.1645 -0.3251  0.0342
 2571SOL    HW219176   3.709   3.387   7.884 -0.0574  0.3191 -0.2745
 2572SOL     OW19177   1.363   1.709  13.280  0.2199  0.4751  0.2414
 2572SOL    HW119178   1.365   1.724  13.375 -1.5535 -0.8456  0.4977
 2572SOL    HW219179   1.269   1.700  13.264  0.3566 -2.0114  0.8335
 2573SOL     OW19180   2.723   2.581  13.396 -0.2980 -0.4028 -0.1976
 2573SOL    HW119181   2.692   2.496  13.363 -0.1653 -1.0092  1.2705
 2573SOL    HW219182   2.792   2.604  13.334  1.6480 -2.2107  1.3253
 2574SOL     OW19183   4.222   2.970   7.775 -0.2298  0.2511  0.4603
 2574SOL    HW119184   4.286   3.040   7.785  2.3004 -2.0707  0.7450
 2574SOL    HW219185   4.170   3.004   7.702  0.4680  1.8366  0.7183
 2575SOL     OW19186   2.627   1.281  14.001 -0.4268 -0.2123  0.2986
 2575SOL    HW119187   2.569   1.205  13.998 -0.0968 -0.4305 -0.3986
 2575SOL    HW219188   2.580   1.337  14.063 -0.4180 -0.0547  0.1625
 2576SOL     OW19189   4.452   4.087   5.270 -0.4349  0.0918  0.8063
 2576SOL    HW119190   4.428   4.052   5.356 -0.1968 -0.5097  0.6300
 2576SOL    HW219191   4.365   4.091   5.230  0.5009  0.4981 -1.1893
 2577SOL     OW19192   2.492   1.216   9.412  0.0782 -0.4450  0.3018
 2577SOL    HW119193   2.500   1.250   9.502 -0.1328 -0.5514  0.3610
 2577SOL    HW219194   2.451   1.130   9.420  0.0528 -0.2729  2.1540
 2578SOL     OW19195   1.150   4.540  13.731 -0.1182  0.1521  0.0747
 2578SOL    HW119196   1.232   4.523  13.776  0.8787  3.7994 -0.3603
 2578SOL    HW219197   1.140   4.636  13.735 -0.1011  0.1552  0.0413
 2579SOL     OW19198   1.521   0.821   5.203 -0.6393  0.3425  0.6345
 2579SOL    HW119199   1.603   0.777   5.182 -0.2980  1.0847  0.3983
 2579SOL    HW219200   1.479   0.803   5.119 -0.1351  3.6188 -0.3021
 2580SOL     OW19201   4.216   1.971   8.685 -0.0104 -0.0491  0.0610
 2580SOL    HW119202   4.122   1.976   8.673  0.0311  2.2959  0.7572
 2580SOL    HW219203   4.206   1.883   8.721 -1.9831  0.5350  0.9363
 2581SOL     OW19204   1.163   0.788   0.061  0.5676  0.0218  0.2162
 2581SOL    HW119205   1.215   0.791   0.141  3.0534  1.0714 -1.4624
 2581SOL    HW219206   1.080   0.753   0.095 -0.0331  0.1277 -1.1518
 2582SOL     OW19207   4.011   0.100   5.461  0.2573 -0.2299 -0.4326
 2582SOL    HW119208   3.925   0.058   5.467 -0.1111  0.5793  0.0678
 2582SOL    HW219209   4.049   0.073   5.545  0.8408  1.8254 -0.0401
 2583SOL     OW19210   4.535   3.052   4.655  0.5066  0.0028  0.8630
 2583SOL    HW119211   4.453   3.006   4.669 -0.6041  1.0540 -2.1499
 2583SOL    HW219212   4.592   2.975   4.649 -1.2019 -1.4408  3.2631
 2584SOL     OW19213   3.483   1.409   7.487  0.2246 -0.4846 -0.2530
 2584SOL    HW119214   3.509   1.322   7.459 -0.1085 -0.8193  0.4864
 2584SOL    HW219215   3.569   1.446   7.508  1.0392 -2.4125 -0.2427
 2585SOL     OW19216   1.848   3.040   6.063 -0.2046 -0.1880  0.4790
 2585SOL    HW119217   1.896   2.998   6.135 -2.7831  1.1658  2.9669
 2585SOL    HW219218   1.842   2.959   6.013  0.9515  0.3074 -0.4649
 2586SOL     OW19219   2.323   3.535  12.869 -0.0747 -0.0393 -0.1581
 2586SOL    HW119220   2.308   3.512  12.778 -0.0859  1.1313 -0.4517
 2586SOL    HW219221   2.288   3.453  12.904 -0.7830  0.5452  0.5285
 2587SOL     OW19222   3.926   1.797   2.990 -0.7968  0.2219 -0.1800
 2587SOL    HW119223   3.839   1.829   3.013 -0.2133  0.1475  2.0478
 2587SOL    HW219224   3.905   1.706   2.967  1.3456 -0.1083 -0.8670
 2588SOL     OW19225   2.974   0.323  14.214 -0.0405 -0.9182  0.7819
 2588SOL    HW119226   2.953   0.237  14.179  0.4529 -0.8195  0.2521
 2588SOL    HW219227   3.033   0.300  14.286 -0.4551 -0.9819  1.1044
 2589SOL     OW19228   3.464   4.510   3.607 -0.7697  0.8358 -0.3387
 2589SOL    HW119229   3.494   4.498   3.517  0.9349 -0.5439  0.4255
 2589SOL    HW219230   3.528   4.567   3.648  1.8528  0.9982 -4.6296
 2590SOL     OW19231   4.517   3.554   0.742 -0.0344 -0.1626  0.2288
 2590SOL    HW119232   4.438   3.504   0.762  1.4791 -2.1923  1.0793
 2590SOL    HW219233   4.583   3.521   0.803 -2.0035 -0.2890  2.2992
 2591SOL     OW19234   4.290   2.707   6.896  0.2360 -0.0766 -0.3100
 2591SOL    HW119235   4.352   2.641   6.927 -0.2024 -1.1268 -1.6744
 2591SOL    HW219236   4.213   2.672   6.940  0.8044 -0.8176  0.0852
 2592SOL     OW19237   1.661   3.708   2.556  0.3081 -0.1522  0.0425
 2592SOL    HW119238   1.573   3.747   2.551 -0.3852 -1.7024  0.0987
 2592SOL    HW219239   1.661   3.693   2.650  0.4953 -0.6188 -0.0332
 2593SOL     OW19240   0.081   3.792   7.225 -0.3279  0.1489  0.0012
 2593SOL    HW119241   0.044   3.723   7.280  1.3499 -0.1139  0.7957
 2593SOL    HW219242   0.173   3.770   7.213  0.1836  2.5660 -0.4091
 2594SOL     OW19243   4.431   3.588   7.369 -0.7519  0.5907  0.1743
 2594SOL    HW119244   4.421   3.619   7.278  1.9878  0.4829 -0.1658
 2594SOL    HW219245   4.504   3.644   7.394  0.6378 -1.8344  1.4837
 2595SOL     OW19246   3.012   1.490   2.022  0.6302  0.2238 -0.1153
 2595SOL    HW119247   2.950   1.438   1.972 -0.5873  0.6894  0.9113
 2595SOL    HW219248   3.078   1.501   1.954 -1.0556  2.0847 -1.4444
 2596SOL     OW19249   4.330   3.268   8.141 -0.0623 -0.3104 -0.2194
 2596SOL    HW119250   4.326   3.287   8.235 -1.7943 -0.1401 -0.3432
 2596SOL    HW219251   4.364   3.178   8.142  2.6485  0.6858 -1.5642
 2597SOL     OW19252   2.139   0.690   8.792  0.1494 -0.0443  0.3133
 2597SOL    HW119253   2.143   0.597   8.818 -0.7963  0.2684  1.5843
 2597SOL    HW219254   2.087   0.724   8.865  0.6065 -0.6606  0.9332
 2598SOL     OW19255   2.734   2.575  16.805  0.2705  0.6361  0.2789
 2598SOL    HW119256   2.697   2.656  16.841 -2.3921 -0.0594 -0.9322
 2598SOL    HW219257   2.823   2.590  16.836  0.8158 -0.5134 -0.7316
 2599SOL     OW19258   2.334   2.982   2.748 -0.8570 -0.1265  0.4566
 2599SOL    HW119259   2.406   2.921   2.731  0.4435  0.3883  4.3172
 2599SOL    HW219260   2.380   3.031   2.816  2.7628 -1.9909 -0.6542
 2600SOL     OW19261   2.761   1.403  13.817 -0.4530 -0.2976  0.0632
 2600SOL    HW119262   2.710   1.357  13.884 -0.8564  0.6155  0.3835
 2600SOL    HW219263   2.708   1.392  13.737 -0.6208  0.7722  0.0279
 2601SOL     OW19264   4.194   3.469   2.770 -0.0673 -0.2267  0.2216
 2601SOL    HW119265   4.285   3.477   2.800  0.8689 -2.2828 -2.0712
 2601SOL    HW219266   4.193   3.387   2.720  0.3076 -0.3245  0.3706
 2602SOL     OW19267   1.653   0.712   1.610  0.7173  0.0767 -0.5865
 2602SOL    HW119268   1.592   0.643   1.635  1.4009  0.0206  0.9283
 2602SOL    HW219269   1.666   0.705   1.515 -0.1891 -0.3622 -0.6757
 2603SOL     OW19270   4.297   3.462   6.533  0.0426 -0.2754  0.0242
 2603SOL    HW119271   4.215   3.424   6.500  0.5457  0.4365 -2.0597
 2603SOL    HW219272   4.305   3.405   6.610  0.7304 -1.1138 -0.6648
 2604SOL     OW19273   2.818   4.343   1.635  0.2549  0.0528  1.0909
 2604SOL    HW119274   2.827   4.401   1.710  0.4276  0.6917  0.5790
 2604SOL    HW219275   2.909   4.337   1.608 -0.0159 -2.8896  0.7657
 2605SOL     OW19276   1.809   2.091  11.970 -0.3591 -0.0232  0.7575
 2605SOL    HW119277   1.869   2.069  11.899 -0.4394  3.5453 -0.4240
 2605SOL    HW219278   1.723   2.075  11.932 -0.5720  1.9032  0.4010
 2606SOL     OW19279   4.705   4.702   6.635  0.1082 -0.2447  0.8390
 2606SOL    HW119280   4.702   0.001   6.728  1.0163 -1.1062  1.0800
 2606SOL    HW219281   4.628   4.646   6.621  0.5741 -0.8407  0.7013
 2607SOL     OW19282   4.500   1.251   4.760 -1.1595 -0.3330 -0.0684
 2607SOL    HW119283   4.493   1.337   4.719 -2.1426 -0.5823 -0.4380
 2607SOL    HW219284   4.571   1.275   4.819  2.1711 -1.0450 -3.8056
 2608SOL     OW19285   1.220   4.304   7.499 -0.1964  0.0649 -0.0947
 2608SOL    HW119286   1.184   4.313   7.411  0.6904 -0.5500 -0.5239
 2608SOL    HW219287   1.231   4.394   7.530  2.0717 -0.2804  0.0638
 2609SOL     OW19288   1.442   2.320   8.429 -0.2571 -0.1050 -0.1024
 2609SOL    HW119289   1.491   2.245   8.396  0.8950 -0.1106  1.6170
 2609SOL    HW219290   1.513   2.363   8.476  1.9074  0.0640 -3.4985
 2610SOL     OW19291   4.349   4.598  12.643  0.3689  0.1741 -0.5720
 2610SOL    HW119292   4.421   4.588  12.705  1.0906 -0.6518 -1.5327
 2610SOL    HW219293   4.351   4.690  12.618  0.9364  0.4123  0.3867
 2611SOL     OW19294   2.367   3.601   6.292  0.2427  0.0971  0.4458
 2611SOL    HW119295   2.284   3.579   6.334 -0.5990 -1.8588 -2.2344
 2611SOL    HW219296   2.423   3.540   6.341  2.1818  1.6356  0.1467
 2612SOL     OW19297   2.738   4.077  11.143  0.8374 -0.6244 -0.4142
 2612SOL    HW119298   2.766   4.053  11.055  1.1949 -3.1300  0.3573
 2612SOL    HW219299   2.821   4.114  11.173  1.0367 -0.4167 -1.2152
 2613SOL     OW19300   3.495   2.692  12.156  0.3589  0.1087  0.2639
 2613SOL    HW119301   3.540   2.758  12.104 -0.7521  0.7094  0.0737
 2613SOL    HW219302   3.516   2.619  12.098  0.4093 -1.0674  1.7581
 2614SOL     OW19303   1.865   1.091   0.680 -0.4389  0.3559 -0.3194
 2614SOL    HW119304   1.920   1.153   0.729 -1.4206  0.9410  0.0448
 2614SOL    HW219305   1.925   1.018   0.695 -0.4597  0.3129 -0.4456
 2615SOL     OW19306   1.468   2.398   1.457  0.0305 -0.2363 -0.5390
 2615SOL    HW119307   1.522   2.326   1.424 -0.1636  0.4592 -2.3972
 2615SOL    HW219308   1.500   2.405   1.547  0.3328  1.1082 -0.7432
 2616SOL     OW19309   4.242   2.345   7.524  0.1276 -0.1030 -0.3584
 2616SOL    HW119310   4.338   2.355   7.519  0.1422 -0.0894 -0.0673
 2616SOL    HW219311   4.222   2.374   7.613  1.6956 -0.1035  0.0077
 2617SOL     OW19312   0.578   3.400  13.044 -0.2176  0.8191  0.0055
 2617SOL    HW119313   0.655   3.455  13.055 -1.6694  3.1902 -1.7710
 2617SOL    HW219314   0.601   3.357  12.962  2.5889 -0.0721  1.2588
 2618SOL     OW19315   0.746   1.939  17.445 -0.4407  0.1477 -0.2377
 2618SOL    HW119316   0.770   1.932  17.538 -0.9618 -0.9278 -0.1870
 2618SOL    HW219317   0.740   2.033  17.431 -0.3791  0.2921  0.7096
 2619SOL     OW19318   2.708   1.541   2.947  0.7136 -0.2022 -0.1527
 2619SOL    HW119319   2.685   1.494   2.866  0.9022  1.5026 -1.2074
 2619SOL    HW219320   2.675   1.486   3.017  2.0863  1.7848  2.0452
 2620SOL     OW19321   2.410   4.493  12.791 -0.0181 -0.0861  0.7873
 2620SOL    HW119322   2.372   4.496  12.703  1.8113  0.8984  0.0111
 2620SOL    HW219323   2.502   4.482  12.765  0.3614  1.6017  1.4356
 2621SOL     OW19324   1.370   3.559   3.623  0.2316  0.0422 -0.0377
 2621SOL    HW119325   1.307   3.525   3.687  0.1073 -1.0447 -0.7417
 2621SOL    HW219326   1.356   3.653   3.616 -2.3181 -0.4846 -2.0188
 2622SOL     OW19327   2.572   2.021   2.789  0.0935 -0.4317 -0.0754
 2622SOL    HW119328   2.566   1.943   2.844 -0.2274 -0.3952 -0.0601
 2622SOL    HW219329   2.667   2.027   2.775 -0.1765  1.7049 -1.0200
 2623SOL     OW19330   3.591   0.476   2.114 -0.4884 -0.4705  0.2835
 2623SOL    HW119331   3.669   0.530   2.129 -0.6414 -0.2812  0.3991
 2623SOL    HW219332   3.608   0.406   2.177 -1.4603 -1.4519 -0.5485
 2624SOL     OW19333   0.364   1.682   7.289  0.3141  0.0075 -0.5025
 2624SOL    HW119334   0.344   1.758   7.234 -1.4966  1.0943  1.6824
 2624SOL    HW219335   0.297   1.620   7.260  1.8597 -0.6818 -2.5934
 2625SOL     OW19336   0.272   4.317  10.713 -0.4732 -0.0962 -0.6641
 2625SOL    HW119337   0.311   4.237  10.747  1.0800  0.2767 -1.5947
 2625SOL    HW219338   0.263   4.370  10.792  1.6906 -0.8658  0.0755
 2626SOL     OW19339   1.823   1.984   9.527  0.0841 -0.2481  0.0121
 2626SOL    HW119340   1.839   1.981   9.621  0.1780 -1.0002 -0.0266
 2626SOL    HW219341   1.775   2.066   9.517  4.1322  2.0802 -0.6875
 2627SOL     OW19342   0.647   2.966   4.592  0.3997 -0.2050 -0.2034
 2627SOL    HW119343   0.658   2.904   4.520 -3.1717 -0.8033 -0.2306
 2627SOL    HW219344   0.630   3.045   4.540  2.4994  0.0444 -0.4956
 2628SOL     OW19345   4.331   1.534   5.711  0.6432  0.7033 -0.6138
 2628SOL    HW119346   4.302   1.612   5.757  1.2941  1.3413 -1.2866
 2628SOL    HW219347   4.278   1.466   5.752  1.0079  1.7541  1.6216
 2629SOL     OW19348   0.266   2.494   2.070 -0.5869  0.3247 -0.3959
 2629SOL    HW119349   0.335   2.459   2.014  2.5716  0.9888  3.0467
 2629SOL    HW219350   0.309   2.568   2.113  0.6217 -0.5375 -0.1315
 2630SOL     OW19351   1.696   0.176   3.151 -0.1226 -0.0984  0.0057
 2630SOL    HW119352   1.740   0.258   3.130  3.4942 -1.4509  2.2055
 2630SOL    HW219353   1.613   0.190   3.106  0.3261 -0.0859 -0.8289
 2631SOL     OW19354   0.252   0.782   1.730 -0.2266 -0.4374 -0.4023
 2631SOL    HW119355   0.188   0.807   1.797 -0.4119 -1.6620 -0.1236
 2631SOL    HW219356   0.306   0.724   1.783 -0.9795 -1.1671 -0.4448
 2632SOL     OW19357   4.324   0.488   7.638  0.4966  0.3751  0.1583
 2632SOL    HW119358   4.275   0.448   7.710  0.8628  2.0128  1.3389
 2632SOL    HW219359   4.247   0.502   7.583 -1.6858 -1.9219  2.6395
 2633SOL     OW19360   0.018   3.171  14.565 -0.2773  0.3924  0.1114
 2633SOL    HW119361   0.076   3.194  14.492  1.6233  1.4038  1.9446
 2633SOL    HW219362   0.077   3.145  14.636  0.7429 -1.7676 -1.5180
 2634SOL     OW19363   1.413   4.009   6.199 -0.2500  0.6866  0.9752
 2634SOL    HW119364   1.340   4.030   6.142  0.2528 -0.5472 -0.1325
 2634SOL    HW219365   1.477   3.992   6.130 -1.3017 -0.5724  0.3157
 2635SOL     OW19366   2.864   2.426   4.458 -0.2251  0.4151 -0.0270
 2635SOL    HW119367   2.799   2.372   4.413  0.3321  0.5339 -0.9802
 2635SOL    HW219368   2.883   2.369   4.533 -0.4845 -1.5236 -1.4163
 2636SOL     OW19369   1.987   2.393   5.841  0.0125 -0.4266  0.2496
 2636SOL    HW119370   1.922   2.337   5.798 -0.5282  1.2188 -1.1152
 2636SOL    HW219371   2.032   2.413   5.758  1.4077  0.8876  1.3379
 2637SOL     OW19372   2.703   0.005   2.836  0.6496  0.1864 -0.0869
 2637SOL    HW119373   2.642   0.079   2.843  1.1063  0.6785 -1.2503
 2637SOL    HW219374   2.656   4.672   2.776  2.3354 -0.8711 -0.4127
 2638SOL     OW19375   3.705   4.194  11.796 -0.5225  0.7470 -0.0740
 2638SOL    HW119376   3.750   4.243  11.865 -1.6206  2.3382 -0.4755
 2638SOL    HW219377   3.772   4.191  11.728 -0.4799  1.2984 -0.0597
 2639SOL     OW19378   3.667   3.165   6.584 -0.4841  0.9313  0.4969
 2639SOL    HW119379   3.643   3.231   6.649 -1.7362 -1.1081  2.1272
 2639SOL    HW219380   3.681   3.094   6.647 -1.4044  0.5062  0.2217
 2640SOL     OW19381   1.830   1.565  13.187  0.4512 -0.7043 -0.2716
 2640SOL    HW119382   1.924   1.551  13.196  0.6746  2.4894  2.4723
 2640SOL    HW219383   1.825   1.656  13.217 -0.8237 -0.8899  0.0724
 2641SOL     OW19384   3.515   2.595  14.504  0.1728 -0.6523  0.1185
 2641SOL    HW119385   3.509   2.629  14.593 -0.2903 -0.3240 -0.0377
 2641SOL    HW219386   3.579   2.656  14.466  0.5488  0.0202  1.8302
 2642SOL     OW19387   1.900   0.227  10.874  0.0789 -0.0162  0.6319
 2642SOL    HW119388   1.840   0.293  10.840  0.4719 -1.0540 -2.0488
 2642SOL    HW219389   1.840   0.170  10.921 -0.3894 -0.1972 -0.1857
 2643SOL     OW19390   3.679   1.381   4.246  0.1889 -0.3240 -0.9503
 2643SOL    HW119391   3.718   1.356   4.330 -1.0795 -0.0699 -0.2845
 2643SOL    HW219392   3.734   1.329   4.187 -1.9724 -2.1438 -1.3868
 2644SOL     OW19393   0.451   0.599  13.803  0.1584 -0.2037  0.1911
 2644SOL    HW119394   0.519   0.545  13.844 -2.6201 -4.4789 -0.7463
 2644SOL    HW219395   0.440   0.550  13.721  0.7028  0.4570 -0.2747
 2645SOL     OW19396   0.731   4.612   3.173 -0.4244  0.3843 -0.4369
 2645SOL    HW119397   0.784   4.683   3.210  0.7783 -0.5050 -0.4520
 2645SOL    HW219398   0.651   4.626   3.223 -1.8300 -0.0643 -2.5213
 2646SOL     OW19399   2.848   4.538   6.667 -0.4404 -0.3254 -0.0256
 2646SOL    HW119400   2.869   4.627   6.696  0.5687 -0.3017 -0.8262
 2646SOL    HW219401   2.867   4.549   6.574  0.0974  1.5936  0.3085
 2647SOL     OW19402   3.642   0.423   3.168 -0.4172 -0.2414 -0.4693
 2647SOL    HW119403   3.718   0.420   3.109 -0.8851 -0.0152 -1.0796
 2647SOL    HW219404   3.616   0.515   3.167  0.2884 -0.0490 -1.0215
 2648SOL     OW19405   3.448   2.909  15.225  1.1276 -0.0386  0.3675
 2648SOL    HW119406   3.486   2.988  15.187 -0.5900  1.3937  1.5710
 2648SOL    HW219407   3.438   2.943  15.314 -2.6362 -0.7568  0.2257
 2649SOL     OW19408   0.109   1.581   4.270  0.5055  0.2139 -0.7400
 2649SOL    HW119409   0.161   1.660   4.258 -1.2616  1.3569 -0.7739
 2649SOL    HW219410   0.148   1.522   4.206 -0.1144 -0.7807 -0.2095
 2650SOL     OW19411   0.179   1.917   3.312  0.2610  0.1768  0.0008
 2650SOL    HW119412   0.246   1.960   3.258 -0.6219 -1.5098 -2.4488
 2650SOL    HW219413   0.239   1.883   3.378 -0.7638  1.1183  1.4199
 2651SOL     OW19414   0.849   3.744  10.074 -0.1138 -0.8927  0.7625
 2651SOL    HW119415   0.806   3.773   9.994  1.8106 -1.4250 -0.4769
 2651SOL    HW219416   0.910   3.818  10.081  1.1744 -1.6074 -3.0263
 2652SOL     OW19417   0.567   4.004  10.149  0.1217 -0.1058  0.2411
 2652SOL    HW119418   0.558   3.939  10.079 -0.8406  0.4465 -0.1591
 2652SOL    HW219419   0.476   4.035  10.150  1.3288  3.3680  2.5369
 2653SOL     OW19420   2.276   0.777   2.987  0.2226  0.0978  0.2496
 2653SOL    HW119421   2.362   0.801   3.022  0.1902  2.0107 -0.9562
 2653SOL    HW219422   2.303   0.712   2.922 -0.5310  1.1000 -1.0602
 2654SOL     OW19423   3.328   1.783   3.586  0.1650  0.9045  0.2261
 2654SOL    HW119424   3.358   1.871   3.562 -1.6512  0.9539 -1.8973
 2654SOL    HW219425   3.235   1.794   3.568 -0.1947 -1.8161  0.3276
 2655SOL     OW19426   0.077   2.009  14.745  0.4688 -0.1399  0.4973
 2655SOL    HW119427   0.111   2.087  14.702 -0.0872 -0.1393  0.0469
 2655SOL    HW219428   0.139   1.997  14.816 -0.5244 -1.2133  1.1870
 2656SOL     OW19429   4.373   3.130  16.615  0.2051 -0.1772 -0.3812
 2656SOL    HW119430   4.279   3.143  16.601  0.1186  1.1006  1.2842
 2656SOL    HW219431   4.391   3.187  16.690  1.0071 -0.6558 -0.2031
 2657SOL     OW19432   3.559   3.396  11.304 -0.4759 -0.4151  0.0963
 2657SOL    HW119433   3.648   3.398  11.340  0.3861 -1.2674 -1.9773
 2657SOL    HW219434   3.573   3.337  11.230 -1.6748  1.0604 -1.3057
 2658SOL     OW19435   2.797   0.616  15.410 -0.4560 -0.0722 -0.1660
 2658SOL    HW119436   2.737   0.687  15.432  0.4695  0.3593  0.9927
 2658SOL    HW219437   2.766   0.586  15.325  0.5122  0.2189 -0.6249
 2659SOL     OW19438   2.503   3.002   7.003 -0.8578 -0.1922 -0.0771
 2659SOL    HW119439   2.482   3.077   6.948 -0.4108 -0.6132 -0.8211
 2659SOL    HW219440   2.561   3.045   7.066 -0.0998  0.0025 -0.9119
 2660SOL     OW19441   3.131   1.276  15.352  0.2629 -0.3021 -0.7652
 2660SOL    HW119442   3.197   1.343  15.369  0.0886 -0.9622  2.5158
 2660SOL    HW219443   3.058   1.328  15.386 -0.7674 -2.3401  0.1613
 2661SOL     OW19444   0.235   2.736  15.402  0.3605 -0.3729  0.4910
 2661SOL    HW119445   0.284   2.759  15.323 -1.3699 -2.0869 -1.0757
 2661SOL    HW219446   0.224   2.821  15.446 -3.4467 -0.7552  0.2416
 2662SOL     OW19447   3.988   2.210   8.403 -0.1915 -0.3585 -0.4202
 2662SOL    HW119448   4.053   2.217   8.473  0.2785 -0.2920 -0.8706
 2662SOL    HW219449   4.034   2.243   8.326 -4.2196 -0.5881 -2.9085
 2663SOL     OW19450   2.706   4.288  12.883  0.0427  0.0912  0.4353
 2663SOL    HW119451   2.686   4.197  12.860 -0.4351 -0.1960  1.9872
 2663SOL    HW219452   2.685   4.296  12.976 -0.1267 -0.1409  0.4174
 2664SOL     OW19453   1.704   2.552   6.359 -0.0765 -0.1092  0.1566
 2664SOL    HW119454   1.799   2.562   6.366 -0.1464  1.8324 -1.7471
 2664SOL    HW219455   1.681   2.560   6.452  1.8017  3.0501  0.3378
 2665SOL     OW19456   0.047   2.795   6.407 -0.5996 -0.1601  0.2356
 2665SOL    HW119457   0.044   2.839   6.492 -0.4477  0.3946 -0.0463
 2665SOL    HW219458   0.061   2.874   6.355 -3.1303  0.2676  0.2066
 2666SOL     OW19459   0.125   1.362  16.705  0.1122 -0.0581 -0.0903
 2666SOL    HW119460   0.089   1.371  16.793  1.1686 -0.8916  0.4284
 2666SOL    HW219461   0.217   1.387  16.721  0.3306 -0.3287 -0.9188
 2667SOL     OW19462   1.374   0.584   1.072 -0.4765  0.2469  0.3327
 2667SOL    HW119463   1.361   0.491   1.056 -0.7635  0.7171 -2.2910
 2667SOL    HW219464   1.369   0.594   1.167  0.1924 -1.6772  0.5569
 2668SOL     OW19465   4.612   4.330   9.990  0.0114  0.2217 -0.2665
 2668SOL    HW119466   4.553   4.404  10.007  0.5959  1.1179 -2.1425
 2668SOL    HW219467   4.605   4.340   9.895 -1.7235  0.4846 -0.1028
 2669SOL     OW19468   4.140   1.924   3.787 -0.2325 -0.1673 -0.7560
 2669SOL    HW119469   4.100   1.997   3.739 -2.1136 -0.9908 -0.4361
 2669SOL    HW219470   4.216   1.898   3.734  1.0662 -0.2504  1.1415
 2670SOL     OW19471   2.436   2.468  12.695 -0.3965  0.0019  0.0272
 2670SOL    HW119472   2.348   2.431  12.683 -0.5178 -0.8682  3.4528
 2670SOL    HW219473   2.444   2.477  12.790 -2.8736  0.6519  0.1792
 2671SOL     OW19474   1.273   1.715   1.701 -0.4409  0.3954  0.4542
 2671SOL    HW119475   1.237   1.785   1.647 -0.4318  0.6110  0.7282
 2671SOL    HW219476   1.219   1.714   1.780  0.1319  0.0964  0.8429
 2672SOL     OW19477   2.985   1.591   5.937  0.8415 -0.4407  0.0214
 2672SOL    HW119478   2.929   1.570   6.011  0.3109 -1.3291 -0.6336
 2672SOL    HW219479   3.038   1.657   5.981  0.4382 -0.1826  0.1175
 2673SOL     OW19480   1.467   4.320  15.288 -0.2012  1.0933 -0.3895
 2673SOL    HW119481   1.431   4.246  15.240  1.6844 -2.0869  3.0799
 2673SOL    HW219482   1.490   4.274  15.369  2.6141 -4.2480 -4.1976
 2674SOL     OW19483   1.333   1.201   0.669 -0.4583  0.1312 -0.1398
 2674SOL    HW119484   1.308   1.133   0.731  0.0669 -0.9146 -1.0726
 2674SOL    HW219485   1.426   1.178   0.668 -0.3810  0.4224  0.5319
 2675SOL     OW19486   2.279   0.650   3.597  0.0773 -0.0526 -0.1928
 2675SOL    HW119487   2.225   0.665   3.675  0.5600  1.0934 -0.0955
 2675SOL    HW219488   2.350   0.713   3.609  1.2213 -1.6094  1.2727
 2676SOL     OW19489   4.264   4.280  17.131 -0.0284  0.4782  0.1533
 2676SOL    HW119490   4.182   4.274  17.182 -0.3250  0.8434 -0.2879
 2676SOL    HW219491   4.275   4.373  17.112  3.4421 -0.0417 -0.3875
 2677SOL     OW19492   0.906   3.640   5.925  0.1359 -0.1635 -0.4171
 2677SOL    HW119493   0.956   3.701   5.871  1.2052 -0.1742  0.5703
 2677SOL    HW219494   0.935   3.662   6.014  1.9850  0.9256 -1.2881
 2678SOL     OW19495   4.609   4.389  11.429  0.2183  0.2162  0.1161
 2678SOL    HW119496   4.569   4.415  11.345 -2.0460  1.5701  1.5934
 2678SOL    HW219497   4.610   4.477  11.468  0.4343 -0.0472  0.7062
 2679SOL     OW19498   2.315   0.842   7.350  0.0045 -0.5308  0.5313
 2679SOL    HW119499   2.283   0.900   7.419  1.3808  1.9102 -0.8556
 2679SOL    HW219500   2.400   0.883   7.334 -0.9776  0.9624 -0.9067
 2680SOL     OW19501   1.658   0.009   4.792 -0.2279 -0.6839 -0.3976
 2680SOL    HW119502   1.576   4.709   4.748  0.8028 -0.7580 -2.2780
 2680SOL    HW219503   1.706   0.059   4.726 -2.0739  0.4979 -0.8403
 2681SOL     OW19504   3.416   2.463   0.549  0.2175 -0.1473 -0.1352
 2681SOL    HW119505   3.372   2.548   0.552  0.5943 -0.0019  1.0093
 2681SOL    HW219506   3.507   2.488   0.561  0.5202 -0.8469 -0.9829
 2682SOL     OW19507   3.796   0.271   5.346 -0.6159  0.5512  0.2367
 2682SOL    HW119508   3.856   0.197   5.347 -1.7579 -0.4053 -1.5979
 2682SOL    HW219509   3.809   0.315   5.430 -0.1779  0.3960  0.2470
 2683SOL     OW19510   3.158   3.600   2.513 -0.7439 -0.6376  0.3046
 2683SOL    HW119511   3.116   3.635   2.591  0.4144  2.5456 -0.4958
 2683SOL    HW219512   3.186   3.513   2.541  0.8414  0.2392  1.4174
 2684SOL     OW19513   2.638   2.965  14.157  0.0995 -0.1147 -0.0449
 2684SOL    HW119514   2.675   2.880  14.131  1.8010 -0.1325  2.4022
 2684SOL    HW219515   2.704   2.980  14.225 -0.7549  3.3826 -0.0030
 2685SOL     OW19516   1.923   1.457   6.121  0.0751 -0.1306  0.6616
 2685SOL    HW119517   1.942   1.503   6.039  0.6595 -1.0404  0.2889
 2685SOL    HW219518   1.898   1.531   6.175 -1.1136  1.0075 -1.4172
 2686SOL     OW19519   0.647   3.611   0.749  0.4368 -0.0424 -0.0495
 2686SOL    HW119520   0.567   3.626   0.801  0.9417  0.3206  0.6309
 2686SOL    HW219521   0.658   3.699   0.714  2.0946 -0.1707  0.1449
 2687SOL     OW19522   3.932   1.702   7.560  0.1484  0.3755  0.4447
 2687SOL    HW119523   3.913   1.784   7.603 -2.2292 -0.3916  0.8415
 2687SOL    HW219524   3.961   1.643   7.629 -0.3621 -2.1348 -1.4681
 2688SOL     OW19525   0.867   2.685   2.839 -0.0124  0.4508 -0.6101
 2688SOL    HW119526   0.948   2.640   2.864 -0.8739 -1.8600 -1.9732
 2688SOL    HW219527   0.825   2.629   2.775  0.3996  0.3431 -0.7849
 2689SOL     OW19528   4.466   3.064  16.362 -0.5022 -0.7487  0.7224
 2689SOL    HW119529   4.392   3.004  16.358 -1.5221  0.5118  0.7166
 2689SOL    HW219530   4.448   3.092  16.451  0.6861  2.5358 -0.0776
 2690SOL     OW19531   3.114   4.406   4.022 -0.0784 -0.0782  0.6802
 2690SOL    HW119532   3.048   4.470   3.995 -0.6390 -0.3165  1.5192
 2690SOL    HW219533   3.187   4.429   3.965  0.5166 -1.0106  1.0703
 2691SOL     OW19534   2.960   1.437   2.794 -0.2667 -0.3054  0.0699
 2691SOL    HW119535   3.016   1.373   2.749 -1.7569 -1.2803 -0.3820
 2691SOL    HW219536   2.909   1.378   2.848  0.4347 -0.9865 -0.0132
 2692SOL     OW19537   2.614   2.450  12.421  0.1615 -0.4028 -0.1322
 2692SOL    HW119538   2.667   2.507  12.477 -1.1198 -1.3307  2.0323
 2692SOL    HW219539   2.535   2.441  12.474  1.4760 -0.0894  1.8557
 2693SOL     OW19540   1.944   2.029   3.938  0.8734 -0.9301 -0.5797
 2693SOL    HW119541   1.893   2.057   4.014  0.3762  0.6105 -1.5002
 2693SOL    HW219542   2.017   2.090   3.941 -0.4404  0.5219  1.7970
 2694SOL     OW19543   0.544   1.842  13.011  0.1968  0.1473 -0.5338
 2694SOL    HW119544   0.518   1.903  12.942  1.0045 -0.3267 -1.2558
 2694SOL    HW219545   0.601   1.899  13.063  0.4496  0.9706 -1.7132
 2695SOL     OW19546   1.797   4.386   2.403 -0.7795  0.2452  0.6865
 2695SOL    HW119547   1.843   4.304   2.417 -1.9241 -0.5291 -0.0695
 2695SOL    HW219548   1.713   4.348   2.379 -1.3308  1.8840 -0.0131
 2696SOL     OW19549   0.481   1.940  10.669 -0.1325 -0.3881  0.2356
 2696SOL    HW119550   0.541   2.001  10.712  0.5363 -0.7651 -0.1728
 2696SOL    HW219551   0.539   1.873  10.633  0.4353 -0.9840  2.2426
 2697SOL     OW19552   3.117   1.671  13.832  0.5497 -0.2477 -0.8941
 2697SOL    HW119553   3.139   1.747  13.885  0.0763  0.5082 -1.7783
 2697SOL    HW219554   3.027   1.689  13.804 -0.0172  1.2583  1.8484
 2698SOL     OW19555   0.813   3.891  16.936 -0.3024  0.3515  0.1009
 2698SOL    HW119556   0.736   3.886  16.878  0.1347 -1.5150 -0.3328
 2698SOL    HW219557   0.824   3.985  16.948 -1.4934  0.6693 -1.3288
 2699SOL     OW19558   2.916   0.516   5.336  0.0660 -0.2489 -0.3917
 2699SOL    HW119559   2.951   0.523   5.247  0.9244  1.9262  0.1387
 2699SOL    HW219560   2.831   0.476   5.315  1.5031 -4.2319  1.3520
 2700SOL     OW19561   4.403   1.295   0.565 -0.1250 -0.2604 -0.1778
 2700SOL    HW119562   4.339   1.290   0.637 -1.7734 -0.8638 -1.6911
 2700SOL    HW219563   4.462   1.221   0.577  1.2300  0.8971  0.2964
 2701SOL     OW19564   3.124   1.052   8.193 -0.1613  0.0767 -0.4077
 2701SOL    HW119565   3.113   1.079   8.284 -0.9775 -0.7860 -0.2485
 2701SOL    HW219566   3.170   0.969   8.200  0.4707  0.2831 -2.1167
 2702SOL     OW19567   2.795   1.648   3.888  0.2832  0.5020  0.1796
 2702SOL    HW119568   2.755   1.676   3.970  0.1738  3.2563 -0.8259
 2702SOL    HW219569   2.851   1.719   3.859  0.5379  0.2356  0.0192
 2703SOL     OW19570   2.477   0.574   4.382 -0.0147  0.3717 -1.0838
 2703SOL    HW119571   2.559   0.607   4.419 -2.2860  1.1442  3.2965
 2703SOL    HW219572   2.517   0.506   4.328  0.0502  1.2249 -2.1205
 2704SOL     OW19573   2.479   0.799   2.668  0.0124  0.2998 -0.4200
 2704SOL    HW119574   2.506   0.849   2.745 -0.7713 -0.4566  0.3491
 2704SOL    HW219575   2.385   0.814   2.663  0.1983  1.6284  0.1909
 2705SOL     OW19576   1.982   0.168   2.273  0.3249  0.7843  0.0585
 2705SOL    HW119577   1.968   0.254   2.232 -1.4258 -0.1084 -1.1779
 2705SOL    HW219578   2.018   0.127   2.195  1.0479  1.6112 -0.0473
 2706SOL     OW19579   0.803   3.842   9.472 -0.0227  0.0817 -0.3618
 2706SOL    HW119580   0.790   3.823   9.379 -0.3720  1.4240 -0.5902
 2706SOL    HW219581   0.728   3.792   9.504  2.3128 -2.8007  0.6001
 2707SOL     OW19582   0.226   1.960  10.918  0.2028 -0.1704  0.0398
 2707SOL    HW119583   0.231   2.050  10.951  3.2955 -0.5153  0.4826
 2707SOL    HW219584   0.200   1.984  10.829 -0.8297  0.3820  0.4999
 2708SOL     OW19585   2.080   1.688  13.016  0.3314 -0.0795  0.2790
 2708SOL    HW119586   2.120   1.621  12.961 -2.6659 -1.5952 -0.0545
 2708SOL    HW219587   2.076   1.642  13.099 -0.8159  2.7991  1.8404
 2709SOL     OW19588   0.145   0.988  17.324 -0.0363 -0.2200  0.3080
 2709SOL    HW119589   0.079   1.057  17.314  2.9596  2.5423 -0.0672
 2709SOL    HW219590   0.210   1.019  17.261  0.5922 -1.3376  0.4078
 2710SOL     OW19591   1.985   2.991   2.210  0.3539  0.1651  0.3233
 2710SOL    HW119592   1.992   2.900   2.238  0.6215  0.3163  0.7467
 2710SOL    HW219593   1.905   2.980   2.158  0.7630  1.8574 -0.6768
 2711SOL     OW19594   2.637   2.510   6.952  0.5213 -0.0948  0.1614
 2711SOL    HW119595   2.565   2.565   6.919 -0.0952  0.8318  3.0318
 2711SOL    HW219596   2.716   2.563   6.944  1.5299 -1.8645 -1.5082
 2712SOL     OW19597   2.534   0.591   3.870  0.0840  0.1573 -0.0330
 2712SOL    HW119598   2.614   0.626   3.909 -0.9991  0.2135  2.1339
 2712SOL    HW219599   2.564   0.511   3.826  0.9588  1.2489 -1.4152
 2713SOL     OW19600   2.521   0.621   9.720 -0.0407 -0.1230  0.1880
 2713SOL    HW119601   2.480   0.704   9.695 -0.2623 -0.9386 -2.1720
 2713SOL    HW219602   2.442   0.567   9.719 -0.9198  1.1797 -0.4276
 2714SOL     OW19603   0.409   2.597   3.647  0.2785  0.1050  0.5167
 2714SOL    HW119604   0.436   2.617   3.736 -0.2268  0.1834  0.6541
 2714SOL    HW219605   0.447   2.510   3.650 -1.9313 -0.8691  0.4272
 2715SOL     OW19606   3.404   3.557   2.297  0.4183 -0.9515 -0.0802
 2715SOL    HW119607   3.340   3.581   2.363  0.3014  0.6530 -0.7637
 2715SOL    HW219608   3.383   3.623   2.230 -0.8774 -1.7141 -0.4195
 2716SOL     OW19609   1.160   3.174  10.298 -0.2264 -0.5902  0.0237
 2716SOL    HW119610   1.203   3.089  10.291 -0.1085 -0.4838 -0.5178
 2716SOL    HW219611   1.067   3.154  10.304 -0.4745  0.4233 -0.4476
 2717SOL     OW19612   2.638   4.157   6.059 -0.2133 -0.2012 -0.5726
 2717SOL    HW119613   2.603   4.199   6.138 -2.6942 -0.5492 -1.4786
 2717SOL    HW219614   2.668   4.239   6.019 -1.1588  0.7958  0.7349
 2718SOL     OW19615   2.245   0.918   6.162 -0.0114  0.5876  0.3059
 2718SOL    HW119616   2.167   0.905   6.109 -1.2411  1.4994  1.8861
 2718SOL    HW219617   2.317   0.917   6.100 -1.1480  1.5997 -1.0113
 2719SOL     OW19618   0.015   2.433  17.292 -0.7616  0.7060 -0.1083
 2719SOL    HW119619   4.682   2.507  17.270  0.0004  1.0238 -0.9909
 2719SOL    HW219620   4.691   2.391  17.363 -1.2964  1.3909 -0.0664
 2720SOL     OW19621   2.071   0.452   4.050  0.0598  0.2264  0.1415
 2720SOL    HW119622   2.015   0.517   4.092 -0.0294  0.7636 -0.8176
 2720SOL    HW219623   2.160   0.482   4.066  0.5623  0.7458 -3.6225
 2721SOL     OW19624   1.212   2.921   5.640 -0.1124 -0.4670  0.2034
 2721SOL    HW119625   1.281   2.985   5.655  0.6783 -0.4529 -3.6278
 2721SOL    HW219626   1.201   2.923   5.545 -0.9872 -1.3033  0.2797
 2722SOL     OW19627   0.334   1.353   4.778 -0.0290 -0.6062  0.1498
 2722SOL    HW119628   0.341   1.448   4.766  0.2319 -0.5240  0.9405
 2722SOL    HW219629   0.355   1.350   4.872 -2.0930  1.4452  0.6852
 2723SOL     OW19630   3.631   4.511   2.316 -0.0551 -0.2673  0.1395
 2723SOL    HW119631   3.551   4.466   2.288  0.7038  0.2514 -2.8661
 2723SOL    HW219632   3.618   4.595   2.273 -0.9177 -0.0489  0.8086
 2724SOL     OW19633   1.794   3.148   7.832  1.1855 -0.1546  0.1646
 2724SOL    HW119634   1.848   3.226   7.814  1.1272 -0.2687 -0.5091
 2724SOL    HW219635   1.705   3.182   7.825  2.4807  3.0807 -0.8380
 2725SOL     OW19636   3.712   4.351   7.343 -0.0952 -0.4678 -0.0564
 2725SOL    HW119637   3.728   4.308   7.427  1.5176 -0.6372 -0.4512
 2725SOL    HW219638   3.722   4.283   7.276 -1.8800  1.5935 -2.3993
 2726SOL     OW19639   0.581   3.609   6.418 -0.4565 -0.1501 -0.5107
 2726SOL    HW119640   0.625   3.583   6.498 -1.1103  0.3387  0.0178
 2726SOL    HW219641   0.546   3.697   6.436 -0.1595  0.3182 -2.1751
 2727SOL     OW19642   0.980   1.347   5.728 -0.1572 -0.2780 -0.0403
 2727SOL    HW119643   0.916   1.276   5.742  0.0738 -0.5923 -0.5757
 2727SOL    HW219644   1.017   1.339   5.816  1.5581 -2.0259 -0.9079
 2728SOL     OW19645   1.937   3.460   2.305  0.0988 -0.9943  0.0523
 2728SOL    HW119646   2.022   3.499   2.281  0.3995 -1.7112 -0.0394
 2728SOL    HW219647   1.876   3.534   2.301  1.3613  0.2671  3.4603
 2729SOL     OW19648   3.050   4.358   6.615  0.0263 -0.3632  0.1815
 2729SOL    HW119649   3.005   4.437   6.645 -0.8000 -0.2192 -1.4168
 2729SOL    HW219650   2.981   4.294   6.633  0.0967  0.0129  1.7314
 2730SOL     OW19651   4.469   2.214  10.408 -0.3260  0.0446 -0.5856
 2730SOL    HW119652   4.450   2.143  10.469  1.6436 -0.9670 -1.1450
 2730SOL    HW219653   4.564   2.222  10.417 -0.6151  0.4817  2.0835
 2731SOL     OW19654   2.345   0.020   8.960  0.1566  0.3686  0.0908
 2731SOL    HW119655   2.277   0.060   8.905  0.2109  1.9800  1.2058
 2731SOL    HW219656   2.355   0.093   9.021  0.8261 -0.2709  0.7557
 2732SOL     OW19657   1.740   0.000  10.739 -0.2544  0.0754  0.1365
 2732SOL    HW119658   1.813   4.667  10.762  1.2162  1.4190 -1.1043
 2732SOL    HW219659   1.707   0.014  10.827  0.2979 -0.6411  0.4547
 2733SOL     OW19660   1.641   0.901   7.657  0.5480  0.1684 -0.2228
 2733SOL    HW119661   1.675   0.832   7.714 -0.6478 -0.4555 -0.2800
 2733SOL    HW219662   1.655   0.972   7.719  0.8612  1.0886 -1.3277
 2734SOL     OW19663   2.941   0.175   8.563 -0.3539  0.4191  0.4562
 2734SOL    HW119664   2.936   0.081   8.577 -1.0984  0.3172 -0.4952
 2734SOL    HW219665   3.035   0.173   8.543 -0.7329 -1.5320 -1.0644
 2735SOL     OW19666   1.656   3.069   2.998  0.3038 -0.0834 -0.2705
 2735SOL    HW119667   1.704   3.118   3.065 -0.0907  0.5189 -0.4256
 2735SOL    HW219668   1.731   3.033   2.951  1.1545  0.2730  0.7999
 2736SOL     OW19669   0.616   2.177  12.412  0.0597 -0.1260 -0.1038
 2736SOL    HW119670   0.694   2.182  12.356 -1.1841 -0.3432 -1.8534
 2736SOL    HW219671   0.557   2.134  12.351  0.2335 -1.2098  0.5060
 2737SOL     OW19672   0.055   4.614   8.646  0.7934  0.4263 -0.4286
 2737SOL    HW119673   0.134   4.566   8.622  1.4571  0.3041  1.9475
 2737SOL    HW219674   0.016   4.545   8.701  1.2790  0.5154  0.0312
 2738SOL     OW19675   4.610   4.471   3.581  0.1982  0.4563 -0.3849
 2738SOL    HW119676   4.588   4.526   3.506  0.8469  0.1413 -0.8126
 2738SOL    HW219677   4.533   4.414   3.579 -1.1336  2.2062  0.9868
 2739SOL     OW19678   4.271   2.180   7.279  0.1933 -0.2221 -0.2662
 2739SOL    HW119679   4.253   2.247   7.345 -0.3696 -0.8092  0.1905
 2739SOL    HW219680   4.260   2.102   7.334 -1.1294  0.2286  0.1060
 2740SOL     OW19681   4.430   3.311  12.335  0.2901 -0.7582 -0.5792
 2740SOL    HW119682   4.349   3.361  12.344  2.4697  2.0578  3.7157
 2740SOL    HW219683   4.460   3.306  12.426  1.7497  1.6211 -0.9387
 2741SOL     OW19684   3.638   1.018   7.724 -0.6854 -0.5327  0.5461
 2741SOL    HW119685   3.626   1.085   7.657  0.8386  0.8152  1.6431
 2741SOL    HW219686   3.561   0.966   7.698 -0.5106 -0.8270  0.6268
 2742SOL     OW19687   3.766   3.262   5.617 -0.3390  0.2330 -0.1161
 2742SOL    HW119688   3.720   3.306   5.688  0.7921 -1.0552  1.4322
 2742SOL    HW219689   3.856   3.273   5.649 -0.4783  1.6460 -0.1976
 2743SOL     OW19690   3.547   2.672   4.805  0.3338 -0.1089  0.3276
 2743SOL    HW119691   3.471   2.729   4.814 -0.0808 -0.6165  0.0054
 2743SOL    HW219692   3.522   2.619   4.730 -1.2132  0.6097  0.3405
 2744SOL     OW19693   2.792   2.300   4.036  0.0740 -0.3359  0.2589
 2744SOL    HW119694   2.854   2.353   4.087 -0.1649 -0.2360  0.4475
 2744SOL    HW219695   2.866   2.254   3.998  0.5552 -0.5089  1.3883
 2745SOL     OW19696   1.788   2.607  11.086 -0.2087 -1.0132  0.3618
 2745SOL    HW119697   1.728   2.605  11.161 -2.0588  1.8226 -1.0648
 2745SOL    HW219698   1.870   2.599  11.136  0.7179 -0.7978 -1.1283
 2746SOL     OW19699   0.925   4.083   5.670  0.0799  0.4399  0.5342
 2746SOL    HW119700   0.923   4.096   5.765 -2.7700  1.0904  0.3879
 2746SOL    HW219701   0.847   4.128   5.637 -0.6585 -0.7387  0.6385
 2747SOL     OW19702   4.409   0.993   1.731 -0.2149 -0.0427 -0.4683
 2747SOL    HW119703   4.346   0.947   1.676 -1.4153  2.2354 -0.9916
 2747SOL    HW219704   4.456   1.043   1.664  0.7272 -0.2343  0.0520
 2748SOL     OW19705   4.416   0.240   5.969 -0.2463 -0.1775  0.2633
 2748SOL    HW119706   4.348   0.176   5.989  0.3851 -1.3639 -1.4211
 2748SOL    HW219707   4.482   0.186   5.925  0.4351 -0.5262  1.7315
 2749SOL     OW19708   1.000   3.703   8.494 -0.0987 -0.0577  0.0245
 2749SOL    HW119709   0.927   3.697   8.556  0.5497 -0.4887  0.7429
 2749SOL    HW219710   1.067   3.643   8.527 -0.2074 -0.9026 -1.2593
 2750SOL     OW19711   3.975   1.514  11.478 -0.1712  0.4952 -0.6954
 2750SOL    HW119712   3.984   1.561  11.561  2.2086 -0.0210 -0.6482
 2750SOL    HW219713   3.981   1.596  11.428  1.9722  1.3522  0.9770
 2751SOL     OW19714   2.452   0.463   0.715  0.1830 -0.1501 -0.0356
 2751SOL    HW119715   2.525   0.433   0.660 -1.0044 -1.1433 -1.0881
 2751SOL    HW219716   2.422   0.374   0.737 -1.3661  0.7424  1.4607
 2752SOL     OW19717   0.189   4.404   9.267 -0.2912 -0.7550 -0.3845
 2752SOL    HW119718   0.239   4.485   9.278  0.5252 -0.8001 -3.6774
 2752SOL    HW219719   0.239   4.338   9.315  1.3484 -0.6033 -1.8928
 2753SOL     OW19720   3.918   0.790  12.289  0.4070  0.4652  0.3664
 2753SOL    HW119721   3.947   0.726  12.224  0.9557  1.7595 -0.6762
 2753SOL    HW219722   4.002   0.810  12.331  1.1429 -1.0225 -0.3766
 2754SOL     OW19723   4.345   2.308  12.706  0.1368  0.0866  0.4161
 2754SOL    HW119724   4.293   2.387  12.696 -1.6248 -1.0911  0.2329
 2754SOL    HW219725   4.408   2.341  12.642 -1.6008  2.4993 -0.0498
 2755SOL     OW19726   2.976   3.349  12.038 -0.0526  0.3485 -0.4008
 2755SOL    HW119727   2.961   3.306  12.123  1.5363 -3.3420 -1.9882
 2755SOL    HW219728   2.887   3.337  12.005 -0.0081  1.5937 -0.9682
 2756SOL     OW19729   1.959   1.230   8.725  0.4979  0.0449 -0.3072
 2756SOL    HW119730   1.894   1.191   8.783  0.9868 -1.2662 -0.6467
 2756SOL    HW219731   2.041   1.198   8.763  0.6641  0.7369 -0.0784
 2757SOL     OW19732   3.490   4.297   2.867  0.0353 -0.9073 -0.1731
 2757SOL    HW119733   3.461   4.208   2.886 -0.8054 -0.4518  0.7352
 2757SOL    HW219734   3.581   4.272   2.853  0.5794  0.0473  1.6355
 2758SOL     OW19735   2.436   4.510   7.934 -0.2089  0.0568 -0.2084
 2758SOL    HW119736   2.512   4.451   7.931  0.2693  0.6715 -0.1897
 2758SOL    HW219737   2.437   4.534   8.026 -1.5064  0.5796 -0.3305
 2759SOL     OW19738   1.154   2.229  17.216  0.2585 -0.2397  0.4136
 2759SOL    HW119739   1.243   2.259  17.236  0.8270 -0.4480 -1.8200
 2759SOL    HW219740   1.177   2.158  17.157 -0.9846  0.4531 -0.8965
 2760SOL     OW19741   3.499   1.498   3.222 -0.5446  0.0861  0.7323
 2760SOL    HW119742   3.562   1.430   3.246 -1.0378 -0.5874  0.0770
 2760SOL    HW219743   3.532   1.575   3.270  0.5601 -0.1562  0.3539
 2761SOL     OW19744   0.759   0.779   3.746 -0.2362 -0.3258 -0.5033
 2761SOL    HW119745   0.811   0.819   3.676 -2.2285  2.5693 -0.3597
 2761SOL    HW219746   0.784   0.829   3.823  3.1987 -0.4483 -1.5316
 2762SOL     OW19747   3.555   2.320   2.942 -0.0645  0.1749  0.3597
 2762SOL    HW119748   3.638   2.355   2.910 -0.0797  0.2585  0.4112
 2762SOL    HW219749   3.550   2.239   2.890  0.8910  0.3384  0.0138
 2763SOL     OW19750   3.842   0.874   9.520  0.6018 -0.2711  0.4774
 2763SOL    HW119751   3.859   0.852   9.612  1.0493 -0.1754  0.4208
 2763SOL    HW219752   3.804   0.961   9.522 -0.5190 -0.7655  0.8897
 2764SOL     OW19753   2.862   2.679   3.108 -0.3843  0.5691 -0.1454
 2764SOL    HW119754   2.946   2.680   3.063 -1.4752 -0.3438 -2.1985
 2764SOL    HW219755   2.873   2.603   3.165 -0.5800  0.2382 -0.5532
 2765SOL     OW19756   1.624   2.615   8.019  0.2639 -0.1673  0.3591
 2765SOL    HW119757   1.668   2.534   7.995 -0.3139 -0.2082 -0.5903
 2765SOL    HW219758   1.687   2.674   7.978 -1.2913  0.8682 -0.5507
 2766SOL     OW19759   0.774   2.246  10.460  0.6946 -0.6712  0.3018
 2766SOL    HW119760   0.864   2.272  10.479 -0.4781  1.8996  2.1369
 2766SOL    HW219761   0.748   2.192  10.534 -1.5356  1.1495  0.8532
 2767SOL     OW19762   4.122   2.729   2.784  0.5049  0.0420  0.4622
 2767SOL    HW119763   4.144   2.802   2.725 -0.5104  0.6336  0.8227
 2767SOL    HW219764   4.202   2.719   2.837  0.4687  1.3928  0.7752
 2768SOL     OW19765   1.890   3.446   2.569 -0.6990  0.6983  0.0325
 2768SOL    HW119766   1.913   3.440   2.476  0.4034  3.6119  0.1131
 2768SOL    HW219767   1.931   3.527   2.599 -0.5431  0.8263 -0.5270
 2769SOL     OW19768   3.238   4.033  15.021 -0.3038 -0.2183  0.7117
 2769SOL    HW119769   3.229   4.126  15.041 -2.6371 -0.4776  0.8751
 2769SOL    HW219770   3.155   4.014  14.978  0.3539 -0.8775 -0.2679
 2770SOL     OW19771   1.669   2.677  11.310  0.3020 -0.0653  0.0558
 2770SOL    HW119772   1.671   2.756  11.365  0.6107  0.2395 -0.3970
 2770SOL    HW219773   1.645   2.611  11.375 -1.4088 -0.5555 -1.0738
 2771SOL     OW19774   0.536   3.919   0.860 -0.4931  0.3568 -0.1127
 2771SOL    HW119775   0.584   3.997   0.890 -3.6739  2.5595 -0.7106
 2771SOL    HW219776   0.594   3.854   0.899 -2.1807 -1.7346 -1.1089
 2772SOL     OW19777   4.654   2.677   8.376 -0.1288  0.1900 -0.2841
 2772SOL    HW119778   4.703   2.743   8.425 -3.5308  1.8172  0.9420
 2772SOL    HW219779   4.664   2.599   8.431  3.6820  0.5263 -0.5054
 2773SOL     OW19780   0.058   0.806  16.977 -0.6682 -0.1134 -0.5774
 2773SOL    HW119781   0.020   0.784  17.062 -2.5066  0.3763 -1.2717
 2773SOL    HW219782   4.702   0.823  16.929 -0.2071 -2.1614 -2.0596
 2774SOL     OW19783   4.655   4.345  13.720 -0.0973  0.4896  0.7695
 2774SOL    HW119784   4.616   4.275  13.774  1.2111 -0.5011  0.4340
 2774SOL    HW219785   4.614   4.420  13.763 -3.2410  0.9330 -3.0085
 2775SOL     OW19786   3.695   2.029   4.696  0.3310  0.3080  0.4950
 2775SOL    HW119787   3.701   1.995   4.785  2.3040  1.0725  0.6452
 2775SOL    HW219788   3.758   1.971   4.652 -1.3785 -1.4949  0.3758
 2776SOL     OW19789   4.315   1.413   6.747 -0.0879  0.5380 -0.1099
 2776SOL    HW119790   4.400   1.386   6.782 -0.3431  0.2654  0.2949
 2776SOL    HW219791   4.257   1.387   6.818  1.2178  0.0262  0.7606
 2777SOL     OW19792   2.821   3.979  10.574  0.1706  0.1596 -0.3204
 2777SOL    HW119793   2.745   3.957  10.627 -0.2698 -1.3665 -1.5705
 2777SOL    HW219794   2.815   3.915  10.502 -0.7215 -1.8589  1.5601
 2778SOL     OW19795   4.667   2.451   8.543  0.2281 -0.4263 -0.1204
 2778SOL    HW119796   4.686   2.495   8.625  0.5873  0.6482 -0.7746
 2778SOL    HW219797   4.607   2.384   8.576 -0.9590  1.3151  1.2584
 2779SOL     OW19798   1.075   2.152   8.890  0.3478  0.3379 -0.2523
 2779SOL    HW119799   1.137   2.087   8.857 -0.7650 -1.3039  0.8464
 2779SOL    HW219800   1.022   2.092   8.943 -2.0423  1.9947 -0.7747
 2780SOL     OW19801   2.519   1.664   5.640  0.2501 -0.1364  0.1007
 2780SOL    HW119802   2.608   1.636   5.660  0.7856  0.6454 -1.1569
 2780SOL    HW219803   2.479   1.584   5.607  0.0346 -0.9428  2.3528
 2781SOL     OW19804   2.865   4.151   8.679 -0.0038 -0.5399 -0.0433
 2781SOL    HW119805   2.775   4.120   8.666  0.9292 -2.0912 -2.8648
 2781SOL    HW219806   2.857   4.171   8.773 -0.0441  0.5847 -0.2900
 2782SOL     OW19807   4.332   0.345   5.420  0.1110  0.1368 -0.1470
 2782SOL    HW119808   4.290   0.293   5.352  0.8283  0.9223 -1.1758
 2782SOL    HW219809   4.398   0.388   5.365 -2.0651  0.4085 -2.5390
 2783SOL     OW19810   2.551   3.251   2.148 -0.0332  0.1437 -0.0303
 2783SOL    HW119811   2.631   3.298   2.125 -1.1274  2.6861  1.3137
 2783SOL    HW219812   2.486   3.247   2.078  0.1165 -2.4374 -0.0114
 2784SOL     OW19813   1.084   2.268   6.089  0.2694  0.3763  0.2266
 2784SOL    HW119814   1.145   2.198   6.066  0.8240  0.8869  0.1393
 2784SOL    HW219815   1.089   2.273   6.184  1.0261 -3.7748  0.3950
 2785SOL     OW19816   2.852   2.340  12.191  0.3258  0.0564  0.0465
 2785SOL    HW119817   2.944   2.328  12.213 -0.2338  0.8181  2.7634
 2785SOL    HW219818   2.854   2.424  12.145  0.5242 -0.3422 -0.6710
 2786SOL     OW19819   1.338   0.876  13.258 -0.0588  0.0868  0.0664
 2786SOL    HW119820   1.296   0.924  13.330 -1.7046 -0.0702 -0.8072
 2786SOL    HW219821   1.318   0.785  13.282  0.4265 -0.1798 -0.5436
 2787SOL     OW19822   1.027   1.587  16.627  0.7031  0.4464 -0.3370
 2787SOL    HW119823   1.108   1.638  16.629 -0.0217  1.4753  2.4729
 2787SOL    HW219824   1.037   1.525  16.699  0.9390 -1.7558 -2.2861
 2788SOL     OW19825   0.645   1.527  16.233 -0.6110 -0.8514 -0.2794
 2788SOL    HW119826   0.737   1.516  16.256 -0.5941 -0.7120 -0.2778
 2788SOL    HW219827   0.622   1.477  16.155 -1.2116  0.2862 -0.8325
 2789SOL     OW19828   0.920   0.151   8.737  0.2752 -0.6057 -0.2209
 2789SOL    HW119829   0.978   0.115   8.805 -0.2726 -1.2703 -0.1078
 2789SOL    HW219830   0.888   0.224   8.791 -0.6014  0.6271 -2.4232
 2790SOL     OW19831   2.094   0.095   0.825  0.0218 -0.7812 -0.1950
 2790SOL    HW119832   2.108   0.001   0.832 -0.5012 -0.8540 -0.1537
 2790SOL    HW219833   2.063   0.111   0.914  2.6863 -0.3889  0.6687
 2791SOL     OW19834   3.661   2.197  12.596 -0.2408 -0.6130 -0.0185
 2791SOL    HW119835   3.709   2.242  12.666  1.6035 -2.7824  0.1347
 2791SOL    HW219836   3.613   2.272  12.562 -1.6764 -1.4274  0.2241
 2792SOL     OW19837   4.591   0.122   3.785 -0.0872 -0.0120  0.0963
 2792SOL    HW119838   4.589   0.027   3.791  0.1326 -0.1346 -1.8216
 2792SOL    HW219839   4.535   0.127   3.707  0.4249  1.1061 -0.1972
 2793SOL     OW19840   3.725   2.523   6.035  0.6309  0.7208  0.3332
 2793SOL    HW119841   3.817   2.503   6.018  0.5465  0.7550 -0.1794
 2793SOL    HW219842   3.728   2.619   6.045 -1.4049  0.7651  0.5772
 2794SOL     OW19843   1.362   4.560  10.493  0.0274 -0.3226  0.1917
 2794SOL    HW119844   1.382   4.467  10.484 -0.1187 -0.1650 -1.7547
 2794SOL    HW219845   1.450   4.596  10.506  0.3718 -0.8456 -0.6727
 2795SOL     OW19846   3.958   0.925   6.578  0.6138 -0.1290  0.0043
 2795SOL    HW119847   4.038   0.872   6.576 -0.2761 -1.4669 -0.4107
 2795SOL    HW219848   3.951   0.963   6.666 -0.3149  3.3117 -1.5865
 2796SOL     OW19849   0.919   0.909   4.450  0.5825  0.3392 -0.4031
 2796SOL    HW119850   0.909   0.967   4.526  0.7753  0.6785 -0.6383
 2796SOL    HW219851   0.849   0.935   4.390 -0.6138  0.2567  0.9492
 2797SOL     OW19852   4.479   2.847   9.051  0.0604 -0.1360 -0.2863
 2797SOL    HW119853   4.492   2.880   8.962 -3.2727 -2.6351 -1.7073
 2797SOL    HW219854   4.559   2.795   9.062 -0.6043 -0.8507  1.1265
 2798SOL     OW19855   1.443   3.466  14.740 -0.1845  0.4215 -0.0737
 2798SOL    HW119856   1.372   3.402  14.742 -0.4621  0.7512  0.7178
 2798SOL    HW219857   1.485   3.446  14.656  2.0861 -0.8658  1.3875
 2799SOL     OW19858   3.227   4.176   5.719  0.5447 -0.0574  0.0905
 2799SOL    HW119859   3.253   4.176   5.811 -0.9725 -0.2223  0.5208
 2799SOL    HW219860   3.260   4.091   5.692  1.1992 -0.0275  0.8042
 2800SOL     OW19861   2.190   0.731  13.015  0.3894 -0.2447  0.4894
 2800SOL    HW119862   2.284   0.749  13.021  0.4770 -0.7452  0.5560
 2800SOL    HW219863   2.177   0.689  13.101 -1.5828  1.0328  0.8274
 2801SOL     OW19864   2.005   0.070  15.414 -0.2141 -0.1859 -0.4132
 2801SOL    HW119865   1.937   0.097  15.475 -0.1727 -1.7832  0.3335
 2801SOL    HW219866   1.993   0.130  15.340  3.0325  1.4411  0.3754
 2802SOL     OW19867   1.771   2.495   5.222 -0.1935 -0.1602  0.0042
 2802SOL    HW119868   1.735   2.555   5.158 -1.5585 -2.1762 -1.1152
 2802SOL    HW219869   1.843   2.550   5.254 -2.9151  0.4752  5.0707
 2803SOL     OW19870   1.226   3.888   9.877 -0.5298 -0.1026  0.0646
 2803SOL    HW119871   1.234   3.932   9.793  0.8916 -2.1039 -0.8318
 2803SOL    HW219872   1.313   3.887   9.917  0.5055  5.4010 -2.0657
 2804SOL     OW19873   2.987   0.474   8.181  0.0493 -0.0832  0.2447
 2804SOL    HW119874   3.025   0.391   8.208  0.3162 -0.7676 -2.1723
 2804SOL    HW219875   2.981   0.520   8.264 -0.5715  1.2634 -0.5487
 2805SOL     OW19876   1.626   0.150  11.546  0.2403  0.4588  0.2216
 2805SOL    HW119877   1.660   0.078  11.492  3.3978  1.1895  1.2246
 2805SOL    HW219878   1.649   0.109  11.629 -0.9339 -0.4661  0.0974
 2806SOL     OW19879   2.593   2.789   6.807 -0.2393 -0.4315 -0.2925
 2806SOL    HW119880   2.553   2.868   6.842 -0.4362  0.1383 -1.7819
 2806SOL    HW219881   2.676   2.804   6.853 -0.0024 -1.1646 -0.4808
 2807SOL     OW19882   2.577   2.355   8.322 -0.2026 -0.1555 -0.3377
 2807SOL    HW119883   2.545   2.302   8.394  1.3586 -0.1967  0.3377
 2807SOL    HW219884   2.522   2.321   8.252  0.8509 -1.5827 -0.4848
 2808SOL     OW19885   0.406   1.708  11.230 -0.0007 -0.0393  0.3044
 2808SOL    HW119886   0.447   1.633  11.187 -0.9132  0.8841 -2.1775
 2808SOL    HW219887   0.318   1.698  11.194  0.9173 -1.2128 -1.5898
 2809SOL     OW19888   0.407   0.035   0.096  0.2194 -0.2265  0.2923
 2809SOL    HW119889   0.439   4.716   0.175  1.5215  0.4465  0.1387
 2809SOL    HW219890   0.314   0.051   0.113 -0.0505 -2.1067  0.5146
 2810SOL     OW19891   0.651   2.823   2.929 -0.3267  0.0623  0.6336
 2810SOL    HW119892   0.741   2.808   2.898 -0.9144 -2.9752  0.4053
 2810SOL    HW219893   0.591   2.751   2.913  0.8357 -0.9653  0.9045
 2811SOL     OW19894   3.859   1.243  10.123  0.2957  0.0198 -0.2391
 2811SOL    HW119895   3.895   1.159  10.094 -0.5372 -0.2399 -0.5318
 2811SOL    HW219896   3.852   1.227  10.217 -0.4671 -2.6815 -0.7837
 2812SOL     OW19897   2.050   0.990  10.332 -0.1105  0.1911  0.0854
 2812SOL    HW119898   2.054   1.011  10.239 -3.7346  0.0574 -0.1087
 2812SOL    HW219899   2.122   0.929  10.345 -0.2910 -0.2858 -1.1310
 2813SOL     OW19900   0.750   2.507   7.636  0.4700 -0.2135  0.0697
 2813SOL    HW119901   0.754   2.471   7.725 -0.3287  0.7380  0.4872
 2813SOL    HW219902   0.689   2.579   7.652 -0.8627 -0.9952 -1.4848
 2814SOL     OW19903   2.094   2.742   1.519  0.8030 -0.5421  0.6820
 2814SOL    HW119904   2.147   2.789   1.455 -2.2967  0.9459 -0.7908
 2814SOL    HW219905   2.114   2.656   1.483 -0.3921  0.2307 -1.8055
 2815SOL     OW19906   3.295   0.103   5.257 -0.6989  0.5812 -0.7204
 2815SOL    HW119907   3.206   0.103   5.292 -0.9723 -2.4675 -1.4047
 2815SOL    HW219908   3.265   0.115   5.167 -1.7734 -0.4196 -0.5064
 2816SOL     OW19909   1.152   4.563   9.210  0.1500 -0.2032  0.2123
 2816SOL    HW119910   1.063   4.592   9.188 -0.4516 -2.9174 -0.8194
 2816SOL    HW219911   1.129   4.518   9.292  0.0758 -1.4926 -0.5220
 2817SOL     OW19912   4.628   1.328  10.000 -0.4119  0.3639 -0.0412
 2817SOL    HW119913   4.591   1.240   9.994  0.6165 -0.1089  0.5650
 2817SOL    HW219914   4.655   1.325  10.092  0.5447  1.7554 -0.2880
 2818SOL     OW19915   0.437   2.850   6.110  1.0616  0.3200 -0.1481
 2818SOL    HW119916   0.493   2.800   6.168 -0.0168  0.6866  1.2003
 2818SOL    HW219917   0.416   2.927   6.163 -0.2213 -1.4677  1.9568
 2819SOL     OW19918   0.965   4.499   6.097  0.5778 -0.3470 -0.2113
 2819SOL    HW119919   1.005   4.551   6.027  0.1080 -0.7114 -0.7452
 2819SOL    HW219920   0.928   4.427   6.047  0.9389  0.1027 -1.1291
 2820SOL     OW19921   3.417   3.316   4.502  0.7363  0.1829 -0.1332
 2820SOL    HW119922   3.444   3.407   4.492  0.4101  0.5223  2.1559
 2820SOL    HW219923   3.349   3.303   4.435 -1.6063 -0.3155  2.3722
 2821SOL     OW19924   4.551   1.913   6.942  0.3849 -0.2318 -0.1670
 2821SOL    HW119925   4.470   1.865   6.921 -1.4324  2.2301  1.1825
 2821SOL    HW219926   4.515   1.992   6.982 -1.5553 -1.4242  0.4748
 2822SOL     OW19927   1.781   0.080  11.788  0.6906  0.2363  0.1099
 2822SOL    HW119928   1.740   0.103  11.872  1.7545 -0.8710  0.9274
 2822SOL    HW219929   1.789   4.713  11.816 -1.1310  0.2423  0.6701
 2823SOL     OW19930   1.531   2.922   1.757 -0.8154 -0.6967 -0.0211
 2823SOL    HW119931   1.506   2.931   1.849 -0.8774  0.2261 -0.1236
 2823SOL    HW219932   1.567   2.834   1.751  1.3890  0.3005 -1.3143
 2824SOL     OW19933   4.399   2.392  14.361  0.1018  0.3030 -0.2104
 2824SOL    HW119934   4.389   2.297  14.355  1.3549  0.1820 -0.4605
 2824SOL    HW219935   4.486   2.402  14.399 -0.5105  0.8136  1.0379
 2825SOL     OW19936   0.193   1.196  10.127  0.6985 -0.7169 -0.0050
 2825SOL    HW119937   0.150   1.275  10.160 -1.2275 -1.4010 -0.8623
 2825SOL    HW219938   0.273   1.198  10.178 -0.0962  0.6140  1.1784
 2826SOL     OW19939   1.191   3.210   3.670  0.3854  0.3584  0.0712
 2826SOL    HW119940   1.124   3.242   3.610  3.1985  0.7916 -2.8640
 2826SOL    HW219941   1.224   3.296   3.696  0.7862  0.7317 -1.6705
 2827SOL     OW19942   3.142   0.946   1.158  0.3948  0.4639  0.1442
 2827SOL    HW119943   3.175   0.910   1.241  1.5505  3.2257  0.8770
 2827SOL    HW219944   3.202   0.899   1.100 -0.3040 -1.4535  0.9789
 2828SOL     OW19945   0.720   0.022   2.417 -0.6257  0.1785 -0.3153
 2828SOL    HW119946   0.662   4.689   2.467 -0.6205  1.5402  1.2659
 2828SOL    HW219947   0.654   0.086   2.392 -1.8947 -0.0779  2.3560
 2829SOL     OW19948   2.003   2.324   1.051  0.2896 -0.3460 -0.4115
 2829SOL    HW119949   2.096   2.308   1.068  0.8773  1.8713 -1.6622
 2829SOL    HW219950   2.002   2.418   1.066 -1.6946 -0.3825 -0.2603
 2830SOL     OW19951   3.146   3.537   6.772 -0.3251  0.0965 -0.3821
 2830SOL    HW119952   3.188   3.453   6.791 -2.7974 -1.6710 -2.8411
 2830SOL    HW219953   3.156   3.591   6.851  2.6177 -2.5611  1.0655
 2831SOL     OW19954   0.844   0.600   4.686 -0.1162  0.1279 -0.0978
 2831SOL    HW119955   0.866   0.521   4.636  1.5058  0.5367 -0.0178
 2831SOL    HW219956   0.800   0.645   4.614 -0.5176 -1.8548 -1.1209
 2832SOL     OW19957   1.951   2.092   8.549  0.0877  0.0510  0.3878
 2832SOL    HW119958   1.874   2.094   8.606 -1.1260  1.6377 -1.2906
 2832SOL    HW219959   1.967   2.186   8.541 -0.6371  0.1906  0.5668
 2833SOL     OW19960   1.275   3.392   6.912  0.2509 -0.9435  0.0122
 2833SOL    HW119961   1.370   3.397   6.905  0.2355 -0.3266  0.2227
 2833SOL    HW219962   1.250   3.483   6.895  0.4739 -1.2645 -1.9257
 2834SOL     OW19963   3.989   3.223   5.786 -0.0285 -0.2274 -0.2806
 2834SOL    HW119964   4.083   3.232   5.769  0.2471 -1.5036  0.6019
 2834SOL    HW219965   4.006   3.188   5.873  1.8617  0.9986 -0.1589
 2835SOL     OW19966   2.206   2.758   2.116  0.6488  0.2153 -0.0601
 2835SOL    HW119967   2.186   2.741   2.024 -1.1695 -0.5911  0.5047
 2835SOL    HW219968   2.119   2.741   2.152  0.6768  0.8474  0.3241
 2836SOL     OW19969   2.103   2.378  10.704 -0.1647 -0.0148 -0.0482
 2836SOL    HW119970   2.065   2.440  10.766  2.1118  0.6072  0.7549
 2836SOL    HW219971   2.178   2.351  10.758  0.5978  2.8284  0.3064
 2837SOL     OW19972   4.314   0.830   8.368 -0.8620  0.4863 -0.1853
 2837SOL    HW119973   4.343   0.755   8.421 -0.2886  0.6187 -0.3065
 2837SOL    HW219974   4.309   0.791   8.281 -1.5011  2.0375 -0.8369
 2838SOL     OW19975   2.339   0.736  12.694 -0.0854 -0.3579  0.3900
 2838SOL    HW119976   2.368   0.712  12.782  2.7874  0.4721 -0.3259
 2838SOL    HW219977   2.289   0.815  12.712  1.5843  0.8846 -0.4066
 2839SOL     OW19978   2.474   4.125  13.301  0.0360  0.5066  0.2700
 2839SOL    HW119979   2.476   4.136  13.396 -0.8736  0.5745  0.2760
 2839SOL    HW219980   2.388   4.156  13.273 -0.8911 -1.5501  0.8618
 2840SOL     OW19981   2.551   1.330   4.649  0.5281 -0.7077  0.3650
 2840SOL    HW119982   2.530   1.295   4.562 -0.0291  0.2395  0.1223
 2840SOL    HW219983   2.597   1.255   4.688 -0.1113 -1.6930 -0.7659
 2841SOL     OW19984   0.519   2.291  13.833  0.1955  0.4236  0.1168
 2841SOL    HW119985   0.498   2.367  13.887  1.8177  0.2436  1.0321
 2841SOL    HW219986   0.552   2.325  13.750 -2.7943  1.4264 -0.6415
 2842SOL     OW19987   4.286   0.957   7.281 -0.1233 -0.4591 -0.4802
 2842SOL    HW119988   4.194   0.946   7.304  0.9785 -3.2149  2.5200
 2842SOL    HW219989   4.311   0.868   7.258  2.0924 -0.7995  3.1977
 2843SOL     OW19990   3.389   0.454   8.662 -0.0440 -0.1870 -0.0528
 2843SOL    HW119991   3.359   0.459   8.753  0.8637  1.9782  0.1484
 2843SOL    HW219992   3.416   0.546   8.657  1.0914 -0.4803  0.5581
 2844SOL     OW19993   2.365   0.284   8.384 -0.4483  0.2703  0.5793
 2844SOL    HW119994   2.323   0.217   8.437 -1.8354  0.9211  0.3154
 2844SOL    HW219995   2.404   0.337   8.453  1.5188  1.2286 -1.2601
 2845SOL     OW19996   1.461   1.814  10.807 -0.3850  0.6976  0.1409
 2845SOL    HW119997   1.434   1.793  10.896 -0.7183 -0.3869 -0.2250
 2845SOL    HW219998   1.485   1.907  10.816 -1.6815  0.7571  2.8474
 2846SOL     OW19999   1.154   0.381  16.712  0.0050 -0.1745 -0.8237
 2846SOL    HW120000   1.208   0.392  16.790 -3.1227 -1.2507  1.4391
 2846SOL    HW220001   1.075   0.336  16.741  1.0515 -1.2721  0.2824
 2847SOL     OW20002   3.888   4.083  16.260 -0.0076 -0.4907  0.2532
 2847SOL    HW120003   3.958   4.039  16.308  0.3128  0.0013  0.2338
 2847SOL    HW220004   3.925   4.167  16.232  0.2853 -0.7123 -0.0270
 2848SOL     OW20005   2.680   3.251  14.424  0.1889 -0.3996  0.2806
 2848SOL    HW120006   2.775   3.235  14.431  0.5023  0.1263 -2.6399
 2848SOL    HW220007   2.676   3.303  14.343 -1.7322 -0.9029  0.0655
 2849SOL     OW20008   2.886   4.702  15.023 -0.3238  0.3622 -0.0206
 2849SOL    HW120009   2.822   4.644  15.066  1.2019 -0.0861  1.6399
 2849SOL    HW220010   2.824   0.009  14.957 -0.0002 -2.1517 -1.5289
 2850SOL     OW20011   4.579   4.201  11.152  0.5025 -0.3882 -0.4656
 2850SOL    HW120012   4.667   4.204  11.115  1.3533  0.2779  1.6243
 2850SOL    HW220013   4.581   4.205  11.247  0.3315  0.2126 -0.4908
 2851SOL     OW20014   3.372   2.836   0.309 -0.5040 -0.0232  1.4574
 2851SOL    HW120015   3.371   2.915   0.362  0.0317  0.2028  1.1422
 2851SOL    HW220016   3.460   2.848   0.272 -1.2635  1.6553  0.1734
 2852SOL     OW20017   0.212   2.279   2.214 -0.2338  0.3727  0.1094
 2852SOL    HW120018   0.156   2.335   2.268  0.6983 -0.5502  2.0450
 2852SOL    HW220019   0.236   2.345   2.149  0.2165 -1.4923 -1.6178
 2853SOL     OW20020   1.967   1.112   2.708  0.9189 -0.2886  0.2173
 2853SOL    HW120021   2.021   1.187   2.733 -1.4713  1.0514  1.3345
 2853SOL    HW220022   1.988   1.054   2.781  2.7897 -0.5038 -0.4787
 2854SOL     OW20023   0.257   2.236   2.741 -0.5916 -0.3036  0.1343
 2854SOL    HW120024   0.338   2.233   2.690 -0.5807 -0.4384  0.1594
 2854SOL    HW220025   0.269   2.285   2.822  1.0883  0.2733 -0.4479
 2855SOL     OW20026   3.486   3.996   7.721  0.0707 -0.2719  0.1936
 2855SOL    HW120027   3.551   3.930   7.697 -0.0446 -0.2643 -0.1318
 2855SOL    HW220028   3.427   3.947   7.779 -0.0891  0.1542  0.3977
 2856SOL     OW20029   2.118   0.916   5.115 -0.3992  0.0899  0.7283
 2856SOL    HW120030   2.193   0.968   5.087 -0.6057 -0.0286 -0.0446
 2856SOL    HW220031   2.149   0.905   5.205 -0.6953 -1.3884  0.6523
 2857SOL     OW20032   3.827   4.343   2.400  0.1961 -0.2897 -0.1246
 2857SOL    HW120033   3.747   4.391   2.376  0.1230 -1.3097 -1.9212
 2857SOL    HW220034   3.892   4.412   2.408 -0.1220  0.0112 -0.1114
 2858SOL     OW20035   4.558   3.916   7.513  0.5115 -0.2686 -0.2491
 2858SOL    HW120036   4.494   3.869   7.568  0.5134 -0.8766 -0.7642
 2858SOL    HW220037   4.632   3.935   7.571  0.5231  1.4992 -0.8541
 2859SOL     OW20038   2.629   0.103  11.518  0.1721 -0.0095 -0.3143
 2859SOL    HW120039   2.557   0.076  11.460  0.8755 -1.7501 -0.3876
 2859SOL    HW220040   2.589   0.185  11.547  1.7750  0.8210 -0.4356
 2860SOL     OW20041   3.927   3.503   2.919  0.4586 -0.5980  0.7830
 2860SOL    HW120042   4.003   3.447   2.937 -0.1217 -0.8811  2.3828
 2860SOL    HW220043   3.879   3.501   3.002 -1.6321 -4.3294 -0.5369
 2861SOL     OW20044   3.767   0.995   2.820  0.3821 -0.1583  0.4425
 2861SOL    HW120045   3.833   1.053   2.856 -0.2958  0.9438 -0.0935
 2861SOL    HW220046   3.699   1.059   2.843  0.7511  0.0576  0.9340
 2862SOL     OW20047   0.322   1.091   2.881  0.3616 -0.2793  1.0664
 2862SOL    HW120048   0.327   0.999   2.857  4.0478  0.9563 -2.9492
 2862SOL    HW220049   0.323   1.140   2.799  0.8201  0.9425  1.7899
 2863SOL     OW20050   1.904   3.557   7.153 -0.3152  0.0607  0.4461
 2863SOL    HW120051   1.899   3.469   7.116  1.9689  0.0481  0.1635
 2863SOL    HW220052   1.986   3.540   7.199  0.7265  0.8255 -1.1261
 2864SOL     OW20053   4.301   3.357   6.789  0.6661 -0.2646  0.7516
 2864SOL    HW120054   4.231   3.303   6.825 -0.6480  0.2947 -0.9710
 2864SOL    HW220055   4.295   3.435   6.844  1.3490 -1.1439  2.0956
 2865SOL     OW20056   2.881   3.193   2.714  0.2192 -0.0027  0.1645
 2865SOL    HW120057   2.914   3.196   2.624 -1.1798 -1.6811 -0.4137
 2865SOL    HW220058   2.810   3.130   2.702  0.2738  0.0483 -0.4082
 2866SOL     OW20059   2.888   0.175  16.426 -0.2124  0.2228 -0.1951
 2866SOL    HW120060   2.934   0.105  16.381 -1.4753 -1.4123  1.0489
 2866SOL    HW220061   2.827   0.203  16.358 -0.2878 -0.0475 -0.2364
 2867SOL     OW20062   2.631   1.963   4.841  0.8358  0.0943 -1.2259
 2867SOL    HW120063   2.695   1.984   4.910 -0.4322 -0.2301  0.0380
 2867SOL    HW220064   2.590   2.049   4.834 -1.8347 -1.1673 -0.8606
 2868SOL     OW20065   4.119   3.788   5.431 -0.4919  0.1037  0.5281
 2868SOL    HW120066   4.089   3.773   5.520 -1.2257  1.0474  0.4367
 2868SOL    HW220067   4.075   3.873   5.427  0.4184  0.5624  0.3094
 2869SOL     OW20068   0.071   1.271   4.779 -0.2299 -1.0901  0.1706
 2869SOL    HW120069   0.078   1.366   4.772  1.8446 -1.0896  2.4292
 2869SOL    HW220070   0.166   1.263   4.781 -0.2781 -1.3762  1.0551
 2870SOL     OW20071   4.723   0.983   8.635 -0.5374  0.3782 -0.7800
 2870SOL    HW120072   4.711   0.976   8.730  0.7690  0.4137 -0.6097
 2870SOL    HW220073   0.055   1.060   8.628 -0.1388  0.0876 -0.7636
 2871SOL     OW20074   4.474   2.365  16.259  0.1927  0.2048  0.1331
 2871SOL    HW120075   4.450   2.279  16.226 -0.9653 -0.2694  2.2378
 2871SOL    HW220076   4.553   2.378  16.206  1.1726  1.9953  2.0442
 2872SOL     OW20077   0.999   1.364   6.464  0.7115  0.9134  0.0454
 2872SOL    HW120078   0.958   1.398   6.385  0.2824  0.3327  0.0159
 2872SOL    HW220079   0.980   1.272   6.447  2.7654  0.1561  1.7841
 2873SOL     OW20080   2.642   4.033   5.676  0.4439  0.0266  0.5480
 2873SOL    HW120081   2.628   3.939   5.671  0.2496  0.0007  1.6927
 2873SOL    HW220082   2.558   4.062   5.712  0.1358  1.0629 -0.9966
 2874SOL     OW20083   1.498   0.886   2.827 -0.1678 -0.0652  0.8281
 2874SOL    HW120084   1.520   0.900   2.735 -1.4315  0.2626  0.5723
 2874SOL    HW220085   1.431   0.818   2.822  1.4355 -1.4412 -2.2966
 2875SOL     OW20086   1.226   1.632   6.869  0.4728  0.5086 -0.6917
 2875SOL    HW120087   1.202   1.708   6.817 -0.0115  0.2708 -0.8158
 2875SOL    HW220088   1.291   1.590   6.813 -0.8730 -0.3904 -1.5673
 2876SOL     OW20089   2.405   3.896   4.253  0.2175  0.0647  0.0188
 2876SOL    HW120090   2.368   3.863   4.171 -0.0436  0.7293 -0.1338
 2876SOL    HW220091   2.408   3.813   4.300 -0.2615 -1.5620 -2.8413
 2877SOL     OW20092   0.755   3.323   6.609 -0.3535 -0.1829 -0.1551
 2877SOL    HW120093   0.731   3.331   6.517  1.1913 -0.2527 -0.5569
 2877SOL    HW220094   0.786   3.232   6.609  0.4345  0.0828  0.3845
 2878SOL     OW20095   3.138   3.218   7.405  0.1682 -0.2152 -0.5781
 2878SOL    HW120096   3.068   3.245   7.464  0.1169 -0.3071 -0.5969
 2878SOL    HW220097   3.220   3.253   7.441 -1.3702  0.8468  1.8228
 2879SOL     OW20098   0.014   0.963   6.466  0.3672 -0.2790 -0.1505
 2879SOL    HW120099   0.004   1.040   6.410 -0.5136  1.3505  2.2689
 2879SOL    HW220100   0.004   1.003   6.552 -0.4570 -0.8155 -0.0017
 2880SOL     OW20101   2.073   2.016   2.345  0.2073  0.0178 -0.5250
 2880SOL    HW120102   2.080   1.923   2.367 -1.1356 -0.2029 -1.0088
 2880SOL    HW220103   2.122   2.009   2.263  0.6578  1.7164 -0.3888
 2881SOL     OW20104   4.201   0.486   8.712  0.2454 -0.2649 -0.0034
 2881SOL    HW120105   4.153   0.472   8.630  1.1551  3.6833 -1.2190
 2881SOL    HW220106   4.221   0.398   8.743 -0.4974 -0.8392 -1.1412
 2882SOL     OW20107   3.188   3.882   2.649 -0.4537 -0.1099  0.4205
 2882SOL    HW120108   3.199   3.960   2.704 -1.9799  1.1105 -0.9987
 2882SOL    HW220109   3.126   3.826   2.695 -0.5089 -0.6926 -0.3681
 2883SOL     OW20110   0.212   1.840  11.629 -0.4451 -0.0251  0.1833
 2883SOL    HW120111   0.161   1.802  11.557 -1.1043 -0.1940  0.7461
 2883SOL    HW220112   0.296   1.799  11.608 -0.2543  1.4343 -1.8945
 2884SOL     OW20113   0.723   3.573   1.065 -0.0467 -0.6320 -0.1930
 2884SOL    HW120114   0.724   3.528   0.981 -3.8265 -0.7962 -0.1551
 2884SOL    HW220115   0.631   3.563   1.089  0.5001 -0.0064  2.1561
 2885SOL     OW20116   3.946   1.174   5.577 -0.0218  0.0086  0.2768
 2885SOL    HW120117   3.857   1.140   5.569 -1.5010  3.8366  0.1002
 2885SOL    HW220118   3.922   1.248   5.633  1.4355  1.0830 -0.5215
 2886SOL     OW20119   0.805   3.196  14.536 -0.7905  0.1549  0.5515
 2886SOL    HW120120   0.734   3.220  14.476 -0.1196 -3.0356 -1.5123
 2886SOL    HW220121   0.765   3.215  14.621  2.3797  0.0234  2.0647
 2887SOL     OW20122   2.217   1.328   9.105  0.1140  0.4381  0.1491
 2887SOL    HW120123   2.297   1.376   9.126 -0.9442  1.0000  2.9379
 2887SOL    HW220124   2.253   1.250   9.063  0.0284 -0.7986  2.3970
 2888SOL     OW20125   0.985   0.130   3.753 -0.5955  0.0350  0.2891
 2888SOL    HW120126   0.957   0.065   3.818 -0.3191 -1.8473 -1.4465
 2888SOL    HW220127   0.924   0.106   3.683  2.3130 -1.5472 -1.6928
 2889SOL     OW20128   2.660   1.265   2.754  0.8496 -0.1046 -0.0905
 2889SOL    HW120129   2.668   1.297   2.664  2.5795 -0.3921 -0.0386
 2889SOL    HW220130   2.681   1.172   2.745  1.2466 -0.0014 -0.2783
 2890SOL     OW20131   0.794   0.938  11.091  0.2676 -0.5022 -0.2659
 2890SOL    HW120132   0.805   0.953  11.184  2.5443  1.8433 -0.8918
 2890SOL    HW220133   0.840   1.008  11.044 -1.5420  1.2958  0.6415
 2891SOL     OW20134   1.142   0.765  13.014  0.0648 -0.3863 -0.4027
 2891SOL    HW120135   1.226   0.720  12.999  1.0939  2.0159 -1.7507
 2891SOL    HW220136   1.173   0.854  12.999 -1.0566  0.0900  0.0933
 2892SOL     OW20137   2.995   1.439   0.157 -0.4091 -0.1052  0.1660
 2892SOL    HW120138   3.035   1.407   0.076 -1.4731 -1.1664  0.0709
 2892SOL    HW220139   2.984   1.527   0.120 -1.2882  0.6693  2.3190
 2893SOL     OW20140   2.284   4.060   8.347 -0.5954  0.0566 -0.2905
 2893SOL    HW120141   2.329   4.078   8.430  0.9118  0.8876 -1.2893
 2893SOL    HW220142   2.307   4.145   8.309  1.1464  0.4638  1.6296
 2894SOL     OW20143   0.259   1.762   4.532  0.3766  0.3020 -0.1868
 2894SOL    HW120144   0.297   1.801   4.454  2.1881 -2.1400 -0.5123
 2894SOL    HW220145   0.225   1.833   4.586 -0.3373  2.4192 -3.4501
 2895SOL     OW20146   4.594   2.286   2.966 -0.6329 -0.1179 -0.0570
 2895SOL    HW120147   4.601   2.212   2.907 -0.0226 -1.0304  1.1521
 2895SOL    HW220148   4.505   2.313   2.943  0.3179  1.8428 -1.4144
 2896SOL     OW20149   4.696   3.342   3.519 -0.1129 -0.0356 -0.5294
 2896SOL    HW120150   0.018   3.342   3.436 -0.2413  2.4072 -0.5984
 2896SOL    HW220151   0.044   3.367   3.576 -0.3135  0.5718 -0.5497
 2897SOL     OW20152   2.131   3.113   2.905  0.0307  0.2259  0.4729
 2897SOL    HW120153   2.200   3.063   2.862  0.8094  1.4388  0.3261
 2897SOL    HW220154   2.091   3.160   2.832  1.2420  0.0506 -0.3040
 2898SOL     OW20155   1.084   3.861   8.041 -0.7699 -1.0514  0.1124
 2898SOL    HW120156   1.148   3.932   8.038 -0.6754 -1.0660  1.6352
 2898SOL    HW220157   1.135   3.781   8.050  1.5952  0.4313 -0.3498
 2899SOL     OW20158   4.545   4.323  14.372  0.3316 -0.4053  0.1174
 2899SOL    HW120159   4.515   4.414  14.379  0.3946 -0.5641  2.3689
 2899SOL    HW220160   4.620   4.329  14.313 -0.1521  0.7672 -0.3856
 2900SOL     OW20161   4.141   3.018   5.546  0.0057 -0.3145 -0.2105
 2900SOL    HW120162   4.092   3.059   5.474  0.9368  0.2265 -0.5393
 2900SOL    HW220163   4.127   2.928   5.516  0.6017 -0.4703 -0.0218
 2901SOL     OW20164   2.646   0.603   6.488  0.0102 -1.0631  0.3270
 2901SOL    HW120165   2.681   0.644   6.567  1.4916 -0.6031 -0.5725
 2901SOL    HW220166   2.555   0.600   6.518 -0.3455  1.4020 -0.5101
 2902SOL     OW20167   0.771   2.440   7.921 -0.0527 -0.5292 -0.2280
 2902SOL    HW120168   0.688   2.477   7.951 -0.2805 -0.9143 -0.3804
 2902SOL    HW220169   0.767   2.361   7.976 -2.1529 -0.0156  0.3512
 2903SOL     OW20170   3.000   1.773  16.326  0.2809  0.0076 -0.0159
 2903SOL    HW120171   3.072   1.782  16.264  0.3283 -0.8102 -0.0731
 2903SOL    HW220172   2.938   1.846  16.320  0.1925 -0.1130 -0.4880
 2904SOL     OW20173   1.541   2.051   1.143  0.2202 -0.0082 -0.3211
 2904SOL    HW120174   1.560   2.117   1.076  0.3982 -0.2143 -0.4730
 2904SOL    HW220175   1.596   1.979   1.111  0.1063 -0.9282  1.5657
 2905SOL     OW20176   3.831   1.790   6.937 -0.9256 -0.2000 -0.3597
 2905SOL    HW120177   3.787   1.747   6.864 -0.8339 -0.8880 -0.0201
 2905SOL    HW220178   3.849   1.715   6.995 -0.6556 -1.5807 -2.2131
 2906SOL     OW20179   4.458   2.477   6.984  0.3999  0.1289  0.0159
 2906SOL    HW120180   4.483   2.448   7.072  1.6043 -1.9948 -1.0120
 2906SOL    HW220181   4.542   2.472   6.937  0.7544 -0.2359  0.6941
 2907SOL     OW20182   4.358   0.912   3.127  0.0970 -0.1146  0.5988
 2907SOL    HW120183   4.400   0.870   3.052 -0.7109 -0.8641  0.5667
 2907SOL    HW220184   4.408   0.891   3.205  0.2735  1.3874  0.8938
 2908SOL     OW20185   1.346   3.881   3.329  0.1672  0.2067 -0.6060
 2908SOL    HW120186   1.346   3.907   3.237  2.0856  0.3526 -0.5610
 2908SOL    HW220187   1.287   3.806   3.324  0.1311 -0.0230  3.0951
 2909SOL     OW20188   2.935   2.911  14.383  0.1102 -0.1425 -0.2379
 2909SOL    HW120189   2.998   2.900  14.312  3.1388 -1.1412  2.6054
 2909SOL    HW220190   2.947   2.828  14.428 -0.5388  0.6304  1.3692
 2910SOL     OW20191   0.062   4.241   1.465 -1.0167 -0.8557  0.2677
 2910SOL    HW120192   0.046   4.150   1.439  0.2514 -0.8985 -0.4012
 2910SOL    HW220193   0.012   4.291   1.401 -1.3139  0.1498  1.2880
 2911SOL     OW20194   0.258   1.883  13.919 -0.1713  0.2901 -0.3619
 2911SOL    HW120195   0.225   1.887  13.829 -0.2455  0.8105 -0.3129
 2911SOL    HW220196   0.296   1.970  13.929  0.5984 -0.0588 -0.2837
 2912SOL     OW20197   1.557   3.406   6.849  0.1751 -0.1301  0.3630
 2912SOL    HW120198   1.605   3.399   6.767  1.1537 -3.8263  1.2545
 2912SOL    HW220199   1.563   3.501   6.854  1.9798 -0.1946 -0.6711
 2913SOL     OW20200   1.722   1.224   8.100 -0.4621  0.2054  0.1323
 2913SOL    HW120201   1.698   1.188   8.185  1.2373  0.9304  0.9243
 2913SOL    HW220202   1.818   1.219   8.100 -0.5665 -1.7664 -0.7063
 2914SOL     OW20203   2.903   1.536   6.640  0.3693 -0.1719 -0.4611
 2914SOL    HW120204   2.969   1.538   6.710 -2.3172  1.0985  2.0602
 2914SOL    HW220205   2.940   1.455   6.605 -2.0764 -2.6231  2.5497
 2915SOL     OW20206   4.182   2.597  15.808 -0.2560 -0.5199 -0.0880
 2915SOL    HW120207   4.100   2.646  15.799  2.2271  3.3169 -2.0069
 2915SOL    HW220208   4.172   2.516  15.759 -0.5965 -0.3490 -0.3054
 2916SOL     OW20209   2.291   0.415  10.806 -0.4883 -0.6695  0.2425
 2916SOL    HW120210   2.234   0.392  10.732 -0.4742 -0.4246  0.1526
 2916SOL    HW220211   2.228   0.415  10.878 -0.6146  0.4612  0.1462
 2917SOL     OW20212   3.226   4.172   2.487 -0.1472  0.1118  0.1410
 2917SOL    HW120213   3.157   4.197   2.427 -0.5088 -2.2006 -0.3991
 2917SOL    HW220214   3.284   4.119   2.431  1.2749  1.3371  0.4586
 2918SOL     OW20215   3.196   0.430   0.193  0.7210 -0.2374  0.0929
 2918SOL    HW120216   3.261   0.374   0.150  1.1773  2.0860 -2.2210
 2918SOL    HW220217   3.153   0.367   0.250  1.2412 -1.9894 -1.4480
 2919SOL     OW20218   0.950   3.790   4.480 -0.0550  0.2817  0.3512
 2919SOL    HW120219   0.887   3.861   4.468 -0.5788 -0.5348 -1.7776
 2919SOL    HW220220   0.900   3.720   4.438 -0.5391  0.3077  0.8787
 2920SOL     OW20221   1.911   3.573   1.942 -0.0402  0.0524  0.3738
 2920SOL    HW120222   1.926   3.668   1.942  1.6689 -0.2011 -2.7787
 2920SOL    HW220223   1.815   3.576   1.944 -0.1144  0.3925 -2.5318
 2921SOL     OW20224   4.026   1.359   6.270 -0.1393 -0.0756  0.2683
 2921SOL    HW120225   4.048   1.432   6.213 -1.9840  0.2826  0.0147
 2921SOL    HW220226   4.010   1.403   6.353  0.0716 -2.1114  1.4003
 2922SOL     OW20227   4.268   1.929  17.376  0.4145  0.7107  0.0255
 2922SOL    HW120228   4.288   1.905  17.466 -2.5556 -2.4541 -0.1744
 2922SOL    HW220229   4.279   2.024  17.386  0.3914  0.6532  0.5863
 2923SOL     OW20230   2.508   1.462   2.401  0.3189 -0.2681  0.2037
 2923SOL    HW120231   2.463   1.540   2.369 -2.7187 -1.4853  1.4974
 2923SOL    HW220232   2.595   1.467   2.361  0.2806 -2.6256 -0.1600
 2924SOL     OW20233   4.455   4.554   6.331 -0.5851 -0.2639  0.0056
 2924SOL    HW120234   4.409   4.485   6.283  0.9864 -0.4329 -1.2547
 2924SOL    HW220235   4.490   4.597   6.253 -0.5660  0.6334  0.5177
 2925SOL     OW20236   4.365   2.288   0.816 -0.2410  0.0207 -0.1933
 2925SOL    HW120237   4.277   2.250   0.818 -0.4714  0.7366  3.1708
 2925SOL    HW220238   4.383   2.300   0.909 -1.1566  1.9549 -0.2508
 2926SOL     OW20239   2.139   2.589   9.122 -0.3397  0.1467 -0.1138
 2926SOL    HW120240   2.149   2.635   9.205  0.5274  0.4104 -0.3599
 2926SOL    HW220241   2.138   2.496   9.147 -3.1690 -0.7527 -3.4290
 2927SOL     OW20242   3.243   0.720  17.542 -0.4135  0.2866 -0.7955
 2927SOL    HW120243   3.304   0.646  17.537  1.3357  1.4944  2.6177
 2927SOL    HW220244   3.310   0.787  17.550 -0.2526  0.2331 -1.7180
 2928SOL     OW20245   1.588   1.241   9.883 -0.0082  0.1548 -0.4557
 2928SOL    HW120246   1.649   1.312   9.903 -0.0874  0.9770 -3.1937
 2928SOL    HW220247   1.573   1.264   9.791 -1.3630 -1.1493 -0.5555
 2929SOL     OW20248   0.009   0.760   4.970 -0.1459  0.0564  0.0138
 2929SOL    HW120249   4.647   0.795   4.989  0.9410  0.4540  4.2913
 2929SOL    HW220250   0.051   0.743   5.054 -1.6382 -0.1409  0.7135
 2930SOL     OW20251   3.244   1.009   4.661  0.4174  0.3722  0.3196
 2930SOL    HW120252   3.271   1.027   4.571  0.6173 -2.0016 -0.0905
 2930SOL    HW220253   3.278   0.920   4.664  1.1477  0.6825  1.7190
 2931SOL     OW20254   3.575   2.504   2.086 -0.1177  0.0499 -0.1452
 2931SOL    HW120255   3.526   2.463   2.158 -1.5193  0.2650 -0.9864
 2931SOL    HW220256   3.634   2.568   2.128  1.6108 -0.4693 -1.7955
 2932SOL     OW20257   4.170   2.086   2.498  0.1384 -0.4689  1.0610
 2932SOL    HW120258   4.181   2.172   2.457  0.3567 -0.0340  2.0467
 2932SOL    HW220259   4.226   2.029   2.444  1.0969  1.4649  0.0249
 2933SOL     OW20260   3.597   4.362   8.716  0.0849 -0.4285  0.0895
 2933SOL    HW120261   3.608   4.285   8.772  0.7752 -2.5816 -2.9951
 2933SOL    HW220262   3.683   4.403   8.719 -0.6609  1.0761  0.8401
 2934SOL     OW20263   4.072   3.195   7.437  0.4940 -0.5376 -0.2274
 2934SOL    HW120264   4.129   3.136   7.387  0.3154 -0.7521 -0.1770
 2934SOL    HW220265   3.985   3.163   7.414  0.1846  1.2533 -1.5763
 2935SOL     OW20266   3.541   4.167   2.560 -0.1563  0.0025 -0.0966
 2935SOL    HW120267   3.446   4.168   2.550 -0.0240 -0.7099 -1.3546
 2935SOL    HW220268   3.567   4.094   2.504 -3.1113 -1.0089 -0.1293
 2936SOL     OW20269   3.416   0.508   1.203 -0.4919  0.3205 -0.2155
 2936SOL    HW120270   3.426   0.556   1.285  2.1372  0.2089 -0.4685
 2936SOL    HW220271   3.332   0.465   1.217  0.1528 -0.6984  0.5101
 2937SOL     OW20272   0.027   3.057  16.485 -0.1387 -0.3297 -0.2130
 2937SOL    HW120273   0.030   2.970  16.523  1.2341 -0.1912 -0.0092
 2937SOL    HW220274   4.672   3.051  16.433 -0.8565  3.4809  0.4075
 2938SOL     OW20275   2.736   0.531   8.466 -0.0328  0.0468  0.2914
 2938SOL    HW120276   2.757   0.450   8.514  0.6528  0.1300  0.1422
 2938SOL    HW220277   2.756   0.596   8.533 -2.4835  0.0079  1.0404
 2939SOL     OW20278   3.984   2.111  11.378  0.2386 -0.9311  0.5035
 2939SOL    HW120279   3.915   2.053  11.346  0.6136 -1.3124  0.3985
 2939SOL    HW220280   3.952   2.197  11.349  0.0201 -1.4827 -0.9072
 2940SOL     OW20281   2.342   1.829   1.309 -0.1183  0.4172 -0.0243
 2940SOL    HW120282   2.260   1.790   1.339  1.3655 -1.0257  2.2105
 2940SOL    HW220283   2.351   1.804   1.217 -0.7576  1.1398 -0.2795
 2941SOL     OW20284   4.563   2.126   2.372 -0.2498  0.5816  0.1536
 2941SOL    HW120285   4.543   2.220   2.375 -1.7896  0.2611  0.0639
 2941SOL    HW220286   4.491   2.096   2.316 -0.2052  1.0827 -0.1743
 2942SOL     OW20287   2.715   2.281   9.364  0.2217 -0.2983  0.1372
 2942SOL    HW120288   2.665   2.201   9.347 -1.4784  0.2910  2.5185
 2942SOL    HW220289   2.776   2.240   9.426  2.6304 -1.5624 -3.0648
 2943SOL     OW20290   2.213   2.630   9.741  0.1805 -0.0459 -0.2642
 2943SOL    HW120291   2.275   2.581   9.795  1.0807  1.3506 -0.0157
 2943SOL    HW220292   2.229   2.713   9.786 -1.2827  0.2077 -0.2398
 2944SOL     OW20293   0.970   0.306   7.602  0.0420 -0.1798 -0.5215
 2944SOL    HW120294   1.013   0.322   7.686  0.3387 -0.2772 -0.6551
 2944SOL    HW220295   1.041   0.303   7.538 -0.6604 -0.9662 -1.2625
 2945SOL     OW20296   4.722   3.023   6.630 -0.2284 -0.4516  0.0109
 2945SOL    HW120297   4.639   3.038   6.675 -0.9706  1.1197 -1.8514
 2945SOL    HW220298   4.712   3.076   6.551 -1.9910  0.3303  0.7490
 2946SOL     OW20299   0.053   2.957  17.323 -0.0479 -0.2828 -0.5091
 2946SOL    HW120300   0.074   2.868  17.294  3.2895 -0.1097  1.4573
 2946SOL    HW220301   4.699   2.947  17.377  0.9719  1.5027  1.3084
 2947SOL     OW20302   0.805   0.741  16.516  0.1587  0.0698  0.6168
 2947SOL    HW120303   0.759   0.711  16.595  0.8036 -1.0189  0.5759
 2947SOL    HW220304   0.890   0.700  16.531  0.3344  0.0804 -0.3604
 2948SOL     OW20305   4.565   1.368   3.412 -0.1191  0.0016  0.3252
 2948SOL    HW120306   4.648   1.377   3.365  0.7025 -0.6820  1.6609
 2948SOL    HW220307   4.558   1.273   3.412 -0.2060  0.0039 -1.8169
 2949SOL     OW20308   3.451   0.722   4.011 -0.3688  0.3044  0.5981
 2949SOL    HW120309   3.512   0.667   3.962 -0.8954  0.9909 -0.8081
 2949SOL    HW220310   3.497   0.806   4.010 -0.3857  0.3231  1.3954
 2950SOL     OW20311   1.050   2.336   8.052  0.1091 -0.0487 -1.0520
 2950SOL    HW120312   1.018   2.294   8.132  0.6332 -0.1299 -0.8832
 2950SOL    HW220313   1.144   2.332   8.069  0.2929  0.3320 -1.9917
 2951SOL     OW20314   4.236   4.091  17.369  0.1295  0.1999 -0.5025
 2951SOL    HW120315   4.197   4.177  17.354  0.9732  0.9363  1.5160
 2951SOL    HW220316   4.307   4.126  17.423  1.3736  0.1140 -2.0714
 2952SOL     OW20317   2.162   4.088   3.257  0.3326 -0.4711  0.1975
 2952SOL    HW120318   2.170   4.067   3.350  0.3950 -0.6375  0.1551
 2952SOL    HW220319   2.070   4.112   3.258  0.5418  0.2829  2.0199
 2953SOL     OW20320   1.863   3.011   7.359 -0.3002 -0.2959  0.7696
 2953SOL    HW120321   1.789   3.045   7.409 -1.3787 -0.4943 -0.6812
 2953SOL    HW220322   1.836   3.024   7.268  2.0436  1.2553  0.3033
 2954SOL     OW20323   3.480   1.049  15.457  0.1839 -0.3440  0.0112
 2954SOL    HW120324   3.426   1.063  15.535 -1.2661  0.0600 -1.0718
 2954SOL    HW220325   3.469   0.954  15.449 -0.8570 -0.1916 -0.3118
 2955SOL     OW20326   0.977   4.534   8.401 -0.0370  0.1206  0.0334
 2955SOL    HW120327   0.916   4.608   8.411  1.9050  2.1849 -3.4574
 2955SOL    HW220328   0.914   4.465   8.422  0.0585  0.1705  0.4976
 2956SOL     OW20329   3.491   1.297   2.189 -0.2993  0.4013 -0.2032
 2956SOL    HW120330   3.559   1.346   2.234 -0.8643  2.1117 -1.2370
 2956SOL    HW220331   3.415   1.355   2.193  0.4864  1.4462 -0.3678
 2957SOL     OW20332   3.509   2.125   4.286 -0.1577 -0.0628  0.3658
 2957SOL    HW120333   3.438   2.171   4.240  0.2166  1.2665  1.1021
 2957SOL    HW220334   3.491   2.161   4.373 -0.6523  0.6696 -0.0306
 2958SOL     OW20335   3.214   2.690   6.630 -0.2192  0.3999 -0.1784
 2958SOL    HW120336   3.130   2.674   6.588  1.2328 -0.8095 -2.5873
 2958SOL    HW220337   3.276   2.639   6.578 -0.6815 -0.5798  0.2372
 2959SOL     OW20338   2.375   3.356   2.931  0.0095 -0.3828  0.1300
 2959SOL    HW120339   2.338   3.378   2.845 -0.8107  2.1205  1.1368
 2959SOL    HW220340   2.392   3.264   2.912 -1.5042 -0.9509  1.5756
 2960SOL     OW20341   3.564   4.191   3.194 -0.6612 -0.3027  0.0771
 2960SOL    HW120342   3.500   4.131   3.156 -1.7382  0.9661 -0.1353
 2960SOL    HW220343   3.632   4.186   3.127 -2.0267  0.7564 -1.3889
 2961SOL     OW20344   1.437   2.234   4.328  0.2421 -0.1838 -0.2532
 2961SOL    HW120345   1.442   2.320   4.370 -0.4637 -0.5723  0.6197
 2961SOL    HW220346   1.481   2.262   4.248 -1.5586  1.4658 -0.6609
 2962SOL     OW20347   3.046   3.324   4.948 -0.0431  0.0588 -0.3534
 2962SOL    HW120348   3.112   3.383   4.986 -0.8072  1.3020 -0.9481
 2962SOL    HW220349   2.997   3.385   4.893 -1.0444 -0.3479  0.0962
 2963SOL     OW20350   0.062   4.044   5.785  0.4051 -0.5545 -0.2877
 2963SOL    HW120351   0.021   4.121   5.747  0.6010 -0.5068 -0.4021
 2963SOL    HW220352   0.106   4.005   5.709 -1.7885 -2.0214 -0.8166
 2964SOL     OW20353   4.601   3.312   9.661 -0.2041 -0.1603 -0.0390
 2964SOL    HW120354   4.621   3.346   9.748  1.0295  2.2421 -1.2447
 2964SOL    HW220355   4.521   3.363   9.651  0.6350  1.4994  1.7789
 2965SOL     OW20356   3.420   3.565   7.121 -0.1247 -0.9883 -0.1237
 2965SOL    HW120357   3.441   3.486   7.170 -2.7401 -2.0478 -0.7083
 2965SOL    HW220358   3.469   3.629   7.173 -0.4893 -0.1416 -0.8015
 2966SOL     OW20359   0.414   3.212   4.710  0.0940  0.1413  0.1292
 2966SOL    HW120360   0.376   3.221   4.798 -0.7013  1.2456 -0.3192
 2966SOL    HW220361   0.343   3.253   4.661 -0.5790 -0.6669  0.4302
 2967SOL     OW20362   3.040   1.833   6.789 -0.5901 -0.6233  0.3950
 2967SOL    HW120363   3.080   1.893   6.853 -0.6782  1.3437 -1.3822
 2967SOL    HW220364   3.103   1.761   6.788 -0.2222 -0.2639 -1.9940
 2968SOL     OW20365   4.364   0.337   0.179  0.4348 -0.3877 -0.2081
 2968SOL    HW120366   4.270   0.331   0.163  0.2845  1.3574 -0.0327
 2968SOL    HW220367   4.384   0.344   0.086 -0.0210  1.1501 -0.1978
 2969SOL     OW20368   0.971   2.334   7.515 -0.1176 -0.4659 -0.1849
 2969SOL    HW120369   1.009   2.290   7.591  1.3429 -0.1786 -0.7423
 2969SOL    HW220370   0.916   2.403   7.554  1.2312 -0.3344  1.4923
 2970SOL     OW20371   1.398   3.718   2.788 -0.3920 -0.2289  0.3303
 2970SOL    HW120372   1.444   3.641   2.758  1.8784  0.9482  0.8199
 2970SOL    HW220373   1.336   3.671   2.844  0.1770 -0.9661  0.3287
 2971SOL     OW20374   1.030   0.778   3.531  0.2311  0.1391  0.5341
 2971SOL    HW120375   1.117   0.741   3.513  1.3638  2.0009  2.2378
 2971SOL    HW220376   0.987   0.697   3.561  0.5954  0.0270  0.7634
 2972SOL     OW20377   4.510   1.043   4.261  0.3316 -1.1437  0.5117
 2972SOL    HW120378   4.578   1.080   4.205 -1.9158  1.5526 -0.3945
 2972SOL    HW220379   4.472   0.972   4.209 -1.2190  1.1774 -1.5179
 2973SOL     OW20380   0.698   3.497   2.690 -0.0976  0.5920 -0.2012
 2973SOL    HW120381   0.741   3.530   2.769 -1.4188  0.2364  0.6549
 2973SOL    HW220382   0.693   3.571   2.629  0.9614 -0.4222 -1.5378
 2974SOL     OW20383   1.715   1.473  15.527  0.0604 -0.1264  0.5136
 2974SOL    HW120384   1.671   1.466  15.612 -2.8403 -0.8827 -1.0333
 2974SOL    HW220385   1.656   1.531  15.477  0.0615 -0.2164  0.4080
 2975SOL     OW20386   0.738   2.088  10.696  0.2074  0.1595  0.4416
 2975SOL    HW120387   0.810   2.026  10.687  0.6565  0.9001 -0.9857
 2975SOL    HW220388   0.747   2.127  10.784  0.5993 -2.1295  1.4020
 2976SOL     OW20389   2.048   3.544   3.301 -0.0339 -0.2083 -0.7512
 2976SOL    HW120390   2.072   3.472   3.242 -3.2057 -0.9893 -1.0817
 2976SOL    HW220391   1.954   3.533   3.315 -0.4742  3.0056 -1.0602
 2977SOL     OW20392   2.578   3.043   8.587  0.1680 -0.2615 -0.1624
 2977SOL    HW120393   2.624   2.960   8.582 -0.5559 -0.5240 -2.9668
 2977SOL    HW220394   2.555   3.064   8.496  0.4158  1.6576  0.2168
 2978SOL     OW20395   0.189   1.355  12.455 -0.4468 -0.7492  0.4606
 2978SOL    HW120396   0.229   1.355  12.368 -2.4162  2.4249 -0.4488
 2978SOL    HW220397   0.156   1.444  12.444  1.4656  0.0315  1.1297
 2979SOL     OW20398   4.243   2.415   1.877  0.3442  0.3801 -0.8738
 2979SOL    HW120399   4.320   2.428   1.821  0.4908  1.1846 -0.4770
 2979SOL    HW220400   4.176   2.389   1.813 -0.2631  0.5871 -0.3194
 2980SOL     OW20401   2.857   4.201   8.935 -0.7820  0.2129  0.0795
 2980SOL    HW120402   2.914   4.213   9.011 -1.0300 -0.9646  0.4635
 2980SOL    HW220403   2.781   4.244   8.973  0.6259  1.4956  1.4082
 2981SOL     OW20404   3.538   1.865   0.324 -0.0004  0.5010  0.0574
 2981SOL    HW120405   3.556   1.777   0.356 -0.3504  1.1089  1.9279
 2981SOL    HW220406   3.600   1.874   0.252 -1.2810  1.3624 -0.9395
 2982SOL     OW20407   2.586   2.026   8.283 -0.3793 -0.3344  0.2202
 2982SOL    HW120408   2.644   1.972   8.337  1.9415  0.8682 -1.0802
 2982SOL    HW220409   2.515   2.055   8.341 -0.9326  0.8839 -1.0673
 2983SOL     OW20410   0.554   4.127   1.947 -0.5070 -0.5459 -0.1841
 2983SOL    HW120411   0.460   4.126   1.967 -0.2953 -0.9964  0.7990
 2983SOL    HW220412   0.567   4.147   1.855 -1.3513  0.1871 -0.1521
 2984SOL     OW20413   4.558   2.900  17.483 -0.5024 -0.3955  0.3247
 2984SOL    HW120414   4.592   2.851  17.557 -1.3412 -1.5984 -0.0942
 2984SOL    HW220415   4.482   2.938  17.528  0.4407  1.4665  0.3715
 2985SOL     OW20416   3.767   4.568   1.506  0.9564 -0.2413 -0.4404
 2985SOL    HW120417   3.683   4.532   1.536  0.4970  0.7571 -0.5027
 2985SOL    HW220418   3.751   4.651   1.462 -0.2697 -0.7050 -0.8829
 2986SOL     OW20419   0.071   4.404   6.546 -0.4221 -0.1076 -0.1499
 2986SOL    HW120420   4.714   4.389   6.594 -0.5906  1.1145 -0.0564
 2986SOL    HW220421   0.127   4.419   6.622 -1.6906 -0.4409  0.8540
 2987SOL     OW20422   4.285   0.525   2.212 -0.3069 -0.2227 -0.0031
 2987SOL    HW120423   4.213   0.464   2.195 -0.6624  0.9873 -2.6738
 2987SOL    HW220424   4.235   0.606   2.218 -0.1623 -0.0697 -0.9160
 2988SOL     OW20425   4.134   0.972   2.562 -0.4158  0.2278  0.1012
 2988SOL    HW120426   4.181   0.949   2.642 -0.6233 -1.0856 -0.1578
 2988SOL    HW220427   4.078   0.895   2.552 -0.1300 -0.0939  1.0041
 2989SOL     OW20428   1.650   4.540  15.236  0.0725  0.3360 -0.4295
 2989SOL    HW120429   1.582   4.473  15.249  1.3520 -0.6993  0.8830
 2989SOL    HW220430   1.725   4.482  15.251  0.2093  1.1462  2.0210
 2990SOL     OW20431   1.739   2.923  12.984 -0.3414  0.6998 -0.1225
 2990SOL    HW120432   1.722   2.894  13.074 -1.1312 -0.4429 -0.6447
 2990SOL    HW220433   1.793   3.000  13.003 -1.1874  1.0748  0.7290
 2991SOL     OW20434   3.334   3.543  14.343  0.3103  0.6549  0.5676
 2991SOL    HW120435   3.367   3.562  14.431  0.6798  1.1986  0.3108
 2991SOL    HW220436   3.261   3.483  14.362  0.9466  0.5519  2.7357
 2992SOL     OW20437   2.640   2.402  15.502  0.0026 -0.2644  0.2817
 2992SOL    HW120438   2.646   2.477  15.442  3.9281 -0.8480 -0.1058
 2992SOL    HW220439   2.622   2.333  15.438  1.9125 -1.6714  1.2313
 2993SOL     OW20440   2.321   3.322  15.845  0.8030 -0.2594  0.4699
 2993SOL    HW120441   2.275   3.318  15.761  2.9537  0.8112 -0.7608
 2993SOL    HW220442   2.326   3.416  15.862  2.2546 -0.5109  1.4351
 2994SOL     OW20443   1.304   4.528   1.720  0.5791 -0.2477  0.2772
 2994SOL    HW120444   1.359   4.597   1.684 -0.3406  0.8590  1.0163
 2994SOL    HW220445   1.342   4.461   1.662  1.9961 -0.2511  1.2115
 2995SOL     OW20446   4.335   2.695   6.184  0.1562  0.1496  0.1095
 2995SOL    HW120447   4.378   2.610   6.181  0.5750  0.3767 -0.6403
 2995SOL    HW220448   4.264   2.674   6.243 -0.2742  1.1386 -0.0535
 2996SOL     OW20449   0.549   0.394   9.862 -0.3685  0.2644  0.3283
 2996SOL    HW120450   0.534   0.429   9.950 -2.4771  2.9538 -1.1252
 2996SOL    HW220451   0.570   0.477   9.818 -0.9282 -0.3253 -1.0354
 2997SOL     OW20452   4.232   3.562  11.659  0.2192 -0.9149 -0.3064
 2997SOL    HW120453   4.153   3.610  11.633  0.6950 -0.3764 -0.7799
 2997SOL    HW220454   4.306   3.595  11.608 -0.0727 -1.1794 -0.8983
 2998SOL     OW20455   0.732   2.098   8.336 -0.2095 -0.1610  0.3700
 2998SOL    HW120456   0.765   2.051   8.412  1.0743  0.8100  0.4280
 2998SOL    HW220457   0.691   2.030   8.283  0.2488 -0.8833  0.9535
 2999SOL     OW20458   2.837   2.680   6.960 -0.5081  0.6119  0.6807
 2999SOL    HW120459   2.921   2.662   7.002  0.3368  0.4281 -1.0556
 2999SOL    HW220460   2.874   2.711   6.877  1.0480  1.4605  1.6876
 3000SOL     OW20461   0.270   3.307   8.582  0.0723  0.0750  0.7860
 3000SOL    HW120462   0.249   3.233   8.525  2.0005  0.0679  0.0807
 3000SOL    HW220463   0.354   3.274   8.613 -0.0229 -0.6373  0.2933
 3001SOL     OW20464   3.303   0.885   9.967  0.1351  0.1869  0.7248
 3001SOL    HW120465   3.253   0.949  10.019 -2.2193 -0.9719 -0.1149
 3001SOL    HW220466   3.232   0.839   9.923  0.6679 -0.7040  0.7959
 3002SOL     OW20467   2.986   4.042   7.297 -0.1163 -0.3828 -0.9229
 3002SOL    HW120468   2.916   4.099   7.265 -0.7177  0.7653  2.3559
 3002SOL    HW220469   3.006   3.987   7.222 -0.4837 -0.5298 -0.9123
 3003SOL     OW20470   0.996   3.495   4.069 -0.2331  0.1697 -0.1369
 3003SOL    HW120471   1.043   3.462   4.146  1.0001 -0.9516 -1.3559
 3003SOL    HW220472   0.927   3.431   4.052 -0.0890 -0.3702  1.2757
 3004SOL     OW20473   0.710   3.823   5.878  0.0108 -0.2554  0.4204
 3004SOL    HW120474   0.683   3.805   5.787 -2.7738  1.9851  0.7883
 3004SOL    HW220475   0.741   3.735   5.897  5.9991  1.6263 -0.7336
 3005SOL     OW20476   1.282   0.540   6.929 -0.8874  0.0842  0.7221
 3005SOL    HW120477   1.220   0.482   6.885 -2.0103  0.2520  2.0472
 3005SOL    HW220478   1.270   0.625   6.888  0.2697 -0.3892 -0.5786
 3006SOL     OW20479   2.084   2.259   5.507 -0.0656 -0.1713  0.0121
 3006SOL    HW120480   2.017   2.252   5.439  0.6843  0.9336 -0.8501
 3006SOL    HW220481   2.142   2.327   5.472 -1.0405  0.3453 -0.5930
 3007SOL     OW20482   3.367   0.075  14.024  0.1683  0.2732  0.6215
 3007SOL    HW120483   3.411   0.159  14.026  0.5991  0.0544  0.2199
 3007SOL    HW220484   3.280   0.094  13.987 -0.0361 -1.0278  0.4171
 3008SOL     OW20485   0.113   1.563   6.510  0.0556  0.1617  0.7213
 3008SOL    HW120486   0.103   1.624   6.438 -0.2233 -1.1037 -0.3077
 3008SOL    HW220487   0.034   1.577   6.562 -0.6523  2.2740 -0.9505
 3009SOL     OW20488   3.051   4.066   7.561 -0.4341  0.1127 -0.3393
 3009SOL    HW120489   2.984   4.006   7.593  2.0373 -2.8134 -0.5883
 3009SOL    HW220490   3.039   4.047   7.468  0.1847 -1.0996 -0.1684
 3010SOL     OW20491   1.986   2.303   7.078 -0.1807  0.2226  0.2255
 3010SOL    HW120492   1.974   2.297   6.983 -2.3605 -0.0630  0.5145
 3010SOL    HW220493   2.045   2.378   7.084 -1.2769  1.0738  0.4877
 3011SOL     OW20494   4.407   4.220   2.005 -0.2819  0.0161  0.1431
 3011SOL    HW120495   4.390   4.251   1.916  3.9286 -1.8070 -1.2959
 3011SOL    HW220496   4.497   4.249   2.020 -0.5159  0.1926  1.2187
 3012SOL     OW20497   0.051   1.826   7.835  0.2874  0.1380 -0.4364
 3012SOL    HW120498   0.119   1.887   7.807 -1.1432  1.8977 -0.0396
 3012SOL    HW220499   0.052   1.757   7.768 -1.1677  0.0013 -0.3203
 3013SOL     OW20500   1.393   4.022   3.972 -0.6918 -0.3582 -0.3926
 3013SOL    HW120501   1.450   4.015   3.896 -0.9241 -2.5271 -0.3626
 3013SOL    HW220502   1.445   4.089   4.017  0.3080 -2.2395  1.2439
 3014SOL     OW20503   2.074   1.898   6.616 -0.3311 -0.3886 -0.1176
 3014SOL    HW120504   2.117   1.815   6.593 -2.8968 -1.4431 -1.0684
 3014SOL    HW220505   2.035   1.922   6.532 -0.7519 -2.5160 -0.5396
 3015SOL     OW20506   3.403   2.759   6.878 -0.0711 -0.2171  0.7188
 3015SOL    HW120507   3.401   2.682   6.935 -0.3098 -1.0016 -0.3453
 3015SOL    HW220508   3.328   2.742   6.820  0.0585 -0.3581  0.5901
 3016SOL     OW20509   2.579   0.099   1.146  0.5687  0.4218  0.7519
 3016SOL    HW120510   2.521   0.074   1.075  0.1286  3.2181  0.1126
 3016SOL    HW220511   2.511   0.143   1.197 -1.1352 -1.9193  0.5042
 3017SOL     OW20512   2.464   1.745   5.346 -0.0305  0.1300  0.3069
 3017SOL    HW120513   2.382   1.735   5.297  1.3563  0.2540 -2.0474
 3017SOL    HW220514   2.509   1.664   5.322 -0.9900 -0.2747 -0.1393
 3018SOL     OW20515   3.885   4.177  11.591  0.7473 -0.7051 -1.0927
 3018SOL    HW120516   3.955   4.126  11.632  0.4190 -0.4360 -0.2032
 3018SOL    HW220517   3.938   4.210  11.519 -1.0903 -0.7788 -2.4603
 3019SOL     OW20518   4.466   3.806   2.359  0.3460  0.3695  0.0606
 3019SOL    HW120519   4.557   3.783   2.336  0.5374  1.4233 -0.2181
 3019SOL    HW220520   4.454   3.767   2.445  1.2707 -0.8936 -0.3767
 3020SOL     OW20521   2.634   4.133  15.246 -0.8045 -0.4035 -0.2144
 3020SOL    HW120522   2.603   4.050  15.282  0.0462 -0.9642 -0.7773
 3020SOL    HW220523   2.557   4.164  15.197 -1.4542  0.5145  1.3980
 3021SOL     OW20524   0.902   0.784  14.048  0.0344 -0.5579 -0.1301
 3021SOL    HW120525   0.944   0.749  14.127 -1.3994 -0.4348  0.6816
 3021SOL    HW220526   0.832   0.840  14.082  0.7637  0.5326 -0.4178
 3022SOL     OW20527   1.678   3.907   7.509  0.2596 -0.2854 -0.5797
 3022SOL    HW120528   1.606   3.886   7.450  1.0338  0.7919 -1.9085
 3022SOL    HW220529   1.710   3.989   7.472 -0.0265 -0.2754 -0.7972
 3023SOL     OW20530   0.332   1.681   1.358  0.3604  0.3061 -0.2120
 3023SOL    HW120531   0.337   1.594   1.398  0.6586  0.3638 -0.1199
 3023SOL    HW220532   0.296   1.735   1.428 -0.4321 -0.8854  0.2989
 3024SOL     OW20533   1.396   1.508   1.901 -0.4459 -0.0718  0.3325
 3024SOL    HW120534   1.412   1.598   1.929  0.1600  1.0222 -3.5000
 3024SOL    HW220535   1.459   1.485   1.833  0.0016  0.5996  0.5248
 3025SOL     OW20536   4.691   4.147   0.359 -0.3137  0.1855  0.0107
 3025SOL    HW120537   4.698   4.214   0.426 -1.3396 -0.4464  0.7410
 3025SOL    HW220538   4.644   4.194   0.290 -1.3649 -0.2730  0.4220
 3026SOL     OW20539   1.783   2.144  12.431 -0.2873  0.0361 -0.7577
 3026SOL    HW120540   1.716   2.161  12.365 -0.8992  2.6890  0.5637
 3026SOL    HW220541   1.737   2.174  12.509  0.6246 -0.5683  0.0170
 3027SOL     OW20542   0.081   2.782   3.528  0.0780  0.5458 -0.4277
 3027SOL    HW120543   0.065   2.876   3.540  1.6310  1.0785 -2.5772
 3027SOL    HW220544   0.054   2.779   3.436 -1.0432  0.1054 -0.0885
 3028SOL     OW20545   3.912   2.572   0.666  0.4309  0.0743 -0.3310
 3028SOL    HW120546   3.944   2.615   0.586 -2.4881  2.3520 -0.2756
 3028SOL    HW220547   3.975   2.607   0.730 -0.2562  0.4487  0.1390
 3029SOL     OW20548   3.255   3.022   8.755  0.1795 -0.2526 -0.0490
 3029SOL    HW120549   3.184   3.084   8.739 -0.4145 -0.4805  1.7069
 3029SOL    HW220550   3.289   3.050   8.840  0.8565  0.2962 -0.5086
 3030SOL     OW20551   0.136   3.082   5.589 -0.6846 -0.2831  0.0126
 3030SOL    HW120552   0.115   3.030   5.511 -0.2717 -2.4019  1.3270
 3030SOL    HW220553   0.133   3.022   5.663  0.0086 -0.0862  0.2031
 3031SOL     OW20554   2.669   0.288   9.505  0.2388  0.4499  0.5383
 3031SOL    HW120555   2.730   0.349   9.547 -0.1988  0.9481  0.4424
 3031SOL    HW220556   2.596   0.297   9.566  1.1689 -2.0640  2.0473
 3032SOL     OW20557   3.640   1.018  11.706  0.3161  0.3762 -0.2744
 3032SOL    HW120558   3.608   1.024  11.796 -1.8426  0.7570 -1.0767
 3032SOL    HW220559   3.568   1.063  11.662  1.3106  2.6729  0.4570
 3033SOL     OW20560   2.597   1.046   3.886 -0.3517 -0.1701 -0.4098
 3033SOL    HW120561   2.503   1.048   3.866 -0.1526 -0.8402 -1.3950
 3033SOL    HW220562   2.575   1.072   3.975 -1.5480  0.2285 -0.8251
 3034SOL     OW20563   1.283   3.169   2.499  0.1042  0.5259 -0.2205
 3034SOL    HW120564   1.342   3.094   2.504 -2.5164 -1.6130 -0.8278
 3034SOL    HW220565   1.227   3.153   2.423  1.0704 -0.4128 -0.7133
 3035SOL     OW20566   0.250   1.139   5.604  0.0149 -0.0923 -0.3314
 3035SOL    HW120567   0.336   1.181   5.607 -0.4343  0.8890 -1.1548
 3035SOL    HW220568   0.263   1.048   5.577  1.2491  0.0888 -0.3616
 3036SOL     OW20569   0.329   3.006   7.670 -0.2588 -0.0664  0.3358
 3036SOL    HW120570   0.308   3.056   7.590  0.4746  2.0007  1.4422
 3036SOL    HW220571   0.418   2.979   7.647 -0.6195 -0.9022 -0.0629
 3037SOL     OW20572   1.772   4.152   1.571 -0.7675  0.5187 -0.4967
 3037SOL    HW120573   1.864   4.158   1.543  1.3091  3.9226  6.9284
 3037SOL    HW220574   1.734   4.179   1.488 -0.3132 -0.5027 -1.0291
 3038SOL     OW20575   4.434   0.915   5.423  0.2101 -0.3829  0.5149
 3038SOL    HW120576   4.389   0.867   5.353  0.8547 -0.7895  0.3846
 3038SOL    HW220577   4.443   0.852   5.493  0.5576  0.1141  0.9194
 3039SOL     OW20578   3.402   4.171   4.800 -0.7284 -0.6803  0.0620
 3039SOL    HW120579   3.437   4.172   4.889  0.0640  1.9402 -0.2928
 3039SOL    HW220580   3.384   4.265   4.792 -0.7386 -0.6180  0.7689
 3040SOL     OW20581   1.596   1.000  12.748  0.2275  0.1459 -0.0753
 3040SOL    HW120582   1.654   1.069  12.716  0.4095 -0.1231 -0.3237
 3040SOL    HW220583   1.564   1.032  12.832 -2.6130  0.7538 -1.3642
 3041SOL     OW20584   4.154   2.524   2.621 -0.1060 -0.0166  0.2261
 3041SOL    HW120585   4.075   2.470   2.613 -1.3757  1.8445  0.1344
 3041SOL    HW220586   4.136   2.593   2.685 -1.9225  1.0080 -1.3572
 3042SOL     OW20587   2.010   4.095   1.464 -0.1412  0.1958  0.6367
 3042SOL    HW120588   1.974   4.008   1.446 -0.7882  0.7526 -0.7573
 3042SOL    HW220589   2.101   4.067   1.472  0.3594  1.0941 -2.2244
 3043SOL     OW20590   2.916   2.202   7.168 -0.1426 -0.4423 -0.3794
 3043SOL    HW120591   2.828   2.239   7.163  0.4819  0.9012 -1.4157
 3043SOL    HW220592   2.921   2.131   7.231  0.7247  1.0840  1.2566
 3044SOL     OW20593   0.376   2.163   0.148  0.1048  0.2605  0.2471
 3044SOL    HW120594   0.410   2.250   0.129  3.6044 -0.8544  1.4665
 3044SOL    HW220595   0.451   2.107   0.129  0.3476  0.5251  0.4280
 3045SOL     OW20596   3.390   3.516   1.685  0.1714 -1.0890  0.6158
 3045SOL    HW120597   3.408   3.540   1.776  1.6601  2.3561 -0.6134
 3045SOL    HW220598   3.294   3.514   1.676  0.3996  0.4870 -2.0860
 3046SOL     OW20599   2.502   3.293   3.669  0.1548  0.9707  0.4412
 3046SOL    HW120600   2.574   3.273   3.610 -0.8154  1.0812 -0.7959
 3046SOL    HW220601   2.426   3.313   3.613 -0.6365 -0.2402  1.0690
 3047SOL     OW20602   3.552   0.973  11.964  0.8311 -0.3183 -0.0799
 3047SOL    HW120603   3.524   0.887  11.994  0.2339  0.3267  1.2184
 3047SOL    HW220604   3.639   0.963  12.001  0.9807 -2.2443 -0.9319
 3048SOL     OW20605   1.584   4.139   4.480 -0.0505  0.0733 -0.1418
 3048SOL    HW120606   1.615   4.201   4.547 -0.7991  0.4689 -0.1622
 3048SOL    HW220607   1.623   4.175   4.401  2.3447 -1.5325  0.3125
 3049SOL     OW20608   1.350   1.438  16.510  0.1170 -0.2384  0.7032
 3049SOL    HW120609   1.281   1.385  16.470 -0.2441  1.0976 -0.4466
 3049SOL    HW220610   1.395   1.373  16.562  0.9605 -3.2462 -3.8285
 3050SOL     OW20611   0.224   1.973  10.591 -0.3189  0.0709  0.1388
 3050SOL    HW120612   0.250   2.010  10.506 -1.1206  0.0771 -0.1105
 3050SOL    HW220613   0.304   1.963  10.641 -2.0173 -0.6682  2.6942
 3051SOL     OW20614   2.523   0.895   2.944  0.6786  1.0245 -0.7590
 3051SOL    HW120615   2.602   0.842   2.938  0.5061  0.7636 -0.7743
 3051SOL    HW220616   2.562   0.981   2.958  2.6903 -0.3292  1.9721
 3052SOL     OW20617   0.626   0.359   6.597 -0.6289  0.2718  0.0613
 3052SOL    HW120618   0.599   0.372   6.506 -0.0612 -1.4135 -0.3384
 3052SOL    HW220619   0.548   0.319   6.636 -0.8369  1.1901  0.5902
 3053SOL     OW20620   4.421   2.998  13.399  0.3194 -0.1639 -0.3391
 3053SOL    HW120621   4.347   3.059  13.400 -0.9298 -1.6832 -0.9950
 3053SOL    HW220622   4.484   3.050  13.448 -2.3269  1.8956  0.8989
 3054SOL     OW20623   2.563   0.886   5.287 -0.0446 -0.3137  0.5347
 3054SOL    HW120624   2.570   0.815   5.223 -0.7362  0.8867 -0.8680
 3054SOL    HW220625   2.490   0.856   5.341 -0.1136 -0.0239  0.6019
 3055SOL     OW20626   3.460   0.129   8.507 -0.3110  0.0629  0.3740
 3055SOL    HW120627   3.475   0.195   8.574  0.9076  0.8154 -0.6504
 3055SOL    HW220628   3.448   0.064   8.576 -3.0842  1.6795  1.4722
 3056SOL     OW20629   0.988   3.635  15.982 -0.2008 -0.1904  0.1207
 3056SOL    HW120630   1.081   3.617  15.967  0.8239  2.0866  3.8541
 3056SOL    HW220631   0.980   3.730  15.971 -0.2521 -0.0367  1.5143
 3057SOL     OW20632   1.011   1.125   9.962  0.5849  0.6297 -0.0893
 3057SOL    HW120633   0.928   1.154   9.925 -0.3746 -1.0976  0.7379
 3057SOL    HW220634   0.987   1.038   9.993  3.4057  0.7608  2.4704
 3058SOL     OW20635   3.631   3.439  17.171  0.0716  0.0053  0.1135
 3058SOL    HW120636   3.562   3.372  17.172  1.3306 -1.2842 -0.7753
 3058SOL    HW220637   3.669   3.430  17.258 -1.8985 -0.7811  0.8847
 3059SOL     OW20638   1.815   1.406   5.356 -0.4648  0.0470 -0.2152
 3059SOL    HW120639   1.730   1.385   5.316 -1.0241 -0.5739  1.2903
 3059SOL    HW220640   1.843   1.316   5.374  0.9038  0.9770  2.2817
 3060SOL     OW20641   3.658   2.243   3.714 -0.1933 -0.0349 -0.1841
 3060SOL    HW120642   3.646   2.323   3.663 -0.7829  0.0911  0.1513
 3060SOL    HW220643   3.750   2.218   3.704 -0.1215  0.9240 -1.9408
 3061SOL     OW20644   1.358   1.179   3.560 -0.3588  0.6085  0.5124
 3061SOL    HW120645   1.414   1.255   3.577  0.2801  0.4264 -0.8279
 3061SOL    HW220646   1.424   1.112   3.544  0.0274  1.4773 -1.5890
 3062SOL     OW20647   2.394   2.787   0.894  0.6503 -0.6218 -0.0386
 3062SOL    HW120648   2.382   2.734   0.815  1.0086  1.5209 -1.5447
 3062SOL    HW220649   2.332   2.756   0.961  1.1886  0.3979  0.9213
 3063SOL     OW20650   2.488   1.068  15.489 -0.7526 -0.2289 -0.3815
 3063SOL    HW120651   2.544   0.991  15.497 -0.5493  0.0296  0.8076
 3063SOL    HW220652   2.555   1.121  15.534 -0.0722 -1.5355  0.1432
 3064SOL     OW20653   3.382   2.806   5.951 -0.5156  0.7470  0.2605
 3064SOL    HW120654   3.377   2.773   6.041 -1.8886 -2.0534 -0.8368
 3064SOL    HW220655   3.433   2.885   5.969  0.9643 -0.7900  2.8562
 3065SOL     OW20656   0.988   0.742   5.149  0.0789 -0.3769 -0.0809
 3065SOL    HW120657   1.063   0.794   5.176  1.0996 -2.2700  0.7210
 3065SOL    HW220658   1.011   0.728   5.057 -0.9966  1.8354 -0.6736
 3066SOL     OW20659   1.050   3.836  16.661  0.0166  0.0472 -0.4090
 3066SOL    HW120660   1.033   3.913  16.715 -1.1715 -0.0419 -0.6440
 3066SOL    HW220661   1.086   3.768  16.718  1.8827  2.6767  1.5314
 3067SOL     OW20662   1.723   4.590   5.027  0.4105  0.5362  0.1969
 3067SOL    HW120663   1.677   4.641   4.960  0.8809  0.5467 -0.1203
 3067SOL    HW220664   1.645   4.539   5.050  0.3316 -0.1294 -1.5457
 3068SOL     OW20665   1.533   4.621  10.000  0.4732 -0.1046  0.2528
 3068SOL    HW120666   1.516   4.672  10.079  2.2090 -1.3937  1.4530
 3068SOL    HW220667   1.493   4.681   9.937 -0.8038  0.8964  1.9978
 3069SOL     OW20668   3.457   4.247   3.944 -0.3234  0.1586 -0.2083
 3069SOL    HW120669   3.400   4.197   4.002  0.6594 -0.1102  0.5202
 3069SOL    HW220670   3.450   4.193   3.865  0.6899  0.2678 -0.3782
 3070SOL     OW20671   3.765   4.691   4.226  0.1084  0.7534 -0.2197
 3070SOL    HW120672   3.730   4.623   4.168  3.2673  0.2834 -1.6198
 3070SOL    HW220673   3.812   4.638   4.290  3.2241  2.9664 -0.6901
 3071SOL     OW20674   0.741   3.203   3.825 -0.7233 -0.4647  0.5144
 3071SOL    HW120675   0.732   3.175   3.916 -0.9645 -1.4089  0.2042
 3071SOL    HW220676   0.811   3.141   3.805 -0.4632  0.1085 -0.3483
 3072SOL     OW20677   4.134   3.062  16.816 -0.6160 -0.1204  0.1666
 3072SOL    HW120678   4.184   3.122  16.872  1.9649 -1.5539 -0.6126
 3072SOL    HW220679   4.103   3.116  16.743  0.6982 -0.4624 -0.6397
 3073SOL     OW20680   1.043   1.218  13.625  0.4727 -0.0889 -0.9776
 3073SOL    HW120681   1.008   1.138  13.664 -0.3179  1.4277  1.4297
 3073SOL    HW220682   1.036   1.277  13.700 -1.0475 -1.2003 -0.2519
 3074SOL     OW20683   2.081   2.255   2.476  0.2826  0.6491  0.4782
 3074SOL    HW120684   2.144   2.295   2.416 -1.1794 -0.1029 -1.5458
 3074SOL    HW220685   2.072   2.174   2.426  0.8097  0.7455  0.2245
 3075SOL     OW20686   1.816   2.141  11.229  0.0461 -0.2925 -0.2883
 3075SOL    HW120687   1.748   2.178  11.285  0.1206  1.1380 -1.1568
 3075SOL    HW220688   1.776   2.154  11.143  0.6420 -0.8944 -0.6569
 3076SOL     OW20689   3.761   3.938  14.816  0.3355  0.4771  0.4699
 3076SOL    HW120690   3.736   3.997  14.745 -0.7733  0.4914  0.8768
 3076SOL    HW220691   3.697   3.866  14.818  0.2088  0.5845  0.2456
 3077SOL     OW20692   0.146   4.182  15.968  0.2969 -0.4217  0.0089
 3077SOL    HW120693   0.068   4.129  15.954  0.0119 -0.0810  0.3316
 3077SOL    HW220694   0.117   4.269  15.943  0.9329 -0.4744 -0.9218
 3078SOL     OW20695   3.989   0.654   4.826  0.4946 -0.3866 -0.1912
 3078SOL    HW120696   3.959   0.619   4.909  0.5471 -1.3602 -0.5802
 3078SOL    HW220697   4.039   0.582   4.788  0.0481 -1.8682  2.0400
 3079SOL     OW20698   0.085   0.368   3.010 -0.1203 -0.1853 -0.3466
 3079SOL    HW120699   0.083   0.353   3.105 -0.8811 -2.5932 -0.7406
 3079SOL    HW220700   0.171   0.333   2.985  0.2182  1.0261 -0.9147
 3080SOL     OW20701   0.713   2.791   7.903  0.1374  0.2610  0.7152
 3080SOL    HW120702   0.729   2.877   7.942  2.2380 -0.9157  2.4569
 3080SOL    HW220703   0.772   2.774   7.830 -1.1656 -2.0370  0.1652
 3081SOL     OW20704   0.729   2.148   6.854 -0.0385 -0.5166  0.9067
 3081SOL    HW120705   0.793   2.111   6.915  2.2474  1.5178 -0.2756
 3081SOL    HW220706   0.791   2.204   6.806 -0.5380  0.0575  0.9277
 3082SOL     OW20707   1.891   4.212   6.596  0.0033 -0.0155  0.5681
 3082SOL    HW120708   1.969   4.230   6.649  0.9270 -0.4103 -0.6539
 3082SOL    HW220709   1.882   4.300   6.558  0.1614  0.4605  1.6373
 3083SOL     OW20710   4.183   0.569   1.727 -0.4879  0.0124 -0.0445
 3083SOL    HW120711   4.234   0.612   1.795  1.0445 -0.1646 -1.0700
 3083SOL    HW220712   4.188   0.479   1.758 -2.4400 -0.3003 -0.6198
 3084SOL     OW20713   2.291   2.739   8.957  0.0362 -0.6674 -0.4354
 3084SOL    HW120714   2.218   2.710   9.011  1.5560 -2.2636  0.7654
 3084SOL    HW220715   2.340   2.796   9.017 -3.7800 -0.1380  2.1810
 3085SOL     OW20716   0.983   4.153   4.852 -0.2042  0.3239  0.0062
 3085SOL    HW120717   0.974   4.241   4.814 -3.2216 -0.0341 -0.1616
 3085SOL    HW220718   0.975   4.108   4.768 -2.1406 -0.5665  0.6656
 3086SOL     OW20719   2.566   3.996   2.248  0.3046 -0.2668 -0.5602
 3086SOL    HW120720   2.628   3.946   2.193  0.9678 -2.3014  2.0216
 3086SOL    HW220721   2.542   3.945   2.326  0.9006 -0.8897 -0.7790
 3087SOL     OW20722   3.236   3.136   4.595  0.1982  0.0111 -0.7189
 3087SOL    HW120723   3.208   3.048   4.570  1.0606 -0.4990  0.0955
 3087SOL    HW220724   3.324   3.149   4.561  0.3988 -0.0190 -0.2097
 3088SOL     OW20725   4.271   2.042  12.634 -0.0357  0.0072 -0.8683
 3088SOL    HW120726   4.289   2.007  12.721  0.3984  1.5357 -0.3286
 3088SOL    HW220727   4.299   2.133  12.649  2.5743 -1.1768  1.4692
 3089SOL     OW20728   0.110   1.620   2.118  0.2983 -0.4957  0.0235
 3089SOL    HW120729   0.102   1.602   2.024 -2.5623  0.5119  0.0743
 3089SOL    HW220730   0.080   1.537   2.155 -0.7578  0.0644  0.4154
 3090SOL     OW20731   1.459   4.434   2.495  0.0537 -0.1534  0.2864
 3090SOL    HW120732   1.379   4.455   2.446  0.6623 -0.7834 -0.9988
 3090SOL    HW220733   1.508   4.386   2.428 -0.7139  0.8340 -0.9874
 3091SOL     OW20734   1.225   0.887   9.422  0.0244  0.0201 -0.2739
 3091SOL    HW120735   1.231   0.975   9.459 -0.1963  0.6426 -1.7219
 3091SOL    HW220736   1.314   0.854   9.415 -1.0544 -2.4736 -2.3646
 3092SOL     OW20737   1.223   4.557   2.387 -0.1852  0.2315 -0.6428
 3092SOL    HW120738   1.240   4.635   2.333 -0.8040 -0.8183 -2.3400
 3092SOL    HW220739   1.127   4.557   2.388 -0.1533 -2.0393  0.3775
 3093SOL     OW20740   2.521   3.713   1.913  0.3969 -0.3029 -0.0308
 3093SOL    HW120741   2.497   3.805   1.901  1.1979 -0.5266 -3.4223
 3093SOL    HW220742   2.502   3.673   1.828 -2.3316  0.1315  0.3950
 3094SOL     OW20743   1.954   1.520  13.585  0.8655  0.5451 -0.7483
 3094SOL    HW120744   1.971   1.443  13.640  1.1940  2.7409  2.2174
 3094SOL    HW220745   2.018   1.496  13.518  0.6192  0.5388 -0.9790
 3095SOL     OW20746   1.102   1.441   2.301 -0.1750 -0.0626  0.5177
 3095SOL    HW120747   1.035   1.478   2.244  0.8639  3.5286  1.6805
 3095SOL    HW220748   1.054   1.401   2.374 -2.2881  0.2046 -0.7309
 3096SOL     OW20749   3.830   4.211  14.885 -0.2152  0.1006  0.2924
 3096SOL    HW120750   3.896   4.238  14.821  1.9720  0.8956  2.8979
 3096SOL    HW220751   3.751   4.242  14.840  0.2739  2.2172  0.8883
 3097SOL     OW20752   1.749   0.046  11.038 -0.0881 -0.5021 -0.0351
 3097SOL    HW120753   1.705   4.688  11.058 -0.9572 -0.7902 -3.1093
 3097SOL    HW220754   1.710   0.114  11.093 -0.6515 -0.8854  0.0462
 3098SOL     OW20755   3.697   3.230   6.034 -0.4704  0.4122 -0.0871
 3098SOL    HW120756   3.761   3.249   6.104  0.8071  0.5052 -1.2789
 3098SOL    HW220757   3.713   3.302   5.973  0.3747 -0.5829 -1.0233
 3099SOL     OW20758   3.857   4.426   3.168  0.1872 -0.3005  0.4201
 3099SOL    HW120759   3.789   4.467   3.114  1.5234  2.2540  0.6782
 3099SOL    HW220760   3.830   4.472   3.247 -1.6927 -1.5569  0.5065
 3100SOL     OW20761   3.803   1.355   4.489 -0.1090  0.6126  0.0990
 3100SOL    HW120762   3.878   1.327   4.541  1.9103  1.5389 -2.2932
 3100SOL    HW220763   3.735   1.301   4.530  1.0996 -0.3744  0.7907
 3101SOL     OW20764   0.310   3.954   7.826 -0.2864  0.4099  0.2271
 3101SOL    HW120765   0.218   3.954   7.854 -0.9019 -1.4926 -1.8374
 3101SOL    HW220766   0.352   3.936   7.910 -2.4533 -0.5190  1.1164
 3102SOL     OW20767   1.496   1.309   6.518 -0.0167 -0.6920  0.8749
 3102SOL    HW120768   1.429   1.240   6.517 -1.2585  0.5623 -1.0835
 3102SOL    HW220769   1.494   1.344   6.429  0.8078  2.8176  2.2269
 3103SOL     OW20770   1.601   2.376   8.708 -0.0428 -0.3572  0.0100
 3103SOL    HW120771   1.679   2.383   8.762 -0.5713 -2.1929  1.0305
 3103SOL    HW220772   1.608   2.447   8.644 -0.8701  0.6124  0.9953
 3104SOL     OW20773   3.826   2.995   5.742  0.2433 -0.5781  0.2521
 3104SOL    HW120774   3.889   2.925   5.731  0.3115 -0.3934 -0.5783
 3104SOL    HW220775   3.884   3.069   5.758 -0.6253 -0.5393  3.2260
 3105SOL     OW20776   0.153   3.321   7.476  0.0124  0.5320 -0.4648
 3105SOL    HW120777   0.212   3.367   7.417 -0.9836  0.6260 -1.3749
 3105SOL    HW220778   0.213   3.275   7.536  0.9755  4.3223  1.4466
 3106SOL     OW20779   4.596   4.325   8.662 -0.3348  0.2001 -0.0229
 3106SOL    HW120780   4.631   4.250   8.711 -1.2885  1.4547  2.5574
 3106SOL    HW220781   4.635   4.301   8.577  0.2550 -1.5508  0.7351
 3107SOL     OW20782   1.095   4.368   9.412 -0.0805 -0.2582 -0.1450
 3107SOL    HW120783   1.084   4.316   9.332 -0.1117 -0.3195 -0.1009
 3107SOL    HW220784   1.177   4.325   9.436  0.5682  1.4664  0.7282
 3108SOL     OW20785   0.355   3.384   8.989  0.0632 -0.4347  0.5706
 3108SOL    HW120786   0.436   3.350   8.951 -0.4895  0.7802 -1.6953
 3108SOL    HW220787   0.390   3.466   9.024 -0.5239 -0.1972  0.6091
 3109SOL     OW20788   3.698   1.665  13.049 -0.1107 -0.1280 -0.1266
 3109SOL    HW120789   3.669   1.599  12.987 -0.2927 -0.2151  0.0524
 3109SOL    HW220790   3.786   1.632  13.069  0.1159  1.1063  0.9745
 3110SOL     OW20791   1.585   4.412   3.969  0.1356  0.0416  0.3024
 3110SOL    HW120792   1.641   4.410   3.891 -0.5875  1.6395 -0.2557
 3110SOL    HW220793   1.636   4.360   4.031  0.2427 -0.3951 -0.1430
 3111SOL     OW20794   1.700   3.234  17.439 -0.2880  0.0582 -0.5688
 3111SOL    HW120795   1.795   3.226  17.429 -0.2973  0.1344 -0.7281
 3111SOL    HW220796   1.671   3.153  17.397 -0.0551 -2.6704  4.5843
 3112SOL     OW20797   3.321   2.068   6.164 -0.8358  0.1428  0.3457
 3112SOL    HW120798   3.320   2.003   6.235  0.2460 -1.4267 -1.0531
 3112SOL    HW220799   3.319   2.149   6.214  3.3744  0.8837 -0.6778
 3113SOL     OW20800   3.774   1.313   8.036  0.4589 -0.0663 -0.3551
 3113SOL    HW120801   3.800   1.225   8.062 -2.0894 -0.4698  0.8762
 3113SOL    HW220802   3.680   1.317   8.055  0.4594 -0.8837 -0.1941
 3114SOL     OW20803   1.222   0.842   8.660  0.3551 -0.3209  0.1812
 3114SOL    HW120804   1.211   0.824   8.754  0.8485  1.6568  0.6164
 3114SOL    HW220805   1.162   0.916   8.654  1.8388  0.6886 -2.0509
 3115SOL     OW20806   2.932   3.263  12.722 -0.1720  0.2599  0.0693
 3115SOL    HW120807   2.914   3.231  12.810 -2.8071  0.3829 -0.4285
 3115SOL    HW220808   2.960   3.184  12.675 -0.3711  0.4707 -0.3996
 3116SOL     OW20809   2.705   3.890  13.380 -0.3549  0.3854  0.2624
 3116SOL    HW120810   2.674   3.980  13.393 -2.1176 -0.5459  2.6256
 3116SOL    HW220811   2.620   3.850  13.360  0.8559 -1.2778 -1.4676
 3117SOL     OW20812   1.752   3.333   6.369  0.1325 -0.1829 -0.2140
 3117SOL    HW120813   1.729   3.426   6.367  2.7897  0.4328 -1.7869
 3117SOL    HW220814   1.771   3.325   6.462 -0.2075  0.6950 -0.0735
 3118SOL     OW20815   1.615   1.287   7.088 -0.0133 -0.3413 -0.0035
 3118SOL    HW120816   1.615   1.207   7.035 -1.1676 -0.7395  0.5894
 3118SOL    HW220817   1.673   1.263   7.160 -1.2233 -2.1039  0.3845
 3119SOL     OW20818   4.668   1.424   7.880 -0.6625  0.2696  0.5517
 3119SOL    HW120819   4.580   1.451   7.855 -0.3401  1.5095  0.7568
 3119SOL    HW220820   4.649   1.358   7.946 -1.0669  0.4670  0.6326
 3120SOL     OW20821   0.405   0.651   2.514  0.2834 -0.0005 -0.5543
 3120SOL    HW120822   0.427   0.659   2.421  1.4265  0.5030 -0.2353
 3120SOL    HW220823   0.481   0.695   2.551 -0.0079  0.4272 -0.4580
 3121SOL     OW20824   2.571   1.088   8.709 -0.3288  0.0998 -0.1838
 3121SOL    HW120825   2.639   1.043   8.659 -0.8301 -2.9026  1.8607
 3121SOL    HW220826   2.517   1.019   8.747 -0.6227 -0.3465 -1.4217
 3122SOL     OW20827   2.091   1.873   3.725  0.5649  0.0127 -0.7901
 3122SOL    HW120828   2.045   1.826   3.655  3.0109  0.5119 -2.7274
 3122SOL    HW220829   2.026   1.896   3.791 -0.1525 -1.6410 -0.9204
 3123SOL     OW20830   2.185   3.122   6.003  0.2743 -0.7228 -0.0212
 3123SOL    HW120831   2.134   3.067   5.944 -0.1903  1.7994 -2.0139
 3123SOL    HW220832   2.215   3.192   5.945 -0.8148 -1.8355 -1.9184
 3124SOL     OW20833   2.073   3.661   2.598 -0.6559  0.1454  0.0236
 3124SOL    HW120834   2.157   3.670   2.644 -0.6677 -2.4228  0.5901
 3124SOL    HW220835   2.092   3.697   2.512 -0.4533 -2.8992 -1.2244
 3125SOL     OW20836   4.582   4.556   5.616  0.1605 -0.1263  0.2883
 3125SOL    HW120837   4.526   4.487   5.580  0.9911 -1.3448  1.3186
 3125SOL    HW220838   4.634   4.560   5.536  0.6142 -1.3310  0.5226
 3126SOL     OW20839   3.405   2.942   5.428 -0.4287 -0.5715  0.3425
 3126SOL    HW120840   3.496   2.963   5.449 -0.6963  1.9582 -0.9706
 3126SOL    HW220841   3.365   3.022   5.463 -1.7610 -0.7685 -0.7541
 3127SOL     OW20842   2.442   0.006   7.774 -0.5286 -0.1299  0.2599
 3127SOL    HW120843   2.418   4.651   7.823  0.0711 -0.5467 -0.1103
 3127SOL    HW220844   2.376   0.066   7.808  0.0604  1.0731 -0.7375
 3128SOL     OW20845   3.809   2.083   2.588 -0.2540 -0.2787 -0.5659
 3128SOL    HW120846   3.809   1.991   2.616 -1.3678 -0.4563 -1.1079
 3128SOL    HW220847   3.878   2.126   2.638  0.3159 -1.5870 -0.2112
 3129SOL     OW20848   1.002   2.824   7.016  0.0599 -0.3251  0.1690
 3129SOL    HW120849   0.935   2.778   7.066 -0.3927  1.3798  1.1580
 3129SOL    HW220850   1.081   2.814   7.069  1.5127 -2.4543 -2.4127
 3130SOL     OW20851   3.897   2.915   2.579  0.7420 -0.5051  0.2712
 3130SOL    HW120852   3.991   2.900   2.581  0.4606 -2.0672  1.7688
 3130SOL    HW220853   3.886   2.995   2.528  1.6405  1.1657  2.6498
 3131SOL     OW20854   0.248   2.759   0.775 -0.6898 -0.7332  0.3428
 3131SOL    HW120855   0.219   2.667   0.773  0.9664 -1.2629  0.6073
 3131SOL    HW220856   0.308   2.752   0.849 -0.9309 -0.3189  0.5768
 3132SOL     OW20857   3.805   3.850  12.213  0.5429 -0.2301  0.5935
 3132SOL    HW120858   3.806   3.928  12.269 -0.8611 -0.6799  1.2444
 3132SOL    HW220859   3.877   3.793  12.239  0.7768 -0.4947 -0.6262
 3133SOL     OW20860   0.429   0.765  16.777  0.5685  0.5581 -0.6784
 3133SOL    HW120861   0.463   0.760  16.866 -1.5743 -0.1388  0.0818
 3133SOL    HW220862   0.490   0.715  16.724 -0.1595  0.0632 -1.0465
 3134SOL     OW20863   0.369   3.009   7.376  0.0619  0.5954 -0.4358
 3134SOL    HW120864   0.294   2.957   7.403  0.5582  1.1563  2.0498
 3134SOL    HW220865   0.335   3.049   7.296 -2.3130  1.3660  0.9745
 3135SOL     OW20866   0.378   0.115   8.415  0.3962 -0.1650  0.5382
 3135SOL    HW120867   0.441   0.181   8.385 -0.7880  1.4184  1.5151
 3135SOL    HW220868   0.420   0.097   8.499  0.9421 -0.2630  0.2444
 3136SOL     OW20869   4.461   4.665   4.450  0.0503 -0.2773 -0.0687
 3136SOL    HW120870   4.487   4.621   4.369 -2.2453 -1.3188 -0.2333
 3136SOL    HW220871   4.376   4.622   4.456  0.6758 -1.6100 -0.6419
 3137SOL     OW20872   3.409   2.617   7.432 -0.0115  0.3779 -0.2604
 3137SOL    HW120873   3.500   2.598   7.411  1.1771  1.3080  4.0897
 3137SOL    HW220874   3.383   2.533   7.471  1.4755 -0.3702 -0.8902
 3138SOL     OW20875   4.362   3.619  14.941  0.4182 -0.1789  0.0065
 3138SOL    HW120876   4.326   3.614  14.853  0.1960 -1.8685  0.1931
 3138SOL    HW220877   4.439   3.671  14.916 -1.1327  0.7358 -2.8997
 3139SOL     OW20878   1.908   0.937   0.408 -0.2671 -0.3375 -0.0559
 3139SOL    HW120879   1.817   0.960   0.428  0.2006 -0.6726  2.5100
 3139SOL    HW220880   1.929   0.906   0.496 -0.5263 -2.2076 -0.6598
 3140SOL     OW20881   2.403   3.563   4.391  0.3094  0.2368  0.5114
 3140SOL    HW120882   2.378   3.477   4.423 -0.8750  0.6957  0.8243
 3140SOL    HW220883   2.475   3.533   4.336 -1.1541 -1.8958 -0.2090
 3141SOL     OW20884   0.999   0.346   5.937  0.3778 -0.0811  0.0038
 3141SOL    HW120885   1.064   0.379   5.999  0.7890 -1.2904  0.2151
 3141SOL    HW220886   0.983   0.432   5.899  1.4866 -0.8188 -2.1765
 3142SOL     OW20887   1.174   4.046   0.353 -0.1278 -0.0386 -0.0633
 3142SOL    HW120888   1.195   4.043   0.260  1.3807  0.2416  0.2744
 3142SOL    HW220889   1.242   4.095   0.398  1.7363 -1.2030 -1.6437
 3143SOL     OW20890   0.140   4.556   1.207 -1.0940 -0.2573  0.5018
 3143SOL    HW120891   0.069   4.494   1.223  0.2665 -1.4589  1.8964
 3143SOL    HW220892   0.181   4.524   1.127 -3.0692  0.3211 -0.7549
 3144SOL     OW20893   2.582   2.057   9.232  0.5925  0.3862 -0.8014
 3144SOL    HW120894   2.522   1.989   9.202  1.1047  0.0674 -1.1152
 3144SOL    HW220895   2.530   2.132   9.203  1.7669  1.2348 -0.7284
 3145SOL     OW20896   4.040   3.501   9.884  0.5500 -0.0779  0.6036
 3145SOL    HW120897   4.060   3.470   9.796 -0.6837 -3.3644  1.4506
 3145SOL    HW220898   3.953   3.464   9.895  0.1678  1.5327  2.9600
 3146SOL     OW20899   1.180   3.184   6.663  0.3878  0.1746 -0.1352
 3146SOL    HW120900   1.217   3.253   6.719  0.6158 -0.6408  0.7202
 3146SOL    HW220901   1.088   3.184   6.689  0.2061 -0.6569 -0.7938
 3147SOL     OW20902   2.850   0.023   4.175 -0.3026  0.9259 -0.0866
 3147SOL    HW120903   2.840   4.694   4.097  1.2822 -0.8770  0.9625
 3147SOL    HW220904   2.824   4.678   4.236  3.0972 -0.8206 -0.6370
 3148SOL     OW20905   2.317   3.950   5.459  0.9650 -0.0641 -0.7589
 3148SOL    HW120906   2.410   3.973   5.457  1.0394 -0.0149  3.0015
 3148SOL    HW220907   2.264   4.028   5.445 -0.7156 -1.2273 -0.8335
 3149SOL     OW20908   2.109   1.144   9.306 -0.3462 -0.8867 -0.1489
 3149SOL    HW120909   2.112   1.203   9.382 -2.0141  2.2999 -2.5313
 3149SOL    HW220910   2.132   1.201   9.233  1.6776  0.4366  1.5060
 3150SOL     OW20911   0.354   3.724   2.219  0.7160  0.2675 -0.2880
 3150SOL    HW120912   0.429   3.781   2.201  1.0436 -0.2112 -0.4527
 3150SOL    HW220913   0.387   3.643   2.180 -2.0402 -2.1265  2.3041
 3151SOL     OW20914   2.242   2.968   9.351 -0.0112  0.1006 -0.2816
 3151SOL    HW120915   2.220   2.876   9.364  2.0974  0.3331  4.6741
 3151SOL    HW220916   2.240   2.980   9.256  0.3427 -0.6021 -0.3749
 3152SOL     OW20917   2.910   2.780   2.047  0.2638  0.2484  0.2316
 3152SOL    HW120918   2.927   2.771   2.141  0.5267 -0.4860  0.1143
 3152SOL    HW220919   2.816   2.800   2.049  0.6239  1.9002  0.2547
 3153SOL     OW20920   0.130   0.291   7.290 -0.1584  0.2040 -0.0861
 3153SOL    HW120921   0.187   0.304   7.214 -0.3682 -0.5521 -0.3670
 3153SOL    HW220922   0.152   0.207   7.329 -1.5298 -0.7690 -1.4080
 3154SOL     OW20923   2.999   0.356  15.089  0.6293  0.0633  0.1041
 3154SOL    HW120924   3.070   0.374  15.151  0.0283  0.5460  0.6489
 3154SOL    HW220925   2.998   0.442  15.049  0.1028  0.9734  2.0760
 3155SOL     OW20926   0.292   0.462   4.484 -0.3824 -0.0926 -0.8059
 3155SOL    HW120927   0.264   0.474   4.394 -0.9836 -0.8199 -0.7190
 3155SOL    HW220928   0.245   0.383   4.510 -1.2744  1.0807  1.1672
 3156SOL     OW20929   0.826   1.391   7.111 -0.1552  0.6711  0.1083
 3156SOL    HW120930   0.905   1.397   7.057 -0.4406  1.1773 -0.2501
 3156SOL    HW220931   0.783   1.476   7.101 -0.8327  0.3742  0.4477
 3157SOL     OW20932   1.103   3.782   2.307 -0.0195  0.3807  0.2047
 3157SOL    HW120933   1.197   3.770   2.296 -0.2170 -0.5766 -0.4161
 3157SOL    HW220934   1.085   3.833   2.228 -2.9470 -2.2221 -0.8255
 3158SOL     OW20935   0.649   1.411   6.306 -0.3337 -0.4255 -0.3991
 3158SOL    HW120936   0.643   1.326   6.262 -0.7134 -0.4092 -0.3755
 3158SOL    HW220937   0.739   1.438   6.286 -0.5549 -1.1701 -2.3900
 3159SOL     OW20938   3.417   4.537   2.000 -0.4342 -0.4113  0.0532
 3159SOL    HW120939   3.326   4.512   2.015 -0.5524  1.0234  1.7324
 3159SOL    HW220940   3.437   4.485   1.921 -0.9637 -1.0177  0.3191
 3160SOL     OW20941   4.617   0.488  11.886 -0.0212  0.5347 -0.5809
 3160SOL    HW120942   4.700   0.466  11.928 -0.7914 -0.3953  0.4733
 3160SOL    HW220943   4.632   0.576  11.851 -1.5286  1.1701  0.3240
 3161SOL     OW20944   0.665   3.384   7.896  0.6832  0.0039 -0.3727
 3161SOL    HW120945   0.711   3.461   7.931  0.0245  0.5819 -0.7815
 3161SOL    HW220946   0.729   3.315   7.915  0.4591 -0.0055  0.3757
 3162SOL     OW20947   4.554   0.626   7.638  0.5520  0.5398 -0.2319
 3162SOL    HW120948   4.618   0.591   7.576  1.3053  1.5635 -0.0322
 3162SOL    HW220949   4.478   0.570   7.626 -0.8138  1.9349  1.8042
 3163SOL     OW20950   0.957   3.262  11.994  0.4901  0.0696 -0.0016
 3163SOL    HW120951   1.036   3.244  11.942 -0.5605 -0.2545 -1.4822
 3163SOL    HW220952   0.897   3.204  11.948 -1.3194  1.6747  0.3510
 3164SOL     OW20953   0.018   3.065   3.515  0.0629  0.1126 -0.3002
 3164SOL    HW120954   0.074   3.072   3.438 -0.6103  1.3253 -0.6831
 3164SOL    HW220955   4.721   3.156   3.537 -1.1246 -0.3962  0.6780
 3165SOL     OW20956   2.885   0.015  12.850 -0.3999  0.3574  0.6024
 3165SOL    HW120957   2.969   4.716  12.888 -0.6772 -0.3434  0.7810
 3165SOL    HW220958   2.843   4.690  12.921 -0.0228 -0.6586  0.1005
 3166SOL     OW20959   1.616   1.565  10.752 -0.0851  0.2295  0.1676
 3166SOL    HW120960   1.680   1.635  10.740 -1.4509  1.4469 -0.0370
 3166SOL    HW220961   1.571   1.602  10.828 -1.0552  0.7384 -0.6480
 3167SOL     OW20962   3.098   4.099   0.088  0.0980  0.1876  0.8219
 3167SOL    HW120963   3.084   4.055   0.171 -2.1224  0.8890  0.8136
 3167SOL    HW220964   3.063   4.035   0.026 -0.2207 -0.7531  1.9705
 3168SOL     OW20965   0.441   0.921  12.704  0.0827  0.1645  0.5204
 3168SOL    HW120966   0.406   0.988  12.646 -0.1408  1.2461  1.9101
 3168SOL    HW220967   0.528   0.955  12.727 -0.0690  0.3268  0.8648
 3169SOL     OW20968   3.505   3.570   0.003  0.1998 -0.1046  0.1434
 3169SOL    HW120969   3.462   3.656   0.007 -0.2653 -0.3367  0.0811
 3169SOL    HW220970   3.435   3.519   0.045  0.1413  0.1921  0.4089
 3170SOL     OW20971   0.865   3.077   2.792 -0.3628  0.0844  0.1007
 3170SOL    HW120972   0.939   3.127   2.758  1.6124 -0.3676  3.7008
 3170SOL    HW220973   0.847   3.016   2.720 -1.2897 -0.2784  0.6373
 3171SOL     OW20974   3.790   4.262   7.595 -0.6874  0.0813 -0.0432
 3171SOL    HW120975   3.858   4.324   7.623 -0.2359 -0.6002  0.3585
 3171SOL    HW220976   3.840   4.195   7.548 -1.7293 -0.4944 -0.3197
 3172SOL     OW20977   1.923   2.169  17.483  0.0980 -0.5217  0.4959
 3172SOL    HW120978   1.943   2.210  17.399 -1.2850  1.8600  1.3207
 3172SOL    HW220979   1.960   2.081  17.483  1.4406  0.0563 -0.0250
 3173SOL     OW20980   2.335   0.954  16.158 -0.4498 -0.0290 -0.5985
 3173SOL    HW120981   2.258   1.000  16.190  0.1182  0.4546  0.0683
 3173SOL    HW220982   2.384   1.033  16.137  0.4540 -0.7805 -1.3425
 3174SOL     OW20983   3.260   0.906   4.086  0.2119 -0.4841 -0.1548
 3174SOL    HW120984   3.217   0.831   4.045 -1.0932 -0.7188  1.6531
 3174SOL    HW220985   3.348   0.874   4.106  0.8858  0.7016 -1.1798
 3175SOL     OW20986   1.930   3.867   2.692  0.0783  0.0869 -0.0672
 3175SOL    HW120987   1.884   3.843   2.773 -2.0213 -0.2766 -1.3591
 3175SOL    HW220988   1.932   3.788   2.637  0.0419 -0.0458  0.1225
 3176SOL     OW20989   1.810   3.830   0.489  0.1027 -0.2692  0.2309
 3176SOL    HW120990   1.798   3.739   0.464  1.1274 -0.3126 -0.1339
 3176SOL    HW220991   1.851   3.864   0.409  0.1386  0.0826  0.4004
 3177SOL     OW20992   2.067   2.223   4.767  0.9964  0.2291 -0.0055
 3177SOL    HW120993   2.155   2.261   4.764  0.9336  0.1490 -3.8840
 3177SOL    HW220994   2.032   2.266   4.845 -1.2645 -2.8345  0.6811
 3178SOL     OW20995   3.420   1.168  15.692  0.4095  0.3319  0.1126
 3178SOL    HW120996   3.370   1.238  15.650  1.0089  0.7980  0.1856
 3178SOL    HW220997   3.503   1.206  15.722 -0.7215  2.0696  1.0868
 3179SOL     OW20998   1.673   0.968   4.120  0.6862 -0.1584 -0.4298
 3179SOL    HW120999   1.714   1.048   4.154  2.4983 -1.1955 -0.1504
 3179SOL    HW221000   1.579   0.978   4.132  0.5040 -0.0645 -1.9292
 3180SOL     OW21001   3.373   1.679   6.202  0.1733  0.1892  0.3685
 3180SOL    HW121002   3.303   1.639   6.254  0.2398  0.4969  0.6939
 3180SOL    HW221003   3.438   1.611   6.222 -3.0393 -2.1479  3.0326
 3181SOL     OW21004   1.746   1.095  13.651  0.0724 -0.2782 -0.0182
 3181SOL    HW121005   1.813   1.149  13.608  1.0322 -0.7467  0.8883
 3181SOL    HW221006   1.748   1.136  13.737  0.4048 -0.5012  0.0841
 3182SOL     OW21007   0.114   2.014   2.540  0.3420  0.1352 -0.2741
 3182SOL    HW121008   0.051   2.068   2.492  1.8853 -0.8946 -3.4914
 3182SOL    HW221009   0.192   2.028   2.486  1.8929 -0.2881  1.8676
 3183SOL     OW21010   2.067   1.029   4.138 -0.4321 -0.1630  0.4989
 3183SOL    HW121011   2.002   0.977   4.090 -1.3356 -1.2577  2.9109
 3183SOL    HW221012   2.085   1.098   4.074 -1.1235 -0.8303 -0.4143
 3184SOL     OW21013   2.326   1.421   5.897  0.5947  0.0782 -0.5196
 3184SOL    HW121014   2.237   1.398   5.869  0.5538 -1.4877  0.8536
 3184SOL    HW221015   2.345   1.348   5.957  0.2137 -0.3297 -0.8893
 3185SOL     OW21016   3.576   2.052   3.914 -0.3196  0.1112  0.0202
 3185SOL    HW121017   3.527   1.988   3.863 -0.1366 -0.7691  0.9702
 3185SOL    HW221018   3.601   2.119   3.849 -1.5826  0.5865  0.0174
 3186SOL     OW21019   4.545   0.881  13.619 -0.2445  0.4816 -0.1136
 3186SOL    HW121020   4.601   0.862  13.695 -1.3942 -1.1154  0.3369
 3186SOL    HW221021   4.485   0.806  13.613 -0.8636  0.8975  0.8565
 3187SOL     OW21022   2.565   2.180   6.545 -0.3252  0.0927  0.1297
 3187SOL    HW121023   2.543   2.115   6.478  2.0425  0.4937 -1.0376
 3187SOL    HW221024   2.535   2.264   6.510  0.1131  1.0122  1.9836
 3188SOL     OW21025   3.158   3.100   0.433 -0.0434 -0.2163 -0.3166
 3188SOL    HW121026   3.247   3.135   0.438 -0.3631  0.5302  0.1466
 3188SOL    HW221027   3.164   3.020   0.486 -1.1624  0.6559  1.0951
 3189SOL     OW21028   0.918   2.431  16.362 -0.1606  0.5704 -0.1318
 3189SOL    HW121029   0.965   2.507  16.326  2.1608 -0.0647  1.5581
 3189SOL    HW221030   0.838   2.468  16.399  0.4317  2.0592 -0.3440
 3190SOL     OW21031   4.030   2.174   2.721  0.1825 -0.4718  0.1804
 3190SOL    HW121032   4.064   2.187   2.810 -0.3261 -0.7875  0.4211
 3190SOL    HW221033   4.095   2.109   2.692  0.3899 -1.5733  3.1455
 3191SOL     OW21034   0.010   3.152   4.016 -0.0107 -0.2115  0.2115
 3191SOL    HW121035   0.089   3.144   3.963 -0.2640 -1.9824  0.1030
 3191SOL    HW221036   4.667   3.112   3.961  0.1194  0.1977 -0.2448
 3192SOL     OW21037   0.961   2.390  15.276  0.1537 -0.4497  0.7099
 3192SOL    HW121038   0.974   2.374  15.370 -2.0994 -1.5156  0.8228
 3192SOL    HW221039   0.866   2.390  15.275  0.1593 -1.4738  0.3732
 3193SOL     OW21040   1.700   1.199  12.043 -0.2532 -0.2980  0.3827
 3193SOL    HW121041   1.766   1.152  12.095  1.3772  1.9247  0.3299
 3193SOL    HW221042   1.676   1.139  11.973  0.5969 -1.8700  1.4351
 3194SOL     OW21043   2.528   0.693   8.067  0.1455 -0.0059  0.2779
 3194SOL    HW121044   2.581   0.616   8.087 -0.4630 -0.2826  0.7927
 3194SOL    HW221045   2.599   0.758   8.066  1.2496 -1.2225  0.6133
 3195SOL     OW21046   4.400   4.564   0.765 -0.8052 -0.1504 -0.8455
 3195SOL    HW121047   4.325   4.543   0.710 -1.3946  1.3804 -0.6293
 3195SOL    HW221048   4.400   4.488   0.823 -2.6922  1.0597  0.7334
 3196SOL     OW21049   3.023   3.200   2.967  0.0678 -0.9424  0.2976
 3196SOL    HW121050   2.976   3.200   2.883  0.9364  1.2629 -0.1999
 3196SOL    HW221051   2.991   3.284   3.000 -0.8863 -0.9316 -0.6563
 3197SOL     OW21052   2.904   1.221  14.936  0.3730  0.3080  0.2305
 3197SOL    HW121053   2.842   1.218  15.008  1.1021 -0.9806  0.8126
 3197SOL    HW221054   2.982   1.253  14.981  0.6016 -0.2774  0.2548
 3198SOL     OW21055   1.496   0.564   9.720  0.3042 -0.0936 -0.0714
 3198SOL    HW121056   1.441   0.602   9.651  0.8577 -0.5357 -0.7518
 3198SOL    HW221057   1.574   0.531   9.675 -0.3535 -1.8688  0.1029
 3199SOL     OW21058   4.626   0.555   3.336  0.8087  0.2099  0.2499
 3199SOL    HW121059   4.673   0.557   3.419  0.1038 -0.1143  0.6547
 3199SOL    HW221060   4.558   0.491   3.357 -0.1604  1.1479 -0.0170
 3200SOL     OW21061   2.426   0.584   2.100  0.2165 -0.3552  0.2507
 3200SOL    HW121062   2.475   0.530   2.037 -0.9498 -0.8783 -0.2144
 3200SOL    HW221063   2.492   0.602   2.166 -1.4419  2.5393  1.1533
 3201SOL     OW21064   0.406   0.446  12.410 -0.2634 -0.1669  0.1598
 3201SOL    HW121065   0.366   0.391  12.478  1.9187 -0.4032  1.2601
 3201SOL    HW221066   0.381   0.395  12.332  0.9231  0.3155 -0.5368
 3202SOL     OW21067   1.996   0.684   5.020 -0.4768 -0.7757  0.2826
 3202SOL    HW121068   2.048   0.764   5.018 -0.5364 -0.7677 -1.5361
 3202SOL    HW221069   2.052   0.618   5.059 -1.1696 -1.8541 -0.5094
 3203SOL     OW21070   2.955   0.499   3.195 -0.3161 -0.1130 -0.1764
 3203SOL    HW121071   2.902   0.579   3.198 -0.4675 -0.2813  1.6096
 3203SOL    HW221072   2.922   0.471   3.110 -2.9947 -1.2791  1.2296
 3204SOL     OW21073   0.278   4.349   1.616 -0.2880  0.5634 -0.2066
 3204SOL    HW121074   0.211   4.315   1.558  0.0829 -0.9290  0.2254
 3204SOL    HW221075   0.357   4.336   1.563 -0.1592  1.0092 -0.1198
 3205SOL     OW21076   3.872   0.613   5.145 -0.1637 -0.1328 -0.3881
 3205SOL    HW121077   3.968   0.612   5.153 -0.2515  1.6570  0.8403
 3205SOL    HW221078   3.844   0.665   5.220  0.4493  1.8444 -1.5230
 3206SOL     OW21079   2.644   4.526  12.554  0.0916  0.4735 -0.1663
 3206SOL    HW121080   2.563   4.577  12.549 -0.2979 -0.1538 -0.2809
 3206SOL    HW221081   2.621   4.453  12.497 -3.2505  1.9984 -0.7996
 3207SOL     OW21082   4.611   1.366   7.315 -0.0971 -1.0474  0.4121
 3207SOL    HW121083   4.677   1.307   7.279 -0.5115 -0.7586 -0.8240
 3207SOL    HW221084   4.666   1.433   7.356 -1.0404 -0.2695  0.3976
 3208SOL     OW21085   3.065   2.347   4.649  0.3167 -0.6217  0.1467
 3208SOL    HW121086   3.028   2.322   4.734 -0.8901 -1.2922 -0.5920
 3208SOL    HW221087   3.030   2.436   4.661 -0.0996 -0.6457 -0.8839
 3209SOL     OW21088   1.921   2.406  16.295  0.1803  0.5353  0.0861
 3209SOL    HW121089   1.988   2.338  16.297  1.5282  1.8198 -1.6247
 3209SOL    HW221090   1.890   2.396  16.205  0.6379 -0.0735 -0.0035
 3210SOL     OW21091   4.338   4.543  17.198  0.0279  0.0630 -0.1417
 3210SOL    HW121092   4.395   4.618  17.180 -0.0108 -0.2143 -1.4343
 3210SOL    HW221093   4.401   4.490  17.246  0.1061  0.1021 -0.2005
 3211SOL     OW21094   0.165   3.511   5.322  0.4353 -0.0992 -0.7610
 3211SOL    HW121095   0.148   3.594   5.277 -1.3888 -0.1713 -0.2176
 3211SOL    HW221096   0.259   3.510   5.340  0.5474  2.2322 -1.2989
 3212SOL     OW21097   0.164   2.260   6.579 -0.3432 -0.2266  0.5439
 3212SOL    HW121098   0.200   2.235   6.664  0.8954 -3.1139 -0.8627
 3212SOL    HW221099   0.165   2.356   6.582  0.3631 -0.1457 -2.3267
 3213SOL     OW21100   3.705   2.910   2.075  0.1574 -0.4337  0.3245
 3213SOL    HW121101   3.612   2.892   2.087  0.2831 -1.4789 -0.2242
 3213SOL    HW221102   3.719   2.887   1.983 -1.3076 -0.0017  0.0068
 3214SOL     OW21103   1.454   0.225   7.185 -0.1298 -0.8302 -0.5347
 3214SOL    HW121104   1.420   0.159   7.245 -0.8357  0.3338  0.3584
 3214SOL    HW221105   1.391   0.297   7.195 -0.4307 -1.1264 -0.2831
 3215SOL     OW21106   1.836   3.413   0.749  0.2327 -0.2794  0.0995
 3215SOL    HW121107   1.753   3.442   0.787  2.3145  2.6248  2.3265
 3215SOL    HW221108   1.874   3.490   0.709 -0.9394  1.2942  2.0282
 3216SOL     OW21109   3.437   2.594   8.744  0.1310  0.2355 -0.4015
 3216SOL    HW121110   3.410   2.575   8.833  0.0404  0.1878 -0.4387
 3216SOL    HW221111   3.511   2.653   8.756 -0.7639  0.9740  1.4827
 3217SOL     OW21112   3.838   3.445  11.721  0.0880 -0.1649  0.2286
 3217SOL    HW121113   3.751   3.480  11.738 -0.9527 -2.9126  0.5319
 3217SOL    HW221114   3.897   3.519  11.733  2.1583 -1.6603 -0.5136
 3218SOL     OW21115   0.074   2.718   4.974  0.1110  0.6270 -0.3545
 3218SOL    HW121116   0.017   2.656   4.928 -0.5868  1.6736 -0.9007
 3218SOL    HW221117   0.111   2.669   5.047 -1.5628 -0.5520 -0.2813
 3219SOL     OW21118   0.413   1.164   7.792  0.2576 -0.2103 -0.4563
 3219SOL    HW121119   0.407   1.093   7.856  0.1060  2.9278  3.0706
 3219SOL    HW221120   0.444   1.230   7.855  2.6977 -1.2628 -0.5643
 3220SOL     OW21121   1.534   0.042  12.919  0.2054  0.0385 -0.2530
 3220SOL    HW121122   1.556   4.689  12.866 -1.0136 -0.9606  0.7049
 3220SOL    HW221123   1.605   0.032  12.983 -0.4062  0.6808  0.5159
 3221SOL     OW21124   0.313   1.514  15.770  0.0366 -0.1861 -0.0030
 3221SOL    HW121125   0.307   1.456  15.846 -2.2374 -1.1340 -0.9051
 3221SOL    HW221126   0.354   1.583  15.822 -0.4865  1.0358 -1.1981
 3222SOL     OW21127   1.159   4.622   4.726  0.4666  0.0111  0.1686
 3222SOL    HW121128   1.123   4.627   4.638  0.2274  0.2433  0.2826
 3222SOL    HW221129   1.210   4.703   4.725 -1.9527  1.5274  0.4459
 3223SOL     OW21130   0.739   4.015   6.969 -0.0655  0.2697 -0.3756
 3223SOL    HW121131   0.775   3.988   6.885 -0.7571  1.1888 -0.9704
 3223SOL    HW221132   0.744   4.110   6.954 -2.5025  0.4206 -0.3365
 3224SOL     OW21133   1.045   0.039   9.825  0.5805  0.1552  0.2752
 3224SOL    HW121134   0.970   4.706   9.809  0.2325  0.2073  1.6576
 3224SOL    HW221135   1.121   0.005   9.778  1.2146  2.3087 -0.2436
 3225SOL     OW21136   3.404   4.508   3.086  0.1149 -0.2509  0.9292
 3225SOL    HW121137   3.474   4.453   3.049 -0.6044  0.2437 -1.1456
 3225SOL    HW221138   3.359   4.521   3.003 -1.1924 -0.7627  1.5697
 3226SOL     OW21139   3.869   4.487   1.252 -0.2217 -0.0367 -0.2709
 3226SOL    HW121140   3.956   4.497   1.290  0.6914  0.6167 -2.5281
 3226SOL    HW221141   3.820   4.468   1.332  0.2561 -0.1931 -0.0165
 3227SOL     OW21142   2.419   0.922   5.960  0.0540 -0.3193  0.2988
 3227SOL    HW121143   2.440   0.927   5.867 -1.8042  1.9600  0.0104
 3227SOL    HW221144   2.506   0.905   5.997 -0.3786  0.1338  1.5280
 3228SOL     OW21145   4.467   0.828  15.413  0.2287 -0.1697  0.2826
 3228SOL    HW121146   4.381   0.790  15.397 -0.6009  2.0609 -0.5944
 3228SOL    HW221147   4.484   0.877  15.333 -0.2749  1.3675  1.1201
 3229SOL     OW21148   3.390   1.450   4.210 -0.8335  0.0987  0.3840
 3229SOL    HW121149   3.392   1.487   4.122 -1.1844  0.9552  0.7433
 3229SOL    HW221150   3.475   1.408   4.223 -0.7072  0.2961  0.1891
 3230SOL     OW21151   3.778   2.087   8.041  0.0318  0.2118  0.1267
 3230SOL    HW121152   3.774   1.991   8.037 -1.4277  0.2940 -0.5511
 3230SOL    HW221153   3.782   2.098   8.135 -2.6836  1.9639  0.0213
 3231SOL     OW21154   1.183   3.824   4.286  0.4684 -0.6731  0.3607
 3231SOL    HW121155   1.260   3.841   4.340  0.6443 -1.2709  0.2874
 3231SOL    HW221156   1.114   3.803   4.349  0.0744 -1.4227 -0.3239
 3232SOL     OW21157   2.005   2.230   6.394  0.5386 -0.1228 -0.5115
 3232SOL    HW121158   2.057   2.232   6.474  0.8802 -0.5186 -0.7252
 3232SOL    HW221159   1.954   2.309   6.410  1.7872  0.1923  1.9102
 3233SOL     OW21160   3.034   4.295  10.859  0.0174 -0.7323  0.6257
 3233SOL    HW121161   3.116   4.269  10.816  0.2221  0.6753  0.1492
 3233SOL    HW221162   3.067   4.373  10.904  0.2543  0.1440 -1.0832
 3234SOL     OW21163   0.121   2.731   3.810 -0.0238 -0.3303  0.6458
 3234SOL    HW121164   0.122   2.763   3.720  0.4483 -2.1618  0.0088
 3234SOL    HW221165   0.210   2.737   3.844 -0.1915 -0.6324  1.1474
 3235SOL     OW21166   0.441   2.304   1.584 -0.6125 -0.3505  0.1134
 3235SOL    HW121167   0.515   2.361   1.605 -0.5616 -0.6833  0.8603
 3235SOL    HW221168   0.476   2.219   1.613 -1.7386 -0.8115  0.1594
 3236SOL     OW21169   0.767   1.885  16.816  0.0822  0.0764 -0.0157
 3236SOL    HW121170   0.802   1.949  16.878  0.4815  0.6613 -0.8382
 3236SOL    HW221171   0.678   1.878  16.851 -0.6520 -0.6081 -2.0171
 3237SOL     OW21172   0.695   2.897   3.590 -0.5075 -0.1957  0.2281
 3237SOL    HW121173   0.758   2.970   3.590 -0.8897  0.1281  0.7731
 3237SOL    HW221174   0.672   2.893   3.497  2.7226  0.1562 -0.5918
 3238SOL     OW21175   2.868   1.965   6.172  0.4720  0.5764  0.6318
 3238SOL    HW121176   2.865   2.022   6.249 -1.2362  1.8146 -0.3684
 3238SOL    HW221177   2.897   1.881   6.207 -1.2718 -0.6230 -0.8028
 3239SOL     OW21178   0.293   2.121  16.551 -0.2373  0.1603 -0.1538
 3239SOL    HW121179   0.221   2.058  16.551  1.1219 -1.3845 -0.2386
 3239SOL    HW221180   0.235   2.196  16.541  1.2984  1.4336  0.4830
 3240SOL     OW21181   1.218   3.669   3.300  0.4380 -0.9076  0.3248
 3240SOL    HW121182   1.129   3.672   3.265  0.3320 -2.3282  0.4690
 3240SOL    HW221183   1.232   3.575   3.286 -1.5581 -1.0123 -0.9762
 3241SOL     OW21184   2.752   1.025   2.709  0.5125 -0.4794 -0.4266
 3241SOL    HW121185   2.759   0.938   2.748 -0.0543  0.2018  1.2088
 3241SOL    HW221186   2.831   1.027   2.656  0.3922  0.2820 -0.5836
 3242SOL     OW21187   3.654   1.382   5.710 -0.3973 -0.0446 -0.1182
 3242SOL    HW121188   3.664   1.423   5.624  1.8800  1.5784  0.8945
 3242SOL    HW221189   3.744   1.384   5.743 -0.8328 -0.5757  1.0738
 3243SOL     OW21190   2.541   2.989   4.219 -0.1840 -0.4314 -0.3136
 3243SOL    HW121191   2.455   2.975   4.258 -0.3559 -2.0956 -1.2929
 3243SOL    HW221192   2.526   3.075   4.181  1.4105 -0.1189 -0.2291
 3244SOL     OW21193   1.649   3.157  13.204  0.0043 -0.2281 -0.3514
 3244SOL    HW121194   1.577   3.190  13.150  0.5068  1.1282 -0.2142
 3244SOL    HW221195   1.605   3.083  13.245 -3.8803  1.2674 -1.7924
 3245SOL     OW21196   4.270   1.341  14.017 -0.4047 -0.3241  0.4683
 3245SOL    HW121197   4.252   1.327  13.924 -0.7157  3.8009 -0.1159
 3245SOL    HW221198   4.285   1.253  14.051 -0.2610 -0.3083  0.4455
 3246SOL     OW21199   4.401   2.344   7.964  1.0081  0.0056  0.2057
 3246SOL    HW121200   4.332   2.369   7.902  1.4904 -2.2689 -1.2652
 3246SOL    HW221201   4.428   2.259   7.929  0.6840 -0.4784  1.1285
 3247SOL     OW21202   1.853   4.072   0.640 -0.5247 -0.4756  0.1544
 3247SOL    HW121203   1.758   4.064   0.633 -0.6595  0.4921  0.8370
 3247SOL    HW221204   1.891   4.014   0.574  0.9606 -1.1526  1.6234
 3248SOL     OW21205   3.772   0.973  12.132  0.3746  0.0373  0.1697
 3248SOL    HW121206   3.826   1.019  12.196  0.8132  0.2888 -0.3792
 3248SOL    HW221207   3.786   0.887  12.172 -1.3832  0.1750  1.1073
 3249SOL     OW21208   1.580   3.012   6.863 -1.0281  0.4129 -0.1010
 3249SOL    HW121209   1.531   3.045   6.787  1.0891 -1.8064 -2.4398
 3249SOL    HW221210   1.544   2.927   6.886  1.7264 -0.5026  0.8151
 3250SOL     OW21211   4.538   2.272   6.476 -0.0064 -0.5024 -0.0744
 3250SOL    HW121212   4.524   2.180   6.451  0.0126  0.1422 -2.4835
 3250SOL    HW221213   4.555   2.265   6.570  0.9462 -2.0784 -0.3546
 3251SOL     OW21214   2.497   4.077  12.022 -0.4752 -0.0121 -0.2902
 3251SOL    HW121215   2.581   4.032  12.012 -0.5091  0.0944 -1.0639
 3251SOL    HW221216   2.459   4.105  11.939  1.4762  0.6705 -0.9290
 3252SOL     OW21217   0.852   0.136   5.848 -0.0583  0.2303 -0.1501
 3252SOL    HW121218   0.920   0.204   5.860  0.5182  0.0167 -2.2384
 3252SOL    HW221219   0.902   0.057   5.869 -1.6370 -0.2259  1.8852
 3253SOL     OW21220   4.065   0.397   7.616 -0.0443  0.3279 -0.4231
 3253SOL    HW121221   3.971   0.391   7.599  0.0883  0.7135 -1.3330
 3253SOL    HW221222   4.070   0.426   7.707  0.9528 -0.6754 -0.1558
 3254SOL     OW21223   1.606   2.009   6.316 -0.0633 -0.2461  0.8906
 3254SOL    HW121224   1.626   2.088   6.366  0.2458  0.4761 -0.3759
 3254SOL    HW221225   1.688   1.990   6.270 -1.4309  0.1194 -1.7238
 3255SOL     OW21226   2.091   1.035   5.668  0.0011  0.6386  0.2523
 3255SOL    HW121227   2.178   1.046   5.629 -0.4136  3.1173  0.0502
 3255SOL    HW221228   2.025   1.041   5.599  0.3959  1.5696 -0.0519
 3256SOL     OW21229   4.416   3.805   7.983 -0.4008 -0.7818  0.0075
 3256SOL    HW121230   4.349   3.828   8.047 -0.3799  0.0956 -0.2879
 3256SOL    HW221231   4.420   3.710   7.974 -0.6483 -0.5534 -2.3871
 3257SOL     OW21232   2.317   3.377   6.487 -0.4122 -0.1719 -0.4835
 3257SOL    HW121233   2.368   3.296   6.483  0.2668  0.2961 -1.3632
 3257SOL    HW221234   2.231   3.340   6.466 -0.2511  0.2193 -1.8748
 3258SOL     OW21235   2.664   3.573   8.686 -0.1768 -0.4895 -0.3292
 3258SOL    HW121236   2.729   3.644   8.695  2.1799 -2.7971  0.7884
 3258SOL    HW221237   2.728   3.510   8.654  0.9778  1.2521 -1.5292
 3259SOL     OW21238   0.211   1.076  10.453 -0.2854  0.0371  0.0286
 3259SOL    HW121239   0.155   1.017  10.403  1.5392 -0.4460 -1.4638
 3259SOL    HW221240   0.153   1.147  10.479 -1.9049 -0.6440 -1.7106
 3260SOL     OW21241   1.335   2.138   5.989  0.2819 -0.3175 -0.7364
 3260SOL    HW121242   1.429   2.155   5.977 -0.1079  2.6322  0.2759
 3260SOL    HW221243   1.326   2.052   5.949  2.5803 -1.4740  1.1928
 3261SOL     OW21244   0.863   1.795  13.185  0.0002 -0.4013 -0.2901
 3261SOL    HW121245   0.866   1.822  13.094 -1.1755  0.2290 -0.1349
 3261SOL    HW221246   0.798   1.854  13.222  1.6930  2.4079 -1.8078
 3262SOL     OW21247   0.482   4.077   2.335 -0.0049 -0.4980 -0.0103
 3262SOL    HW121248   0.545   4.143   2.305  0.2464 -0.2806  1.0067
 3262SOL    HW221249   0.477   4.032   2.250 -2.0722  0.5742 -0.4507
 3263SOL     OW21250   0.520   2.260   2.606  0.4472 -0.5079 -0.0667
 3263SOL    HW121251   0.569   2.186   2.571  0.5816 -0.5228  0.1559
 3263SOL    HW221252   0.558   2.332   2.555 -1.4204  0.3936 -0.1905
 3264SOL     OW21253   0.396   2.458   5.321 -0.1322  0.3032  0.3594
 3264SOL    HW121254   0.441   2.374   5.324 -0.9758 -0.2010 -1.0579
 3264SOL    HW221255   0.396   2.483   5.413 -0.0455 -0.3227  0.5313
 3265SOL     OW21256   0.506   0.746  11.976 -0.3236  0.3610 -0.0536
 3265SOL    HW121257   0.457   0.810  12.027 -2.2879 -0.2955 -1.0983
 3265SOL    HW221258   0.555   0.727  12.056 -1.3741  0.4039  0.6051
 3266SOL     OW21259   2.300   0.741  15.987  0.3981  0.6292  0.0799
 3266SOL    HW121260   2.343   0.810  16.037 -0.5584  0.1132  1.6018
 3266SOL    HW221261   2.215   0.754  16.030  1.1269 -0.3463  1.7979
 3267SOL     OW21262   2.343   0.938  13.871 -0.2653  0.0354  0.3043
 3267SOL    HW121263   2.402   0.956  13.797  0.1655 -2.2947  0.0736
 3267SOL    HW221264   2.407   0.962  13.939 -1.7983  2.4659  0.8446
 3268SOL     OW21265   1.392   3.017  16.706 -1.1664 -0.3892 -0.1868
 3268SOL    HW121266   1.455   3.064  16.760  0.8280  0.3706 -3.1574
 3268SOL    HW221267   1.305   3.058  16.708 -1.7084 -1.4988 -0.6455
 3269SOL     OW21268   0.776   0.487  11.251  0.0879 -0.4091 -0.1150
 3269SOL    HW121269   0.731   0.553  11.304  1.3040  0.2727  0.0609
 3269SOL    HW221270   0.809   0.417  11.307 -0.6997  0.2012  1.1301
 3270SOL     OW21271   2.190   1.295   2.020  0.6086 -0.5193 -0.1574
 3270SOL    HW121272   2.212   1.377   1.977  0.4637 -0.5915 -0.3660
 3270SOL    HW221273   2.221   1.306   2.110  2.9526  1.2681 -1.1952
 3271SOL     OW21274   3.087   3.087   6.826 -0.2105  0.7651 -0.2995
 3271SOL    HW121275   3.034   3.145   6.880 -0.3014  0.1741  0.2471
 3271SOL    HW221276   3.146   3.065   6.898 -0.7672 -0.9133 -0.3543
 3272SOL     OW21277   3.096   0.666   0.062  0.4247  0.1032 -0.0996
 3272SOL    HW121278   3.158   0.668  17.688  1.5405 -0.0662  0.8329
 3272SOL    HW221279   3.094   0.570   0.066  0.2678  0.1279  0.4175
 3273SOL     OW21280   2.925   3.144   7.835  0.1684 -0.2633 -0.3101
 3273SOL    HW121281   2.887   3.068   7.880 -1.4472 -0.1782 -1.5326
 3273SOL    HW221282   3.018   3.130   7.855  0.9012  0.2125 -3.4150
 3274SOL     OW21283   4.276   1.537   5.006  0.6766  0.4483 -0.0024
 3274SOL    HW121284   4.189   1.567   5.030 -0.1270 -0.5850 -1.6336
 3274SOL    HW221285   4.264   1.542   4.911 -0.8890 -1.5400  0.0931
 3275SOL     OW21286   3.805   3.532   1.628 -0.1419  0.0036 -0.3592
 3275SOL    HW121287   3.750   3.554   1.553  1.5698  0.4902 -1.4560
 3275SOL    HW221288   3.842   3.446   1.611  0.6866  0.5962 -1.5304
 3276SOL     OW21289   1.478   2.808  15.876  0.1400 -0.2448  0.0706
 3276SOL    HW121290   1.541   2.752  15.921 -0.2931 -0.0728  0.8778
 3276SOL    HW221291   1.520   2.826  15.792  0.6020  1.2518  0.6261
 3277SOL     OW21292   1.857   1.511   2.144 -0.1966  0.4141 -0.7694
 3277SOL    HW121293   1.885   1.559   2.066  1.3007  0.8852  0.0571
 3277SOL    HW221294   1.773   1.553   2.159 -1.2991 -2.3931  0.9103
 3278SOL     OW21295   2.509   3.262  16.024 -0.2469 -0.0221 -0.0241
 3278SOL    HW121296   2.450   3.245  16.097  0.6146 -3.8481 -0.1675
 3278SOL    HW221297   2.443   3.269  15.955 -1.5193  0.3704  1.2495
 3279SOL     OW21298   3.510   2.858   6.491 -0.6128 -0.1744  0.0247
 3279SOL    HW121299   3.557   2.776   6.482  1.5049  0.9808  0.4392
 3279SOL    HW221300   3.529   2.880   6.582 -1.3323  0.2824  0.0627
 3280SOL     OW21301   3.073   0.731   2.531  0.5824 -0.0481  0.0724
 3280SOL    HW121302   3.033   0.665   2.474 -0.9389 -0.5943  1.7667
 3280SOL    HW221303   3.163   0.729   2.499  1.0825  0.8680  1.4545
 3281SOL     OW21304   2.962   0.719   5.665  0.0165 -0.3651  0.3938
 3281SOL    HW121305   2.913   0.744   5.587 -0.2349 -0.7402  0.4332
 3281SOL    HW221306   3.040   0.772   5.644 -1.0720  1.8089  1.7663
 3282SOL     OW21307   3.673   1.837   7.957 -0.5013  0.5418  0.3447
 3282SOL    HW121308   3.662   1.842   8.052 -0.7392  1.6591  0.2601
 3282SOL    HW221309   3.740   1.769   7.949 -1.5032 -0.2389 -1.2311
 3283SOL     OW21310   2.313   3.205  16.188 -0.0053  0.3692 -0.2543
 3283SOL    HW121311   2.274   3.124  16.154  0.1492  0.5550 -0.8757
 3283SOL    HW221312   2.251   3.272  16.158 -2.2480  0.0199  3.6177
 3284SOL     OW21313   3.325   4.184   7.100 -0.1529 -0.7080 -0.2879
 3284SOL    HW121314   3.393   4.226   7.047  0.9337 -1.3569  0.5759
 3284SOL    HW221315   3.287   4.267   7.130 -0.0821 -0.1856 -1.6705
 3285SOL     OW21316   1.869   3.962   2.972  0.2320  0.2165 -0.1288
 3285SOL    HW121317   1.877   4.035   2.911 -2.2560 -0.5872 -1.3759
 3285SOL    HW221318   1.783   3.989   3.004  1.8580  1.8631  2.8947
 3286SOL     OW21319   3.501   4.540   4.137  0.0587 -0.3453 -0.5460
 3286SOL    HW121320   3.508   4.475   4.207  0.2744  1.3385  0.9715
 3286SOL    HW221321   3.406   4.553   4.138  0.1922  0.5813 -0.2971
 3287SOL     OW21322   2.113   0.748  16.741  0.3591 -0.0483  0.6435
 3287SOL    HW121323   2.034   0.739  16.689 -0.2237  0.8552  1.3809
 3287SOL    HW221324   2.128   0.660  16.775  4.0670  0.2087 -0.2213
 3288SOL     OW21325   3.136   2.137   0.096  0.1041 -0.3327 -0.0386
 3288SOL    HW121326   3.103   2.068   0.153  4.6989 -2.0333  0.5002
 3288SOL    HW221327   3.224   2.140   0.132 -0.7677 -1.1089  2.1241
 3289SOL     OW21328   3.458   0.460   0.057  0.3607  0.4031  0.0063
 3289SOL    HW121329   3.505   0.393   0.009 -1.4701 -0.9458  0.1093
 3289SOL    HW221330   3.495   0.542   0.023 -1.7497  1.3804  0.0327
 3290SOL     OW21331   1.030   3.154  13.336  0.1044  0.2462  0.3000
 3290SOL    HW121332   0.962   3.129  13.274  0.5257 -1.8866  0.6899
 3290SOL    HW221333   1.082   3.073  13.335  0.6120  0.5655  1.2625
 3291SOL     OW21334   0.465   1.460   6.484 -0.2985 -0.0835 -0.4881
 3291SOL    HW121335   0.531   1.434   6.421 -0.1830 -1.7944  0.3245
 3291SOL    HW221336   0.450   1.378   6.531  0.7424  1.0728  1.8795
 3292SOL     OW21337   1.901   0.594   5.646 -0.3039  0.3780 -0.6997
 3292SOL    HW121338   1.993   0.617   5.655 -0.1446  0.0293 -1.4246
 3292SOL    HW221339   1.903   0.583   5.551 -0.9591 -0.5053 -0.6158
 3293SOL     OW21340   2.453   1.941  16.740 -0.4759  0.2304  0.4473
 3293SOL    HW121341   2.419   1.854  16.759  1.1566 -0.3662  0.6486
 3293SOL    HW221342   2.491   1.942  16.652  1.0018  1.2015  1.0912
 3294SOL     OW21343   1.496   3.035   9.660 -0.0616  0.3384 -0.1433
 3294SOL    HW121344   1.523   2.967   9.598  3.7052  1.4444  0.3009
 3294SOL    HW221345   1.417   3.064   9.614 -0.2888 -2.2063 -1.3068
 3295SOL     OW21346   2.157   0.059   0.271 -0.4929 -0.1761 -0.0872
 3295SOL    HW121347   2.085   0.019   0.221  0.4127 -2.3004  0.3143
 3295SOL    HW221348   2.231   0.036   0.216 -1.5092 -2.4789 -0.4899
 3296SOL     OW21349   2.698   4.179   4.649 -0.3625  0.2690  0.5151
 3296SOL    HW121350   2.606   4.179   4.676 -0.1441  1.3046  1.2659
 3296SOL    HW221351   2.727   4.104   4.701 -0.5941 -0.4984 -0.4760
 3297SOL     OW21352   1.445   0.122  10.131  0.3679  0.5236  0.0068
 3297SOL    HW121353   1.392   0.201  10.120  1.4485  0.9216 -2.1570
 3297SOL    HW221354   1.520   0.163  10.174  0.9417 -0.5752  0.0571
 3298SOL     OW21355   2.340   2.149  17.482  0.1492 -0.7550 -0.4782
 3298SOL    HW121356   2.376   2.073  17.437  1.6587 -0.1743 -0.2638
 3298SOL    HW221357   2.312   2.102  17.560  1.1324  0.3620  0.5582
 3299SOL     OW21358   3.167   1.598   2.394 -0.4561  0.2947  0.4008
 3299SOL    HW121359   3.183   1.532   2.461 -0.1736  1.3412  1.3763
 3299SOL    HW221360   3.212   1.556   2.321 -0.5335  0.2576  0.3742
 3300SOL     OW21361   1.918   0.836   9.923  0.1182 -0.0212  0.0147
 3300SOL    HW121362   1.839   0.886   9.943 -0.0412 -0.6426  0.9494
 3300SOL    HW221363   1.977   0.901   9.961 -1.0804  0.1530  1.6159
 3301SOL     OW21364   4.282   2.553  16.301 -0.8033  0.4567  0.6254
 3301SOL    HW121365   4.357   2.494  16.306 -0.8223  0.2965 -0.9743
 3301SOL    HW221366   4.268   2.551  16.207  0.0172  0.0846  0.5162
 3302SOL     OW21367   0.713   3.763   3.249 -0.0944 -0.0913 -0.3417
 3302SOL    HW121368   0.645   3.742   3.185 -2.1102  0.7972  1.5386
 3302SOL    HW221369   0.742   3.846   3.211  0.7220  0.2833  1.0900
 3303SOL     OW21370   3.610   4.520   8.981 -0.6042 -0.0855  0.1458
 3303SOL    HW121371   3.517   4.516   9.002 -0.3335 -3.3218  0.7277
 3303SOL    HW221372   3.640   4.436   9.016  1.2967  1.7338  2.9411
 3304SOL     OW21373   0.257   3.135   7.174 -0.5467 -0.0481 -0.2399
 3304SOL    HW121374   0.237   3.213   7.122 -2.5657 -0.2729  0.1948
 3304SOL    HW221375   0.166   3.107   7.177 -0.8398  0.9725  0.5060
 3305SOL     OW21376   0.249   3.380   3.116 -0.0416 -0.5002 -0.5790
 3305SOL    HW121377   0.321   3.370   3.053 -1.6731  0.8024 -2.6554
 3305SOL    HW221378   0.243   3.475   3.123 -0.7754 -0.4057 -2.5665
 3306SOL     OW21379   2.186   1.472   4.107  0.5692  0.1989  0.1378
 3306SOL    HW121380   2.217   1.433   4.189 -1.9081 -0.2468  0.8649
 3306SOL    HW221381   2.224   1.559   4.112  2.7886 -0.8999  2.2031
 3307SOL     OW21382   4.405   3.016   8.227  0.1035 -0.2019 -0.1916
 3307SOL    HW121383   4.410   3.001   8.322  0.2448  3.2875  0.3576
 3307SOL    HW221384   4.427   2.928   8.197  0.1866 -0.4255  0.5087
 3308SOL     OW21385   2.162   2.236   9.056 -0.5348 -0.0072  1.0715
 3308SOL    HW121386   2.116   2.290   9.120 -0.9841 -0.6958  1.3193
 3308SOL    HW221387   2.097   2.167   9.059  0.3300 -0.8779 -0.4116
 3309SOL     OW21388   4.445   1.830   4.580  0.2825 -0.3019  0.1829
 3309SOL    HW121389   4.515   1.784   4.534 -0.5686  1.2089 -2.5869
 3309SOL    HW221390   4.481   1.909   4.621 -0.2611  0.2686 -0.4475
 3310SOL     OW21391   2.159   2.563   5.632 -0.4862  0.5532  0.1555
 3310SOL    HW121392   2.220   2.563   5.559 -0.1554 -2.1564  0.4305
 3310SOL    HW221393   2.177   2.639   5.687  0.7883 -0.8197  1.6352
 3311SOL     OW21394   2.393   1.703   6.255  0.8011 -0.0640 -0.2356
 3311SOL    HW121395   2.434   1.617   6.242  1.5003 -0.0976  2.2747
 3311SOL    HW221396   2.368   1.725   6.165 -1.3147  0.9128  0.5985
 3312SOL     OW21397   4.127   2.169  10.172  0.0940 -0.2825  0.2436
 3312SOL    HW121398   4.065   2.196  10.104  2.9308  1.2990 -1.6817
 3312SOL    HW221399   4.190   2.240  10.171  0.1816 -0.3481  1.1386
 3313SOL     OW21400   0.175   3.786   5.241 -0.1962  0.0693  0.5038
 3313SOL    HW121401   0.227   3.823   5.169  0.1639  0.3097  0.8862
 3313SOL    HW221402   0.122   3.863   5.266  1.4728  0.4934  2.6759
 3314SOL     OW21403   0.645   2.290   8.139  0.1335  0.0763 -0.1259
 3314SOL    HW121404   0.603   2.226   8.081  0.3946  0.0839 -0.3205
 3314SOL    HW221405   0.625   2.263   8.229 -2.5058  2.5359  0.0269
 3315SOL     OW21406   0.400   2.624   2.774  0.4552  0.1547  0.0773
 3315SOL    HW121407   0.445   2.540   2.764  0.9914  0.3024  1.3013
 3315SOL    HW221408   0.362   2.627   2.685  0.8373 -0.2894 -0.0971
 3316SOL     OW21409   1.425   3.622   7.072  0.2401 -0.8127  0.1322
 3316SOL    HW121410   1.475   3.545   7.098 -1.9957 -2.3793 -0.1150
 3316SOL    HW221411   1.467   3.642   6.988 -0.0296  0.6049  0.3333
 3317SOL     OW21412   3.663   0.863   9.137 -0.4441  0.3037 -0.3867
 3317SOL    HW121413   3.657   0.851   9.231 -1.1364  2.7502 -0.1167
 3317SOL    HW221414   3.758   0.853   9.133 -0.2384  2.2835 -0.3066
 3318SOL     OW21415   1.366   0.236   7.838 -0.1600 -0.3333 -0.2713
 3318SOL    HW121416   1.281   0.263   7.873 -0.4139 -1.1920 -0.2247
 3318SOL    HW221417   1.421   0.311   7.862  1.0221 -0.7182 -1.7597
 3319SOL     OW21418   0.072   4.604   7.416 -0.2713 -0.4596 -0.7024
 3319SOL    HW121419   0.003   4.576   7.476  1.0244 -3.1148 -0.4448
 3319SOL    HW221420   0.095   4.694   7.440  2.0264 -1.0828 -0.5516
 3320SOL     OW21421   4.407   3.559  10.830  0.6161  0.3137 -0.7065
 3320SOL    HW121422   4.399   3.608  10.748  0.1231  1.8708  0.2614
 3320SOL    HW221423   4.337   3.605  10.877  1.7727  0.8239  0.5095
 3321SOL     OW21424   2.411   4.192  15.080  0.1753  0.2660 -0.8239
 3321SOL    HW121425   2.360   4.257  15.128 -3.3673 -3.7637  0.9191
 3321SOL    HW221426   2.344   4.132  15.047  0.8705 -1.6478  1.2629
 3322SOL     OW21427   1.841   4.427  17.236  0.7238  0.3256  0.0530
 3322SOL    HW121428   1.819   4.484  17.310  1.2432 -1.0562  1.2710
 3322SOL    HW221429   1.871   4.494  17.174 -1.2424 -0.6128 -1.8863
 3323SOL     OW21430   0.615   3.614   6.701 -0.0194 -0.0716  0.1318
 3323SOL    HW121431   0.570   3.696   6.721  0.6171  0.0883  0.9003
 3323SOL    HW221432   0.705   3.639   6.723  0.4119 -1.6544  0.1449
 3324SOL     OW21433   4.002   3.505   4.244  0.0715  0.4977  0.2404
 3324SOL    HW121434   3.985   3.417   4.275 -0.6621  0.0086 -1.5691
 3324SOL    HW221435   4.088   3.489   4.205  0.4147  1.0837  0.7539
 3325SOL     OW21436   3.544   1.266   5.306 -0.3992  0.2099 -0.2454
 3325SOL    HW121437   3.519   1.357   5.319  2.9988  1.1390 -0.1604
 3325SOL    HW221438   3.621   1.266   5.249 -0.1174 -0.0552  0.1243
 3326SOL     OW21439   2.509   0.760  13.368  0.0397 -0.0815  0.5117
 3326SOL    HW121440   2.556   0.677  13.363 -0.2929 -0.1862 -0.8490
 3326SOL    HW221441   2.442   0.747  13.302 -0.6275 -2.1037  1.5851
 3327SOL     OW21442   3.649   1.845   8.217 -0.3979 -0.1965 -0.3343
 3327SOL    HW121443   3.681   1.893   8.293  0.6972 -1.6896  0.1436
 3327SOL    HW221444   3.573   1.804   8.260  1.0387 -2.4776  0.0202
 3328SOL     OW21445   2.789   3.556   4.032 -0.3205  0.4218 -0.3172
 3328SOL    HW121446   2.767   3.481   3.976  1.8989  0.3892 -1.1221
 3328SOL    HW221447   2.884   3.549   4.029 -0.4107 -0.1333 -1.8437
 3329SOL     OW21448   3.324   0.278   3.489 -0.3730  0.8524  0.1373
 3329SOL    HW121449   3.238   0.302   3.455 -1.0195 -0.6069  0.7280
 3329SOL    HW221450   3.375   0.263   3.410 -2.7766 -0.8344 -1.1128
 3330SOL     OW21451   1.946   3.621  15.923  0.0465 -0.0283 -0.2369
 3330SOL    HW121452   1.872   3.680  15.912  0.7191  0.8325 -0.1639
 3330SOL    HW221453   1.935   3.577  16.008 -0.4742 -0.8626 -0.7400
 3331SOL     OW21454   0.533   4.577   2.545 -0.2268  0.1157  0.1680
 3331SOL    HW121455   0.491   4.502   2.588 -0.7359  2.1670  3.2820
 3331SOL    HW221456   0.481   4.633   2.603 -0.2933  0.4450 -0.2113
 3332SOL     OW21457   1.435   0.074  16.808 -0.4981 -0.1539  0.6962
 3332SOL    HW121458   1.358   0.083  16.864 -2.0364 -2.0842 -1.1072
 3332SOL    HW221459   1.503   0.047  16.870 -1.1733  1.3187  2.0776
 3333SOL     OW21460   1.544   4.545  12.761 -0.1138 -0.1168  0.1818
 3333SOL    HW121461   1.478   4.573  12.698  0.5859  0.1913 -0.4136
 3333SOL    HW221462   1.567   4.457  12.730 -3.5425 -1.1570  0.5481
 3334SOL     OW21463   4.484   3.029   3.376 -0.5432 -0.2745 -0.1881
 3334SOL    HW121464   4.529   3.025   3.460 -0.0094 -0.3948 -0.4782
 3334SOL    HW221465   4.480   3.122   3.355 -3.2721 -0.2176  0.5748
 3335SOL     OW21466   0.599   4.403  16.653  0.1679  0.4463  0.2200
 3335SOL    HW121467   0.585   4.495  16.631 -0.9165  0.5004  1.1370
 3335SOL    HW221468   0.692   4.387  16.639  0.3109 -0.5260  2.2369
 3336SOL     OW21469   0.631   3.266   2.567 -0.2956  0.4594 -0.0035
 3336SOL    HW121470   0.638   3.357   2.596  1.6067 -0.2894  1.8379
 3336SOL    HW221471   0.718   3.230   2.583 -0.2774  0.9570  1.0045
 3337SOL     OW21472   4.549   2.994  14.592  0.3974  0.4346  0.6069
 3337SOL    HW121473   4.608   3.067  14.570  0.3341  0.5079  0.6790
 3337SOL    HW221474   4.464   3.035  14.573  0.6242 -0.4483 -2.3309
 3338SOL     OW21475   0.177   2.861   5.739  0.0931  0.4330 -0.3308
 3338SOL    HW121476   0.227   2.860   5.821 -0.7389  0.8684  0.1785
 3338SOL    HW221477   0.227   2.799   5.685 -1.1300 -0.6320 -0.2149
 3339SOL     OW21478   3.312   2.859  12.264 -0.4053 -0.4764 -0.3946
 3339SOL    HW121479   3.381   2.803  12.227  1.7184  0.2552  2.4832
 3339SOL    HW221480   3.340   2.949  12.250 -0.7024 -0.1047  1.4423
 3340SOL     OW21481   4.665   4.280  13.166  0.1630  0.1809 -0.0990
 3340SOL    HW121482   4.663   4.264  13.260  0.1897  1.7895  0.1897
 3340SOL    HW221483   4.591   4.339  13.153  0.6789  1.0914  1.0958
 3341SOL     OW21484   0.557   1.914   8.192 -0.1210  0.0120  0.3842
 3341SOL    HW121485   0.521   1.900   8.105  0.2544  2.4382 -0.1453
 3341SOL    HW221486   0.608   1.833   8.199 -0.7849 -0.4100  0.3876
 3342SOL     OW21487   2.433   1.814   2.618  0.4066  0.1408  0.0394
 3342SOL    HW121488   2.472   1.893   2.656  1.4599 -0.1590 -0.4146
 3342SOL    HW221489   2.339   1.831   2.627  0.7761  0.9029  2.3913
 3343SOL     OW21490   0.495   3.368   1.417  0.1571  0.1433  0.6272
 3343SOL    HW121491   0.497   3.446   1.362  1.2853  0.3353  0.9368
 3343SOL    HW221492   0.495   3.299   1.351 -2.8586  1.7713 -1.0551
 3344SOL     OW21493   1.036   0.630  16.597  0.4475  0.3411 -0.0782
 3344SOL    HW121494   1.019   0.683  16.675  1.4209 -0.6167  0.7818
 3344SOL    HW221495   1.092   0.562  16.633 -1.9375 -1.1083  0.9216
 3345SOL     OW21496   2.321   3.511   8.152  0.2904 -0.5700 -0.2529
 3345SOL    HW121497   2.241   3.513   8.100 -0.3967 -0.1839  0.8468
 3345SOL    HW221498   2.386   3.562   8.104  0.9468 -1.1201  0.0409
 3346SOL     OW21499   1.278   0.967  12.847 -0.0249 -0.4043 -0.4872
 3346SOL    HW121500   1.365   1.005  12.841  0.2321 -0.9466 -0.1242
 3346SOL    HW221501   1.224   1.046  12.833 -0.1895 -0.4291 -0.0031
 3347SOL     OW21502   1.246   2.981  13.331  0.2608  0.2060  0.2625
 3347SOL    HW121503   1.323   3.030  13.358 -0.0711  0.6845  0.3485
 3347SOL    HW221504   1.223   2.940  13.415  1.0019 -2.3653 -0.7860
 3348SOL     OW21505   4.585   0.855  14.436 -1.0608  0.3955 -0.3932
 3348SOL    HW121506   4.644   0.882  14.365  0.8094 -3.3455 -0.2621
 3348SOL    HW221507   4.553   0.944  14.452  1.3982  1.0943  0.6685
 3349SOL     OW21508   3.631   2.230   1.989 -0.0622 -0.3597 -0.2332
 3349SOL    HW121509   3.618   2.314   1.945  1.6426 -0.6315 -1.2505
 3349SOL    HW221510   3.584   2.248   2.071  1.2541  0.6778  0.2897
 3350SOL     OW21511   4.584   1.532   2.884 -0.0344  0.1842 -0.0715
 3350SOL    HW121512   4.629   1.523   2.968 -0.2823 -3.8576 -0.3503
 3350SOL    HW221513   4.585   1.441   2.855 -3.6876 -1.2201  4.0857
 3351SOL     OW21514   2.797   0.167   9.136  0.2613  0.0746  0.1051
 3351SOL    HW121515   2.764   0.197   9.052 -1.9995  0.0376  0.9805
 3351SOL    HW221516   2.826   0.076   9.125 -0.9537 -0.0733 -1.9112
 3352SOL     OW21517   3.212   0.532  14.124  0.0904  0.6661  0.2521
 3352SOL    HW121518   3.179   0.619  14.145  0.6056  1.2232 -1.2415
 3352SOL    HW221519   3.150   0.464  14.150  0.9490  0.3779  1.5079
 3353SOL     OW21520   4.607   2.769   4.613  0.0555 -0.5860 -0.2090
 3353SOL    HW121521   4.700   2.778   4.633 -0.0465 -1.0393  0.4658
 3353SOL    HW221522   4.603   2.759   4.518 -0.5884  1.9194 -0.4469
 3354SOL     OW21523   0.257   3.181  17.597  0.3944 -0.2159  0.1693
 3354SOL    HW121524   0.183   3.185  17.536  0.4948 -0.9593  0.0069
 3354SOL    HW221525   0.227   3.114  17.657  1.3078 -1.0255 -0.2800
 3355SOL     OW21526   0.853   1.486   8.093  0.2336 -0.2328 -0.4017
 3355SOL    HW121527   0.901   1.566   8.071  0.5915  0.5503  3.1749
 3355SOL    HW221528   0.818   1.463   8.007  2.1594 -0.4544 -1.1269
 3356SOL     OW21529   0.475   4.154   5.962 -0.2469 -0.1563 -0.0193
 3356SOL    HW121530   0.486   4.243   5.930  1.4639 -0.6621 -0.7945
 3356SOL    HW221531   0.556   4.150   6.013  0.4352  2.0471 -0.9650
 3357SOL     OW21532   1.054   4.719   6.489 -0.1088 -0.9618 -0.0691
 3357SOL    HW121533   0.978   4.663   6.501 -0.4230 -0.2404  1.3627
 3357SOL    HW221534   1.115   4.683   6.554  0.7668 -0.7222 -0.7545
 3358SOL     OW21535   4.487   2.854   2.237  0.0245  0.8002  0.4048
 3358SOL    HW121536   4.578   2.823   2.240 -0.5842 -0.7847  2.4315
 3358SOL    HW221537   4.463   2.859   2.330  0.1635 -1.0123  0.5453
 3359SOL     OW21538   4.459   2.002   8.545  0.0283  0.0805  0.1160
 3359SOL    HW121539   4.457   1.921   8.494  1.7686  0.1033  0.0379
 3359SOL    HW221540   4.380   1.986   8.598 -0.1867 -1.0813 -0.5393
 3360SOL     OW21541   1.177   1.720   4.926  0.1907 -0.1342 -0.1859
 3360SOL    HW121542   1.152   1.633   4.895 -0.3234  0.0179 -0.1980
 3360SOL    HW221543   1.113   1.781   4.889 -1.4349 -2.0398 -0.5021
 3361SOL     OW21544   2.974   2.462   5.754  0.3742  0.2538  0.3632
 3361SOL    HW121545   3.064   2.432   5.742  0.0427 -1.5529  2.3450
 3361SOL    HW221546   2.939   2.454   5.665 -0.2740  3.4450  0.3247
 3362SOL     OW21547   3.107   3.887   6.679  0.3234 -0.6176 -0.3564
 3362SOL    HW121548   3.025   3.904   6.725 -0.2911  0.8002 -1.9532
 3362SOL    HW221549   3.170   3.917   6.743  0.4149 -1.0277 -0.2559
 3363SOL     OW21550   2.897   3.779   7.803 -0.0296  0.6202 -0.0579
 3363SOL    HW121551   2.972   3.725   7.779 -0.6731  0.3485 -1.4089
 3363SOL    HW221552   2.936   3.857   7.844  0.0667  0.4519  0.1745
 3364SOL     OW21553   2.976   0.467  12.766 -0.1614  0.0607 -0.2904
 3364SOL    HW121554   2.881   0.462  12.765 -0.1911  0.7637 -1.6276
 3364SOL    HW221555   3.000   0.556  12.740 -0.5173  0.5185  0.9642
 3365SOL     OW21556   4.392   2.027   2.156 -0.0346 -0.1290 -0.0780
 3365SOL    HW121557   4.301   1.996   2.147 -0.3181  0.6802  0.0126
 3365SOL    HW221558   4.387   2.093   2.087 -1.2660 -0.7947 -0.6314
 3366SOL     OW21559   3.398   3.156  16.837  0.2522  0.0698  0.4071
 3366SOL    HW121560   3.377   3.074  16.792 -1.7201  1.1909 -0.7284
 3366SOL    HW221561   3.321   3.155  16.894 -1.1108 -0.1580 -1.4361
 3367SOL     OW21562   4.046   0.468  12.814 -0.3341  0.1621  0.5212
 3367SOL    HW121563   4.008   0.536  12.758 -1.5619 -2.1662 -1.4622
 3367SOL    HW221564   4.080   0.514  12.891 -0.3625 -2.1876  1.9371
 3368SOL     OW21565   4.393   1.919  12.874 -0.0941  0.1083  0.2950
 3368SOL    HW121566   4.446   1.979  12.926  1.2558  0.6952 -1.7727
 3368SOL    HW221567   4.457   1.848  12.883  0.4855  0.6389  0.3191
 3369SOL     OW21568   3.784   0.274   6.189 -0.0358  0.1229  0.3964
 3369SOL    HW121569   3.854   0.212   6.172 -0.7885 -0.3033 -1.0950
 3369SOL    HW221570   3.710   0.219   6.164 -0.8288  1.3057  0.1090
 3370SOL     OW21571   0.643   1.798   4.073  0.3724  0.2700  0.0727
 3370SOL    HW121572   0.734   1.829   4.081  1.4381 -2.4217 -1.6723
 3370SOL    HW221573   0.615   1.844   3.994 -2.1114  2.0870  1.9735
 3371SOL     OW21574   1.850   0.708   6.678 -0.3350  0.4444  0.4980
 3371SOL    HW121575   1.859   0.801   6.699  0.8672  0.5737 -0.6015
 3371SOL    HW221576   1.765   0.701   6.722 -0.9573  0.5517 -0.6849
 3372SOL     OW21577   4.483   2.929   8.497 -0.3638 -0.0001 -0.0881
 3372SOL    HW121578   4.572   2.906   8.524 -0.0975 -0.2007 -1.1477
 3372SOL    HW221579   4.440   2.845   8.481  0.6206 -0.5098 -0.0495
 3373SOL     OW21580   4.665   0.322   4.643  0.1667 -0.5994 -0.3063
 3373SOL    HW121581   4.663   0.417   4.639 -0.7137 -0.6173 -0.4748
 3373SOL    HW221582   4.618   0.303   4.725 -0.0078  2.3147  0.2676
 3374SOL     OW21583   2.252   3.002   5.665  0.2751  0.4609 -0.3119
 3374SOL    HW121584   2.163   2.998   5.700  0.0067  0.4030 -0.9998
 3374SOL    HW221585   2.311   3.016   5.740 -1.2077 -1.3306  1.1797
 3375SOL     OW21586   0.434   1.452  11.127 -0.8355 -0.1050  0.0041
 3375SOL    HW121587   0.344   1.436  11.157 -0.9592  0.3623 -0.1095
 3375SOL    HW221588   0.476   1.372  11.157  0.4128  0.5057 -0.1437
 3376SOL     OW21589   3.179   4.104   8.851 -0.1834 -0.0845  0.1028
 3376SOL    HW121590   3.264   4.064   8.871 -0.8060 -1.2700  0.3809
 3376SOL    HW221591   3.150   4.056   8.773  1.4922  0.7655 -1.0532
 3377SOL     OW21592   0.578   2.654  11.876  0.6120 -0.5123 -0.3128
 3377SOL    HW121593   0.618   2.741  11.881  3.7233 -1.8918 -0.7713
 3377SOL    HW221594   0.537   2.653  11.963 -1.3131 -0.9928 -1.2333
 3378SOL     OW21595   0.339   1.763   3.853 -0.1418  0.2657  0.0639
 3378SOL    HW121596   0.370   1.719   3.932 -0.8942  0.9936  0.7644
 3378SOL    HW221597   0.342   1.857   3.874 -1.4767  0.5577 -1.0878
 3379SOL     OW21598   0.215   3.377   7.004 -0.8621 -0.5340  0.0898
 3379SOL    HW121599   0.141   3.421   7.044  1.2918  1.6026  1.7245
 3379SOL    HW221600   0.177   3.305   6.954 -2.0390  0.3399 -0.2500
 3380SOL     OW21601   3.829   1.013   7.392  0.0728  0.8001  0.1766
 3380SOL    HW121602   3.750   0.999   7.445  0.7759  2.3876  1.6283
 3380SOL    HW221603   3.799   1.009   7.301 -4.9632  1.8752  1.7923
 3381SOL     OW21604   3.861   4.549   8.400  0.1470  0.0994  0.0008
 3381SOL    HW121605   3.894   4.630   8.439 -3.7337  1.0351  1.3160
 3381SOL    HW221606   3.826   4.505   8.477 -0.0741  1.0748  0.4525
 3382SOL     OW21607   4.067   3.516   5.939 -0.2230 -0.0699  0.7988
 3382SOL    HW121608   4.117   3.435   5.928  2.5811  1.9670 -1.1382
 3382SOL    HW221609   4.135   3.578   5.964  0.2458 -0.3866  0.3016
 3383SOL     OW21610   2.909   3.935   8.332 -0.5166  0.9193 -0.1060
 3383SOL    HW121611   2.921   4.019   8.288 -1.3086  3.0904  3.7795
 3383SOL    HW221612   2.820   3.943   8.365 -0.8362 -0.1319 -0.7093
 3384SOL     OW21613   1.106   4.421   1.274 -0.3872  0.2128 -0.0142
 3384SOL    HW121614   1.061   4.392   1.353 -0.9078 -0.6754 -0.6405
 3384SOL    HW221615   1.096   4.515   1.288 -0.5383  0.1002  0.6628
 3385SOL     OW21616   2.042   2.886   6.645 -0.0445 -0.6282  0.3173
 3385SOL    HW121617   2.090   2.826   6.701  1.3983  1.0370  0.8591
 3385SOL    HW221618   1.952   2.855   6.655  0.1479 -0.9259  1.1333
 3386SOL     OW21619   4.531   0.518   6.707  0.1188 -0.7512  0.0567
 3386SOL    HW121620   4.506   0.507   6.616 -3.1304  0.3190  0.8439
 3386SOL    HW221621   4.536   0.613   6.700  1.6000 -0.8737 -0.5744
 3387SOL     OW21622   0.954   0.894  10.075 -0.1561 -0.3554 -0.4732
 3387SOL    HW121623   0.868   0.908  10.115  0.0065  0.4512 -0.4234
 3387SOL    HW221624   0.988   0.828  10.136  0.3050  0.1934 -0.1289
 3388SOL     OW21625   3.698   3.331  14.344  0.1840 -0.1579 -0.0853
 3388SOL    HW121626   3.646   3.270  14.397 -0.1445 -0.1688 -0.4209
 3388SOL    HW221627   3.763   3.275  14.301  1.5838  1.4752 -0.0915
 3389SOL     OW21628   2.413   4.094   4.029  0.6968  0.3081 -0.0696
 3389SOL    HW121629   2.407   4.052   4.114 -2.6830 -1.2761 -1.0511
 3389SOL    HW221630   2.418   4.181   4.066 -1.3072 -0.4774  2.0518
 3390SOL     OW21631   0.988   2.710   6.093  0.1990  0.4389 -0.7109
 3390SOL    HW121632   1.009   2.626   6.053 -1.6708 -0.5324  0.3472
 3390SOL    HW221633   1.070   2.756   6.075  0.9440 -0.6481 -0.0364
 3391SOL     OW21634   2.632   3.962   2.768  0.1570 -0.3719  0.0579
 3391SOL    HW121635   2.626   3.879   2.816  0.9650  0.0712  0.9096
 3391SOL    HW221636   2.590   3.943   2.684  0.0620 -0.2314  0.0743
 3392SOL     OW21637   2.079   4.665   8.282  0.5145 -0.1332 -0.2461
 3392SOL    HW121638   1.988   4.638   8.295  0.9838 -0.8381  1.4984
 3392SOL    HW221639   2.059   0.024   8.239 -0.6309 -2.1782 -3.7121
 3393SOL     OW21640   0.032   1.475  16.454  0.3159  0.0709  0.3376
 3393SOL    HW121641   0.018   1.557  16.501 -2.5840  0.5233 -1.2888
 3393SOL    HW221642   0.078   1.428  16.523  2.8623  0.4257 -1.1220
 3394SOL     OW21643   3.916   1.304   6.675 -0.1778  0.0924  0.3394
 3394SOL    HW121644   3.997   1.315   6.625 -0.7680 -1.8072 -1.0495
 3394SOL    HW221645   3.954   1.239   6.734  0.1545 -1.8493 -1.9733
 3395SOL     OW21646   0.934   4.636   7.787  0.0698  0.4049  0.1094
 3395SOL    HW121647   0.915   4.561   7.730 -1.2006 -0.0031  1.0863
 3395SOL    HW221648   0.898   4.705   7.730 -2.1215 -0.3702  0.5794
 3396SOL     OW21649   1.257   4.288   0.511 -0.6269 -0.7691  0.1245
 3396SOL    HW121650   1.208   4.328   0.440 -2.4368  2.4127  3.1987
 3396SOL    HW221651   1.258   4.357   0.577 -0.1029 -0.3099 -0.3628
 3397SOL     OW21652   0.742   2.455   6.770 -0.2866 -0.0878 -0.0464
 3397SOL    HW121653   0.755   2.445   6.676 -2.0994 -0.2029 -0.2876
 3397SOL    HW221654   0.830   2.485   6.792  0.0341  1.4282 -3.3793
 3398SOL     OW21655   4.447   0.462   6.127 -0.5406 -0.1011 -0.2428
 3398SOL    HW121656   4.446   0.383   6.073  0.8299 -1.7502  2.1770
 3398SOL    HW221657   4.536   0.459   6.162 -0.6637  0.7448  0.1546
 3399SOL     OW21658   1.318   1.455   1.618  0.7199 -0.2990 -0.5193
 3399SOL    HW121659   1.320   1.550   1.611 -0.9423 -0.1675  0.7961
 3399SOL    HW221660   1.230   1.448   1.656  1.7721 -0.7992  1.8291
 3400SOL     OW21661   0.049   0.655   8.802  0.2384 -0.0449 -0.8502
 3400SOL    HW121662   4.692   0.705   8.789 -0.0463 -0.1709  0.4100
 3400SOL    HW221663   0.045   0.584   8.738  1.5228  0.2520 -1.2470
 3401SOL     OW21664   3.033   2.356   7.760  0.6406  0.3347 -0.1017
 3401SOL    HW121665   3.112   2.316   7.796  0.5937  0.0182 -0.3540
 3401SOL    HW221666   2.970   2.308   7.814 -1.4356 -0.9579 -3.6557
 3402SOL     OW21667   3.913   1.394  16.632 -0.8537  0.0926 -0.0372
 3402SOL    HW121668   3.958   1.428  16.555  2.5388 -0.8284  1.5573
 3402SOL    HW221669   3.953   1.436  16.708 -0.9227 -1.1246  0.6856
 3403SOL     OW21670   3.026   1.937   1.594  0.3804 -0.0297 -0.3304
 3403SOL    HW121671   3.101   1.878   1.596 -1.6479 -2.6260 -1.6112
 3403SOL    HW221672   2.952   1.879   1.578  0.3851 -0.0393 -0.3173
 3404SOL     OW21673   4.248   3.773   8.911 -0.4063 -0.0649 -0.0765
 3404SOL    HW121674   4.273   3.750   8.822  1.8168  1.4680  0.1346
 3404SOL    HW221675   4.334   3.772   8.954 -0.0835 -1.7130 -0.7621
 3405SOL     OW21676   0.567   3.122   6.734  0.8777 -0.5103 -0.6379
 3405SOL    HW121677   0.656   3.111   6.766  1.2062 -1.1884 -1.7895
 3405SOL    HW221678   0.518   3.100   6.814  2.1182  3.0616  1.1452
 3406SOL     OW21679   1.677   0.880   2.197 -0.2969 -0.3983 -0.4826
 3406SOL    HW121680   1.600   0.930   2.169 -0.7629 -0.7759  0.1284
 3406SOL    HW221681   1.735   0.956   2.195 -1.9482  0.8155 -2.5685
 3407SOL     OW21682   4.630   2.081   7.368  0.3899  0.0235  0.1915
 3407SOL    HW121683   4.664   1.992   7.359  0.8960  0.5215 -3.0179
 3407SOL    HW221684   4.545   2.074   7.325  0.5091 -1.9547  0.3145
 3408SOL     OW21685   0.332   3.508   6.033  0.2153  0.0242  0.2667
 3408SOL    HW121686   0.242   3.539   6.029 -0.0056 -0.3362  2.4419
 3408SOL    HW221687   0.327   3.413   6.026 -0.6930 -0.0701  2.1415
 3409SOL     OW21688   2.869   3.275  17.504 -0.3324  0.3459 -0.3650
 3409SOL    HW121689   2.864   3.370  17.491 -2.0584  0.1761 -0.9666
 3409SOL    HW221690   2.958   3.267  17.537 -0.4133  2.3881  0.3790
 3410SOL     OW21691   1.804   0.346   6.411 -0.3156  0.1423  0.2435
 3410SOL    HW121692   1.841   0.380   6.492  2.4850  0.1535 -1.0593
 3410SOL    HW221693   1.777   0.259   6.439 -2.4818  1.1956  1.4469
 3411SOL     OW21694   0.328   2.552  10.260 -0.3083 -0.3119  0.4428
 3411SOL    HW121695   0.394   2.606  10.304 -1.7375  2.1665 -0.4448
 3411SOL    HW221696   0.372   2.487  10.205 -1.8116 -1.1708  0.2638
 3412SOL     OW21697   0.488   1.151  11.565 -0.1618  0.3455  0.0376
 3412SOL    HW121698   0.414   1.118  11.513 -0.9378  1.9529  0.1182
 3412SOL    HW221699   0.549   1.151  11.492 -0.2723  1.1426 -0.0624
 3413SOL     OW21700   0.202   1.850   5.416  0.6049 -0.2138 -0.2066
 3413SOL    HW121701   0.219   1.764   5.377 -2.0470 -0.9260  0.2543
 3413SOL    HW221702   0.258   1.848   5.495 -1.1425  1.9483  1.0838
 3414SOL     OW21703   3.101   0.624   3.517 -0.0063  0.3885 -0.8196
 3414SOL    HW121704   3.057   0.701   3.554 -0.1115 -1.1143  2.1125
 3414SOL    HW221705   3.178   0.633   3.574  0.1159  1.4545 -1.1375
 3415SOL     OW21706   2.656   2.557   7.250 -0.4478 -0.3323  0.0003
 3415SOL    HW121707   2.665   2.538   7.157 -3.0405 -1.1941 -0.0923
 3415SOL    HW221708   2.683   2.472   7.285 -0.8864 -1.0009 -1.2982
 3416SOL     OW21709   4.453   2.087   3.709  0.0507  0.3160 -0.1120
 3416SOL    HW121710   4.474   1.994   3.713  0.7490  0.4752  0.0154
 3416SOL    HW221711   4.478   2.107   3.618 -0.7889  0.6913 -0.2636
 3417SOL     OW21712   4.639   2.660   5.761 -0.1607 -0.2817  0.6686
 3417SOL    HW121713   0.003   2.692   5.782 -0.8049  0.7519  1.7677
 3417SOL    HW221714   4.584   2.732   5.791  1.0164  1.6872 -1.9032
 3418SOL     OW21715   2.223   0.341   1.465  0.0715 -0.2326  0.3481
 3418SOL    HW121716   2.192   0.280   1.532  1.4928 -1.8831 -0.4997
 3418SOL    HW221717   2.193   0.420   1.510  0.2575  0.8152 -1.3797
 3419SOL     OW21718   0.356   0.822   2.807  0.5538  0.5651 -0.0175
 3419SOL    HW121719   0.450   0.819   2.827  0.7354  0.2940 -0.9224
 3419SOL    HW221720   0.348   0.828   2.712  0.1412  1.1121  0.0501
 3420SOL     OW21721   2.378   1.300   2.768 -0.3169  0.2568  0.0700
 3420SOL    HW121722   2.388   1.395   2.753  0.5283  0.4940  2.1530
 3420SOL    HW221723   2.470   1.275   2.754 -0.7959 -1.4616  0.0331
 3421SOL     OW21724   4.721   1.179  17.199  0.2226 -0.4350 -0.7721
 3421SOL    HW121725   0.017   1.210  17.111 -2.3452 -0.3922 -1.3351
 3421SOL    HW221726   4.671   1.252  17.233  1.2296 -0.6580  1.1809
 3422SOL     OW21727   2.313   4.226   3.486  0.2439 -0.3920 -0.0318
 3422SOL    HW121728   2.375   4.193   3.552  1.2956  1.5438 -0.0609
 3422SOL    HW221729   2.313   4.322   3.485 -0.7953 -0.4003 -0.3241
 3423SOL     OW21730   1.555   0.645   2.284 -0.5096  0.3176  0.2490
 3423SOL    HW121731   1.604   0.726   2.268  0.0401 -0.4339 -1.8219
 3423SOL    HW221732   1.477   0.680   2.328 -0.7051 -0.3510  0.4262
 3424SOL     OW21733   3.750   1.961   3.526 -0.2966  0.8090  0.1320
 3424SOL    HW121734   3.749   1.890   3.590 -0.5813  1.7395  1.1555
 3424SOL    HW221735   3.796   1.931   3.447  2.8737  2.0583  1.4856
 3425SOL     OW21736   1.867   0.903   1.618  0.3140 -0.1588 -0.5395
 3425SOL    HW121737   1.805   0.837   1.591  0.5258 -1.7300  2.8434
 3425SOL    HW221738   1.808   0.979   1.616  0.2482 -0.1608  1.6247
 3426SOL     OW21739   1.907   4.592   1.250 -0.6867 -0.0083  0.1921
 3426SOL    HW121740   1.852   4.595   1.329  0.1178  3.0371  0.6376
 3426SOL    HW221741   1.924   4.499   1.236 -0.2416  0.2821 -1.1879
 3427SOL     OW21742   0.582   0.235   8.821  0.7021  0.4578 -0.5414
 3427SOL    HW121743   0.511   0.171   8.826  2.3529 -1.3334  0.1246
 3427SOL    HW221744   0.572   0.287   8.901  1.3674 -2.3222  1.3472
 3428SOL     OW21745   0.439   2.287   4.846  0.0286 -0.6848  0.1474
 3428SOL    HW121746   0.424   2.360   4.906 -0.7849 -0.0472 -0.8292
 3428SOL    HW221747   0.506   2.236   4.892  0.4520 -0.2849 -0.0209
 3429SOL     OW21748   2.694   3.252  12.591 -0.1005  0.2455 -0.0083
 3429SOL    HW121749   2.645   3.327  12.625  0.0070 -1.0393  3.0119
 3429SOL    HW221750   2.779   3.264  12.634 -0.0459  0.1566 -0.0902
 3430SOL     OW21751   3.546   1.809   6.025  0.0985  0.5106 -0.6473
 3430SOL    HW121752   3.493   1.856   5.961 -2.1076 -0.1115  0.7295
 3430SOL    HW221753   3.469   1.784   6.077  0.9346 -0.8532 -0.0535
 3431SOL     OW21754   3.135   3.210   0.170 -0.1164 -0.4178 -0.3511
 3431SOL    HW121755   3.151   3.161   0.251  0.7407 -1.4208 -1.1317
 3431SOL    HW221756   3.039   3.208   0.169 -0.0919 -0.2107 -2.4008
 3432SOL     OW21757   3.003   1.838  11.261  0.6839 -0.0397  0.4344
 3432SOL    HW121758   2.943   1.875  11.326 -1.1192 -1.1621 -0.6004
 3432SOL    HW221759   3.085   1.849  11.309 -0.2677  0.4673  1.9840
 3433SOL     OW21760   3.030   1.497  12.470  0.4178  0.5146 -0.5309
 3433SOL    HW121761   3.013   1.435  12.541 -0.5442  0.1227 -1.1103
 3433SOL    HW221762   3.121   1.473  12.452 -0.4278 -2.0415 -1.4241
 3434SOL     OW21763   2.210   0.112   7.846 -0.2534 -0.2111 -0.1814
 3434SOL    HW121764   2.147   0.042   7.830 -1.1057  0.4619  0.2540
 3434SOL    HW221765   2.162   0.153   7.918 -0.6261  1.4717 -1.3807
 3435SOL     OW21766   0.418   4.205   6.342 -0.0385 -0.3498  0.3754
 3435SOL    HW121767   0.348   4.142   6.360 -1.1136  0.5843 -0.5063
 3435SOL    HW221768   0.361   4.278   6.317 -1.0065 -0.8345  1.1776
 3436SOL     OW21769   2.408   0.171   8.132 -0.6594 -0.0845 -0.1840
 3436SOL    HW121770   2.418   0.207   8.220  0.6615 -0.1046 -0.3282
 3436SOL    HW221771   2.431   0.247   8.079  1.0737  0.0175  0.7297
 3437SOL     OW21772   4.053   4.002   8.508 -0.0301  0.3524 -0.2936
 3437SOL    HW121773   4.034   3.995   8.415  1.1796  1.4294 -0.6362
 3437SOL    HW221774   4.147   4.022   8.500  0.6153 -1.9519  1.4447
 3438SOL     OW21775   0.487   0.204   2.353  0.1928  0.2377  0.4739
 3438SOL    HW121776   0.433   0.126   2.356  2.9567 -1.5582  3.2334
 3438SOL    HW221777   0.443   0.246   2.278 -3.1732 -1.2322  1.6650
 3439SOL     OW21778   3.164   2.458   6.019 -0.1382  0.2121 -0.5175
 3439SOL    HW121779   3.169   2.405   5.940  2.6038  0.7787 -0.7241
 3439SOL    HW221780   3.166   2.542   5.973  0.7551 -0.0135 -0.8859
 3440SOL     OW21781   2.004   0.145   3.479 -0.6863 -0.1210 -0.2487
 3440SOL    HW121782   2.000   0.052   3.458 -0.3757 -0.5350  1.5385
 3440SOL    HW221783   2.032   0.136   3.570  0.0357 -0.9437 -0.5583
 3441SOL     OW21784   3.679   0.763   7.081  0.3984 -0.2206 -0.0641
 3441SOL    HW121785   3.641   0.741   6.996  0.2303  0.9931 -0.3019
 3441SOL    HW221786   3.742   0.695   7.105  0.0631 -0.4921  0.0506
 3442SOL     OW21787   0.799   0.456   4.273 -0.3728  0.1218  0.1404
 3442SOL    HW121788   0.773   0.536   4.318 -0.8672  0.8184 -1.3693
 3442SOL    HW221789   0.769   0.474   4.183 -2.7946  0.0844  0.9341
 3443SOL     OW21790   1.182   0.291   6.147  0.2281  0.5642  0.6996
 3443SOL    HW121791   1.120   0.222   6.173 -0.0426 -0.3408 -2.2911
 3443SOL    HW221792   1.217   0.300   6.236  1.0553 -0.3001  0.4647
 3444SOL     OW21793   1.159   3.006  17.437  0.0117 -0.3558  0.0706
 3444SOL    HW121794   1.244   3.001  17.392  1.2527  2.3617  2.1132
 3444SOL    HW221795   1.157   2.922  17.482 -1.0089  0.3633  1.3495
 3445SOL     OW21796   0.814   2.891   4.029 -0.1350  0.3209 -0.7653
 3445SOL    HW121797   0.841   2.808   3.990 -2.7993 -1.0417  0.2781
 3445SOL    HW221798   0.872   2.956   3.988  2.0922 -0.1618  1.6964
 3446SOL     OW21799   3.274   4.284  15.123 -0.3126 -0.3674  0.2834
 3446SOL    HW121800   3.233   4.341  15.058  0.7613 -1.1465 -1.0780
 3446SOL    HW221801   3.362   4.322  15.123 -1.3002  1.9350  0.9742
 3447SOL     OW21802   3.255   3.158   2.858  0.2705  0.2507  0.2958
 3447SOL    HW121803   3.171   3.171   2.902 -1.2950 -0.9263 -2.3426
 3447SOL    HW221804   3.276   3.243   2.819  0.7742 -0.9335 -2.0120
 3448SOL     OW21805   2.863   4.114   5.552 -0.0540  0.5906 -0.3263
 3448SOL    HW121806   2.916   4.035   5.564 -1.4506 -0.5950 -1.9050
 3448SOL    HW221807   2.792   4.085   5.610  0.9082 -0.8978  0.1084
 3449SOL     OW21808   4.043   4.345  17.607 -0.0433 -0.7926  0.1017
 3449SOL    HW121809   3.993   4.385  17.678 -2.6454 -0.0565 -2.1550
 3449SOL    HW221810   3.980   4.348  17.535 -1.0233  0.4377  1.0086
 3450SOL     OW21811   2.299   3.614   3.812  0.2865  0.5147 -0.0397
 3450SOL    HW121812   2.347   3.625   3.729 -0.0870  0.6160 -0.2440
 3450SOL    HW221813   2.211   3.647   3.796  0.7041  1.0506 -1.2635
 3451SOL     OW21814   3.709   4.149   1.898  0.0470  0.4025  1.0215
 3451SOL    HW121815   3.764   4.179   1.970 -0.3599 -0.6889  1.7836
 3451SOL    HW221816   3.768   4.080   1.868  2.0111  2.7730 -0.6020
 3452SOL     OW21817   0.336   1.780  12.342 -0.0019 -0.0278  0.1966
 3452SOL    HW121818   0.402   1.722  12.380  0.5688  2.4565  2.9445
 3452SOL    HW221819   0.334   1.745  12.253  3.0088  0.5410 -0.0849
 3453SOL     OW21820   1.933   0.876   1.886  0.0705  0.0170 -0.1759
 3453SOL    HW121821   1.869   0.946   1.897  0.1586 -0.0113  0.5070
 3453SOL    HW221822   1.940   0.868   1.790 -0.4193 -2.8189  0.0215
 3454SOL     OW21823   3.268   2.366   8.103  0.3420 -0.3390  0.2071
 3454SOL    HW121824   3.175   2.384   8.118  0.0502  0.6065 -2.7729
 3454SOL    HW221825   3.310   2.429   8.161  0.0863  1.5342 -1.6238
 3455SOL     OW21826   1.340   3.182   5.713  0.2979 -0.7302  0.8926
 3455SOL    HW121827   1.371   3.175   5.623  0.3040  0.7003  0.7871
 3455SOL    HW221828   1.429   3.174   5.748  1.0688 -2.9411 -1.5330
 3456SOL     OW21829   1.042   2.199   7.773  0.2320  0.1257 -0.1928
 3456SOL    HW121830   1.050   2.202   7.868 -0.4084 -1.4288 -0.0999
 3456SOL    HW221831   1.121   2.149   7.751  1.4584  2.5753 -1.4186
 3457SOL     OW21832   4.030   3.572   1.814  0.2302 -0.1110 -0.0581
 3457SOL    HW121833   3.939   3.569   1.784  0.7587  0.5993 -1.7599
 3457SOL    HW221834   4.013   3.532   1.899  0.2378  1.4970  0.7085
 3458SOL     OW21835   4.477   2.149  13.157 -0.4241  0.0543 -0.7353
 3458SOL    HW121836   4.423   2.184  13.085 -0.5646  1.5925  0.1058
 3458SOL    HW221837   4.493   2.233  13.201 -1.0435 -0.4528  0.4456
 3459SOL     OW21838   0.345   2.601   7.663 -0.0056 -0.0991 -0.7229
 3459SOL    HW121839   0.325   2.545   7.588  0.2180 -0.7052 -0.3333
 3459SOL    HW221840   0.292   2.564   7.733  0.5693 -1.5697 -1.0662
 3460SOL     OW21841   2.949   2.580   4.706 -0.0784 -0.4781 -0.1288
 3460SOL    HW121842   2.999   2.660   4.720 -0.1235 -0.3799 -0.5450
 3460SOL    HW221843   2.868   2.589   4.757  0.0001 -0.0728 -0.0738
 3461SOL     OW21844   3.766   2.721  10.948  0.1128 -0.1343 -0.5394
 3461SOL    HW121845   3.678   2.693  10.924 -0.1468  0.2838 -0.0898
 3461SOL    HW221846   3.798   2.760  10.866  1.7850  0.9246  0.6223
 3462SOL     OW21847   1.648   1.781  13.501 -0.0553  0.2026  0.2578
 3462SOL    HW121848   1.565   1.741  13.475 -0.7764  2.4842 -0.9466
 3462SOL    HW221849   1.614   1.868  13.526 -1.9346 -1.1673  2.5159
 3463SOL     OW21850   0.529   1.653   0.986  0.4567 -0.4342 -0.8076
 3463SOL    HW121851   0.570   1.651   1.072 -0.9879 -0.3063 -0.1296
 3463SOL    HW221852   0.442   1.620   1.006 -0.5231  0.8525 -2.8811
 3464SOL     OW21853   3.833   3.771   7.373  0.2539 -0.1017 -0.0171
 3464SOL    HW121854   3.889   3.768   7.296 -0.9797 -1.3276 -0.8595
 3464SOL    HW221855   3.870   3.699   7.424  1.6152  0.8135  0.3053
 3465SOL     OW21856   2.394   0.411   7.731  0.6366  0.0327  0.2592
 3465SOL    HW121857   2.336   0.370   7.795  0.6355  0.7086  0.6883
 3465SOL    HW221858   2.480   0.389   7.768  1.8867  0.8426 -2.0987
 3466SOL     OW21859   0.925   2.094   2.835  0.5789  0.0837  0.7614
 3466SOL    HW121860   0.907   2.004   2.808  1.0074 -0.8563  3.5178
 3466SOL    HW221861   0.901   2.082   2.927 -0.9839  0.2086  0.3618
 3467SOL     OW21862   1.695   0.407   2.311 -0.2879 -0.1683  0.4935
 3467SOL    HW121863   1.747   0.434   2.387  0.4417  1.1330 -0.4829
 3467SOL    HW221864   1.629   0.476   2.302 -1.3033 -1.0907  0.9430
 3468SOL     OW21865   1.299   0.011  11.281  0.8694  0.6353 -0.2796
 3468SOL    HW121866   1.281   0.047  11.194 -0.9341  0.6444  0.0848
 3468SOL    HW221867   1.257   0.076  11.338 -1.4189 -0.4946 -0.6714
 3469SOL     OW21868   4.425   4.558  14.453 -0.7652  0.2239  0.4194
 3469SOL    HW121869   4.334   4.576  14.429 -1.5637 -2.8939  1.2006
 3469SOL    HW221870   4.458   4.647  14.443  1.6033 -0.8162 -0.8284
 3470SOL     OW21871   1.551   3.218   7.762 -0.1096  0.0450 -0.4183
 3470SOL    HW121872   1.529   3.288   7.700 -1.7090  0.3005  0.4502
 3470SOL    HW221873   1.465   3.186   7.788 -0.2585  1.3191  0.6345
 3471SOL     OW21874   3.687   0.276   4.307  0.2802 -0.0332 -0.2525
 3471SOL    HW121875   3.604   0.229   4.313 -0.0078  0.3261 -1.5472
 3471SOL    HW221876   3.707   0.305   4.396 -0.3191  2.6674 -0.9918
 3472SOL     OW21877   3.147   0.633  15.322  0.5362  0.3752  0.2974
 3472SOL    HW121878   3.071   0.682  15.290  0.4845  0.1629  0.1014
 3472SOL    HW221879   3.122   0.587  15.402 -0.9850 -0.4863 -0.6783
 3473SOL     OW21880   2.870   0.355  17.350  0.1367 -0.1012 -0.2823
 3473SOL    HW121881   2.951   0.305  17.343  0.6626  1.0308 -2.2022
 3473SOL    HW221882   2.897   0.435  17.395  0.3757  0.5426 -1.5882
 3474SOL     OW21883   4.662   0.363   6.267 -0.1936  0.4171 -0.7096
 3474SOL    HW121884   0.015   0.397   6.310 -0.7586  2.0026 -0.9332
 3474SOL    HW221885   4.692   0.272   6.263 -0.7381  0.0778  3.4685
 3475SOL     OW21886   2.602   4.105   0.975 -0.0180 -0.2293  0.2998
 3475SOL    HW121887   2.675   4.161   1.001  0.3088  0.3725 -1.9252
 3475SOL    HW221888   2.535   4.144   1.031 -1.1503  0.5950 -1.6345
 3476SOL     OW21889   1.370   4.405  13.849 -0.4227 -0.6024  0.0712
 3476SOL    HW121890   1.377   4.318  13.887  3.0009 -0.3163  0.1690
 3476SOL    HW221891   1.458   4.439  13.867 -1.5160  1.7703  0.9927
 3477SOL     OW21892   3.823   2.010  12.503 -0.8469  0.4239  0.0873
 3477SOL    HW121893   3.775   2.089  12.529 -1.0930  0.2441  0.1747
 3477SOL    HW221894   3.876   1.994  12.581  0.2992  4.7539  0.1834
 3478SOL     OW21895   1.912   1.911   5.887  0.3495 -0.5855  0.5655
 3478SOL    HW121896   1.997   1.946   5.912  0.1704 -0.0307  0.3824
 3478SOL    HW221897   1.885   1.946   5.802 -0.1306  0.5411  1.1888
 3479SOL     OW21898   4.027   4.042   5.437  0.5155 -0.2075  0.1182
 3479SOL    HW121899   3.938   4.069   5.461  0.2421 -0.0184 -1.0955
 3479SOL    HW221900   4.074   4.090   5.505 -0.8549 -0.4201  1.2130
 3480SOL     OW21901   2.489   4.724   3.393 -0.1155 -0.3527 -0.0435
 3480SOL    HW121902   2.456   0.051   3.319  0.1608 -1.2832 -0.8170
 3480SOL    HW221903   2.562   4.675   3.353  0.5890  1.2771 -0.7654
 3481SOL     OW21904   0.634   1.073   3.557 -0.2952  0.3690 -0.3733
 3481SOL    HW121905   0.540   1.077   3.540  0.1163 -0.3007 -2.8785
 3481SOL    HW221906   0.667   1.018   3.486  0.9510 -2.9757  2.7823
 3482SOL     OW21907   4.256   4.543  13.255 -0.3309  0.4218 -0.1518
 3482SOL    HW121908   4.204   4.597  13.196  1.8013  2.2307 -0.3920
 3482SOL    HW221909   4.193   4.475  13.280  1.6330 -1.7993 -1.1810
 3483SOL     OW21910   3.614   0.019   1.813 -0.0976  0.2191  0.0108
 3483SOL    HW121911   3.631   4.666   1.866 -1.9654 -0.5727 -0.5425
 3483SOL    HW221912   3.531   4.720   1.771 -0.5356 -2.5414  2.4312
 3484SOL     OW21913   4.499   3.051   2.551 -0.7163 -0.2123 -0.0161
 3484SOL    HW121914   4.488   3.090   2.637  1.1056  0.3424 -0.0326
 3484SOL    HW221915   4.446   2.972   2.553  0.6238 -1.1477 -1.5715
 3485SOL     OW21916   0.639   1.629   8.210 -0.9322 -0.0980 -0.4175
 3485SOL    HW121917   0.707   1.569   8.180 -0.4110  0.3066 -0.0457
 3485SOL    HW221918   0.656   1.626   8.304 -1.9988 -0.7658 -0.2465
 3486SOL     OW21919   2.085   2.527   1.335 -0.1841 -0.4559  0.2693
 3486SOL    HW121920   2.102   2.434   1.352  1.5215  0.2189  2.2565
 3486SOL    HW221921   1.991   2.526   1.316 -0.2322  0.3219  0.4833
 3487SOL     OW21922   4.284   0.709   4.498 -0.5688  0.1256  0.1549
 3487SOL    HW121923   4.324   0.756   4.426 -3.2991  1.4618 -0.4770
 3487SOL    HW221924   4.253   0.627   4.459 -1.6517  0.3234  0.6094
 3488SOL     OW21925   3.981   0.340   8.058 -0.1144 -0.1724  0.8530
 3488SOL    HW121926   3.925   0.267   8.032  3.7108 -2.6213 -0.6561
 3488SOL    HW221927   4.053   0.297   8.105  0.2282 -0.1398  0.3627
 3489SOL     OW21928   0.267   2.543   4.036 -0.0398 -0.6218  0.4334
 3489SOL    HW121929   0.274   2.451   4.059  0.2218 -0.8811 -0.6553
 3489SOL    HW221930   0.226   2.562   4.121  0.7539  1.2624  0.3962
 3490SOL     OW21931   3.686   0.524  13.006 -0.4265  0.0731  0.2691
 3490SOL    HW121932   3.664   0.546  13.096  0.5275  0.6584  0.3610
 3490SOL    HW221933   3.744   0.598  12.988 -1.0701  0.6981  0.7750
 3491SOL     OW21934   0.350   2.961  11.136  0.6431  0.5686  0.2455
 3491SOL    HW121935   0.289   3.000  11.074  2.4045 -1.4954 -2.7787
 3491SOL    HW221936   0.293   2.911  11.194 -0.3452  2.2902  0.7519
 3492SOL     OW21937   1.675   3.195   0.000 -0.1855 -0.5042  0.7929
 3492SOL    HW121938   1.585   3.226  17.694  0.4717  1.2973  0.3467
 3492SOL    HW221939   1.692   3.231  17.612 -0.9393 -0.2736  0.7392
 3493SOL     OW21940   3.918   3.010  15.851  0.0266  1.0509  0.8876
 3493SOL    HW121941   3.840   2.989  15.903  1.4078 -1.9924  1.7511
 3493SOL    HW221942   3.889   3.097  15.825 -2.0184  0.0169 -0.2448
 3494SOL     OW21943   1.760   1.378   7.547  0.0345  0.2129 -0.1392
 3494SOL    HW121944   1.676   1.348   7.583  0.2191  0.3573  0.4177
 3494SOL    HW221945   1.763   1.352   7.455 -1.1965  0.5879 -0.2857
 3495SOL     OW21946   0.790   4.138   9.999  0.0991 -0.3047  0.0858
 3495SOL    HW121947   0.718   4.076   9.990  0.7065 -1.2175  1.5874
 3495SOL    HW221948   0.868   4.088  10.024  0.6121 -0.6085 -2.1273
 3496SOL     OW21949   2.162   2.037   5.907  0.2527 -0.0157 -0.2840
 3496SOL    HW121950   2.137   2.103   5.971  1.6164  0.8912 -0.6944
 3496SOL    HW221951   2.207   2.093   5.844  2.1070 -1.8593 -0.6030
 3497SOL     OW21952   3.970   1.610   5.087 -0.2250 -0.1442  0.2545
 3497SOL    HW121953   3.994   1.686   5.141 -1.4137  0.2270  0.2530
 3497SOL    HW221954   3.924   1.646   5.011  0.2657 -0.9564 -0.4238
 3498SOL     OW21955   2.123   2.344  11.111 -0.2747  0.5003  0.1334
 3498SOL    HW121956   2.207   2.383  11.137  0.1328  1.0826 -2.1114
 3498SOL    HW221957   2.064   2.416  11.131  0.1169  0.7077  0.5556
 3499SOL     OW21958   4.407   0.506   4.683  0.6851 -0.2515  0.1617
 3499SOL    HW121959   4.393   0.574   4.617  3.1450 -0.8233 -0.9273
 3499SOL    HW221960   4.430   0.554   4.763  0.9936 -0.6197  0.2972
 3500SOL     OW21961   3.715   1.054   5.357 -0.2039  0.8830 -0.4424
 3500SOL    HW121962   3.727   1.127   5.296 -1.2128  0.8746 -0.6559
 3500SOL    HW221963   3.709   1.092   5.444 -0.4348  0.3055 -0.2109
 3501SOL     OW21964   0.511   1.198   5.588 -0.1295  0.2547 -0.3353
 3501SOL    HW121965   0.553   1.170   5.506 -1.9917 -1.7852 -0.5990
 3501SOL    HW221966   0.555   1.282   5.600 -1.1150  1.1734 -3.0995
 3502SOL     OW21967   2.393   2.023  14.433  0.5233 -0.4864 -0.2224
 3502SOL    HW121968   2.430   2.070  14.358  0.0546  0.6503  0.2606
 3502SOL    HW221969   2.420   2.083  14.502 -2.1458 -0.3440  0.7136
 3503SOL     OW21970   2.408   0.678   5.189 -0.0732  0.0681  0.1089
 3503SOL    HW121971   2.351   0.601   5.197  0.1697 -0.2346 -1.1045
 3503SOL    HW221972   2.371   0.720   5.112  1.1695 -2.8712 -2.0609
 3504SOL     OW21973   4.373   0.125   1.814  0.2676 -0.6032  0.0113
 3504SOL    HW121974   4.450   0.153   1.863  0.1684 -1.1343  0.4635
 3504SOL    HW221975   4.412   0.076   1.742 -0.8031 -2.3485  0.6359
 3505SOL     OW21976   0.966   4.458   8.849  0.6857 -0.2020  0.1160
 3505SOL    HW121977   0.931   4.383   8.897  0.2952  0.3785  0.7270
 3505SOL    HW221978   1.012   4.411   8.779  0.3644 -0.3117 -0.0210
 3506SOL     OW21979   0.980   0.190   4.441  0.2128 -0.2552  0.3743
 3506SOL    HW121980   1.065   0.227   4.417 -0.1547 -0.2397 -0.8986
 3506SOL    HW221981   0.998   0.186   4.535 -3.0715 -1.0267  0.9640
 3507SOL     OW21982   2.202   1.116   7.820 -0.2315  0.1823 -0.1608
 3507SOL    HW121983   2.187   1.200   7.863  0.7009  0.9801 -1.3669
 3507SOL    HW221984   2.241   1.073   7.896  0.7735  0.7879 -0.3360
 3508SOL     OW21985   3.274   4.646  16.424 -0.3226 -0.4032  0.0668
 3508SOL    HW121986   3.259   4.693  16.341 -0.9384 -0.5884  0.0717
 3508SOL    HW221987   3.301   4.719  16.480  2.4640 -2.1702  0.9897
 3509SOL     OW21988   2.154   4.166  14.644 -0.5601 -0.1654  0.1551
 3509SOL    HW121989   2.211   4.099  14.606  0.6847  2.0657 -1.9005
 3509SOL    HW221990   2.094   4.134  14.712  0.1645 -2.0015 -0.0743
 3510SOL     OW21991   0.255   3.923   7.554  0.1478  0.3941  0.1717
 3510SOL    HW121992   0.247   3.946   7.646  1.5182  0.4789  0.2733
 3510SOL    HW221993   0.269   3.829   7.566 -0.5184  0.1647 -0.7489
 3511SOL     OW21994   2.657   0.422   2.990 -0.1386  0.0840 -0.5677
 3511SOL    HW121995   2.614   0.367   2.924 -1.2939 -0.1610  0.4072
 3511SOL    HW221996   2.727   0.455   2.933 -0.8749  3.0801  0.2687
 3512SOL     OW21997   4.261   2.511  10.544  0.2463  0.6403  0.2483
 3512SOL    HW121998   4.269   2.509  10.448  0.1261 -3.0675  0.3253
 3512SOL    HW221999   4.189   2.451  10.563  0.9666 -0.2736  0.0705
 3513SOL     OW22000   0.583   4.629  16.002  0.3132  0.0085  0.1784
 3513SOL    HW122001   0.598   4.679  15.921 -1.6986  0.4932  0.1189
 3513SOL    HW222002   0.626   4.687  16.065 -0.4231  0.8318 -0.0816
 3514SOL     OW22003   4.064   3.894  14.778  0.0009 -0.6196 -0.3158
 3514SOL    HW122004   4.056   3.815  14.831  0.8041 -0.5908 -0.1448
 3514SOL    HW222005   3.971   3.915  14.777 -0.1404 -1.2424 -0.0795
 3515SOL     OW22006   1.422   2.524   9.966 -1.0108  0.1286  0.2235
 3515SOL    HW122007   1.433   2.458   9.897 -0.6541  1.6331 -1.1732
 3515SOL    HW222008   1.419   2.471  10.045  1.6958 -1.0189 -0.4494
 3516SOL     OW22009   2.978   0.076   7.047  0.1855  0.1293  0.0095
 3516SOL    HW122010   3.009   0.071   7.137  0.2201  0.4552  0.0166
 3516SOL    HW222011   3.046   0.126   7.002 -1.0903  1.4601 -0.4414
 3517SOL     OW22012   3.024   3.223   2.483  0.4163 -0.3424 -0.1086
 3517SOL    HW122013   2.978   3.244   2.402  2.3658  1.5080 -0.7384
 3517SOL    HW222014   3.072   3.145   2.455  1.4775 -0.0231  0.8462
 3518SOL     OW22015   4.585   2.217   8.649 -0.0920  0.3211  0.2268
 3518SOL    HW122016   4.573   2.182   8.738 -1.3997  2.1536  0.7824
 3518SOL    HW222017   4.534   2.152   8.599 -0.7923  1.8296 -1.0084
 3519SOL     OW22018   0.247   0.156   8.103 -0.3684 -0.1792 -0.1930
 3519SOL    HW122019   0.312   0.090   8.079  0.5671  0.5864  0.2801
 3519SOL    HW222020   0.202   0.102   8.167  0.6708 -0.9910 -0.1566
 3520SOL     OW22021   1.927   1.669   6.293  0.6763  0.9049  0.0201
 3520SOL    HW122022   1.934   1.758   6.259  1.2573 -0.1892 -2.6853
 3520SOL    HW222023   2.005   1.648   6.345  0.6588  2.9062  0.8745
 3521SOL     OW22024   1.636   3.025   2.214 -0.6739  0.6190 -0.9713
 3521SOL    HW122025   1.555   3.059   2.250  0.0403 -0.1867  1.3679
 3521SOL    HW222026   1.703   3.089   2.236 -0.0002  0.2538 -1.9490
 3522SOL     OW22027   3.126   0.798   7.187  0.2818 -0.4845 -0.1145
 3522SOL    HW122028   3.031   0.797   7.193  0.2244  2.8610 -0.4923
 3522SOL    HW222029   3.142   0.832   7.098  1.7037  1.4881  0.8882
 3523SOL     OW22030   3.006   2.377   9.524 -0.9154 -0.8228  0.2291
 3523SOL    HW122031   3.038   2.452   9.574 -2.3620 -0.7692  1.0754
 3523SOL    HW222032   3.034   2.407   9.438 -0.6078 -1.9677 -0.0649
 3524SOL     OW22033   3.255   2.336   0.387 -0.5399 -0.2485  0.8687
 3524SOL    HW122034   3.317   2.371   0.452  0.9178  0.5103 -0.9513
 3524SOL    HW222035   3.219   2.424   0.375  0.7882  0.2091  0.2662
 3525SOL     OW22036   3.151   3.072  14.743 -0.4193  0.3229  0.2439
 3525SOL    HW122037   3.179   3.128  14.815 -0.3968 -0.7827  1.0969
 3525SOL    HW222038   3.064   3.038  14.763 -0.2047 -0.2055  0.2734
 3526SOL     OW22039   3.484   2.425  17.205 -0.2856  0.6536  0.1407
 3526SOL    HW122040   3.443   2.387  17.283  0.5931 -0.2321  0.1742
 3526SOL    HW222041   3.526   2.496  17.254 -2.3583  2.6120 -0.9533
 3527SOL     OW22042   2.770   4.384  16.665  0.4225 -0.4235 -0.0173
 3527SOL    HW122043   2.802   4.309  16.614  1.2014 -1.3049  1.7682
 3527SOL    HW222044   2.831   4.378  16.739 -0.3366  0.0685  0.6456
 3528SOL     OW22045   1.720   0.599   9.314 -0.3884  0.0605 -0.2881
 3528SOL    HW122046   1.784   0.644   9.259  0.1342  1.6979  1.6243
 3528SOL    HW222047   1.704   0.669   9.379 -0.8966  0.9070 -1.3273
 3529SOL     OW22048   0.698   3.275   8.411 -0.1743 -0.1006  0.3464
 3529SOL    HW122049   0.791   3.253   8.406  0.1784  1.2781  0.8276
 3529SOL    HW222050   0.692   3.356   8.359  0.1082 -0.7156 -0.6613
 3530SOL     OW22051   1.228   0.694   8.911 -0.5697 -0.0762 -0.1871
 3530SOL    HW122052   1.148   0.641   8.917  0.3929 -1.5533 -0.4398
 3530SOL    HW222053   1.306   0.656   8.951  1.6385  1.4950 -2.9605
 3531SOL     OW22054   3.400   3.942  14.598  0.5972  0.4787  0.2913
 3531SOL    HW122055   3.461   4.012  14.578  0.6630  1.4348  3.8232
 3531SOL    HW222056   3.415   3.926  14.692 -0.1850 -0.4572  0.2580
 3532SOL     OW22057   3.572   2.398   5.321  0.2617 -0.1124 -0.1824
 3532SOL    HW122058   3.502   2.335   5.306 -0.3363  0.1661  1.4888
 3532SOL    HW222059   3.588   2.405   5.415  1.2228 -0.3151 -0.3208
 3533SOL     OW22060   4.326   1.550  12.817 -0.1822 -0.4499  0.1795
 3533SOL    HW122061   4.293   1.588  12.898 -0.2915  0.0407 -0.0949
 3533SOL    HW222062   4.328   1.459  12.845  0.6646 -0.8857 -1.2533
 3534SOL     OW22063   4.640   0.429   6.977 -0.1135  0.2746 -0.1634
 3534SOL    HW122064   4.624   0.515   7.017  0.7952  0.5589 -0.4081
 3534SOL    HW222065   4.609   0.445   6.888  0.2290 -0.9444 -0.4977
 3535SOL     OW22066   3.405   1.134  13.831  0.2962 -0.2548  0.0496
 3535SOL    HW122067   3.365   1.047  13.827 -0.2657  0.0848 -1.5233
 3535SOL    HW222068   3.399   1.163  13.740  0.8983  1.2503  0.4963
 3536SOL     OW22069   1.406   1.359   5.752 -0.5889 -0.6122  0.2525
 3536SOL    HW122070   1.334   1.373   5.691 -0.3826  1.9806  0.6098
 3536SOL    HW222071   1.421   1.265   5.737  0.2120 -0.7489  1.8680
 3537SOL     OW22072   3.602   3.326  13.484 -0.1406  0.1026 -0.2239
 3537SOL    HW122073   3.629   3.409  13.445  2.6290 -1.2778 -1.2515
 3537SOL    HW222074   3.518   3.348  13.523  1.7569  1.5514  2.9809
 3538SOL     OW22075   2.745   3.832   4.106  0.4656  0.1958 -0.1163
 3538SOL    HW122076   2.721   3.890   4.034  0.0232 -0.3081 -0.3729
 3538SOL    HW222077   2.766   3.748   4.066  0.3003 -0.9940  2.2487
 3539SOL     OW22078   0.641   2.457   3.620  0.2237  0.2241  0.2113
 3539SOL    HW122079   0.634   2.552   3.616  0.3427  0.2022 -0.4833
 3539SOL    HW222080   0.718   2.445   3.676  2.2972  0.9374 -2.5234
 3540SOL     OW22081   1.546   1.005   2.557 -0.2852  0.3573  0.0014
 3540SOL    HW122082   1.588   1.090   2.550  0.3471  0.0634  0.1838
 3540SOL    HW222083   1.492   1.017   2.479 -0.5160  0.0334  0.1097
 3541SOL     OW22084   0.426   3.238   7.515 -0.2974 -0.0162 -0.5245
 3541SOL    HW122085   0.507   3.279   7.545  0.1773 -0.0190 -1.8156
 3541SOL    HW222086   0.452   3.180   7.443 -0.1054  1.0485 -1.3226
 3542SOL     OW22087   3.223   1.935  11.414  0.1391  0.2935 -0.2084
 3542SOL    HW122088   3.250   1.882  11.489  0.4029 -0.3021 -0.7239
 3542SOL    HW222089   3.296   1.921  11.353 -1.5159 -1.5964 -1.7736
 3543SOL     OW22090   3.078   0.928   4.844 -0.3355 -0.0544 -0.0895
 3543SOL    HW122091   3.144   0.968   4.788 -2.1035 -0.9692 -2.8199
 3543SOL    HW222092   3.134   0.884   4.908  1.6467  0.4749 -1.4743
 3544SOL     OW22093   4.381   2.390   2.579  0.0933  0.0507 -0.1221
 3544SOL    HW122094   4.292   2.425   2.589  0.0903 -0.5358  1.8947
 3544SOL    HW222095   4.387   2.374   2.485 -2.5539  0.6920 -0.4130
 3545SOL     OW22096   0.016   0.114   6.191 -0.1585 -0.0101 -0.1157
 3545SOL    HW122097   4.699   0.027   6.187  0.5838 -0.4226  1.6076
 3545SOL    HW222098   0.037   0.115   6.097 -0.8728 -1.2304 -0.2912
 3546SOL     OW22099   4.012   1.565   9.511 -0.1678  0.4456  0.2230
 3546SOL    HW122100   4.033   1.487   9.562  1.3195  1.0509  0.5320
 3546SOL    HW222101   4.064   1.629   9.558  1.8984 -0.3177 -1.0308
 3547SOL     OW22102   0.670   4.598   8.963 -0.0375  0.7629 -0.8019
 3547SOL    HW122103   0.690   4.530   8.899  1.2990  1.3528 -1.0107
 3547SOL    HW222104   0.575   4.587   8.965 -0.2030  2.6776  1.2433
 3548SOL     OW22105   4.532   3.050   2.834  0.1538 -0.0008  0.0881
 3548SOL    HW122106   4.613   3.064   2.883  1.5011 -1.0448 -1.8425
 3548SOL    HW222107   4.520   2.955   2.842  1.5759 -0.2890 -1.2499
 3549SOL     OW22108   0.368   3.562   4.000 -0.7217 -0.2817 -0.2266
 3549SOL    HW122109   0.397   3.474   4.022  1.1068  0.1636 -0.8938
 3549SOL    HW222110   0.402   3.577   3.912  0.5927 -0.7245  0.2196
 3550SOL     OW22111   2.870   1.822   1.858  0.8187 -0.0036  0.0206
 3550SOL    HW122112   2.965   1.825   1.867  0.5913 -0.6911  2.6024
 3550SOL    HW222113   2.844   1.914   1.865  1.3542  0.1703 -0.2675
 3551SOL     OW22114   0.511   3.848   3.046  0.0515 -0.6348 -0.2768
 3551SOL    HW122115   0.498   3.924   2.988 -0.4510 -0.0394  0.6227
 3551SOL    HW222116   0.419   3.831   3.063  0.0298 -0.5582 -0.3184
 3552SOL     OW22117   3.696   2.759   8.060 -0.0876  0.0906 -0.3147
 3552SOL    HW122118   3.672   2.771   7.969  0.0650 -1.2129 -0.5213
 3552SOL    HW222119   3.780   2.805   8.065  0.2546 -0.6406  0.7190
 3553SOL     OW22120   4.337   2.401  10.257 -0.3213 -0.0500  0.2636
 3553SOL    HW122121   4.393   2.343  10.309 -1.2278 -2.1765 -1.1380
 3553SOL    HW222122   4.385   2.483  10.262 -0.6753  0.2818 -1.9452
 3554SOL     OW22123   2.593   1.801   1.718 -0.3088 -0.0685  0.0559
 3554SOL    HW122124   2.578   1.804   1.623 -1.6540  0.6634  0.2846
 3554SOL    HW222125   2.560   1.886   1.748 -1.5135 -0.4698 -0.1142
 3555SOL     OW22126   0.503   3.247   4.104  0.3316  0.1355  0.1146
 3555SOL    HW122127   0.509   3.155   4.130  1.3721  0.3943  0.7863
 3555SOL    HW222128   0.445   3.293   4.165  1.9117  0.8567  1.0614
 3556SOL     OW22129   0.016   2.496   4.504 -0.2503 -0.2488 -1.1131
 3556SOL    HW122130   4.646   2.483   4.515 -0.7068  1.0493 -3.4473
 3556SOL    HW222131   0.045   2.533   4.588  2.1039  0.9145 -2.4408
 3557SOL     OW22132   2.159   3.034  14.956  0.1736  0.4582 -0.1986
 3557SOL    HW122133   2.183   3.120  14.923 -1.0261  0.4814 -0.9678
 3557SOL    HW222134   2.226   2.978  14.916 -0.0009 -0.6929  1.1113
 3558SOL     OW22135   3.234   3.829   7.798  0.1698 -0.1943  0.5387
 3558SOL    HW122136   3.232   3.768   7.872 -0.8553 -1.7450 -0.7945
 3558SOL    HW222137   3.199   3.771   7.730 -0.4108  2.3200 -1.2917
 3559SOL     OW22138   1.343   2.206   0.717 -0.6131 -0.0576 -0.6464
 3559SOL    HW122139   1.298   2.287   0.738 -3.5014 -1.8188  0.0056
 3559SOL    HW222140   1.428   2.232   0.682  0.2500  1.9709  3.0890
 3560SOL     OW22141   0.664   2.029  16.567 -0.4905  0.0228 -0.2095
 3560SOL    HW122142   0.736   2.064  16.619  0.7705 -1.9647 -0.6357
 3560SOL    HW222143   0.637   1.953  16.618 -0.2969 -0.9335 -1.5091
 3561SOL     OW22144   1.378   3.868   8.519  0.0097  0.0015 -0.2444
 3561SOL    HW122145   1.312   3.807   8.549 -0.5150 -0.0381 -1.4872
 3561SOL    HW222146   1.442   3.851   8.588 -1.0974 -1.1883  0.4766
 3562SOL     OW22147   1.156   2.606   3.483 -0.3161  0.3364  0.1109
 3562SOL    HW122148   1.129   2.530   3.431 -0.8945 -0.8372  2.1549
 3562SOL    HW222149   1.189   2.666   3.416 -0.8241 -1.2328 -1.5577
 3563SOL     OW22150   0.527   0.170   1.556 -0.4649 -0.6414 -0.2717
 3563SOL    HW122151   0.539   0.216   1.473 -2.3887  0.5728  0.1115
 3563SOL    HW222152   0.432   0.161   1.565 -0.5973 -0.7166 -1.7064
 3564SOL     OW22153   1.974   1.731  11.822 -0.6845 -0.6302 -0.0269
 3564SOL    HW122154   2.007   1.726  11.912 -0.3878  1.1895 -0.0287
 3564SOL    HW222155   1.893   1.781  11.832 -0.2926  0.2964 -1.4366
 3565SOL     OW22156   3.100   1.124  16.014  0.0168  0.3948  0.2929
 3565SOL    HW122157   3.097   1.032  16.041  0.7052  0.4575  0.5677
 3565SOL    HW222158   3.065   1.114  15.925 -0.5968  3.6657  0.1740
 3566SOL     OW22159   1.776   4.272   0.814 -0.1727 -0.3272 -0.5551
 3566SOL    HW122160   1.793   4.213   0.888 -1.2266  0.0801  0.0253
 3566SOL    HW222161   1.815   4.230   0.738  0.2463  0.3215 -0.6915
 3567SOL     OW22162   0.559   2.865   6.533 -0.0189 -0.1004  0.2190
 3567SOL    HW122163   0.588   2.857   6.624  2.8517  3.8281 -0.3308
 3567SOL    HW222164   0.583   2.956   6.517  0.5289 -0.5926 -1.7241
 3568SOL     OW22165   4.064   2.760   5.488  0.4017  1.1230 -0.1993
 3568SOL    HW122166   3.970   2.754   5.469  0.3439  1.0043  0.1155
 3568SOL    HW222167   4.088   2.688   5.431 -1.7956 -1.8396  2.6154
 3569SOL     OW22168   3.663   0.691   3.163  0.0832  0.7127  0.2947
 3569SOL    HW122169   3.660   0.767   3.221 -1.5410  1.1174 -0.3099
 3569SOL    HW222170   3.733   0.724   3.106  0.9698  1.5023  1.8658
 3570SOL     OW22171   1.616   2.875   0.301 -0.0255 -0.0766  0.0860
 3570SOL    HW122172   1.692   2.908   0.349  1.0532  0.9748 -2.3521
 3570SOL    HW222173   1.551   2.943   0.322 -0.2056 -0.1223 -0.3423
 3571SOL     OW22174   2.221   2.984  13.022 -0.5257 -0.0796  0.2169
 3571SOL    HW122175   2.300   3.001  13.073  1.1213  0.4028 -2.5404
 3571SOL    HW222176   2.248   3.014  12.935  1.1840  0.2408  0.8716
 3572SOL     OW22177   3.011   0.487  15.511  0.1790  0.0202  0.5932
 3572SOL    HW122178   2.978   0.406  15.472  0.8798  0.4933 -0.9938
 3572SOL    HW222179   2.933   0.542  15.500 -0.3719 -0.6034  1.3457
 3573SOL     OW22180   4.721   4.129   3.812  0.0901 -0.1301  0.5480
 3573SOL    HW122181   4.718   4.109   3.718  0.8267  1.0675  0.2848
 3573SOL    HW222182   0.070   4.189   3.818  0.4020 -0.4005 -0.5141
 3574SOL     OW22183   2.687   1.352   1.554  0.1465  0.7202 -0.3651
 3574SOL    HW122184   2.623   1.408   1.512 -0.7943 -0.3027 -0.2904
 3574SOL    HW222185   2.689   1.389   1.642 -1.9788  0.4775 -0.2339
 3575SOL     OW22186   4.006   1.279   0.134 -0.0979  0.7628 -0.0673
 3575SOL    HW122187   3.954   1.212   0.179 -0.0536  0.7636 -0.0145
 3575SOL    HW222188   4.091   1.237   0.147 -0.0415  0.6070 -0.9621
 3576SOL     OW22189   3.819   4.094   1.396 -0.4465 -1.0534  0.0161
 3576SOL    HW122190   3.882   4.113   1.326  1.0882 -2.9705  0.8952
 3576SOL    HW222191   3.814   3.998   1.396 -0.0831 -1.0687 -0.0756
 3577SOL     OW22192   0.219   2.692   0.327  0.7414  0.0260  0.2418
 3577SOL    HW122193   0.258   2.739   0.402  0.3143 -0.0793  0.5318
 3577SOL    HW222194   0.257   2.604   0.328 -0.0368 -0.3225 -1.3698
 3578SOL     OW22195   1.215   1.835   4.118  0.1010 -0.6162  0.0685
 3578SOL    HW122196   1.287   1.878   4.164  0.0403 -0.1099 -0.3059
 3578SOL    HW222197   1.256   1.821   4.032 -0.2429  0.3982 -0.2632
 3579SOL     OW22198   2.845   1.124   6.912 -0.2323  0.1046  0.0674
 3579SOL    HW122199   2.783   1.146   6.982 -1.7982 -0.7459 -1.0388
 3579SOL    HW222200   2.808   1.176   6.841 -0.2178  1.0112  0.7371
 3580SOL     OW22201   3.527   2.709  14.763 -0.3263  0.0964 -0.1998
 3580SOL    HW122202   3.475   2.728  14.842 -0.7273  0.6173 -0.5896
 3580SOL    HW222203   3.598   2.774  14.767 -1.9704  1.8305  1.0679
 3581SOL     OW22204   0.700   2.153   3.050  0.6030 -0.3094 -0.7834
 3581SOL    HW122205   0.710   2.242   3.083 -1.0711  0.3371 -2.0156
 3581SOL    HW222206   0.736   2.104   3.124 -0.4370 -2.3290 -1.5931
 3582SOL     OW22207   3.007   2.812   7.799 -0.2283 -0.0691 -0.6597
 3582SOL    HW122208   2.975   2.820   7.709  0.1064  0.5958 -0.7233
 3582SOL    HW222209   2.936   2.758   7.834  0.0074  1.0352  1.5507
 3583SOL     OW22210   2.167   0.446   0.662  0.4297 -0.0099 -0.2386
 3583SOL    HW122211   2.151   0.438   0.757  1.7151  0.0427 -0.0146
 3583SOL    HW222212   2.261   0.454   0.652  0.5871 -0.2375  0.9737
 3584SOL     OW22213   0.225   2.118   5.669  0.3284  0.7953  0.5557
 3584SOL    HW122214   0.286   2.183   5.704  1.2138  0.0800  0.3525
 3584SOL    HW222215   0.285   2.043   5.671 -0.1533  0.3824 -0.6172
 3585SOL     OW22216   2.356   0.232   0.772  0.6333 -0.5072 -0.0005
 3585SOL    HW122217   2.267   0.199   0.778  0.9834 -1.5030 -0.2465
 3585SOL    HW222218   2.405   0.194   0.845 -2.0029 -1.4008  1.2840
 3586SOL     OW22219   3.353   3.232   1.688  0.1757 -0.1477 -0.0163
 3586SOL    HW122220   3.262   3.240   1.660 -0.1080  1.5022  1.3399
 3586SOL    HW222221   3.378   3.324   1.683 -0.4676 -0.0415 -1.3559
 3587SOL     OW22222   4.635   3.380   0.926 -0.5837 -0.2513  1.5952
 3587SOL    HW122223   4.587   3.344   0.852 -1.1334  0.8812  1.4121
 3587SOL    HW222224   4.646   3.302   0.980 -0.2038 -1.5597 -0.3820
 3588SOL     OW22225   3.711   2.490   9.199 -0.3938  0.1232  0.1799
 3588SOL    HW122226   3.624   2.466   9.231 -0.8544 -0.0943 -1.1982
 3588SOL    HW222227   3.689   2.457   9.111  0.1629  0.3722 -0.0548
 3589SOL     OW22228   0.851   0.407   8.827 -0.4232  0.6148 -0.0532
 3589SOL    HW122229   0.757   0.389   8.829 -0.7098  2.1201 -0.5873
 3589SOL    HW222230   0.867   0.484   8.773  0.8202  0.0757 -0.4385
 3590SOL     OW22231   3.344   2.384   7.568  0.1318 -0.1448  0.4814
 3590SOL    HW122232   3.357   2.420   7.655  0.4057  0.3616  0.2267
 3590SOL    HW222233   3.385   2.297   7.568 -0.3919 -0.4014 -1.5711
 3591SOL     OW22234   0.500   4.287   4.808  0.0957  0.1810  0.0506
 3591SOL    HW122235   0.454   4.312   4.728  1.3657 -1.7934 -1.3073
 3591SOL    HW222236   0.473   4.195   4.816 -0.2207  0.3913  1.3027
 3592SOL     OW22237   2.865   0.397   0.556  0.1497  0.0216  0.2083
 3592SOL    HW122238   2.822   0.451   0.490 -2.2989 -2.1651  0.0099
 3592SOL    HW222239   2.957   0.395   0.528  0.5546  4.5315  1.2615
 3593SOL     OW22240   0.079   3.990  15.248  0.2339 -0.2595  0.1884
 3593SOL    HW122241   0.044   4.016  15.163 -1.1398  0.0606  0.8368
 3593SOL    HW222242   0.149   4.055  15.244  1.3485 -1.6260 -2.1761
 3594SOL     OW22243   2.740   1.063   4.556  0.1919  0.6743 -0.4825
 3594SOL    HW122244   2.795   0.985   4.564  1.6772  1.4409 -3.2495
 3594SOL    HW222245   2.771   1.114   4.630  0.2335 -1.6711  1.1136
 3595SOL     OW22246   0.420   4.184  14.938  0.0326 -0.0412 -0.4277
 3595SOL    HW122247   0.364   4.107  14.945  2.6802 -2.0023 -0.8037
 3595SOL    HW222248   0.495   4.162  14.992  0.4417 -1.3326 -1.5196
 3596SOL     OW22249   3.399   1.527  10.942 -0.1221 -0.4174  0.0717
 3596SOL    HW122250   3.317   1.488  10.911 -0.1332 -0.7822  0.5576
 3596SOL    HW222251   3.446   1.448  10.969  3.6836  1.4168 -1.2838
 3597SOL     OW22252   2.907   0.604  14.170  0.1188 -0.6992  0.0130
 3597SOL    HW122253   2.900   0.510  14.182 -3.2878 -0.4226  0.1786
 3597SOL    HW222254   2.972   0.631  14.236 -0.8222 -1.9932  1.4530
 3598SOL     OW22255   1.376   0.386   4.202 -0.4347  0.0706  0.4808
 3598SOL    HW122256   1.330   0.425   4.128  0.7654  0.6661  0.0514
 3598SOL    HW222257   1.407   0.472   4.232  0.6537  0.3508 -1.4669
 3599SOL     OW22258   1.093   4.593   3.291  0.1266 -0.3892  0.2135
 3599SOL    HW122259   1.084   4.630   3.203  1.5213  0.0060  0.2348
 3599SOL    HW222260   1.007   4.595   3.334  0.5079 -0.2501  0.9739
 3600SOL     OW22261   2.791   2.109   2.608 -0.1458 -0.4400  1.0943
 3600SOL    HW122262   2.779   2.153   2.524 -2.4725 -1.9266  0.6347
 3600SOL    HW222263   2.840   2.035   2.573 -1.2919  0.4533 -2.4096
 3601SOL     OW22264   2.694   0.430   6.907  0.0419 -0.0080  0.2743
 3601SOL    HW122265   2.633   0.454   6.837  0.5509  1.5745  0.3731
 3601SOL    HW222266   2.695   0.334   6.903 -1.0441 -0.1460  2.9789
 3602SOL     OW22267   1.441   0.296   4.837 -0.5912  0.4824  0.0404
 3602SOL    HW122268   1.406   0.258   4.918 -1.2365 -1.1928 -1.0250
 3602SOL    HW222269   1.472   0.376   4.880  2.0730 -0.4145 -0.2257
 3603SOL     OW22270   2.055   2.780   4.465  0.5517  0.9310 -0.1963
 3603SOL    HW122271   2.054   2.872   4.437  0.5014  1.0269  0.1206
 3603SOL    HW222272   1.962   2.763   4.449  0.8890 -2.8976  1.8736
 3604SOL     OW22273   3.356   4.494   9.067  0.2767 -0.1393 -0.3893
 3604SOL    HW122274   3.365   4.460   9.156 -1.7948  1.4591  0.4339
 3604SOL    HW222275   3.305   4.424   9.026 -0.3014 -0.3384  0.6558
 3605SOL     OW22276   0.788   0.625   9.133 -0.0589  0.2837 -0.4043
 3605SOL    HW122277   0.701   0.586   9.134 -0.8115  2.0919  3.6584
 3605SOL    HW222278   0.830   0.540   9.136  0.6575  0.5626 -2.4801
 3606SOL     OW22279   4.703   0.027  12.881 -0.2376  0.3974 -0.0457
 3606SOL    HW122280   0.074   0.035  12.881 -0.3607  2.0575 -1.2828
 3606SOL    HW222281   4.695   4.658  12.899 -3.1178  0.4266 -1.2296
 3607SOL     OW22282   3.074   4.356   0.323 -0.1485 -0.8810  0.2494
 3607SOL    HW122283   3.008   4.366   0.254 -0.2665  0.8593  0.6336
 3607SOL    HW222284   3.155   4.347   0.272 -0.3064 -0.9855  0.0136
 3608SOL     OW22285   4.373   2.370   5.159  0.0923 -0.2985  0.3685
 3608SOL    HW122286   4.435   2.300   5.140 -0.7063 -0.8667 -0.1292
 3608SOL    HW222287   4.433   2.441   5.185  0.6533 -0.8783  0.6608
 3609SOL     OW22288   0.697   0.926   4.271 -0.0247 -0.4134  0.2424
 3609SOL    HW122289   0.650   0.851   4.236  1.1620 -1.4523  0.9010
 3609SOL    HW222290   0.675   0.993   4.206  1.4252 -0.5805 -0.4268
 3610SOL     OW22291   0.374   2.648   1.728 -0.2777 -0.0095  0.0553
 3610SOL    HW122292   0.393   2.723   1.673  1.6139 -0.8019 -0.3870
 3610SOL    HW222293   0.281   2.633   1.711 -0.1041 -0.6328 -0.3196
 3611SOL     OW22294   1.678   0.774   6.385 -0.0288  0.5356  0.4358
 3611SOL    HW122295   1.646   0.686   6.404 -0.1083  1.1072  2.8920
 3611SOL    HW222296   1.633   0.839   6.440 -2.3674  0.2322 -1.1024
 3612SOL     OW22297   3.452   1.957   5.201 -0.0210  0.0042  0.4843
 3612SOL    HW122298   3.514   1.898   5.244  0.1419 -0.5234 -0.4457
 3612SOL    HW222299   3.365   1.916   5.207  0.7621 -1.6663  0.3773
 3613SOL     OW22300   1.729   0.944   9.206  0.4140 -0.1905 -0.1906
 3613SOL    HW122301   1.798   0.884   9.177 -1.8200 -3.4052  1.1792
 3613SOL    HW222302   1.675   0.939   9.127 -0.8678 -0.5584  0.7027
 3614SOL     OW22303   0.305   1.075   4.907  0.4144  0.5825 -0.1788
 3614SOL    HW122304   0.248   1.093   4.982  0.2287  0.0846 -0.1983
 3614SOL    HW222305   0.244   1.017   4.861  0.1592  0.3379  0.4660
 3615SOL     OW22306   1.413   0.463   1.530  0.0492 -0.2467  0.7919
 3615SOL    HW122307   1.474   0.395   1.500 -1.7665 -1.7955  0.6416
 3615SOL    HW222308   1.407   0.436   1.622 -1.4218  0.8827  1.0192
 3616SOL     OW22309   1.511   1.032   4.483 -0.1434  0.2001 -0.4331
 3616SOL    HW122310   1.423   1.016   4.449 -0.4443  2.0781 -0.5030
 3616SOL    HW222311   1.488   1.038   4.575  1.6261  2.4695 -0.1715
 3617SOL     OW22312   2.851   1.693   8.302  0.2459 -0.3020 -0.1752
 3617SOL    HW122313   2.767   1.725   8.334  1.3311  0.5205  1.8280
 3617SOL    HW222314   2.806   1.643   8.233  0.1298 -1.3876  0.6941
 3618SOL     OW22315   2.240   3.558  15.919  0.2678  0.0532 -0.1264
 3618SOL    HW122316   2.290   3.636  15.896  1.4090 -0.5167  0.4043
 3618SOL    HW222317   2.147   3.579  15.911  0.0980 -1.0843 -1.2366
 3619SOL     OW22318   3.242   0.953  11.664  0.5615  0.1202  0.2005
 3619SOL    HW122319   3.334   0.979  11.663  0.3301  1.0028  2.0032
 3619SOL    HW222320   3.207   1.016  11.728  1.3514 -0.1282  0.8619
 3620SOL     OW22321   3.337   1.025  14.943  0.2397 -0.3050 -0.2119
 3620SOL    HW122322   3.416   1.031  14.890  0.9199  1.9727  1.0483
 3620SOL    HW222323   3.359   1.064  15.027  0.7017 -0.1456 -0.4078
 3621SOL     OW22324   2.320   3.483   0.816  0.5117 -0.3957 -0.1643
 3621SOL    HW122325   2.286   3.572   0.830 -1.7629 -1.3297  0.2347
 3621SOL    HW222326   2.247   3.430   0.785  0.1486 -0.5660  0.9750
 3622SOL     OW22327   0.596   4.136   8.272 -0.2838 -0.1799 -0.2808
 3622SOL    HW122328   0.545   4.084   8.210 -1.1431 -0.1226  0.3848
 3622SOL    HW222329   0.525   4.178   8.320  0.3108  1.4954 -0.8613
 3623SOL     OW22330   4.476   1.243   2.858  0.1246 -0.6341  0.0775
 3623SOL    HW122331   4.442   1.176   2.799 -1.2727  1.6909 -1.7776
 3623SOL    HW222332   4.561   1.262   2.820  0.3598  1.3639  1.5983
 3624SOL     OW22333   2.261   2.046   1.515  0.1994 -0.9480 -0.1635
 3624SOL    HW122334   2.335   2.062   1.573  0.3777  2.1437 -1.2560
 3624SOL    HW222335   2.254   1.951   1.523 -3.0424 -0.8234 -1.5022
 3625SOL     OW22336   1.315   4.435   5.783 -1.0328  0.1515  0.4362
 3625SOL    HW122337   1.346   4.498   5.848  1.7216  1.0632 -1.7703
 3625SOL    HW222338   1.325   4.468   5.694  0.7292 -2.0531 -0.1844
 3626SOL     OW22339   0.518   4.372   5.424 -0.1879  0.0053  0.4069
 3626SOL    HW122340   0.446   4.324   5.382  0.5190 -0.4802 -0.2506
 3626SOL    HW222341   0.583   4.372   5.353  1.6784 -0.4999  2.1303
 3627SOL     OW22342   1.668   3.303   7.070 -0.2672  0.3619 -0.0907
 3627SOL    HW122343   1.636   3.333   6.984 -1.8942 -2.7397 -0.5678
 3627SOL    HW222344   1.636   3.370   7.130  2.3072  1.2799  0.2283
 3628SOL     OW22345   3.116   1.840   3.814 -0.0591 -0.1272 -0.4660
 3628SOL    HW122346   3.083   1.762   3.770  0.4724 -0.7578  0.2601
 3628SOL    HW222347   3.040   1.898   3.815 -0.3662 -0.5362 -0.4005
 3629SOL     OW22348   1.284   1.337   4.041 -0.3649  0.3875 -0.4144
 3629SOL    HW122349   1.276   1.371   3.951  0.3866 -2.6105 -1.6048
 3629SOL    HW222350   1.293   1.423   4.083  1.7765 -0.1176  0.1329
 3630SOL     OW22351   4.445   2.954  10.995 -0.5367  0.4007 -0.1489
 3630SOL    HW122352   4.367   2.915  10.957 -0.8826 -0.5414  1.5535
 3630SOL    HW222353   4.507   2.947  10.922 -0.1460  0.3913  0.1827
 3631SOL     OW22354   2.627   4.341  15.939 -0.1324 -0.2993 -0.0434
 3631SOL    HW122355   2.626   4.436  15.929 -0.8842 -0.1711  1.1636
 3631SOL    HW222356   2.537   4.321  15.967 -0.9638  1.5566 -1.4235
 3632SOL     OW22357   2.680   2.132   5.616 -0.2909  0.4980 -0.0661
 3632SOL    HW122358   2.662   2.051   5.569 -2.3536  1.3841 -0.7659
 3632SOL    HW222359   2.758   2.160   5.569 -0.2640 -1.0373 -0.9306
 3633SOL     OW22360   3.819   2.778   5.183  0.2816  0.4722 -0.4734
 3633SOL    HW122361   3.746   2.728   5.219  0.9535 -0.7067 -0.7494
 3633SOL    HW222362   3.800   2.772   5.089 -0.8834  2.9292 -0.3832
 3634SOL     OW22363   4.406   1.531   7.848 -0.4219  0.5663 -0.2520
 3634SOL    HW122364   4.340   1.467   7.872 -2.2275  2.7610  0.5834
 3634SOL    HW222365   4.385   1.549   7.756  0.5934 -1.3565 -0.8648
 3635SOL     OW22366   0.811   0.516  10.978 -0.1413  0.2008 -0.4207
 3635SOL    HW122367   0.870   0.591  10.969 -0.8988  0.9529  0.8611
 3635SOL    HW222368   0.803   0.503  11.072 -0.8507 -0.5720 -0.5833
 3636SOL     OW22369   3.113   1.240   9.806  0.1320  0.3850  0.8532
 3636SOL    HW122370   3.075   1.321   9.772 -2.9742 -1.5387 -0.1812
 3636SOL    HW222371   3.035   1.199   9.842 -0.8504  2.5452  1.1471
 3637SOL     OW22372   1.529   0.554   5.467  0.0514 -0.1145  0.2511
 3637SOL    HW122373   1.578   0.631   5.440 -1.5558  0.2697 -1.6063
 3637SOL    HW222374   1.488   0.587   5.547  3.1193  1.7695  1.0469
 3638SOL     OW22375   0.868   3.296   1.621 -0.0539 -0.1897  0.2920
 3638SOL    HW122376   0.813   3.274   1.546 -0.3810  2.8369 -0.3360
 3638SOL    HW222377   0.822   3.265   1.699 -0.1252  0.3549  0.4691
 3639SOL     OW22378   1.422   2.088  10.855 -0.1671  0.5533 -0.1408
 3639SOL    HW122379   1.410   2.178  10.824  2.0120  0.9674  0.2244
 3639SOL    HW222380   1.497   2.097  10.914 -1.0131  2.9605  0.5596
 3640SOL     OW22381   0.033   3.279   2.768  0.3787 -0.1670  0.4249
 3640SOL    HW122382   0.076   3.362   2.744  0.7284 -0.8722 -1.3573
 3640SOL    HW222383   4.666   3.300   2.749  0.8101  1.0968 -0.2236
 3641SOL     OW22384   1.258   3.258  14.761 -0.4074  0.7527  0.5587
 3641SOL    HW122385   1.177   3.219  14.727  1.0209  0.4714 -2.4398
 3641SOL    HW222386   1.294   3.193  14.822  0.4172  2.6585  2.1037
 3642SOL     OW22387   0.421   0.848   5.026  0.5369  0.1457  0.6190
 3642SOL    HW122388   0.484   0.861   4.956 -0.7174  0.1279 -0.5091
 3642SOL    HW222389   0.357   0.914   5.001  1.2515  1.1809  1.4932
 3643SOL     OW22390   2.873   1.052   1.190 -0.1540  0.1524  0.0907
 3643SOL    HW122391   2.855   1.131   1.241 -1.5130 -0.4925  0.6239
 3643SOL    HW222392   2.968   1.043   1.197  0.0338  1.1768 -1.0986
 3644SOL     OW22393   1.070   3.533  11.803  0.8708  0.3443  0.7354
 3644SOL    HW122394   1.160   3.549  11.774  1.4004 -1.6216  1.2932
 3644SOL    HW222395   1.042   3.480  11.728 -0.8185 -0.0266  1.6452
 3645SOL     OW22396   0.845   3.130   5.975 -0.0035  0.3597  0.1654
 3645SOL    HW122397   0.932   3.115   5.936 -1.2894 -1.4188 -2.0069
 3645SOL    HW222398   0.853   3.206   6.032 -0.6914  1.0474 -0.6800
 3646SOL     OW22399   3.547   1.261   6.784 -0.2416  0.4155  0.0423
 3646SOL    HW122400   3.605   1.193   6.750 -0.4104  0.9187 -1.2288
 3646SOL    HW222401   3.611   1.297   6.846 -0.5267 -2.0485  1.7623
 3647SOL     OW22402   3.270   3.723   2.106 -0.5121 -0.5939 -0.3089
 3647SOL    HW122403   3.279   3.817   2.088  0.7937 -0.6125  0.1984
 3647SOL    HW222404   3.182   3.710   2.141 -0.8356 -0.0347 -0.9209
 3648SOL     OW22405   0.164   4.384   3.861 -0.0095 -0.0506 -0.4215
 3648SOL    HW122406   0.258   4.399   3.869 -0.0288  0.1666 -0.6105
 3648SOL    HW222407   0.157   4.324   3.936  1.5321 -0.0075 -0.2491
 3649SOL     OW22408   1.166   1.356  11.443 -0.4026 -0.5517 -0.8135
 3649SOL    HW122409   1.112   1.291  11.398 -1.0066  0.5656 -1.7393
 3649SOL    HW222410   1.179   1.418  11.371  0.8443 -1.1210 -1.0806
 3650SOL     OW22411   2.369   3.835   7.192 -0.6558  0.1646  0.5058
 3650SOL    HW122412   2.306   3.862   7.125  1.5720 -1.4154 -2.2220
 3650SOL    HW222413   2.321   3.792   7.263 -0.3545 -2.1539 -0.7023
 3651SOL     OW22414   3.358   2.968   2.710  0.0591  0.0466 -0.0587
 3651SOL    HW122415   3.332   3.036   2.771  0.4422  0.0678  0.0754
 3651SOL    HW222416   3.381   2.895   2.767 -0.7022 -0.8746 -0.9183
 3652SOL     OW22417   2.420   1.636  11.833 -0.0189  0.6929 -0.0404
 3652SOL    HW122418   2.502   1.601  11.869 -0.5503  1.2225  1.6705
 3652SOL    HW222419   2.368   1.625  11.912  0.0714  0.8199  0.0365
 3653SOL     OW22420   2.686   2.674   4.787  0.0865  0.3912  0.1375
 3653SOL    HW122421   2.667   2.760   4.752 -0.9475  0.5399  1.0653
 3653SOL    HW222422   2.646   2.612   4.726  0.1980  1.7936 -1.3459
 3654SOL     OW22423   0.372   3.252   9.522 -0.1459  0.0251 -0.1311
 3654SOL    HW122424   0.311   3.187   9.488 -0.4198 -1.0274  2.3648
 3654SOL    HW222425   0.339   3.256   9.612  2.5526 -0.2237  0.8722
 3655SOL     OW22426   4.463   3.520   1.102 -0.8074 -0.5021  0.4051
 3655SOL    HW122427   4.532   3.569   1.145 -0.3557  0.4605 -1.4009
 3655SOL    HW222428   4.513   3.465   1.042  1.7146  0.8853  1.2623
 3656SOL     OW22429   2.492   2.376  10.290  0.1291  0.0774 -0.7446
 3656SOL    HW122430   2.508   2.337  10.204  1.2405 -0.5021 -0.2643
 3656SOL    HW222431   2.437   2.308  10.330 -0.4145 -0.5216 -2.5307
 3657SOL     OW22432   2.440   2.756   7.523  0.1538 -0.1412  0.2770
 3657SOL    HW122433   2.528   2.789   7.507 -0.5684  0.5834 -2.0937
 3657SOL    HW222434   2.384   2.829   7.497  0.3821  0.2035  0.7559
 3658SOL     OW22435   4.423   2.386   1.684  0.0972 -0.1737  0.2400
 3658SOL    HW122436   4.500   2.343   1.644 -0.5211  0.1669 -1.3208
 3658SOL    HW222437   4.368   2.414   1.612 -0.7239  2.8679  2.0748
 3659SOL     OW22438   1.345   3.218   7.362 -0.3290 -0.3942 -0.0523
 3659SOL    HW122439   1.280   3.181   7.302 -0.4475 -2.1132  1.1374
 3659SOL    HW222440   1.353   3.304   7.320  0.6340 -1.5148 -2.1463
 3660SOL     OW22441   0.637   3.363   7.611 -0.4004 -0.2421 -0.4531
 3660SOL    HW122442   0.620   3.457   7.604 -2.2003 -0.4383  1.5399
 3660SOL    HW222443   0.644   3.345   7.705  0.5591  0.4555 -0.3927
 3661SOL     OW22444   4.684   0.176   5.448 -0.4161 -0.0113 -0.8985
 3661SOL    HW122445   0.009   0.094   5.456 -0.0564  0.1346 -1.5301
 3661SOL    HW222446   4.636   0.161   5.366 -0.5995  0.9276 -0.9537
 3662SOL     OW22447   1.321   4.085   7.976  0.4245  0.1805  0.1483
 3662SOL    HW122448   1.290   4.165   8.018  1.0413  0.8382 -0.6638
 3662SOL    HW222449   1.270   4.087   7.895 -0.6308  1.3042  0.8453
 3663SOL     OW22450   0.620   3.925   4.541  0.8347 -0.4830  0.2287
 3663SOL    HW122451   0.681   3.997   4.556 -0.8553  0.2659  3.5505
 3663SOL    HW222452   0.579   3.954   4.460 -0.5530 -0.7972  0.8143
 3664SOL     OW22453   4.186   1.370   1.120 -0.7514 -0.2759 -0.0226
 3664SOL    HW122454   4.101   1.354   1.160  0.1678 -0.9654  1.6584
 3664SOL    HW222455   4.219   1.281   1.130  0.8943  0.3407  0.1015
 3665SOL     OW22456   3.310   3.985   6.879 -0.5205  0.3294 -0.0611
 3665SOL    HW122457   3.316   4.079   6.864 -0.7901  0.6313  1.7371
 3665SOL    HW222458   3.311   3.989   6.975  1.2380  2.9837 -0.1989
 3666SOL     OW22459   4.490   1.017   7.797 -0.1344 -0.4026  0.2694
 3666SOL    HW122460   4.405   0.978   7.818 -1.5783  1.1670 -2.6801
 3666SOL    HW222461   4.468   1.056   7.712 -1.3459  0.3373  0.9168
 3667SOL     OW22462   3.715   3.642  16.849 -0.1484 -0.2148  0.3087
 3667SOL    HW122463   3.788   3.702  16.835  0.3067 -1.0658 -0.9806
 3667SOL    HW222464   3.735   3.578  16.780  2.2952  0.0949  0.7380
 3668SOL     OW22465   2.863   3.046   2.309 -0.4700  0.0387  0.2198
 3668SOL    HW122466   2.934   2.982   2.303 -0.9755 -0.5561  0.5869
 3668SOL    HW222467   2.855   3.072   2.217  3.0569  0.9994  0.2270
 3669SOL     OW22468   2.852   1.320   1.863 -0.1381 -0.1812  0.3386
 3669SOL    HW122469   2.878   1.264   1.790  0.3530 -1.1641  1.2752
 3669SOL    HW222470   2.804   1.391   1.820 -1.8329 -1.1004  0.7339
 3670SOL     OW22471   2.539   3.954   3.428  0.0216  0.4853 -0.5586
 3670SOL    HW122472   2.608   4.005   3.470 -0.8775 -1.0236  2.7567
 3670SOL    HW222473   2.475   3.926   3.494  0.2922  0.6326 -0.2381
 3671SOL     OW22474   3.146   0.368   3.956  0.1710  0.1967 -0.1939
 3671SOL    HW122475   3.171   0.302   4.020 -0.5027  1.4633  1.3616
 3671SOL    HW222476   3.190   0.334   3.878  0.5861  0.4506 -0.0749
 3672SOL     OW22477   0.154   0.125   6.459 -0.4917  0.1224  0.2649
 3672SOL    HW122478   0.077   0.129   6.403 -0.3455 -0.5100  0.0230
 3672SOL    HW222479   0.114   0.098   6.541 -3.2237  0.1678 -1.0401
 3673SOL     OW22480   1.794   3.795  15.384 -0.6016  0.3046 -0.3073
 3673SOL    HW122481   1.853   3.774  15.456  0.6010  1.7485 -0.8618
 3673SOL    HW222482   1.725   3.835  15.437 -1.6105 -0.4063 -1.0725
 3674SOL     OW22483   2.480   1.808   4.259  0.3978 -0.0129  0.8049
 3674SOL    HW122484   2.398   1.792   4.212  1.1356 -1.1218 -0.1218
 3674SOL    HW222485   2.459   1.745   4.327 -1.2547 -1.0682 -0.6995
 3675SOL     OW22486   0.888   4.468   0.446 -0.0306  0.2241 -0.1333
 3675SOL    HW122487   0.954   4.441   0.381 -1.3486 -1.6893 -0.6473
 3675SOL    HW222488   0.905   4.409   0.519 -0.0806  1.6890  1.0510
 3676SOL     OW22489   1.522   4.060   4.790 -0.5600  0.0048  0.3325
 3676SOL    HW122490   1.530   3.970   4.823  2.9276  0.7637  1.4907
 3676SOL    HW222491   1.430   4.081   4.809 -0.2984  0.7013  0.8195
 3677SOL     OW22492   1.712   0.691   3.903  0.3887 -0.1720  0.3274
 3677SOL    HW122493   1.718   0.597   3.922 -0.8206 -0.5362 -1.0927
 3677SOL    HW222494   1.629   0.700   3.949  1.1118 -0.1243  1.6143
 3678SOL     OW22495   1.060   4.422   9.734  0.2596  0.0496  0.0824
 3678SOL    HW122496   1.089   4.436   9.644  2.3139  0.6044  0.8343
 3678SOL    HW222497   1.145   4.401   9.772  0.8740  0.4127 -1.0762
 3679SOL     OW22498   4.608   3.213   3.730 -0.0544  0.4780 -0.2897
 3679SOL    HW122499   4.531   3.156   3.728 -0.3865  0.9698 -1.3087
 3679SOL    HW222500   4.615   3.250   3.642  0.5274  1.5064  0.1844
 3680SOL     OW22501   1.513   1.936   7.978  0.2007  0.3811  0.5242
 3680SOL    HW122502   1.492   1.916   7.886 -0.0315 -0.7492  0.8136
 3680SOL    HW222503   1.609   1.942   7.976  0.1782  0.9069  1.1941
 3681SOL     OW22504   4.395   4.489   9.374 -0.0269  0.0587  0.3816
 3681SOL    HW122505   4.489   4.469   9.376 -0.4101 -1.6257  0.7629
 3681SOL    HW222506   4.386   4.503   9.279 -0.6587 -0.5885  0.3520
 3682SOL     OW22507   4.566   3.886  11.478  0.2778 -0.1318 -0.4787
 3682SOL    HW122508   4.570   3.980  11.490 -3.9094  0.0766 -0.7158
 3682SOL    HW222509   4.650   3.846  11.498  0.2226  0.5000  0.9961
 3683SOL     OW22510   3.449   3.127   0.420  0.7836 -0.0196  0.1597
 3683SOL    HW122511   3.510   3.122   0.347  0.5985  0.6019 -0.0286
 3683SOL    HW222512   3.481   3.199   0.475  0.8111 -0.9802  1.4131
 3684SOL     OW22513   1.970   2.273   6.783  0.2577  0.4941 -0.2122
 3684SOL    HW122514   1.878   2.281   6.758 -0.7596  0.3649  3.5911
 3684SOL    HW222515   1.994   2.351   6.732 -0.0428  1.8234  1.6554
 3685SOL     OW22516   1.025   2.859   5.154  0.1101  0.1273 -0.0118
 3685SOL    HW122517   1.109   2.881   5.114  0.4548 -0.6106  0.3109
 3685SOL    HW222518   1.040   2.766   5.141  0.4465  0.2146 -0.2573
 3686SOL     OW22519   4.503   0.286   7.656  0.0907 -0.3348 -0.3419
 3686SOL    HW122520   4.409   0.302   7.645  0.4225  1.3288 -0.7570
 3686SOL    HW222521   4.523   0.339   7.732  0.8715 -1.0430 -0.0574
 3687SOL     OW22522   2.638   2.392  17.503  0.5222 -0.7150 -0.0863
 3687SOL    HW122523   2.548   2.418  17.482  0.6326 -0.1834  0.0930
 3687SOL    HW222524   2.664   2.418  17.591  0.8891 -2.3834  0.2962
 3688SOL     OW22525   3.779   1.039  15.221  0.1915  0.3576  0.0518
 3688SOL    HW122526   3.828   0.974  15.170 -1.0790  0.4739 -1.2861
 3688SOL    HW222527   3.741   0.976  15.282  1.1956 -0.3049 -0.0046
 3689SOL     OW22528   2.756   3.121   7.473 -0.4467  0.1945  0.5893
 3689SOL    HW122529   2.727   3.132   7.383  1.6495  1.1767  0.0377
 3689SOL    HW222530   2.671   3.123   7.518 -0.8607  0.5869 -0.2164
 3690SOL     OW22531   2.922   2.405   4.976 -0.1245  0.2222 -0.4509
 3690SOL    HW122532   2.987   2.476   4.981  0.1965 -0.2663  2.5249
 3690SOL    HW222533   2.933   2.369   5.064  3.4567 -1.3214 -1.5183
 3691SOL     OW22534   2.801   2.267   9.932  0.0416  0.1152  0.7623
 3691SOL    HW122535   2.808   2.262  10.027 -0.4747  0.1819  0.8048
 3691SOL    HW222536   2.790   2.174   9.911  0.2335 -0.0168  1.2379
 3692SOL     OW22537   2.543   4.307   8.792 -0.5157 -0.0173  0.1930
 3692SOL    HW122538   2.581   4.315   8.879 -1.5897 -0.4768  0.7114
 3692SOL    HW222539   2.546   4.401   8.774  1.0878  0.0086  0.6418
 3693SOL     OW22540   3.557   4.451   2.567  0.4385 -0.2225 -0.2671
 3693SOL    HW122541   3.562   4.459   2.472 -0.3864 -2.5180 -0.4955
 3693SOL    HW222542   3.528   4.361   2.575  0.7760 -0.2910  0.2000
 3694SOL     OW22543   3.781   4.502   3.436 -0.2891  0.2908  0.2835
 3694SOL    HW122544   3.768   4.448   3.514  0.3318  1.5839  1.2699
 3694SOL    HW222545   3.693   4.529   3.412 -1.0137 -0.8628  1.6417
 3695SOL     OW22546   2.361   0.606   2.794  0.1850  0.2694 -0.5176
 3695SOL    HW122547   2.392   0.516   2.783  0.8992  0.5266 -0.6602
 3695SOL    HW222548   2.422   0.661   2.745 -0.0249  2.8542  2.1151
 3696SOL     OW22549   0.520   0.213   9.676  0.0713  0.3066 -0.4317
 3696SOL    HW122550   0.532   0.280   9.743  0.5087 -1.1051  0.8766
 3696SOL    HW222551   0.492   0.141   9.732  0.8088 -1.3064 -2.1113
 3697SOL     OW22552   0.247   0.087  12.903  0.1068  0.0029 -0.8998
 3697SOL    HW122553   0.301   0.137  12.965 -2.0456  2.2045 -0.7652
 3697SOL    HW222554   0.309   0.059  12.836 -0.3427 -0.9376 -0.9081
 3698SOL     OW22555   2.432   2.333  17.314  0.1061  0.2602 -0.1117
 3698SOL    HW122556   2.382   2.316  17.235  1.0589  1.3534 -0.9599
 3698SOL    HW222557   2.377   2.285  17.375 -0.2084 -0.1142 -0.6897
 3699SOL     OW22558   0.632   2.805   6.787 -0.2268  0.0811 -0.2604
 3699SOL    HW122559   0.627   2.773   6.877  0.5394  3.4904  0.9794
 3699SOL    HW222560   0.727   2.797   6.772 -0.0430  1.4931  0.1670
 3700SOL     OW22561   0.201   0.342   7.018  0.2180 -0.8837  0.0081
 3700SOL    HW122562   0.225   0.406   6.951  2.0822  0.5097  2.0019
 3700SOL    HW222563   0.106   0.355   7.025  0.2377 -0.7414  0.0246
 3701SOL     OW22564   3.811   1.373   9.727 -0.0130  0.0499  0.2226
 3701SOL    HW122565   3.823   1.360   9.633 -2.3705 -0.5629  0.0158
 3701SOL    HW222566   3.776   1.286   9.746  1.5543 -0.8519 -1.0053
 3702SOL     OW22567   4.009   0.136   3.335  0.3577 -0.5489 -0.2631
 3702SOL    HW122568   3.972   0.150   3.422 -0.7603 -2.1640 -0.4717
 3702SOL    HW222569   3.931   0.098   3.294  0.0944 -1.6728  1.2670
 3703SOL     OW22570   2.596   3.227   4.615 -0.1081 -0.1394 -0.3513
 3703SOL    HW122571   2.524   3.233   4.552 -2.8904  0.8172  2.9563
 3703SOL    HW222572   2.579   3.294   4.680  0.2163 -0.0624 -0.3446
 3704SOL     OW22573   3.841   2.575  12.177  0.5006 -0.5232  0.1204
 3704SOL    HW122574   3.912   2.632  12.147  0.2560  0.0741  0.6863
 3704SOL    HW222575   3.786   2.601  12.104  0.0539 -1.2874  0.1805
 3705SOL     OW22576   3.375   1.103   2.423  0.6103  0.9782  0.0472
 3705SOL    HW122577   3.403   1.079   2.334 -0.0904 -0.9236  0.3395
 3705SOL    HW222578   3.430   1.179   2.439  0.7088  0.4328  2.3357
 3706SOL     OW22579   0.827   1.272  11.179  0.6341  0.5117 -0.0755
 3706SOL    HW122580   0.870   1.246  11.097  1.1103  1.0734 -0.0034
 3706SOL    HW222581   0.865   1.360  11.182 -0.1546  1.0242 -4.8466
 3707SOL     OW22582   2.171   0.653   5.788  0.4963  0.7005 -1.2175
 3707SOL    HW122583   2.170   0.735   5.836 -1.3847  0.0954 -0.2281
 3707SOL    HW222584   2.177   0.585   5.855  2.1776  0.2512 -1.8331
 3708SOL     OW22585   4.640   0.741  14.670  0.0317  0.2515 -0.1439
 3708SOL    HW122586   4.616   0.781  14.587  2.9606  3.2739  0.5183
 3708SOL    HW222587   4.617   0.651  14.647 -1.2081  0.8880 -1.4053
 3709SOL     OW22588   1.648   2.357   4.200 -0.1036  0.1834  0.5217
 3709SOL    HW122589   1.674   2.448   4.186  2.3804 -0.5531  0.3953
 3709SOL    HW222590   1.714   2.318   4.258 -0.4208 -1.8588 -0.4744
 3710SOL     OW22591   2.340   2.606   6.805  0.3579 -0.5502 -0.2805
 3710SOL    HW122592   2.294   2.538   6.756 -1.3156 -0.3391  0.9908
 3710SOL    HW222593   2.398   2.642   6.737  0.0041  1.7474  0.6154
 3711SOL     OW22594   1.285   0.017  12.819 -0.1906  0.3307  0.4090
 3711SOL    HW122595   1.312   4.689  12.743 -1.6351 -1.5194  1.1720
 3711SOL    HW222596   1.370   0.015  12.863 -0.0896  2.0179  0.2904
 3712SOL     OW22597   1.697   3.051   7.113  0.2429  0.2715  0.3870
 3712SOL    HW122598   1.674   3.144   7.115 -0.2910  0.1691 -1.3457
 3712SOL    HW222599   1.671   3.041   7.021  1.3982  1.2849 -0.0504
 3713SOL     OW22600   3.183   3.035  15.718 -0.0978 -0.0569 -0.0659
 3713SOL    HW122601   3.104   3.037  15.772 -0.7869 -0.0881 -1.0691
 3713SOL    HW222602   3.161   3.000  15.632  1.0716 -0.4000 -0.2205
 3714SOL     OW22603   3.842   4.440  17.433 -0.2720  0.2697 -0.6821
 3714SOL    HW122604   3.805   4.517  17.391 -0.3277  0.2122 -0.7388
 3714SOL    HW222605   3.767   4.382  17.449  0.3051 -0.8855 -2.1639
 3715SOL     OW22606   2.012   2.091  10.862  0.3581  0.5024  0.5979
 3715SOL    HW122607   1.933   2.145  10.857 -0.8826 -1.0829  3.0193
 3715SOL    HW222608   2.034   2.070  10.771 -1.6101 -0.0234  0.2481
 3716SOL     OW22609   0.802   3.770   2.145  0.4649 -0.2356 -0.5386
 3716SOL    HW122610   0.869   3.806   2.088 -0.9730 -1.0279 -2.7300
 3716SOL    HW222611   0.826   3.677   2.144  1.1605 -0.0455 -1.6487
 3717SOL     OW22612   1.991   4.693  11.534 -0.5261 -0.2275 -0.4882
 3717SOL    HW122613   1.914   4.708  11.479 -1.2545  1.3975  0.9746
 3717SOL    HW222614   1.956   4.717  11.620  0.5831 -0.3880  0.0158
 3718SOL     OW22615   2.458   3.878   8.080 -0.0965 -0.3169 -0.0107
 3718SOL    HW122616   2.423   3.868   7.992 -0.7928  0.3120  0.1941
 3718SOL    HW222617   2.496   3.964   8.067 -1.3405  0.2008 -0.1885
 3719SOL     OW22618   3.882   3.913   3.152  0.4985 -0.2929  0.2796
 3719SOL    HW122619   3.890   4.005   3.179  3.4106 -0.7333  0.8259
 3719SOL    HW222620   3.834   3.867   3.221  2.1669 -0.8613  1.0386
 3720SOL     OW22621   3.305   3.490   8.324  0.0119 -0.2775  0.1815
 3720SOL    HW122622   3.364   3.489   8.248 -0.6944 -2.5929 -0.3344
 3720SOL    HW222623   3.346   3.560   8.374 -1.5033 -0.0546  1.0994
 3721SOL     OW22624   1.732   3.098  10.177 -0.0101  0.5865 -0.1691
 3721SOL    HW122625   1.769   3.044  10.107 -0.1050 -0.2247  0.4134
 3721SOL    HW222626   1.818   3.128  10.206 -0.3168  1.9936 -0.7191
 3722SOL     OW22627   1.224   0.628   6.042 -0.7242  0.5091 -0.3679
 3722SOL    HW122628   1.179   0.563   6.095  0.1304  0.4142  0.2422
 3722SOL    HW222629   1.194   0.711   6.078  2.7972  0.2021  3.2804
 3723SOL     OW22630   0.360   2.022   3.173  0.1196 -0.9000 -0.6043
 3723SOL    HW122631   0.418   2.093   3.202  1.3325 -0.6175 -3.8014
 3723SOL    HW222632   0.311   2.068   3.105  0.7882  0.5491 -0.1011
 3724SOL     OW22633   2.723   3.815   2.070 -0.1152  0.2081 -0.6485
 3724SOL    HW122634   2.720   3.742   2.132 -0.8635 -1.1809 -2.3201
 3724SOL    HW222635   2.663   3.780   2.004 -2.2650  1.3643  0.6872
 3725SOL     OW22636   0.940   3.473  10.172  0.0261  0.2744  0.2598
 3725SOL    HW122637   0.904   3.556  10.139 -2.1035 -0.0845  1.6753
 3725SOL    HW222638   0.933   3.484  10.267  0.8946  1.9672  0.1442
 3726SOL     OW22639   3.105   1.672   2.728 -0.1217 -0.5097  0.3291
 3726SOL    HW122640   3.179   1.611   2.725 -1.2953 -1.9754  1.1808
 3726SOL    HW222641   3.045   1.612   2.770  2.4069 -3.0728  0.3038
 3727SOL     OW22642   2.424   2.552   4.191 -0.3760  0.2953  0.1144
 3727SOL    HW122643   2.500   2.557   4.248 -0.6906  2.0579  0.3882
 3727SOL    HW222644   2.353   2.535   4.253 -0.0821 -2.6449 -0.3433
 3728SOL     OW22645   3.972   1.089   0.514  0.4046 -0.0695 -0.3934
 3728SOL    HW122646   3.937   1.164   0.562 -0.7614 -1.2906  0.6575
 3728SOL    HW222647   3.913   1.068   0.443 -0.7034  2.0292 -0.0887
 3729SOL     OW22648   3.059   3.513  16.631  0.2928  0.4481 -0.0433
 3729SOL    HW122649   3.119   3.561  16.689  1.3103  2.5803 -2.8339
 3729SOL    HW222650   3.078   3.564  16.552 -1.5179  1.5657  0.2548
 3730SOL     OW22651   3.822   4.419   2.705 -0.5732 -0.1852  0.5496
 3730SOL    HW122652   3.736   4.425   2.663 -0.4337 -1.3755  0.1022
 3730SOL    HW222653   3.875   4.473   2.647 -0.7192 -0.8595 -0.2109
 3731SOL     OW22654   3.552   0.917  16.693 -0.0345 -0.0974  0.1779
 3731SOL    HW122655   3.503   0.834  16.692  0.9211 -0.6602  1.0287
 3731SOL    HW222656   3.621   0.895  16.631  3.1974 -0.1986  3.8354
 3732SOL     OW22657   3.741   0.472   6.917  0.0627 -0.2507  0.1686
 3732SOL    HW122658   3.765   0.380   6.907  0.8502 -0.0608  0.3065
 3732SOL    HW222659   3.783   0.507   6.995 -0.7868  0.7485  0.1873
 3733SOL     OW22660   0.824   4.109   9.521  0.5292  0.2028  0.0215
 3733SOL    HW122661   0.846   4.017   9.533  1.8237  0.4265 -0.6130
 3733SOL    HW222662   0.895   4.146   9.573 -0.1466 -0.7038  1.5508
 3734SOL     OW22663   1.856   4.672   7.993  0.4459 -0.1048  0.0201
 3734SOL    HW122664   1.765   4.691   8.018 -0.0946 -3.0809  0.3997
 3734SOL    HW222665   1.905   0.025   8.019 -0.3763  0.6071 -0.5843
 3735SOL     OW22666   1.531   1.252   8.469 -0.3874  0.5060 -0.2290
 3735SOL    HW122667   1.576   1.178   8.429 -0.6431  0.4321 -0.3801
 3735SOL    HW222668   1.452   1.265   8.416 -0.1639 -2.6401 -1.3369
 3736SOL     OW22669   4.385   0.401   5.763 -0.0232  0.1760  0.4186
 3736SOL    HW122670   4.354   0.484   5.800 -0.9496  0.2287 -0.4931
 3736SOL    HW222671   4.399   0.349   5.842  1.4208  2.3020  1.5619
 3737SOL     OW22672   1.391   2.489  11.608 -0.0228  0.2787 -0.0646
 3737SOL    HW122673   1.347   2.552  11.664 -1.0174 -0.0340 -0.5007
 3737SOL    HW222674   1.379   2.530  11.522  0.2765 -1.7725 -1.0989
 3738SOL     OW22675   3.370   2.888   4.758  0.0850 -0.9924  0.2870
 3738SOL    HW122676   3.429   2.881   4.683 -2.0187 -0.8671 -1.4049
 3738SOL    HW222677   3.280   2.891   4.723 -0.2609  1.5642  1.3797
 3739SOL     OW22678   2.943   1.386  15.517  0.2246 -0.1148 -0.4263
 3739SOL    HW122679   2.963   1.377  15.610  0.9229  2.4631 -0.3357
 3739SOL    HW222680   2.920   1.479  15.516  3.3912  0.6837 -1.3828
 3740SOL     OW22681   3.602   3.509   3.017  0.0912 -0.2606 -0.3844
 3740SOL    HW122682   3.680   3.493   3.070 -0.1372  3.1560  1.0186
 3740SOL    HW222683   3.599   3.605   3.023  4.0154 -0.1353 -0.1448
 3741SOL     OW22684   3.714   1.523   0.745 -0.1455  0.7560 -0.4633
 3741SOL    HW122685   3.763   1.534   0.827  0.1095  0.4646 -0.5785
 3741SOL    HW222686   3.670   1.608   0.742  1.7147  1.7400 -0.3710
 3742SOL     OW22687   0.976   1.075   1.120  0.0898 -1.0525  0.1145
 3742SOL    HW122688   1.050   1.091   1.063  1.3846  0.1628  2.1356
 3742SOL    HW222689   1.018   0.998   1.159 -0.9844 -1.8410 -0.2731
 3743SOL     OW22690   4.010   0.231   4.660  0.0840 -0.0047 -0.3688
 3743SOL    HW122691   3.974   0.236   4.572  0.0969 -0.4669 -0.3973
 3743SOL    HW222692   4.102   0.241   4.637 -0.1065  0.7787 -0.8099
 3744SOL     OW22693   3.375   1.311  14.978  0.3907 -0.5109 -0.3873
 3744SOL    HW122694   3.445   1.328  14.915 -0.4613  3.3606 -0.3099
 3744SOL    HW222695   3.415   1.363  15.048 -2.0056  1.6710 -0.6322
 3745SOL     OW22696   2.467   0.079   4.910  0.2928 -0.2988 -0.3113
 3745SOL    HW122697   2.461   4.709   4.892  2.3030 -1.0053  2.7404
 3745SOL    HW222698   2.420   0.113   4.834 -2.2034  0.3351  1.4937
 3746SOL     OW22699   3.093   2.762  17.627 -0.1360 -0.1382 -0.5280
 3746SOL    HW122700   3.117   2.832  17.567  1.8956  0.9434  1.5483
 3746SOL    HW222701   3.072   2.680  17.583 -0.6710  0.1104 -0.7327
 3747SOL     OW22702   2.636   2.473   7.992 -0.1017  0.1253  0.0023
 3747SOL    HW122703   2.546   2.495   8.017 -0.1475  0.3658 -0.3637
 3747SOL    HW222704   2.652   2.408   8.060 -1.9723 -0.2675  0.0644
 3748SOL     OW22705   1.458   3.625  17.572  0.0645 -0.3036 -0.1390
 3748SOL    HW122706   1.529   3.590  17.517 -0.3469 -0.8029 -0.3634
 3748SOL    HW222707   1.415   3.678  17.505 -1.1996 -1.1504  0.0068
 3749SOL     OW22708   2.936   2.255  11.101 -0.2609 -0.5641 -0.4463
 3749SOL    HW122709   2.966   2.177  11.055 -1.6434 -1.2008 -0.2934
 3749SOL    HW222710   2.880   2.291  11.032 -0.6355 -1.9355 -0.8547
 3750SOL     OW22711   1.926   3.976  13.925  0.4485  0.3684  0.3730
 3750SOL    HW122712   1.902   3.959  13.834  1.1730 -0.8988  0.4282
 3750SOL    HW222713   1.860   3.927  13.973  1.1640 -0.8111  0.1363
 3751SOL     OW22714   1.089   1.819   7.485  0.8174  0.2000 -0.0797
 3751SOL    HW122715   1.040   1.894   7.452 -0.7339 -0.8200 -0.0876
 3751SOL    HW222716   1.178   1.831   7.450  0.5612  0.0947 -0.7851
 3752SOL     OW22717   2.397   4.134   3.766  0.3477 -0.6656  0.1391
 3752SOL    HW122718   2.487   4.166   3.761  0.5010 -1.0897  0.1412
 3752SOL    HW222719   2.403   4.100   3.855  2.2700 -0.2911  0.1659
 3753SOL     OW22720   1.417   3.686   1.443 -0.2560 -0.3712 -0.3436
 3753SOL    HW122721   1.511   3.704   1.451 -0.1954 -1.4234  1.4533
 3753SOL    HW222722   1.385   3.774   1.422  1.2726  0.3786  0.4051
 3754SOL     OW22723   4.288   4.101  11.443 -0.2923 -0.3930  0.0798
 3754SOL    HW122724   4.377   4.108  11.477 -0.3952  1.2861  0.0196
 3754SOL    HW222725   4.307   4.090  11.350 -1.9422 -0.6294 -0.2415
 3755SOL     OW22726   3.792   4.301   4.290 -0.2816 -0.3615 -0.1059
 3755SOL    HW122727   3.697   4.302   4.295 -0.3191  1.1260 -1.2861
 3755SOL    HW222728   3.807   4.226   4.233  0.2730 -1.6216  1.7163
 3756SOL     OW22729   1.157   2.650   5.703  0.1702 -0.5897  0.3911
 3756SOL    HW122730   1.084   2.673   5.761 -1.5640 -3.3863 -0.6394
 3756SOL    HW222731   1.191   2.734   5.673 -3.1520  1.2881  1.8776
 3757SOL     OW22732   0.383   4.062   3.237 -0.3120  0.3823 -0.6881
 3757SOL    HW122733   0.449   4.042   3.304 -1.5052 -0.2424  0.2898
 3757SOL    HW222734   0.384   4.157   3.232 -0.0775  0.2224 -3.8425
 3758SOL     OW22735   3.904   2.483   1.996 -0.0838  0.7824  0.0979
 3758SOL    HW122736   3.900   2.548   1.925  2.3430  0.5036 -0.2814
 3758SOL    HW222737   3.852   2.521   2.067 -3.6371 -0.8253 -1.6517
 3759SOL     OW22738   2.834   1.753  10.700 -0.4102 -0.2024 -0.2609
 3759SOL    HW122739   2.882   1.682  10.658 -1.6315 -1.1840 -0.0135
 3759SOL    HW222740   2.752   1.708  10.723 -0.5622  0.6211  0.8246
 3760SOL     OW22741   3.002   0.250  17.607  0.1829 -0.3798 -0.1719
 3760SOL    HW122742   3.064   0.297  17.551  0.8316 -2.5870 -1.3084
 3760SOL    HW222743   3.056   0.178  17.636 -0.7052 -0.6207  0.8827
 3761SOL     OW22744   2.106   4.298   8.898  0.1028 -0.3892  0.2876
 3761SOL    HW122745   2.039   4.300   8.966 -3.3409 -0.4964 -3.0640
 3761SOL    HW222746   2.174   4.348   8.942 -0.0823  1.3101 -1.3394
 3762SOL     OW22747   4.333   1.126  14.150  0.1343 -0.5086  0.0371
 3762SOL    HW122748   4.379   1.064  14.093 -1.2031 -0.6092 -0.9353
 3762SOL    HW222749   4.402   1.146  14.213  1.6726 -0.8024 -1.5448
 3763SOL     OW22750   4.477   1.707   0.389 -0.1915 -0.6249  0.0181
 3763SOL    HW122751   4.432   1.780   0.432  1.4331  0.5926 -0.3296
 3763SOL    HW222752   4.500   1.745   0.304  1.6394 -1.1880  0.2506
 3764SOL     OW22753   3.819   2.459  16.295 -0.3993  0.2389  0.8973
 3764SOL    HW122754   3.750   2.481  16.232 -1.2173  0.0393  1.7361
 3764SOL    HW222755   3.896   2.440  16.241 -0.4642  3.4944 -0.3114
 3765SOL     OW22756   3.820   2.563   4.002  0.0926  0.1266  0.1913
 3765SOL    HW122757   3.784   2.497   3.942  1.0317  0.1172 -0.3604
 3765SOL    HW222758   3.748   2.625   3.993  0.0945  0.0484 -0.3900
 3766SOL     OW22759   2.414   2.033   0.874 -0.3374 -0.2948  0.5221
 3766SOL    HW122760   2.343   2.092   0.899  0.1494  0.9153 -0.9261
 3766SOL    HW222761   2.442   2.084   0.798 -1.2583  0.0969  0.4410
 3767SOL     OW22762   4.036   0.449  16.758  0.1562  0.4832  0.3744
 3767SOL    HW122763   4.129   0.438  16.738  0.4643  3.3496  0.2212
 3767SOL    HW222764   4.048   0.500  16.838  3.0623 -2.0676  1.5275
 3768SOL     OW22765   3.214   4.270   2.104 -0.2831  0.4707 -0.0517
 3768SOL    HW122766   3.130   4.316   2.096 -0.2620  0.7734  1.5051
 3768SOL    HW222767   3.190   4.178   2.108 -1.0456  0.5641 -2.2372
 3769SOL     OW22768   2.011   1.344  13.006 -0.0749 -0.3538 -0.0082
 3769SOL    HW122769   1.969   1.303  13.082  3.0438 -1.7537  0.9761
 3769SOL    HW222770   2.048   1.414  13.060  0.5019 -1.5680  1.1607
 3770SOL     OW22771   1.860   1.352   5.680  0.6350 -0.2578  0.5265
 3770SOL    HW122772   1.778   1.393   5.707  1.6651  2.6972 -0.7859
 3770SOL    HW222773   1.826   1.263   5.679 -1.3366  0.4955  1.0296
 3771SOL     OW22774   2.447   4.273  13.017 -0.0358  0.2239 -0.0563
 3771SOL    HW122775   2.438   4.337  12.947  0.2012  0.1295 -0.1726
 3771SOL    HW222776   2.386   4.314  13.078  0.4691  0.5144  0.2577
 3772SOL     OW22777   1.792   3.214   2.348 -0.2130  0.7820 -0.7964
 3772SOL    HW122778   1.875   3.172   2.372 -0.9161  0.4068  0.9779
 3772SOL    HW222779   1.830   3.295   2.315  2.8899 -0.0761  0.6584
 3773SOL     OW22780   1.910   3.462   5.317 -0.1875 -0.2431 -0.1999
 3773SOL    HW122781   1.902   3.381   5.367 -0.4960 -1.1627 -1.7439
 3773SOL    HW222782   1.818   3.482   5.300  0.6916  1.5464 -2.9364
 3774SOL     OW22783   0.409   3.791   6.814 -0.6740 -0.0279  0.2582
 3774SOL    HW122784   0.414   3.830   6.902  0.4411  0.0544  0.1615
 3774SOL    HW222785   0.359   3.710   6.827 -1.7920  0.3132 -1.9977
 3775SOL     OW22786   0.233   1.734   2.987 -0.0131 -0.6371  0.5387
 3775SOL    HW122787   0.215   1.796   2.916  0.1360  1.3376  2.2460
 3775SOL    HW222788   0.173   1.766   3.053  0.9386  1.1841  0.5081
 3776SOL     OW22789   1.297   3.142   7.827  0.8438 -0.0916  0.1400
 3776SOL    HW122790   1.282   3.099   7.911 -1.6022 -2.0897 -1.3404
 3776SOL    HW222791   1.215   3.189   7.809  0.5482 -1.1701 -1.3515
 3777SOL     OW22792   1.002   3.758   6.157 -0.1794  0.0569 -0.5147
 3777SOL    HW122793   0.938   3.811   6.203  0.3295  0.0485  0.1999
 3777SOL    HW222794   1.073   3.746   6.220  0.2060  1.6628 -0.6482
 3778SOL     OW22795   1.195   4.048   6.027 -0.0846 -0.6997  0.2078
 3778SOL    HW122796   1.111   4.034   5.983  0.0715  0.6085 -0.5006
 3778SOL    HW222797   1.238   3.967   5.999  1.0522  0.5988 -1.8375
 3779SOL     OW22798   4.405   1.302   9.480  1.0689  0.8667  0.2688
 3779SOL    HW122799   4.396   1.289   9.386 -0.4613  2.0875  0.2481
 3779SOL    HW222800   4.335   1.358   9.513  0.1605  0.2999 -0.6892
 3780SOL     OW22801   2.095   1.012   4.431 -0.2061 -0.0040 -0.1987
 3780SOL    HW122802   2.098   1.020   4.335 -0.8557  2.2062 -0.0416
 3780SOL    HW222803   2.112   0.918   4.429  0.0635  0.0305  0.5364
 3781SOL     OW22804   3.974   3.262   4.904  0.1440 -0.4542  0.0102
 3781SOL    HW122805   4.007   3.339   4.951  0.8697 -0.4142 -0.5537
 3781SOL    HW222806   3.921   3.212   4.966  2.5189 -0.2353  2.2249
 3782SOL     OW22807   1.485   0.008   1.640 -0.5527 -0.3660 -0.1206
 3782SOL    HW122808   1.543   0.043   1.572 -2.5342  2.7359 -0.1748
 3782SOL    HW222809   1.551   4.674   1.678  1.0607 -0.4949 -3.1105
 3783SOL     OW22810   4.574   1.516   5.375 -0.3782  0.0397 -0.2123
 3783SOL    HW122811   4.602   1.583   5.438 -0.5311  0.2960 -0.4194
 3783SOL    HW222812   4.482   1.512   5.401 -0.5581 -0.6916 -0.9757
 3784SOL     OW22813   1.447   0.841   9.987 -0.4276  0.0184  0.0637
 3784SOL    HW122814   1.449   0.748   9.964  1.7902 -0.2844  1.4335
 3784SOL    HW222815   1.386   0.873   9.921  1.0533 -1.5894 -2.0751
 3785SOL     OW22816   3.006   2.104   1.944 -0.1893  0.0454  0.5069
 3785SOL    HW122817   3.089   2.064   1.918 -1.1063 -1.2757 -0.3727
 3785SOL    HW222818   3.039   2.191   1.968  1.1280 -0.7637  1.6390
 3786SOL     OW22819   3.235   3.448  14.117 -0.0143 -0.4422  0.0301
 3786SOL    HW122820   3.285   3.506  14.174 -0.1831 -0.2407 -0.0294
 3786SOL    HW222821   3.225   3.368  14.168  0.0026 -0.7643 -0.4692
 3787SOL     OW22822   0.583   3.801   4.019 -0.0382 -0.0114 -0.0110
 3787SOL    HW122823   0.552   3.793   4.109 -0.3373 -0.6384 -0.1669
 3787SOL    HW222824   0.614   3.715   3.991  1.8934 -0.1287  2.4740
 3788SOL     OW22825   0.733   0.479  11.771 -0.3934  0.0280 -0.4302
 3788SOL    HW122826   0.677   0.407  11.741 -1.4198  0.3992  0.5665
 3788SOL    HW222827   0.805   0.432  11.813  2.2033  4.2883 -0.0498
 3789SOL     OW22828   1.644   3.641   5.068  0.3342 -0.3557  0.3042
 3789SOL    HW122829   1.648   3.691   4.986 -0.2535  2.5677  2.0814
 3789SOL    HW222830   1.672   3.709   5.129  0.3547 -0.8917  0.8887
 3790SOL     OW22831   1.479   2.093   9.007  0.3105  0.0659  0.3274
 3790SOL    HW122832   1.432   2.133   8.935  1.3042 -0.4810 -0.6290
 3790SOL    HW222833   1.430   2.014   9.032  0.2635  0.4012  1.3125
 3791SOL     OW22834   0.056   3.396   8.277 -0.6752  0.3642  0.7244
 3791SOL    HW122835   4.710   3.384   8.340 -0.5159 -1.0996  0.6165
 3791SOL    HW222836   0.047   3.317   8.224  1.3660  1.1510 -0.8172
 3792SOL     OW22837   2.099   4.198   2.136  0.1299  0.5461 -0.4558
 3792SOL    HW122838   2.117   4.239   2.051  2.2949  1.3539  0.3780
 3792SOL    HW222839   2.167   4.131   2.126  0.3342  1.0917 -2.8341
 3793SOL     OW22840   2.453   2.295   3.713  0.2859 -0.2509 -0.1167
 3793SOL    HW122841   2.365   2.257   3.705 -0.5730  1.1962  2.5004
 3793SOL    HW222842   2.469   2.279   3.806  0.4427  2.6262  0.3625
 3794SOL     OW22843   0.856   0.129   7.295  0.2176 -0.2555  0.4243
 3794SOL    HW122844   0.773   0.175   7.300  0.5809  0.4603 -0.1050
 3794SOL    HW222845   0.822   0.041   7.281  1.3420 -0.5891 -0.2473
 3795SOL     OW22846   3.654   2.570   2.708  0.4313  0.0819 -0.0659
 3795SOL    HW122847   3.745   2.552   2.731 -0.3441 -1.1019  2.0868
 3795SOL    HW222848   3.663   2.622   2.628 -0.2392 -0.9471 -0.8123
 3796SOL     OW22849   3.910   1.494   0.240 -0.5405  0.3546 -0.0017
 3796SOL    HW122850   3.932   1.537   0.157 -1.2270  0.4109 -0.1614
 3796SOL    HW222851   3.956   1.412   0.224 -2.3577 -0.8003  0.7161
 3797SOL     OW22852   1.964   3.287   7.063 -0.3478  0.0625 -0.4425
 3797SOL    HW122853   1.877   3.248   7.055 -0.2809 -0.5267  1.6195
 3797SOL    HW222854   2.014   3.206   7.068  1.5323  1.2085 -0.3115
 3798SOL     OW22855   1.630   2.118   4.586  0.2354  0.3764  0.4131
 3798SOL    HW122856   1.594   2.039   4.546  3.9858 -0.2438 -1.7532
 3798SOL    HW222857   1.678   2.079   4.659 -1.0736  0.2852  1.2223
 3799SOL     OW22858   4.163   4.408   2.436  0.2978 -0.1320 -0.4245
 3799SOL    HW122859   4.222   4.395   2.362 -0.0678 -1.0132 -0.5637
 3799SOL    HW222860   4.124   4.490   2.406 -1.4326 -1.0341 -0.6633
 3800SOL     OW22861   3.084   1.523   8.407  0.3555  0.0433  0.0411
 3800SOL    HW122862   3.040   1.542   8.490  0.3972 -1.5839  0.4370
 3800SOL    HW222863   3.034   1.584   8.352 -0.9735 -0.5460  0.5912
 3801SOL     OW22864   2.304   2.305   4.973 -0.6387  0.6945 -0.0555
 3801SOL    HW122865   2.230   2.345   5.019 -0.2651 -0.3992  1.5258
 3801SOL    HW222866   2.277   2.213   4.976  1.5522  0.0339  0.0231
 3802SOL     OW22867   2.070   0.206   2.529  0.8021  0.1284 -0.1178
 3802SOL    HW122868   2.053   0.188   2.437  1.4502 -2.2029  0.2021
 3802SOL    HW222869   2.109   0.121   2.548  0.3698  0.1949  1.0805
 3803SOL     OW22870   2.650   2.052   6.928 -0.3480  0.2139  0.2885
 3803SOL    HW122871   2.555   2.047   6.917 -0.2531 -1.6657  0.3005
 3803SOL    HW222872   2.679   2.119   6.866  2.0746  1.1469  2.4473
 3804SOL     OW22873   2.977   2.848   9.147  0.0983  0.4821 -0.3829
 3804SOL    HW122874   2.885   2.828   9.161 -0.3185  0.5214 -3.0194
 3804SOL    HW222875   2.965   2.891   9.062  0.9863 -1.2680 -1.4106
 3805SOL     OW22876   0.900   1.167   2.811 -0.2862  0.2370 -0.3296
 3805SOL    HW122877   0.871   1.093   2.757  0.0367  0.4258 -0.7631
 3805SOL    HW222878   0.979   1.133   2.853 -0.5629  0.5231  0.4133
 3806SOL     OW22879   2.300   1.718  12.104 -0.0505 -0.2189 -0.1518
 3806SOL    HW122880   2.209   1.745  12.096 -0.3365 -1.2520 -0.3249
 3806SOL    HW222881   2.295   1.641  12.161  0.7166  0.0569  0.3027
 3807SOL     OW22882   2.374   2.219   7.363 -0.6208  0.2907 -0.2781
 3807SOL    HW122883   2.411   2.165   7.433  0.3093  1.1267 -0.1271
 3807SOL    HW222884   2.279   2.208   7.369 -0.5813 -0.2099 -0.5675
 3808SOL     OW22885   1.840   3.331   7.442 -0.3531 -0.2009 -0.1750
 3808SOL    HW122886   1.779   3.397   7.475  1.2608  1.5829 -0.7808
 3808SOL    HW222887   1.779   3.257   7.442 -3.2603  2.2301 -1.9933
 3809SOL     OW22888   2.626   1.819   6.506  0.3447  0.7380 -0.4725
 3809SOL    HW122889   2.624   1.727   6.530 -2.2930  1.1326  0.8722
 3809SOL    HW222890   2.684   1.847   6.576 -0.3305 -0.9947  0.7690
 3810SOL     OW22891   2.658   1.445   4.202 -0.0873  0.2956  0.1378
 3810SOL    HW122892   2.719   1.413   4.135  0.9603  1.3011  0.5983
 3810SOL    HW222893   2.713   1.426   4.278 -2.0270 -0.0709  1.4336
 3811SOL     OW22894   2.590   1.243   1.905  0.0970  0.2056  0.3659
 3811SOL    HW122895   2.589   1.225   1.998  0.3610  0.6652  0.4605
 3811SOL    HW222896   2.676   1.281   1.887  1.1477 -1.8873  0.9998
 3812SOL     OW22897   4.656   1.700   4.463 -0.3301 -0.0957 -0.7327
 3812SOL    HW122898   4.684   1.652   4.385  0.0130  1.4384 -1.5701
 3812SOL    HW222899   4.723   1.672   4.525  1.2441  5.2161  0.0104
 3813SOL     OW22900   3.632   3.245  15.961  0.1066 -0.2375  0.0175
 3813SOL    HW122901   3.647   3.309  15.891  0.5698 -2.3403 -1.8241
 3813SOL    HW222902   3.624   3.158  15.922 -3.1509 -0.8546  2.1052
 3814SOL     OW22903   1.202   0.669   3.849  0.0143 -0.2088 -0.1222
 3814SOL    HW122904   1.227   0.761   3.854  0.1793 -0.2379 -0.4337
 3814SOL    HW222905   1.241   0.636   3.768  0.3969 -0.5895  0.2112
 3815SOL     OW22906   4.333   0.695  14.441  0.3161  0.1571  0.9048
 3815SOL    HW122907   4.416   0.739  14.424  0.1477 -0.3329 -1.1749
 3815SOL    HW222908   4.360   0.603  14.441 -1.8064 -0.4637 -0.0769
 3816SOL     OW22909   2.977   3.734  13.242 -0.1722  0.0993 -0.0949
 3816SOL    HW122910   3.069   3.715  13.224 -0.1695  1.3200 -1.4110
 3816SOL    HW222911   2.985   3.790  13.320 -1.2027 -0.3365  0.3193
 3817SOL     OW22912   0.298   2.715  12.349  0.1691 -0.6009  0.0767
 3817SOL    HW122913   0.330   2.801  12.323  0.3296 -0.4095  0.9351
 3817SOL    HW222914   0.333   2.654  12.283 -1.3596 -0.9717 -0.4056
 3818SOL     OW22915   2.004   4.007  15.345 -0.1635 -0.1317 -0.2094
 3818SOL    HW122916   2.044   4.069  15.405  0.5464  0.8475 -1.7103
 3818SOL    HW222917   1.915   3.998  15.380 -0.2714  0.0159 -0.4494
 3819SOL     OW22918   2.877   0.941   1.569 -0.3150  0.0333  0.3005
 3819SOL    HW122919   2.804   0.950   1.630 -2.3939  2.3381 -2.5733
 3819SOL    HW222920   2.919   0.863   1.606 -3.0055 -0.3660  2.5333
 3820SOL     OW22921   4.135   1.871  12.882  0.0498  0.6418  0.2569
 3820SOL    HW122922   4.128   1.789  12.930  0.6540 -1.3737 -3.0986
 3820SOL    HW222923   4.229   1.889  12.871  0.5328 -2.6899 -1.1450
 3821SOL     OW22924   4.497   1.746   2.735 -0.3241  0.5960  0.5517
 3821SOL    HW122925   4.520   1.676   2.795 -0.3297 -0.4827 -0.7045
 3821SOL    HW222926   4.401   1.739   2.729 -0.4349  2.3703  0.2499
 3822SOL     OW22927   4.105   3.431   8.343  0.3132  0.3610  0.2191
 3822SOL    HW122928   4.046   3.358   8.359 -0.1039  0.3199 -1.4530
 3822SOL    HW222929   4.179   3.412   8.401  0.1672 -0.7218  0.0447
 3823SOL     OW22930   0.213   4.457  10.974 -0.3301  0.0547  0.3624
 3823SOL    HW122931   0.140   4.509  11.007 -0.8346  0.5006 -1.4604
 3823SOL    HW222932   0.275   4.468  11.047 -0.8088 -3.2897  1.2986
 3824SOL     OW22933   0.310   1.241   7.195  0.2556 -0.2439  0.4685
 3824SOL    HW122934   0.341   1.222   7.283 -1.4576  0.7803  1.3003
 3824SOL    HW222935   0.396   1.259   7.157 -0.7172  0.5321 -1.3569
 3825SOL     OW22936   4.132   3.347   2.289  0.2630  0.3538 -0.3356
 3825SOL    HW122937   4.214   3.359   2.241  1.8360 -1.7514  1.8048
 3825SOL    HW222938   4.097   3.435   2.281  0.6567  0.2824 -3.0559
 3826SOL     OW22939   2.578   0.008   0.853  0.5755 -0.0400 -0.1711
 3826SOL    HW122940   2.587   4.678   0.774  2.0081  2.0269 -1.4251
 3826SOL    HW222941   2.638   0.078   0.828 -0.6094  1.3149  0.8156
 3827SOL     OW22942   2.043   1.604   4.527 -0.3050  0.5306 -0.4250
 3827SOL    HW122943   2.037   1.580   4.434 -2.3178  0.1413 -0.1798
 3827SOL    HW222944   2.104   1.540   4.565 -0.1073  0.7780 -0.3277
 3828SOL     OW22945   3.527   0.383   4.920 -0.2157 -0.2251  0.1338
 3828SOL    HW122946   3.559   0.413   5.005 -0.2007 -1.2794  0.5093
 3828SOL    HW222947   3.600   0.332   4.885 -0.2510  0.7271 -1.3090
 3829SOL     OW22948   3.521   2.928   9.909  0.2309 -0.8742  0.6214
 3829SOL    HW122949   3.504   3.007   9.859 -0.4515 -0.9982  0.6580
 3829SOL    HW222950   3.478   2.939   9.994 -1.4948 -2.6516 -0.0157
 3830SOL     OW22951   2.560   2.327   1.895  0.5111 -0.2843 -0.1650
 3830SOL    HW122952   2.627   2.367   1.950 -1.2773  0.3441  1.5609
 3830SOL    HW222953   2.501   2.402   1.888  1.5227  0.2519 -2.8739
 3831SOL     OW22954   4.507   1.278   6.886 -0.1238  0.4299 -0.2240
 3831SOL    HW122955   4.557   1.219   6.943  1.9417  1.2466 -1.2141
 3831SOL    HW222956   4.443   1.318   6.944  0.9309  0.5632  0.8534
 3832SOL     OW22957   1.504   2.036   1.545  0.8116 -0.0651  0.7735
 3832SOL    HW122958   1.558   2.112   1.521 -0.0133 -0.1693 -1.4372
 3832SOL    HW222959   1.536   1.976   1.477  0.6489  0.9146 -0.1737
 3833SOL     OW22960   1.390   1.421   2.660  0.2582  0.4540  0.0829
 3833SOL    HW122961   1.367   1.462   2.577  0.2258  0.5333  0.1305
 3833SOL    HW222962   1.316   1.360   2.662 -0.1935  0.9789 -0.6233
 3834SOL     OW22963   4.582   0.114   3.161 -0.0447 -0.1257  0.4341
 3834SOL    HW122964   4.657   0.095   3.218 -0.0721  1.5714  1.0204
 3834SOL    HW222965   4.577   0.034   3.107  0.2692  0.9879 -1.2518
 3835SOL     OW22966   2.876   4.204  15.249 -0.3614  0.2966 -0.2202
 3835SOL    HW122967   2.868   4.270  15.179  1.9232  2.5349  1.6220
 3835SOL    HW222968   2.783   4.180  15.253 -0.0659 -0.5152  1.5343
 3836SOL     OW22969   4.029   0.892   8.068 -0.1542 -0.1224  0.2785
 3836SOL    HW122970   4.092   0.862   8.133  0.0591 -0.5117 -0.1014
 3836SOL    HW222971   4.005   0.808   8.028  2.1124 -0.3896 -0.5085
 3837SOL     OW22972   3.836   0.984   7.100 -0.4049  0.0544  0.9698
 3837SOL    HW122973   3.783   0.904   7.099  0.6861 -0.6485  0.5281
 3837SOL    HW222974   3.923   0.959   7.071  0.1797  1.7681  1.2135
 3838SOL     OW22975   0.131   2.458   2.393  0.4787 -0.4805 -0.0979
 3838SOL    HW122976   0.217   2.493   2.416  0.1044 -0.7746  1.8006
 3838SOL    HW222977   0.089   2.462   2.479 -2.9956  1.3271 -1.8766
 3839SOL     OW22978   1.770   1.937   7.922 -0.0747 -0.4835 -0.8605
 3839SOL    HW122979   1.801   1.945   7.832 -1.6314  1.2254 -1.2463
 3839SOL    HW222980   1.807   1.854   7.950  0.6481  0.4508  1.0211
 3840SOL     OW22981   3.899   1.756   7.284  0.3720 -0.0313 -0.0469
 3840SOL    HW122982   3.950   1.755   7.366  0.2439  1.6946  0.0379
 3840SOL    HW222983   3.868   1.665   7.282  1.7601 -0.6228  3.6057
 3841SOL     OW22984   0.353   0.589   7.338  0.0328  0.0429  0.4171
 3841SOL    HW122985   0.362   0.538   7.258  1.0565  0.6582  0.1277
 3841SOL    HW222986   0.310   0.526   7.396  1.5666 -0.5809  0.8841
 3842SOL     OW22987   3.784   1.474   6.847 -0.3448  0.0789 -0.3775
 3842SOL    HW122988   3.867   1.483   6.893 -1.0163  3.1199  0.1853
 3842SOL    HW222989   3.810   1.414   6.776 -4.3583 -1.0648 -0.9048
 3843SOL     OW22990   1.484   1.350  12.207 -0.0950 -0.0013 -0.4445
 3843SOL    HW122991   1.494   1.345  12.302  0.8938 -2.8997 -0.6937
 3843SOL    HW222992   1.560   1.299  12.176  1.1180  1.2285  0.5458
 3844SOL     OW22993   0.634   1.462   5.647  0.0868 -0.0535  0.5088
 3844SOL    HW122994   0.723   1.493   5.629 -0.4136 -0.2573 -2.3799
 3844SOL    HW222995   0.579   1.537   5.623 -0.7716 -1.3614 -1.5892
 3845SOL     OW22996   1.618   0.538  11.044 -0.0279  0.0711 -0.5706
 3845SOL    HW122997   1.662   0.574  11.122 -0.4022 -0.1334 -0.2686
 3845SOL    HW222998   1.557   0.608  11.022  1.7092  0.8697 -2.7887
 3846SOL     OW22999   1.343   4.144   3.501  0.2322  0.5472  0.2181
 3846SOL    HW123000   1.405   4.071   3.492 -1.1037 -0.9826  3.3617
 3846SOL    HW223001   1.401   4.218   3.516  1.0577 -0.0600  0.0440
 3847SOL     OW23002   1.782   1.928   2.804  0.3795 -0.1154 -0.0668
 3847SOL    HW123003   1.846   1.998   2.818  0.2932  0.4233 -2.4176
 3847SOL    HW223004   1.803   1.873   2.879 -0.0547  1.0034  0.8830
 3848SOL     OW23005   0.823   1.400   2.737  0.7040 -0.2952  0.4070
 3848SOL    HW123006   0.843   1.314   2.774  2.8146 -0.4307 -1.0601
 3848SOL    HW223007   0.885   1.446   2.795  0.1170  1.8392 -0.6406
 3849SOL     OW23008   4.139   4.144   2.102  0.3301  0.1843  0.2898
 3849SOL    HW123009   4.229   4.165   2.078 -0.4436  1.5072 -1.4819
 3849SOL    HW223010   4.159   4.073   2.163  1.1619 -0.4526 -0.7479
 3850SOL     OW23011   1.205   1.184   1.005  0.1251 -0.5943 -0.1351
 3850SOL    HW123012   1.171   1.271   1.026  1.1705  0.3608 -2.4757
 3850SOL    HW223013   1.279   1.187   1.065 -0.9832  2.3733  1.0972
 3851SOL     OW23014   0.868   3.313   7.354  0.0457 -0.0663  0.2352
 3851SOL    HW123015   0.780   3.351   7.360  0.6543  1.5921 -1.3026
 3851SOL    HW223016   0.840   3.222   7.368 -1.0290  0.1689 -0.3178
 3852SOL     OW23017   4.330   3.011  11.547 -0.5239 -0.2520  0.6367
 3852SOL    HW123018   4.291   3.077  11.491 -1.3051 -0.5062  0.8832
 3852SOL    HW223019   4.353   2.944  11.482 -1.6027 -1.6628  1.7094
 3853SOL     OW23020   2.339   1.577   7.519  0.2338 -0.1527  0.4418
 3853SOL    HW123021   2.278   1.632   7.568  0.3181  1.1341 -0.9108
 3853SOL    HW223022   2.385   1.537   7.593  2.0453  3.0619  1.0693
 3854SOL     OW23023   4.343   3.101   8.657 -0.3374 -0.6214  0.6069
 3854SOL    HW123024   4.407   3.086   8.727 -1.0146 -1.3565  1.0745
 3854SOL    HW223025   4.373   3.032   8.597  0.1334 -1.2934  1.6222
 3855SOL     OW23026   1.672   2.111   5.426 -0.1028 -0.1725  0.5678
 3855SOL    HW123027   1.590   2.133   5.471 -1.1608 -2.8567 -0.0437
 3855SOL    HW223028   1.655   2.023   5.392 -0.4078  0.0889  0.0472
 3856SOL     OW23029   3.813   2.432   2.917 -0.3766 -0.7927  0.1498
 3856SOL    HW123030   3.905   2.406   2.911  0.1655  1.0825  0.2047
 3856SOL    HW223031   3.824   2.527   2.921  0.0655 -0.9196  1.8684
 3857SOL     OW23032   3.321   2.131   0.909 -0.0477  0.2044 -0.0744
 3857SOL    HW123033   3.372   2.124   0.828  0.9156 -0.8948  0.6119
 3857SOL    HW223034   3.387   2.109   0.975 -0.0044  0.7599  0.0645
 3858SOL     OW23035   3.921   3.173   7.955 -0.2356  0.5851 -0.3685
 3858SOL    HW123036   3.968   3.090   7.946  0.1749  1.0493 -2.5126
 3858SOL    HW223037   3.863   3.170   7.878 -0.3022 -0.2821 -0.2864
 3859SOL     OW23038   0.308   2.053   3.907  0.4516  0.4989  0.1349
 3859SOL    HW123039   0.313   2.113   3.833  1.4834 -0.8338 -0.8676
 3859SOL    HW223040   0.235   2.089   3.958  1.5179  0.1531  1.8724
 3860SOL     OW23041   3.802   4.396  17.147 -0.0328  0.1407  0.0657
 3860SOL    HW123042   3.753   4.318  17.173  1.0718  0.0613  1.8878
 3860SOL    HW223043   3.807   4.384  17.052 -1.0204  2.9751 -0.3473
 3861SOL     OW23044   0.130   2.561   6.305  0.7139  0.9499 -0.0459
 3861SOL    HW123045   0.122   2.653   6.328  1.6256  1.0736 -0.2128
 3861SOL    HW223046   0.221   2.547   6.278  0.5176  0.1553 -0.3041
 3862SOL     OW23047   4.406   0.975   9.001  0.1687  0.2750  0.0358
 3862SOL    HW123048   4.372   1.065   8.999  1.9912  0.9187 -2.4814
 3862SOL    HW223049   4.383   0.937   9.085  0.9487 -2.6569 -1.0852
 3863SOL     OW23050   0.939   0.039   1.845  0.2904  0.6201  0.0176
 3863SOL    HW123051   0.879   0.099   1.803  1.3606  2.4327  1.0820
 3863SOL    HW223052   0.973   4.721   1.766 -0.7071  0.4659 -0.3236
 3864SOL     OW23053   1.272   4.005   1.939 -0.2940 -0.3289 -0.4956
 3864SOL    HW123054   1.271   3.938   1.871 -3.0301 -0.1735 -0.6402
 3864SOL    HW223055   1.315   4.080   1.898 -0.4945 -0.7439 -1.4546
 3865SOL     OW23056   0.482   2.757   7.304 -0.1215  0.4329  0.5684
 3865SOL    HW123057   0.450   2.829   7.358  2.2997  1.6967  0.3641
 3865SOL    HW223058   0.415   2.689   7.308  1.2061 -0.9899 -0.8784
 3866SOL     OW23059   1.588   4.288  12.691  0.6947 -0.0351 -0.2702
 3866SOL    HW123060   1.568   4.202  12.728 -1.5554  1.2533  1.5193
 3866SOL    HW223061   1.639   4.274  12.611 -0.7383  1.8900 -1.5247
 3867SOL     OW23062   2.525   0.705  14.084 -0.0264 -0.6257  0.1584
 3867SOL    HW123063   2.545   0.615  14.111  1.6421  0.0166  1.0927
 3867SOL    HW223064   2.576   0.711  14.003  0.4446  2.1329  0.6470
 3868SOL     OW23065   1.967   0.604  10.080  0.0166  0.8460  0.0653
 3868SOL    HW123066   1.996   0.543  10.012 -2.2829 -0.5884  0.3875
 3868SOL    HW223067   1.958   0.679  10.023  0.2410  0.0583 -1.0085
 3869SOL     OW23068   1.193   4.231  13.088  0.6591  0.0221  0.0007
 3869SOL    HW123069   1.252   4.294  13.047  0.5926  1.6884  2.4624
 3869SOL    HW223070   1.194   4.254  13.181 -0.1381  0.3681 -0.0740
 3870SOL     OW23071   0.943   3.093   5.027 -0.4070  0.2722  0.5578
 3870SOL    HW123072   0.955   3.004   5.062 -0.3311 -0.0207 -0.2056
 3870SOL    HW223073   0.848   3.091   5.013 -0.0552  1.3592 -1.8982
 3871SOL     OW23074   3.037   0.284  16.155 -0.1543  0.1788 -0.1008
 3871SOL    HW123075   2.952   0.243  16.140 -0.3356 -0.1108  1.7226
 3871SOL    HW223076   3.097   0.218  16.190 -1.3081 -2.9850 -4.0993
 3872SOL     OW23077   2.048   2.435   8.835  0.0275 -0.1704 -0.0988
 3872SOL    HW123078   1.988   2.474   8.771  0.4911 -0.6051 -0.7904
 3872SOL    HW223079   1.993   2.406   8.908 -1.7219 -0.1094 -1.4010
 3873SOL     OW23080   0.967   3.015  13.952 -0.0142  0.0199 -0.0570
 3873SOL    HW123081   1.020   3.084  13.993 -0.4889 -1.1719  2.5428
 3873SOL    HW223082   1.024   2.968  13.892  1.1895  2.0678 -0.5121
 3874SOL     OW23083   3.392   2.730  15.031  0.5659 -0.6975  0.1742
 3874SOL    HW123084   3.411   2.769  15.116 -2.0978  0.6177  0.1315
 3874SOL    HW223085   3.316   2.674  15.044 -0.6118  1.0461  0.6217
 3875SOL     OW23086   2.125   4.581  12.754  0.1612  0.1258 -0.0416
 3875SOL    HW123087   2.189   4.597  12.823 -0.7535 -1.0903  1.0861
 3875SOL    HW223088   2.177   4.529  12.693  0.5152 -0.2886  0.6209
 3876SOL     OW23089   3.213   0.267   8.550 -0.4622  0.3751  0.4475
 3876SOL    HW123090   3.269   0.340   8.575 -0.1628  0.5154 -0.6438
 3876SOL    HW223091   3.275   0.217   8.496  0.6229  1.9749  0.2219
 3877SOL     OW23092   3.068   3.042  16.544 -0.3864 -0.7924  0.2170
 3877SOL    HW123093   3.006   2.979  16.581 -1.7209  1.2799  1.5761
 3877SOL    HW223094   3.087   3.107  16.612 -0.9937  0.8690 -1.1942
 3878SOL     OW23095   0.060   1.072   7.536 -0.0829 -0.3516  0.2669
 3878SOL    HW123096   0.071   1.142   7.600  2.6635 -0.9113  0.4343
 3878SOL    HW223097   4.690   1.057   7.545 -0.1572 -0.9675 -1.4829
 3879SOL     OW23098   4.635   3.555   4.115 -0.4452 -0.1504  0.4602
 3879SOL    HW123099   4.549   3.521   4.139 -1.3590  1.4987 -0.4274
 3879SOL    HW223100   4.639   3.529   4.023  1.2166  0.6370  0.3032
 3880SOL     OW23101   1.570   2.030   3.945  0.0407  0.0268 -0.1905
 3880SOL    HW123102   1.651   2.052   3.899  1.2596 -1.0861  1.4593
 3880SOL    HW223103   1.591   2.048   4.036  2.1869 -1.5312 -0.3863
 3881SOL     OW23104   3.257   3.816  11.696 -0.1748  0.1962  1.1325
 3881SOL    HW123105   3.165   3.802  11.673  0.5793 -0.4934 -1.4394
 3881SOL    HW223106   3.269   3.899  11.649  1.3298  0.6770  2.3584
 3882SOL     OW23107   4.605   1.613  11.246  0.0068 -0.0939 -0.8005
 3882SOL    HW123108   4.518   1.576  11.255 -0.2198  0.4795 -0.6312
 3882SOL    HW223109   4.651   1.533  11.272 -0.0366  0.4185  0.8606
 3883SOL     OW23110   1.426   0.414   1.795 -1.0035  0.6946 -0.2120
 3883SOL    HW123111   1.339   0.392   1.830  0.2617 -1.5058  1.5399
 3883SOL    HW223112   1.449   0.485   1.854  1.0062 -0.9896  1.0286
 3884SOL     OW23113   3.072   0.025   5.776 -0.5327  0.2023  0.2543
 3884SOL    HW123114   3.031   4.702   5.704 -0.3816  0.7801 -0.2129
 3884SOL    HW223115   3.075   0.111   5.734  1.5750 -0.2153 -0.4574
 3885SOL     OW23116   0.885   2.677   6.356 -0.0747  0.7147  0.0243
 3885SOL    HW123117   0.946   2.738   6.398 -2.0886  0.6690  3.0473
 3885SOL    HW223118   0.911   2.669   6.264  0.8519 -0.0189  0.3531
 3886SOL     OW23119   3.384   2.905  16.046 -0.5033  0.1698 -0.5809
 3886SOL    HW123120   3.444   2.891  16.120  0.0040  1.0076 -0.8382
 3886SOL    HW223121   3.367   2.999  16.048  1.8266  0.5729  0.6301
 3887SOL     OW23122   1.548   4.633   1.234 -0.0471 -0.4870 -0.2609
 3887SOL    HW123123   1.630   4.682   1.243 -1.4631  1.4893  2.0222
 3887SOL    HW223124   1.484   4.700   1.208  0.7707  1.5682  2.9992
 3888SOL     OW23125   3.344   0.750   1.081 -0.7302 -0.0793 -0.7035
 3888SOL    HW123126   3.403   0.816   1.119 -0.5554  0.0331 -1.1696
 3888SOL    HW223127   3.372   0.677   1.136  0.2059  0.2178 -0.7848
 3889SOL     OW23128   0.184   4.075   1.724  0.3517 -0.0695  0.3669
 3889SOL    HW123129   0.104   4.030   1.750 -0.2158 -0.1486 -1.5272
 3889SOL    HW223130   0.240   4.057   1.800  1.8057  0.3961 -0.5868
 3890SOL     OW23131   2.031   0.363   8.582 -0.1936 -0.1330  0.0053
 3890SOL    HW123132   1.943   0.372   8.547 -0.5963 -2.4217  0.4561
 3890SOL    HW223133   2.078   0.435   8.539 -3.2845  2.2926  0.6402
 3891SOL     OW23134   3.386   0.466   7.788 -0.2576 -0.3939  0.1051
 3891SOL    HW123135   3.406   0.498   7.876 -0.2478 -1.4726  0.4990
 3891SOL    HW223136   3.331   0.537   7.757  1.7168  0.9495 -0.3371
 3892SOL     OW23137   4.507   2.613   2.685  0.5954 -0.7241 -0.0949
 3892SOL    HW123138   4.486   2.626   2.777 -1.0125  0.3993 -0.6262
 3892SOL    HW223139   4.470   2.526   2.674 -1.4278 -0.0181  1.2702
 3893SOL     OW23140   2.905   3.594   8.447 -0.1776  0.6617  0.0793
 3893SOL    HW123141   2.861   3.663   8.497 -2.9893 -0.8374 -0.3216
 3893SOL    HW223142   2.852   3.605   8.368  0.0366 -1.2001 -0.3261
 3894SOL     OW23143   3.907   4.004   1.795 -0.4919 -0.2159  0.1251
 3894SOL    HW123144   3.878   3.918   1.765  1.6191 -0.7057 -0.5297
 3894SOL    HW223145   3.985   3.976   1.843  0.3589 -1.3895 -1.9242
 3895SOL     OW23146   4.558   4.464   8.159 -0.6321 -0.4970 -0.6409
 3895SOL    HW123147   4.503   4.477   8.237  0.5056  0.2303  0.0414
 3895SOL    HW223148   4.517   4.386   8.121  1.1879 -0.2668 -3.0113
 3896SOL     OW23149   2.011   3.432   3.707 -0.1743  0.0422  0.5867
 3896SOL    HW123150   2.051   3.356   3.665 -2.2172 -0.1982 -0.8841
 3896SOL    HW223151   2.067   3.505   3.680 -1.3534  1.0932  0.9863
 3897SOL     OW23152   1.260   1.262  15.019 -0.2524 -0.1445  0.2632
 3897SOL    HW123153   1.340   1.223  15.054 -0.5735  1.6250  2.9481
 3897SOL    HW223154   1.222   1.302  15.097 -1.2953  2.4071 -1.5457
 3898SOL     OW23155   2.930   1.405   9.664 -0.4607  0.3567  0.6142
 3898SOL    HW123156   2.936   1.401   9.569 -0.1408 -0.8230  0.6843
 3898SOL    HW223157   2.894   1.491   9.685  2.1548  1.8590 -1.2613
 3899SOL     OW23158   1.119   4.442   7.005  0.6983 -0.0567 -0.4173
 3899SOL    HW123159   1.122   4.457   7.100  1.2277  1.1836 -0.6240
 3899SOL    HW223160   1.172   4.363   6.999 -0.7677 -0.9941 -0.7141
 3900SOL     OW23161   2.381   3.547   6.698 -0.2558  0.1229 -0.9367
 3900SOL    HW123162   2.321   3.619   6.717  0.0132 -0.1875  1.1370
 3900SOL    HW223163   2.344   3.521   6.614 -0.5331  1.1003 -1.1224
 3901SOL     OW23164   3.590   1.836  14.359  0.1491  0.0115 -0.4542
 3901SOL    HW123165   3.685   1.823  14.363  0.2381  0.2273 -1.8736
 3901SOL    HW223166   3.599   1.927  14.387  1.6382  0.0884 -1.1475
 3902SOL     OW23167   0.946   0.114   2.543 -0.3634 -0.1080  0.1020
 3902SOL    HW123168   0.977   0.168   2.470  0.8482 -0.1483  0.5781
 3902SOL    HW223169   0.876   0.069   2.496  1.6672 -0.9516 -2.1167
 3903SOL     OW23170   1.531   2.773   9.928  0.7413 -0.1835 -0.5365
 3903SOL    HW123171   1.475   2.698   9.947 -1.2400  1.8822  1.6458
 3903SOL    HW223172   1.609   2.720   9.910  1.7248  1.0674  0.0430
 3904SOL     OW23173   3.642   2.801   7.103 -0.2601 -0.4722 -0.4110
 3904SOL    HW123174   3.619   2.719   7.059 -0.9062 -0.2238 -0.5397
 3904SOL    HW223175   3.713   2.766   7.157  1.1402  1.6307 -0.8910
 3905SOL     OW23176   2.708   3.720   2.960  0.1205  0.1276  0.0769
 3905SOL    HW123177   2.711   3.624   2.955  1.3985  0.1866 -0.3770
 3905SOL    HW223178   2.615   3.740   2.965  0.1887  0.5162 -0.1768
 3906SOL     OW23179   4.567   1.407  17.269  0.1858 -0.2310  0.5857
 3906SOL    HW123180   4.488   1.458  17.248  3.1827  3.6232 -1.1956
 3906SOL    HW223181   4.606   1.461  17.338  1.8612  0.0391 -0.5947
 3907SOL     OW23182   3.346   0.667   1.879 -0.5529  0.2201 -0.1382
 3907SOL    HW123183   3.285   0.742   1.881 -0.0437  0.6155  0.6533
 3907SOL    HW223184   3.385   0.672   1.792  0.7186 -0.6117  0.3960
 3908SOL     OW23185   0.308   0.166   3.141  0.2611  0.1930 -0.0109
 3908SOL    HW123186   0.248   0.095   3.121 -0.0114  0.4343 -0.0433
 3908SOL    HW223187   0.253   0.207   3.207 -1.0851 -0.4305 -0.7517
 3909SOL     OW23188   1.331   2.639   4.894 -0.2493  0.4327  0.3854
 3909SOL    HW123189   1.278   2.589   4.957  1.4069 -0.2048  1.2572
 3909SOL    HW223190   1.277   2.607   4.822 -1.3456  1.3336  0.8058
 3910SOL     OW23191   3.455   0.280  17.408 -0.3743  0.8183 -0.3693
 3910SOL    HW123192   3.537   0.255  17.451 -0.1382 -0.6300 -1.6561
 3910SOL    HW223193   3.440   0.201  17.355  1.0478 -1.3787  2.4579
 3911SOL     OW23194   3.994   0.268  11.158 -0.8147  0.2281  0.1222
 3911SOL    HW123195   4.049   0.194  11.184 -0.3678  0.6992  0.5297
 3911SOL    HW223196   3.996   0.313  11.243 -0.0223 -0.3255  0.3954
 3912SOL     OW23197   2.243   1.390  16.009 -0.6571 -0.0949 -0.2458
 3912SOL    HW123198   2.156   1.424  16.028  0.4714  2.3270  0.5675
 3912SOL    HW223199   2.259   1.449  15.936 -0.1119  0.8541  0.6391
 3913SOL     OW23200   1.204   1.142   5.187  0.5002  0.0987 -0.0769
 3913SOL    HW123201   1.147   1.080   5.142 -0.8189  0.9594  0.4092
 3913SOL    HW223202   1.151   1.157   5.265  1.5950 -0.2591  0.7452
 3914SOL     OW23203   2.015   0.171   5.688 -0.2893  0.5952 -0.2220
 3914SOL    HW123204   2.057   0.089   5.717  1.5161  1.8939  0.8421
 3914SOL    HW223205   1.924   0.141   5.686 -0.8468  2.3583 -0.8037
 3915SOL     OW23206   1.601   1.701   1.737 -0.2993 -0.0038  0.4663
 3915SOL    HW123207   1.513   1.739   1.726 -0.9449 -1.3849  0.8237
 3915SOL    HW223208   1.661   1.767   1.703 -2.9835  2.1830 -0.0072
 3916SOL     OW23209   4.593   0.489   1.035 -0.3821 -0.6005 -0.3169
 3916SOL    HW123210   4.628   0.422   0.976  1.8368  2.6365 -2.6548
 3916SOL    HW223211   4.612   0.462   1.125 -0.9743 -0.2419 -0.0827
 3917SOL     OW23212   4.653   0.180   0.627 -0.2013 -0.4550 -0.0907
 3917SOL    HW123213   4.696   0.227   0.556 -0.6349  0.9514  0.5852
 3917SOL    HW223214   4.705   0.100   0.634  1.0128  0.2266 -1.1861
 3918SOL     OW23215   3.521   3.386  16.880  0.3041 -0.4770 -0.1749
 3918SOL    HW123216   3.553   3.365  16.968  2.3231 -0.7269 -0.9664
 3918SOL    HW223217   3.476   3.303  16.861 -1.1193  0.5357 -1.1454
 3919SOL     OW23218   0.540   4.189  16.826 -0.5383 -0.4098 -0.0309
 3919SOL    HW123219   0.537   4.247  16.750  1.2025 -2.8431 -1.9770
 3919SOL    HW223220   0.485   4.231  16.891 -0.9181 -3.0335  1.3223
 3920SOL     OW23221   2.370   0.161  15.759 -0.6398 -0.1410  0.4015
 3920SOL    HW123222   2.383   0.102  15.685 -0.4400 -0.1406  0.4344
 3920SOL    HW223223   2.461   0.184  15.778 -0.5437  0.6683 -1.1086
 3921SOL     OW23224   1.890   2.713   3.950  0.5821 -0.5332  0.0371
 3921SOL    HW123225   1.894   2.743   3.859 -0.4782  0.2094  0.2324
 3921SOL    HW223226   1.914   2.622   3.935 -0.8864 -1.0310  0.6576
 3922SOL     OW23227   3.605   0.082   3.379  0.0650  0.5273  0.4086
 3922SOL    HW123228   3.537   0.147   3.359 -1.4010 -1.0365  0.3382
 3922SOL    HW223229   3.663   0.125   3.442  1.5507 -1.3843  0.3217
 3923SOL     OW23230   4.551   2.065  16.834  0.2371  0.7634 -0.1222
 3923SOL    HW123231   4.509   2.149  16.849 -0.7273 -0.0117  1.4617
 3923SOL    HW223232   4.539   2.021  16.918  0.7698  1.8944  0.5349
 3924SOL     OW23233   2.574   3.438  15.231  0.3139  0.2543  0.0166
 3924SOL    HW123234   2.507   3.483  15.180  0.3440  1.0962  0.7308
 3924SOL    HW223235   2.567   3.349  15.197  0.9733 -0.0767  0.7398
 3925SOL     OW23236   0.625   1.806   4.715  0.1284  0.2236 -0.1463
 3925SOL    HW123237   0.579   1.722   4.722  0.2048  0.3021  1.5152
 3925SOL    HW223238   0.684   1.786   4.642  1.1467 -0.4734  0.8555
 3926SOL     OW23239   0.075   3.062  11.985 -0.6207  0.3804 -0.2477
 3926SOL    HW123240   0.170   3.050  11.986 -0.9167 -1.9695  0.3285
 3926SOL    HW223241   0.064   3.114  12.065  1.8793  2.0913 -1.0325
 3927SOL     OW23242   4.222   1.901   9.319  0.5033 -0.4389  0.2368
 3927SOL    HW123243   4.133   1.934   9.313 -0.1102 -2.1770  0.0083
 3927SOL    HW223244   4.231   1.830   9.255 -1.6639 -0.3056 -0.1932
 3928SOL     OW23245   3.840   1.887   3.952 -0.0938 -0.3243  0.2662
 3928SOL    HW123246   3.781   1.961   3.963 -1.6302 -1.0890 -2.7377
 3928SOL    HW223247   3.922   1.906   3.997  0.4672 -2.0553  0.0068
 3929SOL     OW23248   0.724   0.759   2.192  0.1974 -0.1068  0.3506
 3929SOL    HW123249   0.747   0.674   2.154  1.1613  0.3029  0.0207
 3929SOL    HW223250   0.654   0.787   2.133  0.5302  1.4879  0.7192
 3930SOL     OW23251   2.264   2.509   1.561  0.1263  0.7501  0.6206
 3930SOL    HW123252   2.237   2.438   1.503  1.3333  2.3817 -1.9530
 3930SOL    HW223253   2.240   2.465   1.643  0.7017 -1.4706 -0.3947
 3931SOL     OW23254   2.957   3.860  13.470 -0.1098 -0.1435 -0.5690
 3931SOL    HW123255   2.862   3.871  13.482  0.2150  2.2896 -0.3043
 3931SOL    HW223256   2.988   3.907  13.548  1.3739 -0.1028 -1.1917
 3932SOL     OW23257   2.576   2.711   5.674  0.1294 -0.3102 -0.3631
 3932SOL    HW123258   2.657   2.757   5.697 -1.1510  0.1762  3.3334
 3932SOL    HW223259   2.605   2.622   5.655 -0.9228  0.0751 -3.6682
 3933SOL     OW23260   3.931   4.016   6.535  1.1718  0.3105 -0.9131
 3933SOL    HW123261   3.969   3.982   6.616 -0.9664 -2.0547 -0.9123
 3933SOL    HW223262   3.871   3.947   6.507  0.6713  0.6801 -0.7393
 3934SOL     OW23263   1.437   1.300  15.640 -0.3448 -0.9030 -0.1325
 3934SOL    HW123264   1.395   1.385  15.647 -2.4492 -2.0650  1.3919
 3934SOL    HW223265   1.500   1.285  15.711 -2.0391 -1.3121  1.2972
 3935SOL     OW23266   0.112   3.459   2.537 -0.3576 -0.1321  0.3838
 3935SOL    HW123267   0.203   3.480   2.515  0.1318 -4.3258 -1.5442
 3935SOL    HW223268   0.095   3.377   2.490 -1.6577  0.1852  0.2932
 3936SOL     OW23269   3.354   0.846   6.471 -0.2080  0.5485 -0.3090
 3936SOL    HW123270   3.333   0.808   6.386  1.7602  1.8734 -1.4026
 3936SOL    HW223271   3.432   0.793   6.488 -0.3986  0.9337  1.8010
 3937SOL     OW23272   3.462   1.130  11.544  0.0211 -0.2641 -0.1128
 3937SOL    HW123273   3.410   1.207  11.566  0.5204 -0.7465  2.8083
 3937SOL    HW223274   3.535   1.163  11.491  0.0171  1.2492  0.8371
 3938SOL     OW23275   3.789   1.208  13.135  0.3837  0.7395 -0.6466
 3938SOL    HW123276   3.864   1.240  13.084 -0.2404  0.3393 -1.8199
 3938SOL    HW223277   3.831   1.128  13.166 -1.6448  0.3868  1.2421
 3939SOL     OW23278   3.504   0.661   5.443  0.5066  0.0623 -0.0484
 3939SOL    HW123279   3.578   0.684   5.385 -2.1496  2.9590 -2.3159
 3939SOL    HW223280   3.464   0.748   5.450  0.8089  0.1769  0.2661
 3940SOL     OW23281   2.248   0.507   4.819  0.4867 -0.1595  0.1952
 3940SOL    HW123282   2.162   0.464   4.821  0.3865  0.0460  0.2793
 3940SOL    HW223283   2.295   0.436   4.863 -1.1603 -1.5229 -0.2201
 3941SOL     OW23284   3.008   4.614  16.600  0.2092 -0.3051 -0.8285
 3941SOL    HW123285   2.947   4.613  16.526 -2.1541 -2.0991  1.1270
 3941SOL    HW223286   2.935   4.626  16.661 -0.3391 -0.9439 -1.3557
 3942SOL     OW23287   4.029   0.321   6.421 -0.0389 -0.1973  0.1952
 3942SOL    HW123288   3.990   0.403   6.451 -1.5500 -1.2819  1.1998
 3942SOL    HW223289   3.954   0.261   6.414  0.5205 -0.7612 -1.1529
 3943SOL     OW23290   3.676   3.235   1.546  0.0542 -0.4149  0.2038
 3943SOL    HW123291   3.690   3.299   1.477 -1.1281  0.6743  0.9727
 3943SOL    HW223292   3.768   3.219   1.568 -0.3200 -1.3371  1.1113
 3944SOL     OW23293   0.498   0.350   5.026 -0.1466 -0.1468 -0.0600
 3944SOL    HW123294   0.474   0.424   4.971  1.1255  0.6311  0.4395
 3944SOL    HW223295   0.476   0.377   5.115 -1.3935  1.3009 -0.8064
 3945SOL     OW23296   1.839   1.893   7.658 -0.3893  0.5532 -0.0623
 3945SOL    HW123297   1.916   1.938   7.622  1.0456 -0.1350  2.1604
 3945SOL    HW223298   1.787   1.885   7.578 -0.8751  2.0843  0.1026
 3946SOL     OW23299   3.116   2.736   5.888 -0.0962  0.3345  0.1273
 3946SOL    HW123300   3.208   2.755   5.908 -0.4600 -0.7236  2.8045
 3946SOL    HW223301   3.124   2.726   5.793  0.8505  0.5267  0.1864
 3947SOL     OW23302   1.496   0.934   1.287 -0.2624  0.1242 -0.0245
 3947SOL    HW123303   1.547   0.892   1.356 -0.7711 -0.9542 -0.3105
 3947SOL    HW223304   1.411   0.927   1.330  0.6872  0.1141  1.8462
 3948SOL     OW23305   3.800   1.417  13.431  0.2917  1.0179 -0.4178
 3948SOL    HW123306   3.889   1.401  13.401  0.2186  0.2298 -0.2007
 3948SOL    HW223307   3.781   1.493  13.375 -1.7791 -1.2301 -2.7484
 3949SOL     OW23308   0.266   4.687   2.663 -0.0665  0.3164 -0.4277
 3949SOL    HW123309   0.220   4.611   2.626  1.5643 -0.0188 -1.7523
 3949SOL    HW223310   0.202   0.028   2.637  0.9269  1.4447 -0.0307
 3950SOL     OW23311   1.038   0.431  13.994  0.2427 -0.4290  0.3210
 3950SOL    HW123312   1.046   0.336  14.000  0.1772 -0.4163  0.5912
 3950SOL    HW223313   1.074   0.466  14.075  0.2481  0.2517  0.0251
 3951SOL     OW23314   1.491   4.551   8.763 -0.0739  0.1315 -0.3504
 3951SOL    HW123315   1.418   4.546   8.825 -0.1978  1.6531 -0.3755
 3951SOL    HW223316   1.457   4.619   8.705 -0.6102 -0.7631 -1.0889
 3952SOL     OW23317   0.709   0.934   0.845  0.3266 -0.4375 -0.7138
 3952SOL    HW123318   0.759   0.985   0.781  0.1297 -0.5247 -0.9335
 3952SOL    HW223319   0.754   0.850   0.849 -1.3411 -1.2112  2.4538
 3953SOL     OW23320   4.153   0.751  12.852 -0.0328 -0.2613  0.2865
 3953SOL    HW123321   4.240   0.719  12.875 -0.0540 -0.0948  0.6024
 3953SOL    HW223322   4.153   0.768  12.758  0.4928 -1.0781  0.1414
 3954SOL     OW23323   3.259   0.416   6.786 -0.4123 -0.1510 -0.6382
 3954SOL    HW123324   3.282   0.345   6.727 -1.2203  0.4704 -1.7126
 3954SOL    HW223325   3.339   0.415   6.838 -1.3432  1.4359  0.8371
 3955SOL     OW23326   2.707   1.174  11.503  0.1520  0.0975 -0.1058
 3955SOL    HW123327   2.615   1.172  11.474  0.1656 -0.2487 -0.1332
 3955SOL    HW223328   2.751   1.199  11.422  2.5995  0.4807  1.3356
 3956SOL     OW23329   2.008   1.759  12.087  0.2895 -0.2424  0.6241
 3956SOL    HW123330   1.916   1.782  12.102 -0.4033 -2.2972 -0.5055
 3956SOL    HW223331   2.040   1.832  12.140  1.2784  1.1384 -1.8961
 3957SOL     OW23332   2.686   3.213   8.805  0.4057 -0.0343  0.6256
 3957SOL    HW123333   2.752   3.264   8.758  0.3528  0.2269  0.8320
 3957SOL    HW223334   2.641   3.158   8.740  1.7923 -0.3041 -0.1012
 3958SOL     OW23335   4.094   1.351   2.632 -0.0318  0.6689  0.0151
 3958SOL    HW123336   4.079   1.352   2.537 -3.2378 -0.4277  0.5150
 3958SOL    HW223337   4.189   1.360   2.634 -0.0406  0.0677  2.2562
 3959SOL     OW23338   0.554   3.918   2.116  0.2195  0.2773 -0.1295
 3959SOL    HW123339   0.585   3.995   2.068 -2.5150 -0.7265 -3.5236
 3959SOL    HW223340   0.635   3.867   2.124  0.7055  0.6535 -2.5707
 3960SOL     OW23341   0.482   2.539   3.247 -0.1105 -0.0164  0.8941
 3960SOL    HW123342   0.563   2.576   3.212  0.7335 -1.6929  1.0459
 3960SOL    HW223343   0.457   2.612   3.304 -1.3770  1.1247 -1.1298
 3961SOL     OW23344   0.782   2.579   9.354 -0.0919 -0.7280  0.2159
 3961SOL    HW123345   0.795   2.602   9.262  1.8237 -0.6617  0.4970
 3961SOL    HW223346   0.830   2.496   9.357 -1.1472 -1.2889  1.7293
 3962SOL     OW23347   1.396   3.079   3.546  0.3468 -0.4037 -0.2583
 3962SOL    HW123348   1.329   3.131   3.589  0.6509 -1.3749  1.4400
 3962SOL    HW223349   1.471   3.138   3.556  0.4025 -0.6107  0.5693
 3963SOL     OW23350   3.874   4.503   7.971 -0.0057  0.2723 -0.1035
 3963SOL    HW123351   3.839   4.588   7.997  1.8053  1.0817 -0.3376
 3963SOL    HW223352   3.941   4.527   7.907  0.7777 -0.1438  0.5607
 3964SOL     OW23353   3.012   4.383   3.698  0.1580  0.3700 -0.5662
 3964SOL    HW123354   3.029   4.327   3.622  0.7590  1.7039 -1.4084
 3964SOL    HW223355   3.056   4.460   3.662  2.8488 -0.9160 -0.0342
 3965SOL     OW23356   2.129   4.357   8.633 -0.6073 -0.2848 -0.2453
 3965SOL    HW123357   2.107   4.340   8.725 -1.0166  1.6318  0.0106
 3965SOL    HW223358   2.151   4.449   8.621 -1.6932 -0.0133 -0.1550
 3966SOL     OW23359   4.453   0.734   5.650  0.0843 -0.0207 -0.0789
 3966SOL    HW123360   4.372   0.682   5.656  0.6408 -0.9542 -0.7000
 3966SOL    HW223361   4.458   0.757   5.743  0.2502 -0.8485  0.1196
 3967SOL     OW23362   2.375   4.620  17.373 -0.3621 -0.3849  0.0482
 3967SOL    HW123363   2.385   4.573  17.290 -0.1121 -0.1654 -0.0448
 3967SOL    HW223364   2.447   4.586  17.427 -1.3748 -3.3908 -0.5075
 3968SOL     OW23365   4.201   2.649   2.383 -0.4670  0.4637 -0.4716
 3968SOL    HW123366   4.182   2.606   2.466 -0.6538 -0.7169 -1.1182
 3968SOL    HW223367   4.182   2.582   2.316 -1.6638 -1.9864  2.3140
 3969SOL     OW23368   2.489   3.192   9.602 -0.1217 -0.1312 -0.2446
 3969SOL    HW123369   2.523   3.151   9.682 -0.7592  0.2340  0.2208
 3969SOL    HW223370   2.521   3.131   9.536  0.7162 -0.4850  0.4851
 3970SOL     OW23371   2.240   1.725   8.914 -0.5340 -0.2597  0.6512
 3970SOL    HW123372   2.304   1.677   8.965 -0.1211  0.0634  0.4420
 3970SOL    HW223373   2.161   1.729   8.967 -2.2899 -3.6937 -1.6722
 3971SOL     OW23374   1.417   1.026   4.076  0.5580 -1.0860  0.2913
 3971SOL    HW123375   1.365   1.106   4.061 -1.6924 -2.6697 -0.3074
 3971SOL    HW223376   1.408   0.980   3.992  0.3984  2.1202 -1.4696
 3972SOL     OW23377   0.101   2.326  15.831 -0.2088  0.1941 -0.0225
 3972SOL    HW123378   0.180   2.319  15.885 -0.4052 -0.3173  0.1973
 3972SOL    HW223379   0.132   2.377  15.756 -3.2568  2.6495  0.4141
 3973SOL     OW23380   3.574   1.443   3.829  0.2473 -0.1008  0.1983
 3973SOL    HW123381   3.602   1.526   3.867 -0.0923  0.0811  0.0532
 3973SOL    HW223382   3.555   1.472   3.740 -0.9376 -2.2231 -0.2431
 3974SOL     OW23383   2.518   2.107   1.712 -0.1857 -0.9150 -0.4222
 3974SOL    HW123384   2.611   2.098   1.694 -0.3377 -0.4336 -1.4181
 3974SOL    HW223385   2.520   2.179   1.775 -1.4155 -0.8319 -0.4785
 3975SOL     OW23386   2.918   0.314   6.642  0.7608  0.3145 -0.0958
 3975SOL    HW123387   2.978   0.274   6.579  2.8007 -0.2095  2.1772
 3975SOL    HW223388   2.976   0.376   6.686 -0.9050  2.0401 -0.3462
 3976SOL     OW23389   4.439   3.338   4.144  0.2982 -0.5587 -0.2972
 3976SOL    HW123390   4.503   3.299   4.203  2.2148  1.7920 -0.8573
 3976SOL    HW223391   4.377   3.360   4.213  0.2265  1.5657 -1.0514
 3977SOL     OW23392   1.353   3.184   2.050 -0.5262  0.2470 -0.0456
 3977SOL    HW123393   1.297   3.151   2.120 -0.4975  0.0178 -0.1311
 3977SOL    HW223394   1.391   3.099   2.029  0.9428  1.3632 -1.9529
 3978SOL     OW23395   4.504   3.873  14.915 -0.4480 -0.2557 -0.2211
 3978SOL    HW123396   4.592   3.908  14.929 -1.1003  0.7150  1.5379
 3978SOL    HW223397   4.456   3.924  14.980 -0.1922 -0.9175  0.4798
 3979SOL     OW23398   2.443   2.155   3.083 -0.0582 -0.2706 -0.1967
 3979SOL    HW123399   2.515   2.170   3.143  0.2125  2.4890 -1.2146
 3979SOL    HW223400   2.421   2.068   3.117 -0.6905  0.3315  0.9473
 3980SOL     OW23401   3.857   1.285   6.026 -0.3756 -0.1200 -0.7328
 3980SOL    HW123402   3.766   1.309   6.006 -0.5849  0.6909  1.2322
 3980SOL    HW223403   3.873   1.302   6.119 -1.0861  1.2602 -0.8529
 3981SOL     OW23404   2.568   3.818   5.481 -0.1323 -0.3139 -0.1134
 3981SOL    HW123405   2.642   3.793   5.536  1.1389 -1.4348 -2.2987
 3981SOL    HW223406   2.537   3.731   5.454 -4.6243  0.3587  2.8608
 3982SOL     OW23407   0.028   2.577  13.206  0.6279 -0.3527 -0.2676
 3982SOL    HW123408   0.057   2.589  13.297 -1.0833  0.2766  0.1973
 3982SOL    HW223409   0.103   2.598  13.150  0.7586 -1.8729 -0.6545
 3983SOL     OW23410   1.302   0.087   2.507 -0.0841 -0.6076  0.3085
 3983SOL    HW123411   1.224   0.064   2.558 -0.5294 -0.7999 -0.4661
 3983SOL    HW223412   1.267   0.090   2.418  1.1936 -1.8827 -0.2232
 3984SOL     OW23413   0.083   1.724  10.640  0.1121 -0.2348  0.3550
 3984SOL    HW123414   0.138   1.798  10.615 -0.7267  1.1373  2.5045
 3984SOL    HW223415   0.094   1.663  10.567 -3.3014  0.0809 -0.4397
 3985SOL     OW23416   3.382   3.393  15.844 -0.2109 -0.0685  0.4656
 3985SOL    HW123417   3.407   3.338  15.918 -1.6793  0.6003  1.4425
 3985SOL    HW223418   3.288   3.400  15.860  0.0996  0.3246  2.0860
 3986SOL     OW23419   1.457   3.759   1.084 -0.6461  0.1668 -0.1951
 3986SOL    HW123420   1.459   3.681   1.028 -2.5727 -0.9848  1.3402
 3986SOL    HW223421   1.537   3.805   1.061 -1.2777  1.5426  0.3560
 3987SOL     OW23422   4.224   4.332   4.378 -0.1700 -0.2161 -0.4529
 3987SOL    HW123423   4.237   4.280   4.299  0.2624  1.2852 -1.3791
 3987SOL    HW223424   4.185   4.260   4.427  0.9601  0.9425  2.1751
 3988SOL     OW23425   2.923   3.934   6.859 -0.0742 -0.4188 -0.1447
 3988SOL    HW123426   2.956   3.907   6.944 -0.1259  0.6791  0.2250
 3988SOL    HW223427   2.832   3.908   6.873  0.0354  0.4757  2.2599
 3989SOL     OW23428   4.492   4.388  12.796  0.0584  0.2297 -0.4490
 3989SOL    HW123429   4.576   4.405  12.838 -0.2444  2.3369 -0.7067
 3989SOL    HW223430   4.456   4.323  12.856  1.9467  0.4664  0.9439
 3990SOL     OW23431   3.411   1.085   7.022 -0.4684 -0.0439 -0.5570
 3990SOL    HW123432   3.378   1.008   6.976 -1.7787  0.5542 -0.6350
 3990SOL    HW223433   3.332   1.137   7.038 -0.6030 -0.5927  0.5850
 3991SOL     OW23434   2.823   1.766   5.773 -0.5170 -0.2303  0.0117
 3991SOL    HW123435   2.760   1.830   5.805  0.2688  0.9203 -0.7135
 3991SOL    HW223436   2.838   1.715   5.852  0.4733 -1.0100 -0.6715
 3992SOL     OW23437   3.209   2.887   0.639 -0.4846  0.2482 -0.3771
 3992SOL    HW123438   3.274   2.821   0.613  1.4082  1.7399  0.5266
 3992SOL    HW223439   3.139   2.824   0.652  2.0923 -2.2578  1.5455
 3993SOL     OW23440   3.974   1.240  15.284 -0.5002  0.2993  0.4275
 3993SOL    HW123441   3.916   1.171  15.252 -0.7308  0.0832  1.2997
 3993SOL    HW223442   4.061   1.212  15.256 -1.1152 -0.7601 -0.4233
 3994SOL     OW23443   1.444   1.887   5.127  0.0065  0.1341 -0.2272
 3994SOL    HW123444   1.349   1.901   5.127 -0.4399 -2.9120  0.0130
 3994SOL    HW223445   1.449   1.923   5.039  0.5072  0.8179  0.0802
 3995SOL     OW23446   4.409   4.695  17.694 -0.0884  0.5214 -0.3338
 3995SOL    HW123447   4.325   0.015  17.682  0.8605  2.1303 -1.1351
 3995SOL    HW223448   4.388   4.605  17.671  1.3146  0.1176 -0.0026
 3996SOL     OW23449   1.889   4.339  16.250 -0.0300  0.6444  0.5504
 3996SOL    HW123450   1.867   4.394  16.175  0.6437 -0.6500 -0.6107
 3996SOL    HW223451   1.856   4.384  16.327  1.4148  0.1735  1.4421
 3997SOL     OW23452   3.327   1.067   7.536  0.1915  0.1872  0.5649
 3997SOL    HW123453   3.273   0.998   7.498  1.4010 -0.3472 -0.1900
 3997SOL    HW223454   3.258   1.130   7.557 -0.7020 -0.4204 -0.5882
 3998SOL     OW23455   2.256   1.867   8.651  0.3357  0.0188 -0.3516
 3998SOL    HW123456   2.164   1.846   8.672 -0.1300  0.1318 -2.2820
 3998SOL    HW223457   2.310   1.817   8.712 -0.1318  2.1528  1.7808
 3999SOL     OW23458   2.449   0.685  10.454 -0.3282 -0.4176 -0.2108
 3999SOL    HW123459   2.540   0.713  10.452 -1.2832  2.7688  0.7559
 3999SOL    HW223460   2.439   0.669  10.548 -1.2242 -2.2690 -0.6082
 4000SOL     OW23461   2.877   4.614   2.305  0.9042  0.1750 -0.1292
 4000SOL    HW123462   2.946   4.560   2.341  0.7754 -1.8790 -2.9718
 4000SOL    HW223463   2.877   4.590   2.212 -1.1217  0.9395 -0.3350
 4001SOL     OW23464   0.988   4.173   9.746  0.5466  0.0927 -0.4169
 4001SOL    HW123465   0.935   4.157   9.825  1.3262 -0.5943 -0.0413
 4001SOL    HW223466   0.985   4.268   9.741  1.9420  0.1525  0.0123
 4002SOL     OW23467   0.015   1.535   5.845  0.2277  0.1521 -0.0100
 4002SOL    HW123468   4.691   1.488   5.777  0.4112 -0.0871  0.0258
 4002SOL    HW223469   0.009   1.474   5.918 -1.3694 -0.3990 -0.6094
 4003SOL     OW23470   4.038   0.984   0.744 -0.4591  0.2144  0.8971
 4003SOL    HW123471   3.976   1.036   0.793 -0.9941  0.7650 -0.3674
 4003SOL    HW223472   4.014   0.998   0.652  1.2115  0.7956  0.5424
 4004SOL     OW23473   1.096   0.863   5.433  0.2030  0.3823  0.4879
 4004SOL    HW123474   1.036   0.789   5.443  0.4891  0.1106  0.1699
 4004SOL    HW223475   1.171   0.817   5.395  0.8511  0.6802  1.4062
 4005SOL     OW23476   1.904   3.220   5.422  0.2548  0.0727  0.0200
 4005SOL    HW123477   1.956   3.150   5.383 -0.8472  0.4849 -2.1513
 4005SOL    HW223478   1.919   3.218   5.517  0.1637 -1.6724 -0.0153
 4006SOL     OW23479   2.221   4.239   0.772 -0.0255  0.2003 -0.1168
 4006SOL    HW123480   2.294   4.293   0.803  0.6897 -0.0326 -1.3752
 4006SOL    HW223481   2.182   4.286   0.698 -0.4667 -0.4564 -0.2989
 4007SOL     OW23482   3.546   1.356   2.466  0.1401  0.4511  0.4254
 4007SOL    HW123483   3.605   1.430   2.480 -1.7986  2.0652  0.0428
 4007SOL    HW223484   3.485   1.374   2.538 -1.0588  0.3549 -0.5649
 4008SOL     OW23485   1.653   4.221   7.785  0.6112  0.1593  0.0500
 4008SOL    HW123486   1.671   4.296   7.842  0.4183 -0.1465  0.5132
 4008SOL    HW223487   1.633   4.149   7.846  1.7433 -1.0104 -0.9507
 4009SOL     OW23488   3.586   3.382   3.380 -0.2159  0.4069  0.0648
 4009SOL    HW123489   3.584   3.364   3.474  1.3875  3.7076  0.7242
 4009SOL    HW223490   3.657   3.320   3.361  0.0837  0.5331  0.7845
 4010SOL     OW23491   3.519   3.670  17.066  0.0143 -0.0254  0.4837
 4010SOL    HW123492   3.585   3.675  16.997 -0.5799  0.3273 -0.0525
 4010SOL    HW223493   3.545   3.579  17.084 -1.5712 -0.2514  1.6657
 4011SOL     OW23494   0.216   2.975   8.631 -0.1016  0.1428  0.0295
 4011SOL    HW123495   0.300   3.011   8.601  0.1014 -1.5092 -1.3920
 4011SOL    HW223496   0.198   3.015   8.716 -0.8580  1.0231 -0.5519
 4012SOL     OW23497   2.994   2.366   8.152 -0.5080 -0.2196 -0.2089
 4012SOL    HW123498   2.937   2.289   8.145 -0.8277  0.0031 -0.0403
 4012SOL    HW223499   2.936   2.426   8.199  0.0804  0.0044  0.2289
 4013SOL     OW23500   2.510   1.316   8.106  0.0827 -0.1589  0.7224
 4013SOL    HW123501   2.570   1.389   8.090 -0.2245 -0.4763 -1.8549
 4013SOL    HW223502   2.452   1.341   8.177  1.3285  1.8042  1.0406
 4014SOL     OW23503   0.945   3.921  15.670  0.0687 -0.2090  0.4779
 4014SOL    HW123504   1.040   3.916  15.686  0.1909 -0.0174 -0.1808
 4014SOL    HW223505   0.918   3.910  15.762  0.5930  0.1765  0.6762
 4015SOL     OW23506   1.222   0.483   1.999 -0.3950 -0.5484 -0.2537
 4015SOL    HW123507   1.228   0.494   2.094 -0.0759 -1.5472 -0.1570
 4015SOL    HW223508   1.255   0.564   1.960 -2.2172 -0.2440 -1.1245
 4016SOL     OW23509   3.717   0.268  11.033 -0.6693  0.0378  0.4702
 4016SOL    HW123510   3.662   0.193  11.057  1.2713 -1.3635  0.4476
 4016SOL    HW223511   3.795   0.252  11.087  0.1719 -0.6265 -0.9630
 4017SOL     OW23512   3.098   2.460   4.332 -0.1502  0.0569 -0.3774
 4017SOL    HW123513   3.039   2.477   4.259  0.7615  1.3532 -0.7939
 4017SOL    HW223514   3.031   2.438   4.396 -1.6618  2.6142 -1.0928
 4018SOL     OW23515   3.876   3.380   4.666  0.0538  0.8460  0.0152
 4018SOL    HW123516   3.901   3.322   4.737 -1.9209  1.1925  0.9791
 4018SOL    HW223517   3.782   3.360   4.665 -0.0566  1.4569 -1.7607
 4019SOL     OW23518   4.458   4.480   3.065  0.5589  0.4807  0.1369
 4019SOL    HW123519   4.479   4.555   3.009 -1.2457  2.0872  1.5962
 4019SOL    HW223520   4.500   4.503   3.148 -0.9592 -2.5421  1.7207
 4020SOL     OW23521   2.751   0.229   0.764 -0.0068 -0.7056  0.5697
 4020SOL    HW123522   2.753   0.269   0.851  1.3319  0.1232  0.1520
 4020SOL    HW223523   2.798   0.295   0.713 -0.0729 -1.3315 -0.2858
 4021SOL     OW23524   4.031   4.587   3.680 -0.4125 -0.5304 -0.3627
 4021SOL    HW123525   3.949   4.589   3.631 -2.2284  0.5338  2.7077
 4021SOL    HW223526   3.985   4.599   3.764 -1.1614  1.6868 -1.0880
 4022SOL     OW23527   0.399   4.250   8.404  0.4310  0.7531  0.0603
 4022SOL    HW123528   0.436   4.289   8.483 -2.0340 -0.6189  1.8915
 4022SOL    HW223529   0.334   4.314   8.376  0.1416 -0.4035 -1.9183
 4023SOL     OW23530   4.137   0.999  12.978 -1.1989 -0.1985 -0.5933
 4023SOL    HW123531   4.153   0.911  12.942 -1.4538 -0.0653 -1.0230
 4023SOL    HW223532   4.171   1.066  12.919  1.1397  0.6581  1.7297
 4024SOL     OW23533   1.742   3.600   3.353  0.0678  0.6171  0.2034
 4024SOL    HW123534   1.735   3.636   3.264  0.1005  1.4973  0.5552
 4024SOL    HW223535   1.658   3.596   3.398 -1.9971 -0.5404 -3.7614
 4025SOL     OW23536   1.721   0.112   1.256 -0.4517 -0.3952  0.3992
 4025SOL    HW123537   1.669   0.141   1.180  1.3420  0.1686 -0.6255
 4025SOL    HW223538   1.801   0.164   1.250  0.9158 -2.0300  4.6669
 4026SOL     OW23539   2.440   3.285   6.818  0.0198  0.2982 -0.0476
 4026SOL    HW123540   2.419   3.337   6.741  0.5817 -0.3876 -0.6563
 4026SOL    HW223541   2.428   3.333   6.900  0.1639  0.4831 -0.1350
 4027SOL     OW23542   3.109   0.443   8.802  0.4541  0.3667 -0.2017
 4027SOL    HW123543   3.139   0.382   8.869 -0.0178  1.2916  0.8503
 4027SOL    HW223544   3.158   0.514   8.844 -2.4351  1.6362  1.0540
 4028SOL     OW23545   3.552   4.046   8.732  0.4466  0.2229 -0.5398
 4028SOL    HW123546   3.487   3.989   8.691  2.3529 -1.3418 -1.4059
 4028SOL    HW223547   3.624   4.025   8.673  1.5392  2.1937  0.1019
 4029SOL     OW23548   4.519   1.485   4.638  0.0244 -0.5681  0.8155
 4029SOL    HW123549   4.601   1.534   4.640 -0.0735 -0.4050  0.8617
 4029SOL    HW223550   4.482   1.495   4.550 -0.9548 -0.5421  1.2358
 4030SOL     OW23551   3.316   0.275   5.486 -0.3513 -0.5415 -0.7945
 4030SOL    HW123552   3.330   0.192   5.441 -2.0910 -0.7045 -1.0359
 4030SOL    HW223553   3.359   0.337   5.427 -2.3001  0.9883 -0.5935
 4031SOL     OW23554   2.709   1.926  10.173  0.4760 -0.1198 -0.2551
 4031SOL    HW123555   2.730   2.018  10.188 -0.4769  0.0643 -0.0513
 4031SOL    HW223556   2.731   1.922  10.079 -1.2630  0.8368 -0.6870
 4032SOL     OW23557   2.658   4.612  15.904 -0.4735 -0.4327 -0.0668
 4032SOL    HW123558   2.742   4.629  15.946 -0.1287 -2.0038 -0.1455
 4032SOL    HW223559   2.646   4.688  15.846 -1.6475 -1.1057 -0.7083
 4033SOL     OW23560   1.950   0.155   4.464  0.2738 -0.1471 -0.5482
 4033SOL    HW123561   1.994   0.099   4.527  2.0765  0.3609 -1.3610
 4033SOL    HW223562   1.891   0.098   4.414 -0.4253  0.1445 -0.0568
 4034SOL     OW23563   2.350   4.250  12.641  0.3159 -0.4702 -1.1133
 4034SOL    HW123564   2.329   4.340  12.614 -1.9729 -0.9482 -0.8762
 4034SOL    HW223565   2.259   4.223  12.643  0.1993  0.0225  0.6285
 4035SOL     OW23566   1.876   0.165   7.679  0.7350 -0.4380  0.2196
 4035SOL    HW123567   1.906   0.079   7.709 -0.5065 -1.3428 -1.1192
 4035SOL    HW223568   1.781   0.152   7.677  0.9052 -2.0105  1.6877
 4036SOL     OW23569   1.876   1.714  14.144  0.2388 -0.7515 -0.2060
 4036SOL    HW123570   1.913   1.685  14.061 -0.9532  0.5042 -1.1766
 4036SOL    HW223571   1.892   1.638  14.200  1.3874  0.6347  1.3225
 4037SOL     OW23572   3.394   1.123   6.488  0.4567 -0.4432 -0.6396
 4037SOL    HW123573   3.486   1.101   6.475  0.2947 -2.0653  0.9088
 4037SOL    HW223574   3.371   1.033   6.512 -1.3318  0.2395  0.2346
 4038SOL     OW23575   1.072   1.785   4.518  0.0905 -0.2066  0.6247
 4038SOL    HW123576   1.074   1.689   4.515  0.4708 -0.1755 -0.1015
 4038SOL    HW223577   0.994   1.794   4.464  1.5557 -1.0203 -1.5983
 4039SOL     OW23578   3.628   2.127   5.709 -0.8824 -0.0736  0.3200
 4039SOL    HW123579   3.683   2.192   5.753  0.3921 -1.5161  0.8489
 4039SOL    HW223580   3.624   2.066   5.782 -0.6173  1.0767  1.2936
 4040SOL     OW23581   2.474   3.870   6.269 -0.0233 -0.2087 -0.1452
 4040SOL    HW123582   2.461   3.777   6.288  0.4642 -0.9215 -3.3695
 4040SOL    HW223583   2.548   3.861   6.210 -0.6595  1.6141 -1.2035
 4041SOL     OW23584   0.823   1.244  12.493 -0.7094 -0.2879  0.2923
 4041SOL    HW123585   0.913   1.269  12.473 -0.8552  0.3350  0.4103
 4041SOL    HW223586   0.774   1.323  12.473 -0.8128 -0.4465 -0.0849
 4042SOL     OW23587   2.024   3.352   2.068  0.0671 -0.1341  0.5130
 4042SOL    HW123588   1.982   3.407   2.002  0.0706  0.0027  0.6251
 4042SOL    HW223589   1.975   3.383   2.144 -0.4224 -1.7417  0.8534
 4043SOL     OW23590   4.491   0.654  15.627 -0.4574 -0.3930  0.4519
 4043SOL    HW123591   4.484   0.723  15.561 -2.0242  1.3449  2.4348
 4043SOL    HW223592   4.450   0.688  15.706  1.8653 -0.1809  1.5891
 4044SOL     OW23593   3.941   2.751   5.765 -0.1148  0.1040 -0.0383
 4044SOL    HW123594   3.982   2.677   5.809  0.9103 -0.7318 -2.3989
 4044SOL    HW223595   3.911   2.712   5.683  1.7841  2.4748 -1.8584
 4045SOL     OW23596   2.758   1.974  10.561  0.4790 -0.1910 -0.3736
 4045SOL    HW123597   2.796   1.891  10.590  3.3140  1.6552  1.1564
 4045SOL    HW223598   2.790   2.036  10.626  2.8552  0.4871 -2.2098
 4046SOL     OW23599   4.573   3.781   5.245 -0.3989  0.4019  0.0551
 4046SOL    HW123600   4.524   3.813   5.322 -0.1292  1.5587 -0.2466
 4046SOL    HW223601   4.511   3.819   5.182 -0.7600  0.4174  0.4141
 4047SOL     OW23602   3.340   4.087   4.122  0.0857  0.5563  0.4026
 4047SOL    HW123603   3.251   4.105   4.150  0.3568  0.1579  1.5021
 4047SOL    HW223604   3.357   4.004   4.166  2.4462  0.6796 -0.2421
 4048SOL     OW23605   0.439   0.040   6.757 -0.0427 -0.7914 -0.1084
 4048SOL    HW123606   0.373   0.048   6.826  0.6609 -0.3236  0.5047
 4048SOL    HW223607   0.438   0.131   6.730 -0.8030 -1.1173 -1.1716
 4049SOL     OW23608   3.487   1.066  10.082 -0.1536  0.8191  0.0245
 4049SOL    HW123609   3.396   1.092  10.069 -1.0044 -2.7610 -1.1162
 4049SOL    HW223610   3.479   0.971  10.068 -1.5309  0.9220  0.1428
 4050SOL     OW23611   3.449   2.562   6.498  0.1111  0.1616  0.1116
 4050SOL    HW123612   3.458   2.488   6.437 -1.8513 -0.3311  0.4128
 4050SOL    HW223613   3.518   2.539   6.560 -0.6890 -0.0405  0.9374
 4051SOL     OW23614   4.701   1.897   6.647  0.0669 -0.8489 -0.0274
 4051SOL    HW123615   0.067   1.905   6.677 -1.0479 -0.2296  3.0738
 4051SOL    HW223616   4.680   1.805   6.659  1.8188 -1.2914 -0.3192
 4052SOL     OW23617   1.753   1.682   3.546  0.3278 -0.5583 -0.3292
 4052SOL    HW123618   1.706   1.759   3.578  2.0992  0.2938  0.2177
 4052SOL    HW223619   1.841   1.712   3.524  1.0082 -1.1708  1.5640
 4053SOL     OW23620   3.550   3.330   2.370 -0.2810 -0.0013  0.3636
 4053SOL    HW123621   3.638   3.311   2.338 -0.6681  1.2224 -1.4575
 4053SOL    HW223622   3.519   3.404   2.317 -1.6398 -0.4347  0.5668
 4054SOL     OW23623   4.669   0.034  13.857 -0.2536  0.4982 -0.0495
 4054SOL    HW123624   4.622   4.684  13.819  1.9841 -0.0228 -1.7696
 4054SOL    HW223625   4.634   0.110  13.810  0.5580  0.5255 -0.5915
 4055SOL     OW23626   0.063   1.254   2.994 -0.2596 -0.9322 -0.2181
 4055SOL    HW123627   0.015   1.175   3.017 -1.7871  0.0032 -0.1801
 4055SOL    HW223628   0.144   1.214   2.964 -0.5773  0.2427 -2.6433
 4056SOL     OW23629   0.772   3.723   4.688 -0.1061  0.2182 -0.7825
 4056SOL    HW123630   0.866   3.733   4.670  0.4540 -1.3422  1.3349
 4056SOL    HW223631   0.735   3.804   4.653  2.2536  0.6292 -2.3982
 4057SOL     OW23632   0.607   2.614  14.820  0.1377 -0.1651 -0.0525
 4057SOL    HW123633   0.664   2.611  14.897  1.5594 -0.6737 -1.1323
 4057SOL    HW223634   0.575   2.524  14.816 -0.1717  0.0029 -1.2941
 4058SOL     OW23635   3.784   1.165   3.409  0.4285  0.1749  0.0543
 4058SOL    HW123636   3.708   1.213   3.440 -1.2471 -1.9140 -0.8191
 4058SOL    HW223637   3.847   1.185   3.478  0.6880 -1.1228  0.1866
 4059SOL     OW23638   1.180   1.328   7.164  0.5232 -0.4887 -0.1150
 4059SOL    HW123639   1.115   1.384   7.121 -1.7124 -1.7961  1.5428
 4059SOL    HW223640   1.222   1.395   7.217  0.0128  0.5562 -1.0326
 4060SOL     OW23641   1.431   2.405  14.895 -0.5534 -0.7857  0.4426
 4060SOL    HW123642   1.336   2.410  14.888 -0.4887 -0.1950 -0.1249
 4060SOL    HW223643   1.450   2.352  14.972 -0.8006 -0.5127  0.6876
 4061SOL     OW23644   4.612   0.450  14.637  0.3080  0.9816 -0.4173
 4061SOL    HW123645   4.677   0.439  14.707 -0.2914 -0.5531 -0.1110
 4061SOL    HW223646   4.647   0.380  14.583  1.1334  2.0190 -1.2394
 4062SOL     OW23647   0.978   0.344   5.515 -0.3512  0.1492 -0.1636
 4062SOL    HW123648   0.885   0.364   5.529 -0.4918 -0.9897  0.4915
 4062SOL    HW223649   0.985   0.352   5.420  1.6999  1.5815  0.1095
 4063SOL     OW23650   2.997   3.607   3.482  0.0188  0.0566 -0.0957
 4063SOL    HW123651   3.020   3.563   3.400  3.3424  3.2881 -0.8966
 4063SOL    HW223652   3.003   3.697   3.451  1.1004 -0.0360 -0.1614
 4064SOL     OW23653   4.724   4.596  16.093  0.1032 -0.2420 -0.6147
 4064SOL    HW123654   4.675   4.656  16.038 -0.7702 -1.3789 -1.0893
 4064SOL    HW223655   0.035   4.534  16.029 -1.9058 -2.7208  0.6428
 4065SOL     OW23656   1.542   3.905   2.141 -0.0319 -0.1020 -0.1856
 4065SOL    HW123657   1.469   3.939   2.192  0.3962  0.5847 -0.0363
 4065SOL    HW223658   1.611   3.970   2.148  0.2473 -0.6370  2.0565
 4066SOL     OW23659   2.644   2.210  11.424  0.0135 -0.3832 -0.2365
 4066SOL    HW123660   2.627   2.170  11.509 -0.0596 -1.5736 -0.8050
 4066SOL    HW223661   2.717   2.271  11.434  0.2500 -0.5866 -0.6733
 4067SOL     OW23662   2.500   0.117   5.652 -0.0044  0.0065 -0.2065
 4067SOL    HW123663   2.456   0.153   5.729  1.2296 -1.4268  1.1458
 4067SOL    HW223664   2.591   0.139   5.675 -0.1627  0.6352 -0.1874
 4068SOL     OW23665   4.565   0.066   5.221  0.3660  0.3132  0.1585
 4068SOL    HW123666   4.580   0.099   5.132 -1.7313  0.1913 -0.2269
 4068SOL    HW223667   4.513   4.711   5.209 -0.6479  0.7919  1.5027
 4069SOL     OW23668   1.000   0.961   6.075 -0.0899 -0.3437 -0.1029
 4069SOL    HW123669   0.999   0.924   5.987  2.0512 -1.0277  0.1566
 4069SOL    HW223670   1.041   1.046   6.059 -1.9686  0.6055  0.1499
 4070SOL     OW23671   3.427   0.786   7.649  0.1442 -0.3989  0.4846
 4070SOL    HW123672   3.349   0.746   7.689 -0.6744  1.2971  0.6038
 4070SOL    HW223673   3.380   0.839   7.585  0.3385  0.1110  0.7619
 4071SOL     OW23674   0.968   1.494  11.252 -0.0600  0.1450 -0.1317
 4071SOL    HW123675   0.912   1.514  11.326  2.3530  1.8472  1.2163
 4071SOL    HW223676   1.047   1.542  11.277  1.1977 -0.6942 -2.4540
 4072SOL     OW23677   2.422   0.023   4.312 -0.0255 -0.3716 -0.3475
 4072SOL    HW123678   2.348   0.082   4.328  0.5407 -0.3885  2.3399
 4072SOL    HW223679   2.456   0.057   4.229  3.7310 -2.3871  0.3944
 4073SOL     OW23680   3.774   4.075   8.549 -0.1574  0.6370  0.1337
 4073SOL    HW123681   3.799   4.120   8.630  0.6730 -0.5053  0.5158
 4073SOL    HW223682   3.861   4.043   8.525 -0.8399  1.1366 -2.9388
 4074SOL     OW23683   1.694   2.910   8.085 -0.7190  0.4335 -0.1540
 4074SOL    HW123684   1.784   2.944   8.082 -0.7483  0.6303  1.0313
 4074SOL    HW223685   1.661   2.908   7.996 -1.3612  4.3364 -0.0128
 4075SOL     OW23686   2.504   3.183  15.149 -0.0231 -0.0889 -0.0170
 4075SOL    HW123687   2.420   3.151  15.116 -0.4337  0.0356  0.9235
 4075SOL    HW223688   2.547   3.097  15.157 -0.4124 -0.2294  0.5093
 4076SOL     OW23689   1.764   3.378   4.528 -0.0008  0.3608  0.4848
 4076SOL    HW123690   1.847   3.415   4.559  0.8739 -0.0965 -1.3310
 4076SOL    HW223691   1.696   3.439   4.558 -0.5412  0.0591 -0.1351
 4077SOL     OW23692   2.629   2.655  11.881  0.1896 -0.7198  0.5709
 4077SOL    HW123693   2.594   2.720  11.820 -0.5341 -2.7964 -1.2404
 4077SOL    HW223694   2.553   2.597  11.879 -0.8248  0.6040  0.5293
 4078SOL     OW23695   2.929   2.204   3.271 -0.4262  0.2529 -0.3717
 4078SOL    HW123696   2.966   2.118   3.252 -0.0547  0.7408 -1.8597
 4078SOL    HW223697   2.934   2.196   3.366  0.1055 -2.9029 -0.6713
 4079SOL     OW23698   3.424   2.207   6.514 -0.0978 -0.5915  0.3080
 4079SOL    HW123699   3.328   2.211   6.510  0.1001  3.4900 -0.4227
 4079SOL    HW223700   3.436   2.298   6.541 -2.8149 -0.4052  0.8726
 4080SOL     OW23701   1.353   1.684   6.292 -0.9997 -0.0999 -0.8948
 4080SOL    HW123702   1.435   1.649   6.326 -0.0532  3.2799  0.3254
 4080SOL    HW223703   1.293   1.656   6.361  0.5281 -1.2188 -0.0224
 4081SOL     OW23704   3.446   3.187   6.230 -0.7716  0.4289  0.2085
 4081SOL    HW123705   3.458   3.279   6.204 -0.9431 -0.3486 -2.5871
 4081SOL    HW223706   3.362   3.170   6.189 -0.9544  0.6409  0.4948
 4082SOL     OW23707   2.499   2.436   2.256  0.0796  0.2826 -0.0649
 4082SOL    HW123708   2.489   2.490   2.178 -0.1128 -0.7800 -0.7808
 4082SOL    HW223709   2.520   2.347   2.227  1.7871  1.4829 -2.4354
 4083SOL     OW23710   0.983   3.657  17.238 -0.3162  0.1518 -0.0677
 4083SOL    HW123711   0.941   3.642  17.323  0.3808 -0.9931  0.0673
 4083SOL    HW223712   0.988   3.568  17.203 -0.3510 -0.1159  0.5992
 4084SOL     OW23713   1.882   4.639  17.053  0.2949 -0.0261 -0.0908
 4084SOL    HW123714   1.904   4.591  16.973 -1.3113 -0.9974  0.0357
 4084SOL    HW223715   1.918   4.724  17.027  1.5584 -0.9937 -1.5323
 4085SOL     OW23716   4.349   2.685   0.144 -0.3475  0.1546 -0.2471
 4085SOL    HW123717   4.381   2.600   0.176  2.2162  1.0938 -0.3517
 4085SOL    HW223718   4.255   2.675   0.162 -0.4616  0.9029 -0.4388
 4086SOL     OW23719   0.017   2.597   5.389 -0.2578  0.1661 -0.4385
 4086SOL    HW123720   0.057   2.519   5.352  0.7880  0.8636 -0.7557
 4086SOL    HW223721   0.007   2.560   5.477  1.0633  0.4832 -0.1681
 4087SOL     OW23722   2.673   3.527   8.237 -0.2974  0.0779 -0.3723
 4087SOL    HW123723   2.678   3.553   8.145 -2.6267 -1.0321 -0.8152
 4087SOL    HW223724   2.709   3.439   8.240  3.8370  1.8515  1.4623
 4088SOL     OW23725   0.293   1.025   0.607  0.0148 -0.1520  0.4868
 4088SOL    HW123726   0.371   0.976   0.579  0.5622  0.7699  0.3774
 4088SOL    HW223727   0.324   1.116   0.610  2.2275 -0.8878 -0.3037
 4089SOL     OW23728   2.140   1.013   2.921 -0.2864 -0.0646  0.5702
 4089SOL    HW123729   2.177   0.928   2.898 -2.6048 -0.8633 -0.1948
 4089SOL    HW223730   2.217   1.060   2.952 -0.0053 -0.1645  0.0357
 4090SOL     OW23731   2.234   3.260  11.276 -0.1214 -0.0521 -0.1597
 4090SOL    HW123732   2.273   3.344  11.253 -0.5462 -0.3289 -1.8914
 4090SOL    HW223733   2.237   3.225  11.187 -0.2145  2.3598 -1.1052
 4091SOL     OW23734   3.313   0.865   6.908  0.3804  0.5019 -0.3139
 4091SOL    HW123735   3.246   0.867   6.839  0.2042  0.4389 -0.1440
 4091SOL    HW223736   3.377   0.806   6.867  1.7761  0.1984  2.3241
 4092SOL     OW23737   1.114   3.566   4.524  0.3404  0.0276 -0.0468
 4092SOL    HW123738   1.071   3.652   4.525 -0.0859 -0.1584 -2.0513
 4092SOL    HW223739   1.204   3.583   4.550  0.3398  0.5812 -0.4026
 4093SOL     OW23740   4.395   3.220   6.367 -0.1588 -0.3651 -0.0085
 4093SOL    HW123741   4.381   3.127   6.354 -3.7656  0.1902 -0.1134
 4093SOL    HW223742   4.309   3.258   6.386 -0.8011 -0.3396 -3.0603
 4094SOL     OW23743   2.226   4.030   6.725 -0.3398  0.6117  0.1285
 4094SOL    HW123744   2.279   4.003   6.650 -1.9813  1.3407 -1.2930
 4094SOL    HW223745   2.170   3.954   6.738 -1.1755  1.3573  0.9332
 4095SOL     OW23746   1.921   3.905   2.201 -0.3156  0.1914  0.1357
 4095SOL    HW123747   1.896   3.890   2.110 -1.2845 -0.2584  0.4674
 4095SOL    HW223748   1.946   3.819   2.234 -2.8621 -0.4296  0.4883
 4096SOL     OW23749   0.142   1.325   6.240 -0.0677  0.1540  0.4785
 4096SOL    HW123750   0.170   1.415   6.256  1.6516 -0.4228  0.6914
 4096SOL    HW223751   0.138   1.293   6.330 -0.7278 -1.3646 -0.0985
 4097SOL     OW23752   0.413   2.487   5.029 -0.3537 -0.2283  0.6998
 4097SOL    HW123753   0.439   2.566   4.983  0.9296 -0.9400  0.1910
 4097SOL    HW223754   0.472   2.496   5.104  0.1057  0.9030  0.1911
 4098SOL     OW23755   3.103   2.656   7.075 -0.3124  0.6122  0.6060
 4098SOL    HW123756   3.096   2.612   7.159  1.7505  0.2302  0.5813
 4098SOL    HW223757   3.188   2.622   7.047 -0.7688  0.9796 -1.2415
 4099SOL     OW23758   2.762   2.516   3.867 -1.0981 -0.2610  0.2828
 4099SOL    HW123759   2.747   2.434   3.913 -2.1735 -1.4377 -2.1382
 4099SOL    HW223760   2.790   2.577   3.936 -1.7157  1.9115 -1.3648
 4100SOL     OW23761   1.458   1.371   4.388 -0.1007  0.2448  0.0540
 4100SOL    HW123762   1.425   1.459   4.406  2.4336  1.0717  0.6744
 4100SOL    HW223763   1.389   1.322   4.433 -2.8657  3.1973 -0.9750
 4101SOL     OW23764   1.203   1.224   6.877  0.7804  0.3127  0.6215
 4101SOL    HW123765   1.224   1.222   6.971  1.8732 -2.2541  0.3178
 4101SOL    HW223766   1.153   1.305   6.875 -0.7746 -0.6294  0.9256
 4102SOL     OW23767   3.519   2.220   4.559  0.1982  0.0379  0.1338
 4102SOL    HW123768   3.602   2.189   4.594  2.0097  1.2687 -3.1387
 4102SOL    HW223769   3.454   2.179   4.616 -0.0393 -0.9796 -0.8929
 4103SOL     OW23770   2.640   1.489  11.219  0.8365 -0.0067 -0.1330
 4103SOL    HW123771   2.646   1.489  11.315  0.6986  1.2353 -0.1228
 4103SOL    HW223772   2.627   1.581  11.196 -1.1574 -0.0857  0.6838
 4104SOL     OW23773   1.009   0.450   9.036 -0.0762 -0.5981 -0.2236
 4104SOL    HW123774   1.060   0.377   9.001 -0.0495 -0.6209 -0.1376
 4104SOL    HW223775   0.947   0.435   8.965 -2.3629  0.6767  1.4782
 4105SOL     OW23776   2.271   3.411   2.679  0.2557  0.2385  0.3592
 4105SOL    HW123777   2.264   3.503   2.703  1.3348  0.1685  0.9192
 4105SOL    HW223778   2.249   3.401   2.586 -1.1936 -0.1182  0.7356
 4106SOL     OW23779   4.038   2.287   3.900  0.1170 -0.6191 -0.2744
 4106SOL    HW123780   4.007   2.234   3.827 -0.8827  3.0769 -2.5500
 4106SOL    HW223781   3.973   2.271   3.968  1.8439  0.3550  1.5958
 4107SOL     OW23782   2.142   4.209  15.453  1.0575  0.1048  0.2319
 4107SOL    HW123783   2.237   4.196  15.461  1.3649  2.9465  1.3041
 4107SOL    HW223784   2.138   4.303  15.436 -2.3936  0.0428  0.6654
 4108SOL     OW23785   4.393   2.156   1.896  0.2689 -0.1308  0.4081
 4108SOL    HW123786   4.428   2.225   1.839 -0.5732  0.0962  0.1712
 4108SOL    HW223787   4.302   2.185   1.899 -0.1992 -1.6809  1.2049
 4109SOL     OW23788   1.376   1.867   5.877  0.5439  0.3536  0.2574
 4109SOL    HW123789   1.429   1.863   5.957  0.5388  1.1242  0.2965
 4109SOL    HW223790   1.345   1.776   5.877 -0.4237  0.6849 -0.9754
 4110SOL     OW23791   0.482   2.083  16.368 -0.3872 -0.9092  0.0470
 4110SOL    HW123792   0.539   2.042  16.433  2.1406  2.0225 -0.3188
 4110SOL    HW223793   0.404   2.075  16.422  1.8262 -0.8795  3.2420
 4111SOL     OW23794   2.930   2.986   8.638 -0.3000  0.0122  0.5686
 4111SOL    HW123795   3.004   3.010   8.583 -0.1168 -0.8793  0.4195
 4111SOL    HW223796   2.896   2.915   8.583 -0.1180  1.6533 -1.6512
 4112SOL     OW23797   2.653   3.301   2.415 -0.1194  0.5080  0.1621
 4112SOL    HW123798   2.654   3.218   2.463 -2.4647 -0.2102 -0.9856
 4112SOL    HW223799   2.613   3.274   2.332  0.1797  0.7541 -0.0614
 4113SOL     OW23800   4.134   4.047  11.659 -0.0292 -0.2676 -0.0410
 4113SOL    HW123801   4.184   4.068  11.580 -0.8659  0.1273 -0.4671
 4113SOL    HW223802   4.185   4.090  11.728 -0.5906 -0.3681  0.4413
 4114SOL     OW23803   1.540   1.794   0.589  0.7051  0.0952 -0.3507
 4114SOL    HW123804   1.572   1.858   0.524  2.1060 -0.6015 -0.3502
 4114SOL    HW223805   1.532   1.844   0.670  1.8707  0.4516 -0.4490
 4115SOL     OW23806   1.970   1.935  12.474 -0.3502 -0.3853 -0.7240
 4115SOL    HW123807   1.931   1.849  12.491 -0.8159 -0.3208 -1.4914
 4115SOL    HW223808   1.894   1.991  12.463 -0.5910 -0.3206  1.1832
 4116SOL     OW23809   3.405   2.783  11.478 -0.2641 -0.2338 -0.7101
 4116SOL    HW123810   3.400   2.750  11.388 -1.0452 -0.4598 -0.5879
 4116SOL    HW223811   3.357   2.720  11.532  0.6620  2.3254  3.0533
 4117SOL     OW23812   0.193   0.133   8.679 -0.2210 -0.3975  0.1368
 4117SOL    HW123813   0.265   0.128   8.741 -0.7258  3.0970  1.0089
 4117SOL    HW223814   0.171   0.041   8.666 -1.9470 -0.4182  3.1706
 4118SOL     OW23815   0.882   0.759   8.298  0.0116 -0.3568  0.2269
 4118SOL    HW123816   0.936   0.835   8.317  1.2100 -0.4766 -2.6415
 4118SOL    HW223817   0.823   0.755   8.373 -0.0950 -0.2258  0.1490
 4119SOL     OW23818   1.294   0.219   9.767  0.1305 -0.3891  0.1636
 4119SOL    HW123819   1.266   0.246   9.679 -0.0105 -0.2512  0.2503
 4119SOL    HW223820   1.262   0.292   9.820  2.0509  1.0194 -0.6103
 4120SOL     OW23821   2.655   0.572   2.292  0.0137  0.2850 -0.4956
 4120SOL    HW123822   2.656   0.490   2.341  3.1110  0.8137  0.3426
 4120SOL    HW223823   2.594   0.622   2.346 -0.6260  2.0842 -2.8574
 4121SOL     OW23824   3.132   2.250  12.260  0.4832 -0.3605  0.3614
 4121SOL    HW123825   3.115   2.156  12.260 -1.5720  0.0208  0.4393
 4121SOL    HW223826   3.209   2.256  12.317  1.4988  0.3937 -1.0837
 4122SOL     OW23827   1.845   4.570  15.733  0.2755  0.2408  0.0693
 4122SOL    HW123828   1.901   4.599  15.804  1.4386 -1.1474 -0.2728
 4122SOL    HW223829   1.819   4.651  15.690 -2.0902 -0.5879 -0.0736
 4123SOL     OW23830   0.257   4.506   3.344 -0.2803  0.1388  0.1182
 4123SOL    HW123831   0.278   4.424   3.388  0.7841  1.1563  1.5246
 4123SOL    HW223832   0.200   4.467   3.278 -0.0478 -1.4443  0.8686
 4124SOL     OW23833   3.082   2.893  15.484  0.4375 -0.2837 -0.8721
 4124SOL    HW123834   3.048   2.804  15.474 -0.3009  0.2230 -2.8460
 4124SOL    HW223835   3.114   2.903  15.395  0.9470  0.0406 -0.6482
 4125SOL     OW23836   3.926   2.472  13.008 -0.2244  0.0398  0.1100
 4125SOL    HW123837   4.018   2.490  13.026 -0.2505 -0.4914  0.7604
 4125SOL    HW223838   3.888   2.445  13.091  0.2643 -2.6072 -0.5532
 4126SOL     OW23839   2.897   1.582   2.518  0.6280 -0.2611 -0.1388
 4126SOL    HW123840   2.911   1.545   2.605  1.7641  0.1626 -0.1471
 4126SOL    HW223841   2.980   1.628   2.510 -1.0428  2.6123 -1.0426
 4127SOL     OW23842   2.321   0.434   4.562 -0.3567 -0.1387 -0.1467
 4127SOL    HW123843   2.319   0.481   4.645  0.7075 -1.3181  0.5474
 4127SOL    HW223844   2.373   0.486   4.502 -0.6261 -0.1763 -0.4158
 4128SOL     OW23845   2.719   2.066   1.982  0.3566 -0.2641 -0.5333
 4128SOL    HW123846   2.702   2.144   1.929 -3.0518  0.5904  1.8353
 4128SOL    HW223847   2.814   2.052   1.984  0.3531 -0.2235  0.1870
 4129SOL     OW23848   4.608   2.212   0.671 -0.2840  0.2842 -0.1193
 4129SOL    HW123849   4.543   2.226   0.741  0.3555 -0.2123  0.5634
 4129SOL    HW223850   4.563   2.243   0.592 -0.3593 -0.3426 -0.3184
 4130SOL     OW23851   1.920   2.056   0.592  0.0250  0.2620  0.0761
 4130SOL    HW123852   1.913   2.108   0.512  2.1614  1.2538  0.5095
 4130SOL    HW223853   1.968   2.118   0.648  0.0014  1.2473 -0.9816
 4131SOL     OW23854   2.176   1.630  15.878  0.1618  0.5755 -0.1502
 4131SOL    HW123855   2.092   1.600  15.844 -1.0877  1.9873  1.7031
 4131SOL    HW223856   2.164   1.702  15.940  1.6676  1.1788 -0.5589
 4132SOL     OW23857   2.505   0.670  11.003 -0.3995  0.1997  0.6321
 4132SOL    HW123858   2.551   0.754  11.001  0.3877 -0.2571 -1.0859
 4132SOL    HW223859   2.427   0.691  11.053  1.1878  1.0147  2.7437
 4133SOL     OW23860   4.615   2.027   8.093  0.2886 -0.5740 -0.0696
 4133SOL    HW123861   4.565   2.068   8.163  1.9808  1.7663 -0.2129
 4133SOL    HW223862   4.585   1.938   8.107 -1.3116 -0.0053  0.0707
 4134SOL     OW23863   0.107   3.806   2.320 -0.3595  0.2318 -0.2758
 4134SOL    HW123864   0.182   3.800   2.261  0.0872 -1.3151  0.4424
 4134SOL    HW223865   0.046   3.745   2.279  1.0529 -0.4628 -1.3311
 4135SOL     OW23866   4.639   2.137  11.187 -0.4496  0.0725  0.1519
 4135SOL    HW123867   4.559   2.086  11.177  0.0983 -0.7770  0.0653
 4135SOL    HW223868   4.603   2.226  11.185  0.8239  0.6005  0.0989
 4136SOL     OW23869   2.734   0.144   6.350  0.5824  0.4732 -0.4259
 4136SOL    HW123870   2.698   0.171   6.435  1.8629 -0.0218  0.2617
 4136SOL    HW223871   2.775   0.217   6.305 -1.6459  2.5573  0.9184
 4137SOL     OW23872   3.880   3.852   2.540  0.0628 -0.0929  0.9193
 4137SOL    HW123873   3.876   3.888   2.452 -3.4669 -0.7992  0.8049
 4137SOL    HW223874   3.896   3.925   2.600 -1.5762  1.4310 -0.4940
 4138SOL     OW23875   1.569   3.897   6.409 -0.1212 -0.6638 -0.2837
 4138SOL    HW123876   1.647   3.950   6.393 -0.6150 -0.3798 -1.7772
 4138SOL    HW223877   1.536   3.889   6.319  1.7125 -0.3584 -0.9763
 4139SOL     OW23878   3.580   0.263  17.651  0.6738  0.0726  1.0157
 4139SOL    HW123879   3.543   0.179  17.680 -2.0212  0.5158 -1.1567
 4139SOL    HW223880   3.664   0.234  17.616  1.4012  1.3344  1.7301
 4140SOL     OW23881   4.555   4.433   8.976  0.1464 -0.2630 -0.0046
 4140SOL    HW123882   4.588   4.378   9.047 -3.5349 -2.0177  0.2992
 4140SOL    HW223883   4.462   4.415   8.984 -0.1872  2.0933  1.4309
 4141SOL     OW23884   3.801   2.701   4.906  0.5718 -0.0347 -0.4113
 4141SOL    HW123885   3.709   2.678   4.896  0.3752  0.3916  0.4082
 4141SOL    HW223886   3.854   2.621   4.899 -0.7842 -0.9305 -0.3023
 4142SOL     OW23887   3.579   3.423  17.489  0.1098 -0.5035  0.3452
 4142SOL    HW123888   3.664   3.399  17.524 -0.9144 -0.2689  3.0221
 4142SOL    HW223889   3.567   3.504  17.538 -0.7527 -0.9419  0.8627
 4143SOL     OW23890   0.140   3.839  15.690  0.2115 -0.0739  0.7986
 4143SOL    HW123891   0.142   3.828  15.594  1.3177  2.3487  0.5444
 4143SOL    HW223892   0.096   3.758  15.717 -0.9718  0.5515  0.7544
 4144SOL     OW23893   2.092   1.716   1.318  0.3174  0.1428 -0.4980
 4144SOL    HW123894   2.082   1.679   1.230 -2.1765 -2.4121  0.8184
 4144SOL    HW223895   2.003   1.735   1.350  0.4918  0.5032 -0.2271
 4145SOL     OW23896   2.617   1.370   9.645 -0.2504 -0.6953  0.1565
 4145SOL    HW123897   2.615   1.284   9.687 -2.0905 -0.3713  0.7346
 4145SOL    HW223898   2.712   1.371   9.632 -0.1515 -0.1599  0.9736
 4146SOL     OW23899   2.536   2.224   3.954 -0.2816 -0.4526 -0.4053
 4146SOL    HW123900   2.500   2.190   4.036  2.6642  1.3549  1.6570
 4146SOL    HW223901   2.625   2.253   3.973 -0.9007  0.6905  0.7388
 4147SOL     OW23902   3.350   2.112   8.191 -0.5794 -0.0583  0.2606
 4147SOL    HW123903   3.354   2.136   8.283  1.5252  2.0901 -0.3957
 4147SOL    HW223904   3.307   2.187   8.151  0.8562 -0.2017 -1.5791
 4148SOL     OW23905   1.391   4.389   8.035  0.0441 -0.2545  0.4381
 4148SOL    HW123906   1.295   4.384   8.037  0.1361 -1.5647  1.5434
 4148SOL    HW223907   1.406   4.424   8.123  1.8779 -1.2315  0.5206
 4149SOL     OW23908   0.392   2.744   3.435  0.0330  0.0427 -0.1261
 4149SOL    HW123909   0.299   2.737   3.414 -0.1776  1.7169  0.2321
 4149SOL    HW223910   0.394   2.702   3.521  0.2866  0.8736  0.2752
 4150SOL     OW23911   1.397   1.158   7.383  0.5020  0.3966  0.0228
 4150SOL    HW123912   1.344   1.237   7.398 -0.6522 -0.8165  2.2960
 4150SOL    HW223913   1.369   1.096   7.450 -0.8686  1.1020  0.1192
 4151SOL     OW23914   4.691   3.107   7.194 -0.2770  0.4494 -0.0607
 4151SOL    HW123915   4.646   3.057   7.126  0.3981  0.3406 -0.4228
 4151SOL    HW223916   4.663   3.059   7.272 -3.4166  0.2747 -1.2942
 4152SOL     OW23917   2.834   1.751   1.528  0.1664 -0.3987  0.2789
 4152SOL    HW123918   2.751   1.798   1.539  0.4964 -0.0466  1.2883
 4152SOL    HW223919   2.826   1.707   1.444 -2.1784 -1.2858  0.9555
 4153SOL     OW23920   3.361   2.374  13.772  0.5628  0.3093 -0.0555
 4153SOL    HW123921   3.291   2.328  13.820  1.1441  1.0195  1.4911
 4153SOL    HW223922   3.321   2.414  13.695  1.5416 -0.4144 -0.9305
 4154SOL     OW23923   2.459   1.028   6.457  0.4148 -0.1906 -0.0311
 4154SOL    HW123924   2.392   1.000   6.519 -1.0892  2.3620 -0.5118
 4154SOL    HW223925   2.536   1.030   6.513 -1.3585 -2.3092  2.4504
 4155SOL     OW23926   0.164   0.396  11.061  0.3937  0.1359  0.4474
 4155SOL    HW123927   0.190   0.392  11.153  1.9497 -1.9742 -0.0972
 4155SOL    HW223928   0.236   0.454  11.036 -1.3695  1.6279 -1.2005
 4156SOL     OW23929   0.067   2.032   8.544  0.3582 -0.2473  0.5107
 4156SOL    HW123930   0.102   2.027   8.633  0.2810 -1.5956  0.4730
 4156SOL    HW223931   4.701   2.001   8.557  1.3231 -2.6623  1.5386
 4157SOL     OW23932   2.388   0.833   9.621 -0.2334  0.3309  0.2713
 4157SOL    HW123933   2.357   0.873   9.702 -0.6681  0.0791  0.2305
 4157SOL    HW223934   2.338   0.891   9.564 -2.4301 -0.9036  0.9108
 4158SOL     OW23935   2.788   3.722  11.894  0.4671  0.0900  0.1758
 4158SOL    HW123936   2.697   3.693  11.893  1.1706 -2.0568 -0.0471
 4158SOL    HW223937   2.839   3.645  11.869 -0.9342 -0.2105 -1.7863
 4159SOL     OW23938   1.948   0.118   2.021  0.4428 -0.4591  0.5749
 4159SOL    HW123939   1.875   0.157   1.974  0.8624 -0.6919 -0.2796
 4159SOL    HW223940   1.923   0.025   2.025 -2.5824  0.2842 -1.1239
 4160SOL     OW23941   0.249   1.432   4.087  0.2938 -0.3972 -0.0054
 4160SOL    HW123942   0.309   1.374   4.134 -0.2528 -0.4389  0.6259
 4160SOL    HW223943   0.273   1.427   3.994 -0.0610  1.6999 -0.2102
 4161SOL     OW23944   2.244   0.681   8.194  0.6413  0.1280  0.0212
 4161SOL    HW123945   2.309   0.704   8.262  1.1139 -1.0391 -0.0386
 4161SOL    HW223946   2.287   0.729   8.123 -0.2742  3.3123  1.6118
 4162SOL     OW23947   0.093   0.264   0.429 -0.1005 -0.0929  0.4452
 4162SOL    HW123948   0.024   0.264   0.363 -1.4857  0.5293  1.9151
 4162SOL    HW223949   0.100   0.355   0.456 -1.4285 -0.1508  0.9716
 4163SOL     OW23950   0.274   3.234  12.123  0.4013 -0.1837 -0.0502
 4163SOL    HW123951   0.180   3.244  12.140  0.6578 -0.2929  1.4537
 4163SOL    HW223952   0.319   3.307  12.166  0.2340  1.1903 -2.2225
 4164SOL     OW23953   0.087   1.867  17.508  0.3266 -0.5294 -0.2767
 4164SOL    HW123954   0.009   1.846  17.560 -0.8813 -2.4748 -2.8772
 4164SOL    HW223955   0.138   1.912  17.575 -2.7692  2.4687  0.0635
 4165SOL     OW23956   1.822   2.561   2.454 -0.3945  0.4036 -0.0431
 4165SOL    HW123957   1.741   2.613   2.450 -1.5964 -1.3329  1.5476
 4165SOL    HW223958   1.782   2.486   2.498 -0.6065  1.8172  2.1595
 4166SOL     OW23959   3.255   4.559   2.456 -0.3302 -0.4745 -0.8339
 4166SOL    HW123960   3.174   4.509   2.444 -1.4122  1.0338  0.3809
 4166SOL    HW223961   3.321   4.516   2.401  0.8129 -0.8841  0.8559
 4167SOL     OW23962   2.868   3.944   6.070 -0.5116  0.1357 -0.4829
 4167SOL    HW123963   2.817   3.875   6.112 -0.1120 -1.0863 -2.0419
 4167SOL    HW223964   2.794   4.003   6.057 -0.3704  0.3816 -0.1954
 4168SOL     OW23965   1.415   3.024   9.941  0.3965  0.2778 -0.0876
 4168SOL    HW123966   1.444   2.933   9.950 -0.0364  0.2644  1.0836
 4168SOL    HW223967   1.461   3.043   9.859 -0.2402 -0.0545 -0.5275
 4169SOL     OW23968   2.049   4.678   7.208  0.0861  0.0113  0.6250
 4169SOL    HW123969   2.104   4.643   7.277  1.1738 -1.9391 -1.2228
 4169SOL    HW223970   1.983   4.719   7.263 -3.1764 -1.4298 -2.1528
 4170SOL     OW23971   2.634   1.715   3.468  0.1814  0.3819 -0.3592
 4170SOL    HW123972   2.556   1.670   3.434 -2.2020  2.9444  1.7411
 4170SOL    HW223973   2.630   1.687   3.559 -1.8941  0.8936 -0.2872
 4171SOL     OW23974   4.392   1.752   4.059  0.1555  0.8278  0.6032
 4171SOL    HW123975   4.424   1.745   4.149  1.5660 -1.7038 -0.0688
 4171SOL    HW223976   4.430   1.836   4.034  1.2637 -0.0692 -0.7508
 4172SOL     OW23977   3.985   1.212   8.300  0.0864  0.0024  0.3677
 4172SOL    HW123978   4.056   1.206   8.364 -1.1571  3.1621  2.0349
 4172SOL    HW223979   3.914   1.256   8.347 -1.9760 -0.8774 -1.9739
 4173SOL     OW23980   2.930   0.801   7.878  0.6340  0.0129 -0.3547
 4173SOL    HW123981   2.953   0.877   7.825  0.2778  0.5759  0.2966
 4173SOL    HW223982   2.873   0.840   7.944 -2.3880  0.0660 -2.9582
 4174SOL     OW23983   1.916   0.774   3.142  0.3580 -0.0178 -0.1551
 4174SOL    HW123984   1.928   0.851   3.197 -0.1939  0.8334 -1.2158
 4174SOL    HW223985   1.861   0.816   3.075 -1.4161 -1.2779  0.4909
 4175SOL     OW23986   0.576   1.685   1.250 -0.5401 -0.1946  0.5931
 4175SOL    HW123987   0.566   1.780   1.260  1.1551  0.1019 -0.5387
 4175SOL    HW223988   0.491   1.655   1.280 -0.9758  1.8298  1.4119
 4176SOL     OW23989   3.774   1.838   0.118  0.5820 -0.0314  0.1448
 4176SOL    HW123990   3.824   1.852   0.038 -1.3553  1.2382 -0.8489
 4176SOL    HW223991   3.833   1.860   0.190  1.4893 -1.5303 -0.1382
 4177SOL     OW23992   3.806   3.614   7.124  1.1716  0.0873  0.3228
 4177SOL    HW123993   3.737   3.566   7.170  0.0800 -0.0764 -1.4867
 4177SOL    HW223994   3.771   3.604   7.036 -2.7964  0.8057  1.8088
 4178SOL     OW23995   0.685   2.497   2.160  0.4972  0.0804  0.0982
 4178SOL    HW123996   0.775   2.502   2.129  0.1357 -4.0535 -1.6711
 4178SOL    HW223997   0.645   2.557   2.098 -0.5871 -0.3067  0.4183
 4179SOL     OW23998   3.354   0.182   7.233  0.1679 -0.3800 -0.2924
 4179SOL    HW123999   3.338   0.262   7.183 -1.2876 -0.7627 -0.4353
 4179SOL    HW224000   3.427   0.146   7.182  0.2301  0.5840 -0.8774
 4180SOL     OW24001   2.762   4.515  15.463 -0.3133  0.0252  0.3691
 4180SOL    HW124002   2.824   4.505  15.391 -0.4413 -1.0618  0.4014
 4180SOL    HW224003   2.809   4.589  15.501 -0.4718  0.2312  0.1670
 4181SOL     OW24004   2.204   1.828   4.642 -0.3365 -0.5172 -0.5878
 4181SOL    HW124005   2.174   1.743   4.609 -0.1517 -1.0141  0.5538
 4181SOL    HW224006   2.212   1.804   4.734  0.4583  2.0735  0.0232
 4182SOL     OW24007   3.404   2.171  12.619 -0.0566  0.4642 -0.7465
 4182SOL    HW124008   3.500   2.173  12.618 -0.0486  1.9402  1.5793
 4182SOL    HW224009   3.386   2.214  12.536  1.4805  1.5250 -0.5416
 4183SOL     OW24010   1.568   3.901  15.548  0.1533 -0.0095 -0.0445
 4183SOL    HW124011   1.514   3.938  15.618  1.5985  0.1304  0.9963
 4183SOL    HW224012   1.519   3.926  15.469  1.0398 -2.3318 -1.3514
 4184SOL     OW24013   1.571   4.484   5.658 -0.3933 -0.5605 -0.1891
 4184SOL    HW124014   1.544   4.511   5.746  0.6693  1.1220 -0.3752
 4184SOL    HW224015   1.575   4.572   5.619 -0.9565  0.5892  2.3159
 4185SOL     OW24016   4.240   0.766   1.971  0.6526  0.4727 -0.0264
 4185SOL    HW124017   4.145   0.767   1.957  0.8183  0.4542 -1.2009
 4185SOL    HW224018   4.244   0.822   2.049 -1.4749 -0.8009  0.9936
 4186SOL     OW24019   3.661   2.364  17.578  0.0491 -0.1037  0.3363
 4186SOL    HW124020   3.574   2.371  17.539  0.3052  1.3794  0.0389
 4186SOL    HW224021   3.653   2.377  17.672 -0.6659 -0.9469  0.3880
 4187SOL     OW24022   0.974   3.497   6.621  0.0998 -0.6943  0.1262
 4187SOL    HW124023   0.899   3.437   6.623  0.0502 -0.6212  0.5215
 4187SOL    HW224024   0.943   3.548   6.697  1.6605  0.0281  0.2662
 4188SOL     OW24025   3.005   2.748  14.136  0.0474  0.2411  0.2458
 4188SOL    HW124026   2.911   2.754  14.123 -0.1151 -0.0925  1.3274
 4188SOL    HW224027   3.014   2.655  14.115  0.1818  0.0955  0.9482
 4189SOL     OW24028   3.036   4.377  16.053  0.4574 -0.6032  0.2156
 4189SOL    HW124029   2.999   4.298  16.015 -0.4694 -0.3880  0.6655
 4189SOL    HW224030   2.971   4.440  16.021  1.2179 -0.2231 -0.5713
 4190SOL     OW24031   1.384   0.018  16.539  0.3309  0.1533  0.6893
 4190SOL    HW124032   1.391   0.039  16.633 -3.2583 -1.5285  1.3292
 4190SOL    HW224033   1.362   0.103  16.502  0.1204 -0.3978 -0.4325
 4191SOL     OW24034   2.288   1.239  16.630 -0.4333  0.3470 -0.7862
 4191SOL    HW124035   2.227   1.281  16.690 -2.6410 -2.6861 -0.9082
 4191SOL    HW224036   2.287   1.152  16.671 -1.3046  1.3993  1.4636
 4192SOL     OW24037   0.584   4.482   4.241 -0.3794 -0.2050  0.1649
 4192SOL    HW124038   0.674   4.514   4.229 -0.5681  0.5279  0.6927
 4192SOL    HW224039   0.583   4.441   4.327  0.4667 -1.3175 -0.3710
 4193SOL     OW24040   3.324   4.513   0.762  0.5312 -0.0674  0.1593
 4193SOL    HW124041   3.420   4.510   0.773  0.0788 -1.0542  3.9978
 4193SOL    HW224042   3.304   4.457   0.688 -0.2876  1.8238 -1.0379
 4194SOL     OW24043   3.549   0.029   8.818 -0.5800  0.1196  0.2447
 4194SOL    HW124044   3.593   0.004   8.899  1.4149 -1.5479 -1.3399
 4194SOL    HW224045   3.621   0.082   8.782 -0.0682 -1.4751 -1.1055
 4195SOL     OW24046   2.023   1.885  12.797 -0.1857  0.3719  0.2595
 4195SOL    HW124047   2.043   1.877  12.890 -1.6019  3.6343  0.8365
 4195SOL    HW224048   1.960   1.812  12.793 -1.0423  1.2445 -2.0240
 4196SOL     OW24049   3.460   2.323   5.614  0.0631 -0.5398 -0.1031
 4196SOL    HW124050   3.503   2.392   5.664  0.6602 -1.2839  0.4028
 4196SOL    HW224051   3.513   2.244   5.605 -2.1669 -2.2074  1.3075
 4197SOL     OW24052   2.245   0.707   5.519  0.0030 -0.0176 -0.1210
 4197SOL    HW124053   2.228   0.691   5.612  1.0217 -2.5979 -0.3966
 4197SOL    HW224054   2.339   0.693   5.518 -0.0556 -0.4537  0.2632
 4198SOL     OW24055   3.560   1.286   7.085 -0.1105  0.1924 -0.6675
 4198SOL    HW124056   3.501   1.214   7.067 -1.1872  0.8356  0.3020
 4198SOL    HW224057   3.505   1.335   7.147  1.9958  0.2675  1.1434
 4199SOL     OW24058   0.967   3.995   0.722 -0.3137  0.5313  0.1937
 4199SOL    HW124059   0.941   3.914   0.679 -0.4128 -0.6663  2.4786
 4199SOL    HW224060   1.043   3.974   0.776  0.0891  2.5829  0.4386
 4200SOL     OW24061   1.063   4.232  11.819  0.5968  0.3902  0.2930
 4200SOL    HW124062   1.158   4.227  11.808  0.2620  0.3743 -2.5165
 4200SOL    HW224063   1.049   4.309  11.874 -0.8105  1.6500 -1.8415
 4201SOL     OW24064   0.336   3.360   6.325 -0.1629 -0.2803  0.4568
 4201SOL    HW124065   0.259   3.404   6.361 -1.0880 -1.1488 -0.4260
 4201SOL    HW224066   0.377   3.429   6.273 -0.7620  0.0747  0.4515
 4202SOL     OW24067   0.203   2.961   2.271 -0.5019 -0.5772  0.4198
 4202SOL    HW124068   0.198   2.911   2.190 -2.7089 -2.5877  1.7926
 4202SOL    HW224069   0.113   2.958   2.303 -0.3318  0.8931  1.0402
 4203SOL     OW24070   1.238   0.217   9.123 -0.0715 -0.7584  0.1046
 4203SOL    HW124071   1.222   0.249   9.034  0.7137 -0.5865  0.0209
 4203SOL    HW224072   1.164   0.256   9.169 -0.0450  0.3541 -0.7844
 4204SOL     OW24073   3.909   2.061  14.925  0.4952 -0.2877  0.1750
 4204SOL    HW124074   3.913   1.974  14.964  2.3315 -0.6186 -0.7746
 4204SOL    HW224075   3.865   2.114  14.992 -1.6666 -2.3207  0.3775
 4205SOL     OW24076   2.661   0.551   5.769  0.2593  0.2605 -0.1091
 4205SOL    HW124077   2.748   0.514   5.756  0.2076  0.5469 -1.2848
 4205SOL    HW224078   2.624   0.511   5.848 -0.6780  1.0002 -0.1801
 4206SOL     OW24079   1.207   1.185   2.205  0.2209 -0.3142 -0.0120
 4206SOL    HW124080   1.150   1.164   2.131 -1.2365  1.0110  0.7288
 4206SOL    HW224081   1.156   1.251   2.252  0.0613  0.2605 -0.9765
 4207SOL     OW24082   3.792   2.857   3.695  0.0939  0.2227 -0.4787
 4207SOL    HW124083   3.856   2.816   3.638 -0.3645 -2.8346  1.2153
 4207SOL    HW224084   3.839   2.855   3.779 -1.1244  1.5689  0.2426
 4208SOL     OW24085   0.032   1.740   3.196  0.4045 -0.5005 -0.0296
 4208SOL    HW124086   0.052   1.678   3.267 -0.1996  1.2961  1.7144
 4208SOL    HW224087   0.065   1.818   3.242 -0.2569  0.6848 -1.5759
 4209SOL     OW24088   4.634   3.508   1.907 -0.7631  1.2301 -0.3372
 4209SOL    HW124089   4.648   3.512   1.812  0.5115  2.0325 -0.1166
 4209SOL    HW224090   4.574   3.433   1.910  0.6965 -0.0796 -3.7463
 4210SOL     OW24091   2.712   0.683   7.408 -0.4186  0.4943 -0.2459
 4210SOL    HW124092   2.663   0.644   7.337  0.7819 -0.0062 -0.8018
 4210SOL    HW224093   2.753   0.753   7.357 -1.2645 -0.2908 -1.9893
 4211SOL     OW24094   0.029   0.994   1.178 -0.3646 -0.3168  0.5610
 4211SOL    HW124095   0.026   0.979   1.272 -0.4715 -0.3198  0.5575
 4211SOL    HW224096   0.043   0.904   1.147 -2.1823 -1.3443  2.6753
 4212SOL     OW24097   3.472   4.613  12.288 -0.1512 -0.1012 -0.1372
 4212SOL    HW124098   3.443   4.536  12.239 -0.4667  0.0856 -0.2416
 4212SOL    HW224099   3.539   4.650  12.231  0.7423 -0.5972  0.5968
 4213SOL     OW24100   0.321   0.036   5.736  0.1256 -0.3861  0.5062
 4213SOL    HW124101   0.363   4.675   5.723  0.7636  0.1589 -1.0340
 4213SOL    HW224102   0.403   0.084   5.738 -0.5191  0.7510 -0.3355
 4214SOL     OW24103   3.368   3.384  13.591 -0.2360  0.5339 -0.5084
 4214SOL    HW124104   3.300   3.323  13.622 -1.2327  1.7225 -0.3798
 4214SOL    HW224105   3.402   3.417  13.674  0.6485  1.6160 -1.3208
 4215SOL     OW24106   1.916   1.693   0.876  0.0190 -0.3029 -0.0166
 4215SOL    HW124107   1.846   1.642   0.836 -0.6718 -1.7558  3.0768
 4215SOL    HW224108   1.929   1.757   0.805 -0.8664 -1.2854 -1.0719
 4216SOL     OW24109   0.076   3.506   9.225  0.2473 -0.6004  0.2852
 4216SOL    HW124110   0.172   3.512   9.229  0.1602  0.3320  1.1504
 4216SOL    HW224111   0.052   3.485   9.315 -2.4359  0.8887 -0.0850
 4217SOL     OW24112   3.995   0.108   6.170 -0.0731 -0.7706  0.5283
 4217SOL    HW124113   4.068   0.059   6.131  0.3573  2.0153 -2.2082
 4217SOL    HW224114   3.977   0.058   6.250  0.5930 -0.9138  0.5930
 4218SOL     OW24115   2.200   2.130   4.305  0.0844 -0.3622  0.3101
 4218SOL    HW124116   2.142   2.205   4.296  1.6655  0.7936 -0.3124
 4218SOL    HW224117   2.193   2.104   4.397  0.0919  0.3987  0.5192
 4219SOL     OW24118   3.394   2.311  16.758  0.0261 -0.1636 -0.1520
 4219SOL    HW124119   3.485   2.339  16.761 -0.2664  0.6007  1.9474
 4219SOL    HW224120   3.345   2.391  16.739 -0.4912  0.0167  1.9265
 4220SOL     OW24121   2.400   2.571   8.379  0.1672  0.3154 -0.0050
 4220SOL    HW124122   2.379   2.551   8.287  0.0915  0.9731 -0.1342
 4220SOL    HW224123   2.491   2.539   8.379 -0.1172 -0.4951 -0.3081
 4221SOL     OW24124   3.340   2.833   6.237  0.0570  0.0275 -0.2305
 4221SOL    HW124125   3.360   2.904   6.298  0.4271 -0.3019  0.0336
 4221SOL    HW224126   3.373   2.763   6.293  1.0228  1.5919  1.1685
 4222SOL     OW24127   3.108   0.740  11.756 -0.3821 -0.1876  0.2073
 4222SOL    HW124128   3.144   0.806  11.697  3.2443 -2.1176  0.2733
 4222SOL    HW224129   3.020   0.738  11.717 -0.0956 -2.2262 -0.3359
 4223SOL     OW24130   3.271   2.840   7.738 -0.0754 -0.7923 -0.5072
 4223SOL    HW124131   3.182   2.848   7.772  1.5277 -0.9251  3.7159
 4223SOL    HW224132   3.291   2.748   7.756  0.7958 -0.5134 -0.0357
 4224SOL     OW24133   3.002   1.878   4.241 -0.6638 -0.0146  0.2453
 4224SOL    HW124134   2.910   1.893   4.265  0.3169  5.0866  0.8062
 4224SOL    HW224135   3.029   1.842   4.325 -0.0280 -2.4326 -0.9943
 4225SOL     OW24136   3.459   0.230  13.773 -0.2882 -0.2371  0.2203
 4225SOL    HW124137   3.491   0.278  13.849  0.3941 -1.6607  0.8177
 4225SOL    HW224138   3.364   0.237  13.785 -0.6613 -1.4900 -2.0540
 4226SOL     OW24139   1.303   3.119  16.979 -0.0624 -0.6502 -0.3617
 4226SOL    HW124140   1.292   3.111  17.074 -3.0507  0.8449 -0.5878
 4226SOL    HW224141   1.396   3.109  16.959  0.0863 -0.3719  0.1957
 4227SOL     OW24142   0.186   0.605   2.091  0.4842 -0.1846 -0.0271
 4227SOL    HW124143   0.221   0.568   2.010  0.3249 -0.3168 -0.0344
 4227SOL    HW224144   0.153   0.690   2.062 -0.9418 -0.5520  0.5226
 4228SOL     OW24145   3.589   4.103  15.048  0.4244  0.4289  0.3953
 4228SOL    HW124146   3.561   4.195  15.055 -0.2861  0.2087  0.4637
 4228SOL    HW224147   3.556   4.085  15.136 -1.9824 -0.7163 -0.7473
 4229SOL     OW24148   1.197   3.351   6.371  0.7220  0.2562  0.3376
 4229SOL    HW124149   1.148   3.274   6.344 -0.2873  0.7890  0.6410
 4229SOL    HW224150   1.131   3.401   6.419  0.4139 -0.5107  0.7075
 4230SOL     OW24151   3.918   2.715  16.610  0.0591 -0.5407  0.2727
 4230SOL    HW124152   3.986   2.648  16.601  0.2366 -0.3044 -0.1539
 4230SOL    HW224153   3.966   2.768  16.674 -0.1642 -0.6436  0.5239
 4231SOL     OW24154   3.197   1.696  15.747  0.2566 -0.7460 -0.1539
 4231SOL    HW124155   3.242   1.709  15.663 -2.3646  0.1756 -1.4187
 4231SOL    HW224156   3.178   1.785  15.776 -1.2551 -0.5391 -1.7578
 4232SOL     OW24157   4.721   3.538   4.899  0.4057  0.1922 -0.5213
 4232SOL    HW124158   4.715   3.462   4.957  0.5371  0.2913 -0.3767
 4232SOL    HW224159   0.001   3.502   4.811  1.0573 -1.8136  0.3393
 4233SOL     OW24160   4.617   2.143  16.425 -0.4777 -0.4613 -0.0982
 4233SOL    HW124161   4.593   2.117  16.335  1.2622 -1.1066 -0.3864
 4233SOL    HW224162   4.678   2.216  16.424  0.0159 -0.8710 -0.0158
 4234SOL     OW24163   2.966   1.514   1.566  0.2697  0.2776  0.1700
 4234SOL    HW124164   2.901   1.573   1.604 -0.3440 -0.4388  0.2472
 4234SOL    HW224165   2.931   1.520   1.477  0.5084  2.9478  0.2711
 4235SOL     OW24166   1.401   3.534   7.681 -0.6451  0.6915 -0.1539
 4235SOL    HW124167   1.323   3.494   7.643 -0.1289 -1.4826  1.0427
 4235SOL    HW224168   1.365   3.620   7.701  0.7286  1.4162 -0.8114
 4236SOL     OW24169   4.044   1.669   2.213 -0.3162 -0.2832 -0.5754
 4236SOL    HW124170   4.128   1.703   2.244  0.1259  0.7576 -2.9494
 4236SOL    HW224171   3.989   1.699   2.286  0.1348 -1.4677  0.2627
 4237SOL     OW24172   0.059   1.632  13.246 -1.0546  0.6632  0.1468
 4237SOL    HW124173   0.004   1.586  13.184 -0.6004 -1.1609  1.0808
 4237SOL    HW224174   0.032   1.723  13.235 -1.7842  0.5427  0.9643
 4238SOL     OW24175   2.597   2.135   1.359 -0.3511 -0.0496 -0.3625
 4238SOL    HW124176   2.590   2.228   1.382  1.5619  0.0285 -0.0867
 4238SOL    HW224177   2.688   2.111   1.380 -0.5164  0.3909  0.8765
 4239SOL     OW24178   4.592   4.104   6.737  0.4361  0.5896  0.6227
 4239SOL    HW124179   4.666   4.044   6.726  0.9098  1.3554 -0.4078
 4239SOL    HW224180   4.528   4.072   6.673  2.1378  2.0362 -1.8115
 4240SOL     OW24181   3.935   0.997   4.720  0.0394  0.0842  0.0233
 4240SOL    HW124182   3.888   0.934   4.664  0.7202 -1.4466  1.1984
 4240SOL    HW224183   4.022   0.957   4.719  0.1944  0.4192  1.1320
 4241SOL     OW24184   2.420   1.220   3.429 -0.3400  0.1103 -0.0992
 4241SOL    HW124185   2.486   1.253   3.491 -0.4984  0.3530 -0.0604
 4241SOL    HW224186   2.473   1.175   3.364  0.0475  1.1104 -0.4755
 4242SOL     OW24187   2.311   4.285   6.330 -0.3569 -0.1320 -0.6517
 4242SOL    HW124188   2.270   4.334   6.258 -0.6639  1.5473  0.6820
 4242SOL    HW224189   2.250   4.300   6.402 -0.2997 -0.8619 -0.4449
 4243SOL     OW24190   1.444   2.430  11.183  0.1605  0.5940  0.8092
 4243SOL    HW124191   1.397   2.469  11.257 -0.5073  2.4287 -0.6059
 4243SOL    HW224192   1.533   2.438  11.219  0.4976  1.8363 -0.3237
 4244SOL     OW24193   1.963   0.985   6.590 -0.1776  0.1348 -0.0583
 4244SOL    HW124194   1.977   0.962   6.682 -2.6680 -1.4504 -0.0881
 4244SOL    HW224195   1.901   1.058   6.602 -0.7524 -0.1964 -0.9990
 4245SOL     OW24196   2.581   0.025  10.908  0.3704  0.2919 -0.7579
 4245SOL    HW124197   2.535   0.108  10.897  1.6680  0.9743 -1.1465
 4245SOL    HW224198   2.626   0.037  10.992 -2.3144  0.6450  0.6195
 4246SOL     OW24199   2.601   0.388   5.978  0.2372 -0.8320 -0.1463
 4246SOL    HW124200   2.689   0.380   6.016  0.2561  0.9193  0.2059
 4246SOL    HW224201   2.548   0.416   6.052  0.3451  0.1394 -0.4325
 4247SOL     OW24202   4.489   0.783   3.688  0.5176 -0.3068  0.2950
 4247SOL    HW124203   4.431   0.831   3.630  1.9697  2.1158  0.8528
 4247SOL    HW224204   4.462   0.691   3.689 -1.4901  0.2763 -0.4498
 4248SOL     OW24205   0.542   4.088   4.231  0.5306  0.2250 -0.4238
 4248SOL    HW124206   0.499   4.133   4.158  0.8118  0.7618 -0.2588
 4248SOL    HW224207   0.633   4.088   4.203 -0.6397  1.0905 -4.2673
 4249SOL     OW24208   3.161   2.316   7.153 -0.3915 -0.1969  0.3008
 4249SOL    HW124209   3.070   2.292   7.167 -0.8400  2.0761  1.2466
 4249SOL    HW224210   3.192   2.351   7.236 -0.9605  2.2558 -0.5109
 4250SOL     OW24211   1.304   2.477  14.180  0.6184  0.4138  0.4535
 4250SOL    HW124212   1.281   2.496  14.271  1.2069  1.2620  0.4237
 4250SOL    HW224213   1.355   2.398  14.195 -0.3490 -0.4143 -0.6577
 4251SOL     OW24214   4.604   2.377   5.776 -0.7925  0.5281  0.7427
 4251SOL    HW124215   4.526   2.392   5.829  1.0424 -0.4648  3.7288
 4251SOL    HW224216   4.649   2.455   5.809  0.5839 -0.3072  0.8405
 4252SOL     OW24217   4.148   2.911   7.185 -0.0823  0.3367 -0.3414
 4252SOL    HW124218   4.108   2.938   7.102  1.1001  3.0922 -0.0324
 4252SOL    HW224219   4.188   2.994   7.210  1.3447 -0.2411 -0.6992
 4253SOL     OW24220   0.543   1.239   8.973  0.7024  0.4970  0.0729
 4253SOL    HW124221   0.604   1.264   8.904  1.0437  0.8910  0.5199
 4253SOL    HW224222   0.603   1.215   9.043  0.4431  0.5410  0.3138
 4254SOL     OW24223   0.525   1.274   8.043 -0.3136 -0.2329 -0.2541
 4254SOL    HW124224   0.582   1.278   8.120  1.2800 -0.9573 -1.3822
 4254SOL    HW224225   0.439   1.258   8.081  1.8606 -3.6424  3.2207
 4255SOL     OW24226   1.821   3.733   4.320  0.0422  0.6412 -0.2642
 4255SOL    HW124227   1.813   3.638   4.313 -5.0400  0.9279  1.6332
 4255SOL    HW224228   1.833   3.742   4.414  1.5061 -0.5354 -0.3527
 4256SOL     OW24229   1.799   4.648   7.352  0.4397  0.5134 -0.0706
 4256SOL    HW124230   1.717   4.690   7.375 -0.4687 -0.5776 -1.3118
 4256SOL    HW224231   1.789   4.603   7.268 -0.9846 -1.9538  1.4246
 4257SOL     OW24232   2.950   2.054   7.407  0.0383 -0.5449 -0.6532
 4257SOL    HW124233   2.995   2.134   7.433 -0.2428 -0.0957 -1.5508
 4257SOL    HW224234   2.877   2.064   7.469  1.1878  1.0024  0.4467
 4258SOL     OW24235   1.347   2.391  10.769 -0.1046 -0.3623  0.3683
 4258SOL    HW124236   1.433   2.421  10.797 -0.3383  1.3536 -0.7478
 4258SOL    HW224237   1.304   2.380  10.854 -1.0989  0.0244 -0.0799
 4259SOL     OW24238   2.984   3.219   7.098  0.0164  0.5897  0.0632
 4259SOL    HW124239   2.997   3.309   7.128  0.9754  0.8962 -1.2686
 4259SOL    HW224240   3.025   3.167   7.168 -0.8113 -0.6475 -0.3678
 4260SOL     OW24241   1.946   2.316   3.489  0.0346  0.1599 -0.3677
 4260SOL    HW124242   1.924   2.348   3.577  1.5915 -0.4447  0.2311
 4260SOL    HW224243   1.915   2.389   3.435  0.8369 -1.4155 -2.9093
 4261SOL     OW24244   0.258   4.516   4.642 -0.3139  0.7735  0.1823
 4261SOL    HW124245   0.238   4.441   4.697 -0.8993  0.1664 -0.8626
 4261SOL    HW224246   0.253   4.471   4.557 -2.4848 -1.5474  1.5565
 4262SOL     OW24247   2.488   0.557   6.778  0.4778 -0.2550 -0.3236
 4262SOL    HW124248   2.463   0.649   6.785  1.0124 -0.1057 -0.3637
 4262SOL    HW224249   2.408   0.505   6.777  0.5372 -0.3197 -2.4385
 4263SOL     OW24250   4.049   2.252  12.826  1.0348 -0.7587  0.4154
 4263SOL    HW124251   3.983   2.307  12.869  1.8221 -0.6979  1.5505
 4263SOL    HW224252   4.043   2.272  12.733  0.6355  1.5245  0.9370
 4264SOL     OW24253   1.053   0.231  10.591  0.2662  0.4173 -0.4395
 4264SOL    HW124254   0.981   0.193  10.540  0.7750  0.6440 -1.3133
 4264SOL    HW224255   1.044   0.188  10.677  4.0106 -1.8426 -1.1588
 4265SOL     OW24256   4.386   2.608  12.036  0.3307 -0.3752  0.4513
 4265SOL    HW124257   4.376   2.683  12.095  1.3529 -1.9172  2.5806
 4265SOL    HW224258   4.482   2.603  12.044  0.3846  1.5063  1.0992
 4266SOL     OW24259   2.577   3.282   9.046  0.0116  0.0788 -0.0319
 4266SOL    HW124260   2.634   3.274   8.969 -0.4932  0.5653 -0.4534
 4266SOL    HW224261   2.531   3.360   9.017 -0.6946  0.4827  2.2066
 4267SOL     OW24262   1.259   0.671   6.677 -0.3032 -0.1245 -0.1341
 4267SOL    HW124263   1.203   0.649   6.603 -1.0179  1.6657 -0.1237
 4267SOL    HW224264   1.331   0.617   6.644  0.5201 -0.3921  2.1490
 4268SOL     OW24265   0.269   1.501   8.407 -0.2018 -0.7799  0.6893
 4268SOL    HW124266   0.269   1.572   8.471  0.0431  1.0803 -1.3867
 4268SOL    HW224267   0.187   1.516   8.361  1.0895  0.1591 -1.3156
 4269SOL     OW24268   2.645   3.175   9.859 -0.2142 -0.0054  0.0943
 4269SOL    HW124269   2.648   3.266   9.828 -0.6701  0.3615  1.1124
 4269SOL    HW224270   2.741   3.173   9.863 -0.2470  1.4754  1.7268
 4270SOL     OW24271   3.164   2.529   7.348 -1.1536  0.3540  0.5730
 4270SOL    HW124272   3.253   2.565   7.353 -1.0340  0.4853 -2.2486
 4270SOL    HW224273   3.125   2.569   7.426 -0.6781 -0.4703  1.2302
 4271SOL     OW24274   3.007   0.115  12.338 -0.0522 -0.0917  0.2638
 4271SOL    HW124275   2.982   0.194  12.386 -2.2561  0.6025 -2.0493
 4271SOL    HW224276   2.946   0.058  12.385 -1.8123 -0.1055 -2.0729
 4272SOL     OW24277   1.477   3.133   4.961  0.1806 -0.0079 -0.2397
 4272SOL    HW124278   1.427   3.096   4.888 -1.8523 -1.2819  1.7862
 4272SOL    HW224279   1.556   3.171   4.922  0.5103 -2.6640 -2.1906
 4273SOL     OW24280   3.086   2.043   2.216 -0.0686  0.3552  0.3047
 4273SOL    HW124281   3.152   1.990   2.262 -0.7643 -0.2928  0.5489
 4273SOL    HW224282   3.066   1.989   2.139 -2.1973  1.3185  0.2100
 4274SOL     OW24283   0.094   2.770  17.008  0.6696  0.4913  0.4079
 4274SOL    HW124284   0.124   2.758  17.098 -2.8256 -1.2852  1.3223
 4274SOL    HW224285   0.167   2.820  16.972  0.3838 -0.4937 -1.5806
 4275SOL     OW24286   3.661   3.723  12.851 -0.3749 -0.6620  0.4430
 4275SOL    HW124287   3.720   3.767  12.790  0.2267  0.7293  2.0466
 4275SOL    HW224288   3.699   3.636  12.843  1.6614  0.0483  2.4584
 4276SOL     OW24289   1.448   4.259   5.402 -0.3139  0.4599 -1.1079
 4276SOL    HW124290   1.407   4.342   5.424  0.8562  0.4541  1.0788
 4276SOL    HW224291   1.432   4.240   5.309 -2.5341 -0.5785 -0.5039
 4277SOL     OW24292   0.715   0.876   3.387 -0.0206 -0.5493  0.1277
 4277SOL    HW124293   0.806   0.874   3.358 -0.1679 -1.2193 -0.2898
 4277SOL    HW224294   0.701   0.784   3.409 -0.6098 -0.1667  1.3713
 4278SOL     OW24295   1.855   3.678   6.808  0.1849  0.9761  0.4534
 4278SOL    HW124296   1.876   3.765   6.842 -1.7276  0.8429  1.9559
 4278SOL    HW224297   1.940   3.642   6.781 -1.8850 -2.1941 -1.8910
 4279SOL     OW24298   0.347   2.570   5.577 -0.8043 -1.0164 -0.1544
 4279SOL    HW124299   0.274   2.510   5.594 -1.8874  0.2430 -0.3557
 4279SOL    HW224300   0.377   2.578   5.667 -0.6994 -1.4563 -0.1517
 4280SOL     OW24301   2.131   0.539   2.111 -0.7382 -0.3056  0.4847
 4280SOL    HW124302   2.142   0.633   2.126  1.1252 -0.7677  2.1153
 4280SOL    HW224303   2.040   0.539   2.081 -0.2336 -0.1606 -1.0329
 4281SOL     OW24304   4.627   0.409   0.297  0.0126  1.1112  0.4875
 4281SOL    HW124305   4.535   0.385   0.304 -0.2553  1.3818 -2.1883
 4281SOL    HW224306   4.615   0.490   0.247  0.0643  1.6383  1.3161
 4282SOL     OW24307   0.356   1.810   2.590  0.4448  0.0693 -0.0822
 4282SOL    HW124308   0.384   1.875   2.654  3.3424 -0.8397 -0.3859
 4282SOL    HW224309   0.364   1.731   2.644  0.0927 -1.6381 -2.5161
 4283SOL     OW24310   3.972   2.420   6.221 -0.2121 -0.0177  0.4596
 4283SOL    HW124311   3.944   2.362   6.291  1.1049  1.2092  2.0019
 4283SOL    HW224312   3.949   2.366   6.145  2.3292 -0.0336 -0.3058
 4284SOL     OW24313   1.090   1.286   5.996 -0.0981 -0.9524 -0.1487
 4284SOL    HW124314   1.149   1.245   5.932  1.1465 -1.1232  1.1005
 4284SOL    HW224315   1.150   1.287   6.070  1.3936  0.8343 -1.3503
 4285SOL     OW24316   0.211   3.286   4.535 -0.2018  0.0424 -0.4574
 4285SOL    HW124317   0.167   3.240   4.607 -1.9056  1.1009 -0.8418
 4285SOL    HW224318   0.197   3.224   4.463 -0.7401 -0.5118  0.1185
 4286SOL     OW24319   4.518   0.381   2.713  0.3818  0.8968 -0.1661
 4286SOL    HW124320   4.483   0.411   2.797 -0.3093  0.1170 -0.1722
 4286SOL    HW224321   4.460   0.431   2.657  0.5257  0.5388 -0.6384
 4287SOL     OW24322   2.959   1.362  15.787 -0.3458  0.0542  0.7275
 4287SOL    HW124323   2.929   1.375  15.877 -1.0064 -1.0422  0.6644
 4287SOL    HW224324   2.962   1.266  15.787  2.3651  0.1698 -0.4728
 4288SOL     OW24325   2.307   3.212   2.319  0.5292 -0.2171  0.7070
 4288SOL    HW124326   2.398   3.198   2.291  0.1545  0.8881 -1.0732
 4288SOL    HW224327   2.318   3.292   2.369 -0.1842  0.4485 -0.2034
 4289SOL     OW24328   0.636   0.526   8.456 -0.1339  0.2301 -0.2091
 4289SOL    HW124329   0.660   0.548   8.546  1.0551  4.0551 -1.4616
 4289SOL    HW224330   0.549   0.566   8.448  1.0779  2.5003 -1.6947
 4290SOL     OW24331   0.757   3.956  10.364 -0.0558  0.5501  0.5738
 4290SOL    HW124332   0.694   3.998  10.306 -2.3752 -1.1847  1.8649
 4290SOL    HW224333   0.718   3.990  10.445  2.8042 -0.4133  2.3591
 4291SOL     OW24334   1.711   1.776   1.991  0.0589 -0.8217 -0.0067
 4291SOL    HW124335   1.682   1.822   1.912  0.1317 -1.4268 -0.3848
 4291SOL    HW224336   1.719   1.684   1.965  2.6109 -0.5780 -0.0510
 4292SOL     OW24337   3.315   2.284   3.819  0.4665  0.0261 -0.4805
 4292SOL    HW124338   3.303   2.209   3.877  0.5149  1.4544  1.3914
 4292SOL    HW224339   3.366   2.252   3.745  0.4302 -0.3433 -0.3434
 4293SOL     OW24340   3.519   1.811   6.729  0.4383 -0.0136  0.0835
 4293SOL    HW124341   3.470   1.741   6.772  0.8964 -0.6088 -0.3893
 4293SOL    HW224342   3.555   1.763   6.655 -0.8791  0.2777 -0.7344
 4294SOL     OW24343   0.725   3.946   4.987  0.5562 -0.5149 -0.3595
 4294SOL    HW124344   0.680   4.030   4.995  2.6981  0.7092 -0.9653
 4294SOL    HW224345   0.810   3.984   5.011  0.3534 -2.4632  3.4317
 4295SOL     OW24346   2.998   3.522   5.957 -0.2491  0.0872 -0.1198
 4295SOL    HW124347   2.941   3.446   5.942  1.2375 -0.6709 -1.8545
 4295SOL    HW224348   3.028   3.493   6.043 -2.9264  0.2666  0.8812
 4296SOL     OW24349   4.429   3.724   1.843 -0.2350 -0.6666 -0.6044
 4296SOL    HW124350   4.486   3.776   1.900 -0.2579 -1.1107 -0.1819
 4296SOL    HW224351   4.420   3.641   1.889  1.5295 -1.1059 -1.0316
 4297SOL     OW24352   1.111   3.187   1.905 -0.2643  0.2379  0.4155
 4297SOL    HW124353   1.129   3.116   1.844 -2.3493  0.4356 -0.4190
 4297SOL    HW224354   1.193   3.186   1.955  0.1909 -0.3542 -0.3419
 4298SOL     OW24355   2.070   1.561   2.978  0.1926  0.5853  0.7608
 4298SOL    HW124356   1.990   1.509   2.977  0.1934  0.6377 -0.9486
 4298SOL    HW224357   2.086   1.592   2.889 -0.9089 -0.9065  0.0527
 4299SOL     OW24358   3.853   4.069  12.414 -0.8119  0.0504 -0.1576
 4299SOL    HW124359   3.796   4.004  12.454 -2.3861  1.4778 -0.1007
 4299SOL    HW224360   3.812   4.151  12.442  1.1710  0.1201  2.5550
 4300SOL     OW24361   3.621   3.774  17.416 -0.0637 -0.4007  0.2470
 4300SOL    HW124362   3.678   3.702  17.389  1.1486  1.2689 -1.6394
 4300SOL    HW224363   3.687   3.820  17.467 -1.1311  1.2539  0.1391
 4301SOL     OW24364   4.128   0.866   4.912  0.2134 -0.5737  0.3953
 4301SOL    HW124365   4.201   0.851   4.852 -0.7384 -1.3384 -0.5677
 4301SOL    HW224366   4.066   0.802   4.877  0.6049 -1.8780  2.0919
 4302SOL     OW24367   0.628   4.468  16.241  0.3230 -0.1549  0.5085
 4302SOL    HW124368   0.616   4.514  16.158 -0.1486 -0.6397  0.3174
 4302SOL    HW224369   0.724   4.463  16.243  0.4455  1.3328 -1.8158
 4303SOL     OW24370   2.492   4.716   9.457 -0.1409 -0.0202 -0.4915
 4303SOL    HW124371   2.488   4.666   9.375  1.1453  0.3397 -0.7627
 4303SOL    HW224372   2.572   0.039   9.433 -0.1555  0.5691  0.6306
 4304SOL     OW24373   2.001   2.936  15.855  0.1875 -0.1736  0.1802
 4304SOL    HW124374   2.065   2.869  15.879  0.8935  0.0938 -0.9272
 4304SOL    HW224375   2.044   3.009  15.901  0.4090 -0.7645  0.9061
 4305SOL     OW24376   4.250   2.773   2.100 -0.1543  0.5693  0.5150
 4305SOL    HW124377   4.241   2.700   2.160  1.0605  1.3372  1.6285
 4305SOL    HW224378   4.340   2.803   2.116  0.0869  0.2242 -0.1776
 4306SOL     OW24379   0.958   2.018   5.877  0.0871 -0.5938  0.2180
 4306SOL    HW124380   0.954   1.942   5.935 -3.8095 -0.6405 -0.1426
 4306SOL    HW224381   0.958   1.981   5.789 -0.5260  0.3732 -0.1904
 4307SOL     OW24382   3.336   1.454  15.419  0.1337 -0.2491 -0.2961
 4307SOL    HW124383   3.307   1.442  15.510 -0.0763 -1.3528 -0.5093
 4307SOL    HW224384   3.269   1.519  15.398  0.4633  0.0073 -0.5555
 4308SOL     OW24385   0.207   1.876  16.811 -0.1740 -0.0306  0.0437
 4308SOL    HW124386   0.228   1.959  16.854 -0.6821  0.6881 -1.0936
 4308SOL    HW224387   0.126   1.898  16.764 -1.2523  2.0380  2.8550
 4309SOL     OW24388   0.695   0.877   9.249 -0.7285  0.7420 -0.2079
 4309SOL    HW124389   0.786   0.865   9.277  0.2384  2.0998 -2.7555
 4309SOL    HW224390   0.657   0.793   9.275  1.5741 -0.8672 -2.0937
 4310SOL     OW24391   2.156   0.718   6.623 -0.4831 -0.5265  0.5361
 4310SOL    HW124392   2.094   0.677   6.563  0.1756  0.4686 -0.8309
 4310SOL    HW224393   2.099   0.733   6.698 -1.1867  0.8557 -0.2742
 4311SOL     OW24394   3.271   3.472   7.783 -0.1873 -0.0756  0.3690
 4311SOL    HW124395   3.254   3.512   7.868  2.3451  2.9430 -0.5470
 4311SOL    HW224396   3.278   3.379   7.803 -0.4097 -0.4147 -1.1355
 4312SOL     OW24397   3.646   1.355   9.453 -0.1797  0.2092  0.0338
 4312SOL    HW124398   3.639   1.413   9.377 -0.8464 -2.2759 -1.7841
 4312SOL    HW224399   3.580   1.386   9.514 -0.0275  0.9012 -0.1418
 4313SOL     OW24400   1.152   2.850   8.230 -0.4036 -0.0850 -0.0939
 4313SOL    HW124401   1.177   2.766   8.193  0.7215  0.0725  0.3046
 4313SOL    HW224402   1.167   2.830   8.323  2.5326  1.7276 -0.1680
 4314SOL     OW24403   4.280   3.706   3.375 -0.5377  0.4713 -0.0764
 4314SOL    HW124404   4.330   3.651   3.315 -0.5498 -0.6114  0.9141
 4314SOL    HW224405   4.347   3.737   3.436  0.0507 -2.0908  0.5957
 4315SOL     OW24406   3.519   2.162   5.027 -0.5317  0.4137 -0.2733
 4315SOL    HW124407   3.562   2.078   5.008  0.9476  1.5265 -1.8293
 4315SOL    HW224408   3.453   2.133   5.090  1.0677  0.6717  1.5262
 4316SOL     OW24409   0.369   2.197   7.780 -0.2454  0.4097  0.3778
 4316SOL    HW124410   0.451   2.229   7.820  0.2516  0.0573 -0.3634
 4316SOL    HW224411   0.311   2.180   7.854 -0.2605 -1.9344 -0.1970
 4317SOL     OW24412   4.567   0.316  12.803  0.3766  0.3694 -0.1740
 4317SOL    HW124413   4.618   0.238  12.783  2.3197  1.7695 -0.6616
 4317SOL    HW224414   4.488   0.273  12.837 -0.5637  0.6919 -1.9807
 4318SOL     OW24415   3.598   2.515   7.942  0.1628  0.1564 -0.3180
 4318SOL    HW124416   3.627   2.580   8.006 -1.2109  0.8300 -0.3987
 4318SOL    HW224417   3.652   2.533   7.864 -0.7500 -1.6826 -1.3780
 4319SOL     OW24418   4.389   3.087  11.813  0.5753 -0.3005  0.3149
 4319SOL    HW124419   4.355   3.028  11.746  2.0070 -1.0976  0.3060
 4319SOL    HW224420   4.406   3.161  11.755 -1.9467  0.5440  0.6612
 4320SOL     OW24421   0.565   3.432  17.583  0.0976 -1.3714 -0.2419
 4320SOL    HW124422   0.645   3.402  17.627  0.7203 -0.4263 -0.7418
 4320SOL    HW224423   0.509   3.458  17.656 -2.2098 -1.3105 -2.0124
 4321SOL     OW24424   2.335   3.298   3.453 -0.3584  0.2855 -0.3174
 4321SOL    HW124425   2.361   3.246   3.376 -0.1804  0.6892 -0.5333
 4321SOL    HW224426   2.246   3.266   3.467 -0.2450 -0.2850 -0.9036
 4322SOL     OW24427   4.128   1.416   1.568  0.1990 -0.0485  0.0911
 4322SOL    HW124428   4.194   1.354   1.536  1.3407  1.0041  0.4087
 4322SOL    HW224429   4.089   1.372   1.643 -1.4335  1.7856  0.3241
 4323SOL     OW24430   3.024   4.487  15.299  0.0252 -0.8533 -0.0573
 4323SOL    HW124431   2.990   4.397  15.297 -0.1722 -0.7725 -0.3462
 4323SOL    HW224432   3.053   4.495  15.208 -0.8879  1.1771 -0.1772
 4324SOL     OW24433   0.108   0.199   1.486  0.4359  0.3308 -0.7272
 4324SOL    HW124434   0.034   0.190   1.426 -0.2528  0.2331  0.1306
 4324SOL    HW224435   0.153   0.115   1.485  0.4618  0.3354  0.0049
 4325SOL     OW24436   2.039   4.503   5.889  0.0801 -0.3547  0.2013
 4325SOL    HW124437   1.983   4.554   5.830  0.7515 -0.0101 -0.1415
 4325SOL    HW224438   2.104   4.569   5.912 -0.1605 -0.1198  0.2065
 4326SOL     OW24439   3.421   3.259   7.879  0.1282 -0.4053  0.2662
 4326SOL    HW124440   3.496   3.319   7.876  1.7262 -2.4873 -1.3639
 4326SOL    HW224441   3.443   3.203   7.954  0.3156 -0.7115 -0.0175
 4327SOL     OW24442   1.477   2.470   7.480 -0.4748  0.1361  0.4227
 4327SOL    HW124443   1.525   2.509   7.407 -1.8246  0.1397 -0.4699
 4327SOL    HW224444   1.414   2.418   7.430 -1.3199 -0.8102  2.5097
 4328SOL     OW24445   1.452   0.272   7.557 -0.1007 -0.3596  0.2969
 4328SOL    HW124446   1.405   0.354   7.540  0.6273 -0.1959 -0.9302
 4328SOL    HW224447   1.450   0.240   7.647  1.2209 -1.1598  0.0307
 4329SOL     OW24448   0.018   1.629   7.661  0.3616  0.2249  0.0875
 4329SOL    HW124449   0.086   1.575   7.621 -0.6096  0.2467 -1.5966
 4329SOL    HW224450   4.717   1.575   7.736 -0.0565 -1.0389 -0.9553
 4330SOL     OW24451   0.769   4.273  10.296  0.3489  0.7692  0.0104
 4330SOL    HW124452   0.681   4.246  10.323  0.7794 -0.1161  0.5291
 4330SOL    HW224453   0.812   4.198  10.256 -3.0688 -1.9152  1.4415
 4331SOL     OW24454   0.736   3.934   8.438 -0.5744 -0.7031  0.0170
 4331SOL    HW124455   0.701   4.009   8.390  1.6147  1.0328  1.1239
 4331SOL    HW224456   0.809   3.914   8.379  1.0272 -1.0313  2.0973
 4332SOL     OW24457   4.118   4.380   4.768 -0.0679  0.2004  0.0736
 4332SOL    HW124458   4.026   4.400   4.779  0.2575  0.5076  2.2853
 4332SOL    HW224459   4.110   4.301   4.715 -2.4420 -0.4773  1.4489
 4333SOL     OW24460   0.508   0.772   4.135  0.0468 -0.1283 -0.3262
 4333SOL    HW124461   0.515   0.687   4.091 -0.5398  0.7246 -2.0458
 4333SOL    HW224462   0.417   0.795   4.116  0.3788  0.0844 -1.6585
 4334SOL     OW24463   2.722   3.333  11.946  0.6189 -0.3619  0.0913
 4334SOL    HW124464   2.643   3.349  11.997 -0.5887 -0.7931 -1.6220
 4334SOL    HW224465   2.692   3.345  11.855  0.5427 -0.4542  0.1038
 4335SOL     OW24466   3.146   1.121  11.869 -0.3215 -0.0732 -0.3118
 4335SOL    HW124467   3.196   1.193  11.908 -2.3384  1.1994 -0.0305
 4335SOL    HW224468   3.084   1.172  11.817 -1.4135  1.3405  2.3677
 4336SOL     OW24469   2.706   1.990   7.999 -0.1997  0.0901  0.2790
 4336SOL    HW124470   2.653   1.922   7.958 -1.1151  0.6011  0.6155
 4336SOL    HW224471   2.638   2.010   8.063 -0.1842 -1.1759  0.6787
 4337SOL     OW24472   3.032   1.003  12.520 -0.5031  0.5242  0.1234
 4337SOL    HW124473   3.005   1.054  12.443  0.9288 -0.5299 -1.0781
 4337SOL    HW224474   3.118   0.972  12.492 -1.9172 -2.2495 -1.1526
 4338SOL     OW24475   2.107   0.752   7.817 -0.1799  0.4718  0.4250
 4338SOL    HW124476   2.065   0.696   7.753  1.2925 -1.2505  0.9468
 4338SOL    HW224477   2.198   0.729   7.798 -0.7233 -0.7860 -0.5812
 4339SOL     OW24478   3.480   0.055   8.049  0.0232  0.3353  0.3726
 4339SOL    HW124479   3.466   0.085   7.959  0.2396  1.0749  0.5884
 4339SOL    HW224480   3.396   0.026   8.083 -0.0956 -1.6990 -1.6614
 4340SOL     OW24481   1.335   3.939   3.061  0.0173 -0.1429 -0.2192
 4340SOL    HW124482   1.411   3.912   3.009 -0.0011 -0.7250  0.0571
 4340SOL    HW224483   1.301   4.014   3.011  2.4347  0.3078 -1.1700
 4341SOL     OW24484   1.943   2.996   7.981 -0.1610 -0.5269  0.5161
 4341SOL    HW124485   1.892   3.048   7.919  0.1479  0.1517  0.8336
 4341SOL    HW224486   1.975   2.918   7.936  1.5246 -0.2901  1.3399
 4342SOL     OW24487   1.769   1.796   4.225 -0.3489 -0.1712 -0.0801
 4342SOL    HW124488   1.843   1.734   4.221  1.1615  1.6240  0.0597
 4342SOL    HW224489   1.691   1.750   4.196  1.1369 -1.6919 -1.6755
 4343SOL     OW24490   1.006   1.624   2.095  0.2333 -0.4907 -0.3984
 4343SOL    HW124491   1.018   1.713   2.063  1.2727 -0.1900  0.8528
 4343SOL    HW224492   0.911   1.629   2.108  0.2848  0.8860 -0.5855
 4344SOL     OW24493   4.712   0.424   8.602 -0.1868  0.1665 -0.3594
 4344SOL    HW124494   0.023   0.371   8.674  0.8899 -1.6887 -2.2648
 4344SOL    HW224495   4.616   0.421   8.607 -0.1740  0.0835 -0.1638
 4345SOL     OW24496   1.881   3.649   3.896 -0.1824 -0.2214  0.1220
 4345SOL    HW124497   1.796   3.605   3.891 -1.2828  1.7643  1.6427
 4345SOL    HW224498   1.934   3.604   3.963  0.4327  0.4467  0.0809
 4346SOL     OW24499   3.336   1.893   6.404 -0.3097 -0.2370  0.3488
 4346SOL    HW124500   3.313   1.802   6.383 -0.2139  0.1605 -1.4723
 4346SOL    HW224501   3.262   1.912   6.463 -2.2975  0.8065 -2.4873
 4347SOL     OW24502   1.547   2.775   8.282  0.1646  0.9764  0.3154
 4347SOL    HW124503   1.511   2.718   8.214  0.1347  0.8294  0.4534
 4347SOL    HW224504   1.618   2.818   8.234 -0.0491  2.2080  1.0852
 4348SOL     OW24505   2.855   2.737  15.890  0.3026 -0.4108 -0.1215
 4348SOL    HW124506   2.845   2.696  15.804  0.8476  0.2528 -0.5005
 4348SOL    HW224507   2.898   2.817  15.861 -1.2091  0.2013 -0.6441
 4349SOL     OW24508   4.148   1.977   5.697 -0.3213 -0.2261  0.0257
 4349SOL    HW124509   4.112   2.043   5.637 -1.5116  0.6058  1.6347
 4349SOL    HW224510   4.238   1.968   5.666  0.2145  0.9258  1.2835
 4350SOL     OW24511   2.047   4.232   0.290 -0.0118  0.3293 -0.5297
 4350SOL    HW124512   2.093   4.256   0.370 -1.5769 -0.6365  0.6484
 4350SOL    HW224513   2.120   4.206   0.234 -0.7829  0.3110 -1.5236
 4351SOL     OW24514   2.188   4.315   2.362 -0.0248 -0.1893 -0.0442
 4351SOL    HW124515   2.160   4.283   2.276  1.7480 -1.4702 -0.1389
 4351SOL    HW224516   2.232   4.396   2.335 -3.1570  0.8615 -2.0216
 4352SOL     OW24517   1.733   3.634   5.891  0.2560 -0.3865  0.0711
 4352SOL    HW124518   1.697   3.546   5.879 -0.8426  0.0101  0.5406
 4352SOL    HW224519   1.661   3.690   5.862 -0.0688  0.0223  1.6625
 4353SOL     OW24520   1.425   2.361   2.402 -0.0695 -0.2188  0.1562
 4353SOL    HW124521   1.520   2.358   2.411 -0.2630 -2.4592  1.3090
 4353SOL    HW224522   1.414   2.300   2.329 -0.3869  0.0195  0.0050
 4354SOL     OW24523   3.195   1.847   5.198 -0.5584  0.2097  0.0292
 4354SOL    HW124524   3.208   1.795   5.118  1.0488 -1.0090  1.0766
 4354SOL    HW224525   3.156   1.782   5.256  0.0405  2.0212  2.4250
 4355SOL     OW24526   2.269   2.247   0.969  0.2983 -0.1664  0.3720
 4355SOL    HW124527   2.312   2.233   1.053 -0.4455 -2.0632  0.4363
 4355SOL    HW224528   2.308   2.331   0.943 -0.6892  0.3805  0.6570
 4356SOL     OW24529   0.459   2.076  10.109  0.5061  0.3179  0.6876
 4356SOL    HW124530   0.517   2.001  10.107 -0.3234 -0.2599 -1.0674
 4356SOL    HW224531   0.392   2.061  10.042  1.9483 -0.6182 -0.5279
 4357SOL     OW24532   3.021   1.081  15.764 -0.9520 -0.2182 -0.1083
 4357SOL    HW124533   2.955   1.014  15.781 -0.3503 -0.8511 -0.3246
 4357SOL    HW224534   3.077   1.030  15.706  0.0389  0.8423 -0.0723
 4358SOL     OW24535   4.095   0.275  12.614 -0.6689  0.3557 -0.0759
 4358SOL    HW124536   4.017   0.238  12.654  0.9771 -1.5586  1.3925
 4358SOL    HW224537   4.113   0.351  12.670 -2.3605  0.9994 -0.4213
 4359SOL     OW24538   3.449   1.930   7.776  0.3916  0.1181  0.4913
 4359SOL    HW124539   3.385   1.942   7.846 -2.1868  0.7257 -2.0018
 4359SOL    HW224540   3.529   1.908   7.824  1.3995  1.3088 -0.6333
 4360SOL     OW24541   4.200   2.817   4.284 -0.1944 -0.0313 -0.2296
 4360SOL    HW124542   4.269   2.882   4.298  0.6053 -0.7646 -0.7805
 4360SOL    HW224543   4.236   2.746   4.336  0.2256 -0.4768 -1.1318
 4361SOL     OW24544   1.070   0.721  10.231 -0.3920  0.3217  0.1354
 4361SOL    HW124545   1.139   0.665  10.195 -0.0721  0.3989  0.6285
 4361SOL    HW224546   1.053   0.683  10.317  0.3987  2.3767  1.2254
 4362SOL     OW24547   2.392   3.685  14.254 -0.0655  0.1214  0.6712
 4362SOL    HW124548   2.317   3.694  14.195 -1.5785  1.4058  2.8028
 4362SOL    HW224549   2.352   3.669  14.339 -2.6641 -0.2738 -0.6115
 4363SOL     OW24550   4.570   0.219   4.413 -0.2326  0.0865  0.2805
 4363SOL    HW124551   4.531   0.134   4.432  0.0882  0.0644  0.8371
 4363SOL    HW224552   4.609   0.241   4.498 -1.3951 -0.3518  0.9351
 4364SOL     OW24553   0.729   0.844   5.239  0.0225  0.4533 -0.3616
 4364SOL    HW124554   0.811   0.805   5.269 -0.4590 -0.1758  0.1266
 4364SOL    HW224555   0.746   0.839   5.145 -0.6755  0.1117 -0.4700
 4365SOL     OW24556   1.863   4.225   2.792 -0.2324 -0.1072  0.7156
 4365SOL    HW124557   1.837   4.198   2.704  0.4465  1.2780  0.0993
 4365SOL    HW224558   1.956   4.244   2.780  0.4271 -4.0942 -0.4850
 4366SOL     OW24559   1.162   3.915   3.898  0.2856 -0.1240  0.3548
 4366SOL    HW124560   1.156   3.935   3.805  2.2770 -0.7184  0.1094
 4366SOL    HW224561   1.237   3.963   3.932 -0.0288 -0.3133  1.3244
 4367SOL     OW24562   2.753   4.099   2.516 -0.1719 -0.2780  0.0627
 4367SOL    HW124563   2.667   4.122   2.479  1.3130 -0.9105 -3.8004
 4367SOL    HW224564   2.813   4.147   2.459 -1.2072  0.0621 -0.7521
 4368SOL     OW24565   2.201   0.189   4.345  0.8200 -0.3139 -0.1808
 4368SOL    HW124566   2.198   0.246   4.421  0.9735  1.3787 -1.4407
 4368SOL    HW224567   2.111   0.158   4.333  0.6582 -0.3402  1.0981
 4369SOL     OW24568   3.972   2.981   6.971  0.0769 -0.3645 -0.1887
 4369SOL    HW124569   3.942   2.914   6.909  2.6219 -1.4293 -0.2662
 4369SOL    HW224570   3.892   3.015   7.011 -0.4617 -1.1391 -0.6029
 4370SOL     OW24571   1.735   2.148   8.999  1.0488 -0.4123 -0.0828
 4370SOL    HW124572   1.756   2.078   9.061  1.2851 -1.3006 -1.1546
 4370SOL    HW224573   1.641   2.133   9.002  0.5974  1.8295 -2.9987
 4371SOL     OW24574   1.123   1.749   2.824  0.7209 -0.2029  0.0457
 4371SOL    HW124575   1.031   1.767   2.842  0.8054 -0.4295  0.7051
 4371SOL    HW224576   1.148   1.761   2.916 -0.7339  1.2665  0.2402
 4372SOL     OW24577   1.781   3.326   3.090  0.4439 -0.8552 -0.0660
 4372SOL    HW124578   1.757   3.360   3.004  2.5281  1.7881  0.3999
 4372SOL    HW224579   1.691   3.319   3.122 -0.3606  2.4395 -1.5916
 4373SOL     OW24580   1.634   3.828   5.301 -0.4166  0.4536 -0.0437
 4373SOL    HW124581   1.705   3.877   5.258 -0.1517 -0.5791 -0.7877
 4373SOL    HW224582   1.562   3.867   5.250  0.0911 -0.1920 -1.2671
 4374SOL     OW24583   2.296   0.028   8.470  0.1915 -0.0097  0.2175
 4374SOL    HW124584   2.238   4.703   8.412 -2.3223  3.1023  0.1264
 4374SOL    HW224585   2.268   4.710   8.551 -1.2910  2.2088  0.8580
 4375SOL     OW24586   2.754   1.898   6.734 -0.1851  0.6236  0.0482
 4375SOL    HW124587   2.832   1.850   6.761  0.7459  2.6224  0.8797
 4375SOL    HW224588   2.721   1.935   6.815  1.8018  0.6329  0.8465
 4376SOL     OW24589   1.327   2.783   6.469  0.4016  0.5054 -0.1288
 4376SOL    HW124590   1.369   2.799   6.384 -0.0957  1.0480 -0.2697
 4376SOL    HW224591   1.403   2.744   6.513  0.1879 -1.5719 -1.5773
 4377SOL     OW24592   0.792   1.548   5.995  0.3890 -0.1978 -0.2018
 4377SOL    HW124593   0.837   1.596   6.064  2.4352  1.2432 -2.5441
 4377SOL    HW224594   0.793   1.455   6.021  1.7421  0.9747  3.8799
 4378SOL     OW24595   3.034   1.086  14.710  0.6213  0.1816 -0.0356
 4378SOL    HW124596   2.971   1.127  14.768  0.2345 -1.7779  0.9207
 4378SOL    HW224597   3.103   1.150  14.694  1.0641 -0.6454 -1.5030
 4379SOL     OW24598   1.223   2.187   7.415  0.4630 -0.3767 -0.3916
 4379SOL    HW124599   1.145   2.243   7.416  2.6834  2.6908 -0.0461
 4379SOL    HW224600   1.274   2.219   7.489  1.2516  1.7051 -1.8340
 4380SOL     OW24601   3.441   0.057   3.855 -0.1595  0.1346 -0.0309
 4380SOL    HW124602   3.401   4.694   3.862  1.2919 -1.0578 -6.0509
 4380SOL    HW224603   3.442   0.080   3.948 -0.1873  0.1109 -0.0246
 4381SOL     OW24604   1.472   4.276   6.217  0.0001 -0.3725 -0.5532
 4381SOL    HW124605   1.487   4.304   6.308  0.2238  3.4115 -1.7536
 4381SOL    HW224606   1.456   4.182   6.226  2.2749 -0.7057  0.1041
 4382SOL     OW24607   2.985   2.123   5.983  0.6370  0.1027 -0.3971
 4382SOL    HW124608   3.073   2.095   5.959  0.8256 -0.2489  0.6922
 4382SOL    HW224609   2.955   2.063   6.050  0.2028 -0.2593 -0.9164
 4383SOL     OW24610   1.013   0.750   1.948  0.3217 -0.4601  0.4683
 4383SOL    HW124611   0.996   0.659   1.970 -0.5744 -0.1088  1.2731
 4383SOL    HW224612   1.108   0.745   1.934 -0.0132  0.6412 -2.1441
 4384SOL     OW24613   2.247   3.546   3.083  0.2802 -0.0685  0.1469
 4384SOL    HW124614   2.309   3.473   3.074 -0.5181 -0.6954 -0.3254
 4384SOL    HW224615   2.157   3.513   3.076 -0.0105  0.0068  3.4576
 4385SOL     OW24616   3.158   1.744   8.871 -0.3325 -0.3118 -0.4868
 4385SOL    HW124617   3.068   1.725   8.846 -0.3528 -0.6343 -0.1635
 4385SOL    HW224618   3.177   1.813   8.807 -1.3175 -1.0271 -1.5426
 4386SOL     OW24619   3.618   3.924   2.470  0.3252 -0.1208 -0.3732
 4386SOL    HW124620   3.666   3.894   2.547 -1.0709 -0.3359  0.4069
 4386SOL    HW224621   3.585   3.839   2.442 -1.7693  1.3974 -2.5092
 4387SOL     OW24622   4.371   2.839  12.172 -0.0055 -0.2084 -0.2210
 4387SOL    HW124623   4.282   2.864  12.197 -0.7216 -2.0859 -0.8896
 4387SOL    HW224624   4.426   2.903  12.218  1.4391 -1.2626 -0.4808
 4388SOL     OW24625   2.026   3.236   5.698  0.0972  0.5988  0.4446
 4388SOL    HW124626   1.998   3.304   5.759 -2.8080 -1.4396  1.4444
 4388SOL    HW224627   2.111   3.270   5.672  0.5077 -1.3053 -0.6872
 4389SOL     OW24628   4.393   3.324  13.385 -0.0957  0.2216  0.5249
 4389SOL    HW124629   4.412   3.330  13.291 -0.9624  0.1578  0.3435
 4389SOL    HW224630   4.312   3.274  13.384  0.8876 -1.3619  0.1236
 4390SOL     OW24631   3.143   1.788   2.082 -0.2096 -1.4946  0.5102
 4390SOL    HW124632   3.101   1.732   2.147 -0.2439 -2.2692 -0.1662
 4390SOL    HW224633   3.231   1.791   2.118  0.2494  2.8008 -1.0126
 4391SOL     OW24634   3.441   2.163   5.369  0.3329 -0.5851 -0.0091
 4391SOL    HW124635   3.447   2.092   5.304 -1.7861 -1.5021  0.8135
 4391SOL    HW224636   3.464   2.109   5.445 -1.0183 -0.6644  0.3402
 4392SOL     OW24637   1.368   0.637   1.351  0.2560 -0.6896 -0.1277
 4392SOL    HW124638   1.382   0.564   1.411  0.8091  0.1695  0.7957
 4392SOL    HW224639   1.291   0.678   1.391  1.7387  4.3059 -2.3709
 4393SOL     OW24640   3.182   4.440  14.328  0.5320 -0.0557  0.3827
 4393SOL    HW124641   3.096   4.445  14.285  0.3681  0.8782  0.8101
 4393SOL    HW224642   3.209   4.352  14.302  1.3139  0.3462 -0.1752
 4394SOL     OW24643   0.843   2.966  16.315  0.2516  0.3319 -0.4703
 4394SOL    HW124644   0.782   3.039  16.307 -1.0479 -0.5959  0.8815
 4394SOL    HW224645   0.902   3.003  16.381  2.3699  1.2433 -2.9124
 4395SOL     OW24646   3.125   0.577  11.095  0.7487 -0.0430 -0.5470
 4395SOL    HW124647   3.214   0.597  11.067  0.6148  1.1454 -0.1013
 4395SOL    HW224648   3.107   0.665  11.128  1.1390  0.5449 -1.8750
 4396SOL     OW24649   4.692   4.455   7.640  0.0504  0.0734  0.0650
 4396SOL    HW124650   4.616   4.468   7.697 -1.0982  1.5939 -1.7995
 4396SOL    HW224651   4.670   4.373   7.594  0.8584 -0.8199  1.2842
 4397SOL     OW24652   2.172   1.365  11.099 -0.2281  0.2762  0.3175
 4397SOL    HW124653   2.138   1.410  11.021 -0.5215  0.8764  0.7911
 4397SOL    HW224654   2.171   1.434  11.166  0.3463  2.2191 -1.6635
 4398SOL     OW24655   4.287   2.378  12.342 -0.1888  0.5714 -0.1406
 4398SOL    HW124656   4.381   2.359  12.347 -0.3733  0.0678  1.3663
 4398SOL    HW224657   4.275   2.473  12.343  2.0572  0.8607  0.8666
 4399SOL     OW24658   3.876   3.282   4.418 -0.0154  0.5981 -0.6733
 4399SOL    HW124659   3.874   3.338   4.496 -2.8080 -2.3103  1.3291
 4399SOL    HW224660   3.850   3.198   4.456  1.5960  0.0932 -0.6878
 4400SOL     OW24661   4.358   0.836   0.082 -0.0492 -0.2704  0.1262
 4400SOL    HW124662   4.400   0.911   0.042 -2.2213 -0.0242 -1.6672
 4400SOL    HW224663   4.267   0.863   0.095 -1.2328 -3.0565 -2.2818
 4401SOL     OW24664   1.609   2.028   6.818 -0.3216  0.2866  0.0085
 4401SOL    HW124665   1.687   2.043   6.872  1.2150  0.5990 -2.3159
 4401SOL    HW224666   1.612   1.933   6.803  1.6536  0.7259 -2.3493
 4402SOL     OW24667   4.645   3.397   3.077  0.0347 -0.1331 -0.0709
 4402SOL    HW124668   0.016   3.406   3.084  0.2572 -2.1979 -0.6818
 4402SOL    HW224669   4.637   3.305   3.055 -0.2678 -0.4630  1.4155
 4403SOL     OW24670   2.072   3.269   9.972 -0.6830 -0.0255 -0.1792
 4403SOL    HW124671   1.992   3.313   9.947  0.8920  2.5992 -0.5716
 4403SOL    HW224672   2.036   3.209  10.038  1.6112 -2.5322 -1.2004
 4404SOL     OW24673   2.249   3.666   7.374  0.0547 -0.3356  0.1512
 4404SOL    HW124674   2.171   3.655   7.428 -0.3713 -0.7343 -0.5490
 4404SOL    HW224675   2.240   3.588   7.319 -2.0629  0.2812 -0.3605
 4405SOL     OW24676   4.175   1.161  11.297  0.4753 -0.6340  0.2913
 4405SOL    HW124677   4.263   1.173  11.261  0.4777 -0.3841  0.3804
 4405SOL    HW224678   4.167   1.248  11.336 -1.3859 -0.6810  0.0114
 4406SOL     OW24679   3.485   1.098  16.869 -0.4843  0.3780 -0.6162
 4406SOL    HW124680   3.504   1.043  16.793 -3.2996 -0.7704 -0.4494
 4406SOL    HW224681   3.456   1.032  16.932  1.3985 -0.7110 -0.8734
 4407SOL     OW24682   3.796   0.672   0.657  0.2695  0.1167  0.2906
 4407SOL    HW124683   3.885   0.709   0.654  0.5084 -0.3463  1.6597
 4407SOL    HW224684   3.789   0.630   0.571 -0.6362  1.0005 -0.0643
 4408SOL     OW24685   4.052   2.490   4.316  0.2023 -0.2420  0.0283
 4408SOL    HW124686   3.989   2.562   4.312 -0.3624 -0.6844  1.1067
 4408SOL    HW224687   4.005   2.420   4.360  1.8152 -1.4799 -0.2131
 4409SOL     OW24688   1.649   2.168   7.570 -0.1515  0.3469 -0.6790
 4409SOL    HW124689   1.731   2.215   7.556 -0.3982  0.8971 -0.2526
 4409SOL    HW224690   1.615   2.164   7.481 -2.6623  0.9961  0.2449
 4410SOL     OW24691   1.788   0.223   0.783 -0.3278  0.0798 -0.0581
 4410SOL    HW124692   1.853   0.275   0.831 -0.5344  0.2309  0.0614
 4410SOL    HW224693   1.794   0.259   0.694 -2.4210 -2.4204 -1.1855
 4411SOL     OW24694   4.689   3.643   2.141 -0.8379 -0.2425 -0.1175
 4411SOL    HW124695   4.636   3.622   2.064 -0.4275 -1.2515 -0.1319
 4411SOL    HW224696   0.036   3.579   2.149  0.9796  1.5617 -1.8254
 4412SOL     OW24697   1.185   0.019   0.595  0.5289  0.2330  0.1217
 4412SOL    HW124698   1.255   0.018   0.529  1.2942 -0.8570  0.9467
 4412SOL    HW224699   1.233   4.693   0.661 -0.5382  1.7730  2.0772
 4413SOL     OW24700   1.328   0.612   9.224 -0.0645  0.1826  0.1250
 4413SOL    HW124701   1.366   0.543   9.278 -2.0518 -0.5146  0.6062
 4413SOL    HW224702   1.238   0.620   9.256 -0.4483 -0.2145 -0.8354
 4414SOL     OW24703   0.516   1.387   3.940  0.3300 -0.0985 -1.0265
 4414SOL    HW124704   0.480   1.300   3.920  0.0170 -0.2156  0.0455
 4414SOL    HW224705   0.564   1.408   3.860  2.9209 -0.0125  0.5464
 4415SOL     OW24706   2.554   3.875  15.314 -0.0149 -0.9316  0.4980
 4415SOL    HW124707   2.628   3.830  15.354  0.8188 -1.4173 -1.6029
 4415SOL    HW224708   2.573   3.863  15.221  0.6747  1.1314  0.3779
 4416SOL     OW24709   4.347   3.325  11.694 -0.0955 -0.6117  0.1960
 4416SOL    HW124710   4.315   3.410  11.725  1.4010 -0.3213  0.9794
 4416SOL    HW224711   4.329   3.331  11.601 -3.2608 -1.2101  0.7812
 4417SOL     OW24712   4.566   1.754  10.761  0.7226  0.2885  0.4079
 4417SOL    HW124713   4.599   1.783  10.846 -2.1406  0.2286  1.5315
 4417SOL    HW224714   4.642   1.755  10.702 -0.7847 -4.1970 -1.6521
 4418SOL     OW24715   1.616   1.277   2.754 -0.5330  0.7299 -0.3992
 4418SOL    HW124716   1.594   1.289   2.847 -0.7402  0.4978 -0.4191
 4418SOL    HW224717   1.581   1.356   2.713  0.1433 -0.6262 -3.5631
 4419SOL     OW24718   0.089   2.209  11.842 -0.0137  0.0042 -0.1637
 4419SOL    HW124719   0.075   2.181  11.932 -0.4442  0.7655  0.0076
 4419SOL    HW224720   0.006   2.251  11.820  0.2465  1.5253  1.7592
 4420SOL     OW24721   1.294   2.140   3.085  0.1857 -0.1012  0.0916
 4420SOL    HW124722   1.257   2.052   3.080 -0.7535  0.4506 -2.3108
 4420SOL    HW224723   1.386   2.114   3.093 -0.3008 -1.4795  1.2062
 4421SOL     OW24724   1.030   1.101   6.356  0.1693 -0.3529  0.1064
 4421SOL    HW124725   1.085   1.082   6.280 -1.5584  1.0267 -1.4811
 4421SOL    HW224726   1.048   1.024   6.410 -4.4642  0.1602  2.3588
 4422SOL     OW24727   1.181   1.170  17.581  0.4497 -0.6251  0.3247
 4422SOL    HW124728   1.168   1.207  17.668  0.9198  1.9018 -0.6585
 4422SOL    HW224729   1.273   1.146  17.585  1.1591  2.0414 -0.0919
 4423SOL     OW24730   0.698   3.352   6.335  0.4291 -0.1802  0.5084
 4423SOL    HW124731   0.756   3.364   6.260 -1.3578 -0.5253 -0.9330
 4423SOL    HW224732   0.640   3.427   6.324  0.6388  0.1001  1.3100
 4424SOL     OW24733   3.679   1.078   6.494 -0.4425  0.0840 -0.2609
 4424SOL    HW124734   3.721   1.048   6.414  1.8455 -0.2548  1.0481
 4424SOL    HW224735   3.745   1.046   6.556 -2.1560 -1.0466  1.0005
 4425SOL     OW24736   1.911   0.872   7.959 -0.7777 -0.4844  0.2738
 4425SOL    HW124737   1.991   0.838   7.919  0.0865 -0.0566  1.6367
 4425SOL    HW224738   1.940   0.956   7.996  1.1221 -0.2815 -1.6807
 4426SOL     OW24739   4.205   0.611   6.186 -0.3652 -0.3328  0.2760
 4426SOL    HW124740   4.275   0.548   6.166 -0.8984 -0.5900 -0.7559
 4426SOL    HW224741   4.131   0.571   6.140 -0.6486  0.7551 -0.2228
 4427SOL     OW24742   0.695   3.315   1.844 -0.4908  0.0882 -0.4041
 4427SOL    HW124743   0.664   3.262   1.770  0.7342 -1.0471 -0.1233
 4427SOL    HW224744   0.613   3.334   1.888 -0.9291 -3.3014  0.2858
 4428SOL     OW24745   1.162   3.402   4.310 -0.0211  0.5891  0.0952
 4428SOL    HW124746   1.212   3.328   4.345 -1.3371 -1.3747 -2.1604
 4428SOL    HW224747   1.184   3.466   4.378  0.6351 -0.8313  1.2276
 4429SOL     OW24748   1.948   3.018  13.918  0.2765 -0.4657 -0.4488
 4429SOL    HW124749   1.922   2.950  13.981  1.1498  0.2619  0.6889
 4429SOL    HW224750   1.939   3.104  13.958 -1.0528 -0.3271 -1.0250
 4430SOL     OW24751   3.823   0.211   6.930  0.3434 -0.1685 -0.0913
 4430SOL    HW124752   3.856   0.235   7.016 -0.7445  1.1690 -0.0472
 4430SOL    HW224753   3.894   0.160   6.890  0.2414 -0.0270 -0.4597
 4431SOL     OW24754   1.210   1.853   3.121  0.0494 -0.4781  0.0421
 4431SOL    HW124755   1.168   1.825   3.203  0.6471 -1.1016  0.1383
 4431SOL    HW224756   1.296   1.812   3.114  0.1794 -0.4192  1.3373
 4432SOL     OW24757   3.053   4.112   3.261  0.5336 -0.2754 -0.1678
 4432SOL    HW124758   2.988   4.109   3.191 -0.1563  2.7347  0.3334
 4432SOL    HW224759   3.125   4.157   3.216 -0.7881  1.1672 -0.8534
 4433SOL     OW24760   2.595   2.174  16.152 -0.1755  0.0577  0.9838
 4433SOL    HW124761   2.522   2.150  16.094  1.1765 -0.8516 -0.3234
 4433SOL    HW224762   2.569   2.263  16.176 -0.1082 -0.0477  1.4465
 4434SOL     OW24763   3.840   0.784   4.593  0.1641 -0.3595  0.0974
 4434SOL    HW124764   3.853   0.714   4.530  1.6393 -0.0524  0.0565
 4434SOL    HW224765   3.856   0.735   4.673 -0.1494  2.1615  1.7026
 4435SOL     OW24766   1.367   2.783   7.909 -0.0066  0.1990 -0.2214
 4435SOL    HW124767   1.327   2.707   7.951 -1.9987  0.5027 -1.5125
 4435SOL    HW224768   1.457   2.753   7.897 -0.3157 -0.9751  0.3656
 4436SOL     OW24769   2.304   3.171   5.457 -0.3184 -0.9083  0.1850
 4436SOL    HW124770   2.395   3.190   5.478 -0.6703  1.1567 -0.1993
 4436SOL    HW224771   2.278   3.108   5.524 -0.0668 -0.2357  0.9128
 4437SOL     OW24772   1.256   1.174  12.254  0.0606 -0.1166 -0.1475
 4437SOL    HW124773   1.191   1.212  12.194  0.0039 -1.1774 -0.7594
 4437SOL    HW224774   1.338   1.215  12.224  0.2559 -1.4647 -1.4535
 4438SOL     OW24775   4.152   4.042  15.053 -1.1728 -0.4048  0.1241
 4438SOL    HW124776   4.225   4.001  15.098 -1.9806 -1.7743  0.1843
 4438SOL    HW224777   4.174   4.026  14.961  0.6669  0.6423  0.3837
 4439SOL     OW24778   0.745   0.730  13.813  0.3128  0.2495 -0.3076
 4439SOL    HW124779   0.798   0.659  13.778  1.0885  1.1801 -1.0270
 4439SOL    HW224780   0.772   0.720  13.905  0.2925  0.8246 -0.2354
 4440SOL     OW24781   3.187   3.149  17.008  0.5150 -0.0931 -0.0901
 4440SOL    HW124782   3.175   3.223  17.068  2.3712 -1.4396  1.9477
 4440SOL    HW224783   3.097   3.134  16.981  0.1684  1.5061  0.2151
 4441SOL     OW24784   3.209   0.691   7.759 -0.3714  0.2681 -0.2647
 4441SOL    HW124785   3.115   0.700   7.777 -0.5074 -1.4851 -0.0984
 4441SOL    HW224786   3.201   0.647   7.675 -1.0822  1.1918 -0.6883
 4442SOL     OW24787   0.005   0.838  13.822 -0.4150  0.0746 -0.4034
 4442SOL    HW124788   0.045   0.902  13.881  0.2432 -1.6308  1.0145
 4442SOL    HW224789   0.082   0.785  13.804 -0.9241 -0.4477 -1.0674
 4443SOL     OW24790   0.950   3.542   0.689  0.3809 -0.6541 -0.1049
 4443SOL    HW124791   1.023   3.573   0.635  1.7699 -0.8692  1.6331
 4443SOL    HW224792   0.982   3.582   0.771 -0.8976  0.0357  0.0612
 4444SOL     OW24793   3.415   1.057  15.191  0.1978 -0.2764 -0.1349
 4444SOL    HW124794   3.380   0.980  15.235 -2.4068  0.6407 -0.5865
 4444SOL    HW224795   3.460   1.111  15.256  2.7869 -2.7239  0.1096
 4445SOL     OW24796   2.431   2.977   2.013 -0.0304 -0.3944  0.0179
 4445SOL    HW124797   2.408   2.930   2.093  0.4026 -0.2759  0.2080
 4445SOL    HW224798   2.375   3.055   2.017 -1.4644 -1.3107 -2.0507
 4446SOL     OW24799   3.391   0.710   3.037 -0.6957  0.1963 -0.4520
 4446SOL    HW124800   3.359   0.648   3.102 -0.5441 -0.6087 -1.1403
 4446SOL    HW224801   3.484   0.708   3.060 -0.6531 -0.2170 -0.6636
 4447SOL     OW24802   1.585   3.869   4.506 -0.6992 -0.1698  0.9394
 4447SOL    HW124803   1.591   3.963   4.490  0.9384 -0.3579  0.4032
 4447SOL    HW224804   1.679   3.849   4.514 -0.1278  0.9289 -2.8343
 4448SOL     OW24805   1.540   0.236  11.066 -0.0146 -0.0347 -0.3504
 4448SOL    HW124806   1.591   0.312  11.037 -1.3340  0.9429 -0.1435
 4448SOL    HW224807   1.511   0.256  11.155  0.9181  1.0209 -0.2759
 4449SOL     OW24808   2.170   2.688   6.432  0.4288 -0.2714  0.3688
 4449SOL    HW124809   2.230   2.759   6.455 -2.9848  2.9774 -0.8473
 4449SOL    HW224810   2.207   2.607   6.467  1.1644  0.1721  0.6173
 4450SOL     OW24811   1.412   2.755  16.641  0.7845  0.2646  0.6125
 4450SOL    HW124812   1.416   2.844  16.674  2.7200  0.1889  0.5837
 4450SOL    HW224813   1.319   2.735  16.630  0.7018  1.0360 -0.0884
 4451SOL     OW24814   4.313   4.063   3.204 -0.2327 -0.4444  0.2084
 4451SOL    HW124815   4.260   4.070   3.124 -1.5116  4.0661  1.4080
 4451SOL    HW224816   4.390   4.114   3.179 -1.1542  0.2620 -1.2131
 4452SOL     OW24817   1.194   2.370   8.725  0.0020 -0.2209 -0.1345
 4452SOL    HW124818   1.205   2.465   8.725 -0.9131 -0.1151 -0.6846
 4452SOL    HW224819   1.137   2.360   8.800  0.0548  0.8287  0.0524
 4453SOL     OW24820   4.185   0.304   1.903 -0.0391 -0.4008 -0.3570
 4453SOL    HW124821   4.247   0.236   1.876  1.0205 -0.0815  1.2740
 4453SOL    HW224822   4.157   0.264   1.985 -0.5034 -1.7207 -1.1578
 4454SOL     OW24823   2.901   0.219  15.316  0.0376  0.1497 -0.1963
 4454SOL    HW124824   2.985   0.193  15.354 -0.2893 -1.0226 -0.3021
 4454SOL    HW224825   2.927   0.276  15.243  0.8197  0.3757  0.2510
 4455SOL     OW24826   3.919   4.295  11.915  0.7947  0.3174 -0.3047
 4455SOL    HW124827   3.973   4.373  11.900 -0.5968  1.1238 -1.1402
 4455SOL    HW224828   3.974   4.252  11.980  1.6060 -0.2416 -1.3635
 4456SOL     OW24829   0.122   0.208   4.241 -0.3939 -0.4822  0.2093
 4456SOL    HW124830   0.052   0.150   4.211 -0.6740  0.9223 -1.8466
 4456SOL    HW224831   0.143   0.168   4.325 -2.3232  1.0397  1.4126
 4457SOL     OW24832   3.808   3.039   5.456  0.0870 -0.0270 -0.2209
 4457SOL    HW124833   3.805   3.125   5.496  1.5006 -0.7735  1.5072
 4457SOL    HW224834   3.817   2.992   5.539 -0.3154  0.2509 -0.0205
 4458SOL     OW24835   3.224   2.937   9.708 -0.1172 -0.7565 -0.0312
 4458SOL    HW124836   3.309   2.919   9.668 -0.5918 -2.4426 -0.2781
 4458SOL    HW224837   3.180   2.869   9.656  0.3439 -0.0234 -1.3900
 4459SOL     OW24838   0.763   4.564   7.370  0.3979  0.5947 -0.0532
 4459SOL    HW124839   0.673   4.588   7.394  0.5489 -0.8488  1.9607
 4459SOL    HW224840   0.783   4.539   7.461 -1.8053 -2.2558 -0.3312
 4460SOL     OW24841   2.398   4.407   5.747  0.5346 -0.2135  0.0085
 4460SOL    HW124842   2.450   4.361   5.681 -0.5539 -0.4918 -0.6581
 4460SOL    HW224843   2.339   4.333   5.763  0.4376  0.0604  0.9393
 4461SOL     OW24844   4.070   3.705  11.480  0.8284 -0.0183 -0.6935
 4461SOL    HW124845   3.977   3.714  11.463  0.6622 -0.2021  0.1130
 4461SOL    HW224846   4.108   3.731  11.396  1.6859 -2.4771 -1.0613
 4462SOL     OW24847   4.668   1.985  11.719  0.1530  0.5881  0.0679
 4462SOL    HW124848   4.638   1.957  11.632  0.1081  3.1808 -0.7324
 4462SOL    HW224849   4.652   1.903  11.766  1.7646  0.1149 -0.1996
 4463SOL     OW24850   1.237   0.348   5.243  0.0363  0.2612  0.6424
 4463SOL    HW124851   1.175   0.410   5.280 -0.7823  0.0106 -0.3304
 4463SOL    HW224852   1.311   0.406   5.223 -2.4429  2.4669 -2.0197
 4464SOL     OW24853   1.872   1.130   5.445  0.1983  0.0451 -0.1779
 4464SOL    HW124854   1.827   1.116   5.528  1.1222  1.1283  0.4979
 4464SOL    HW224855   1.857   1.049   5.397 -0.5116  0.6181 -0.9220
 4465SOL     OW24856   2.619   0.705   7.646 -0.0105  0.0722 -0.0733
 4465SOL    HW124857   2.663   0.633   7.691 -1.1891 -0.6111 -0.0209
 4465SOL    HW224858   2.659   0.690   7.561 -0.6226  0.6010 -0.4531
 4466SOL     OW24859   1.041   2.983   3.317  0.0651  0.4365  0.0363
 4466SOL    HW124860   0.971   3.030   3.271  0.3167  1.7590  1.0130
 4466SOL    HW224861   1.026   2.903   3.266  0.0809  0.7972 -0.5332
 4467SOL     OW24862   0.953   4.073  10.820  0.5081  0.2224  0.4864
 4467SOL    HW124863   0.951   4.166  10.842  0.7528  0.7148 -1.5868
 4467SOL    HW224864   0.986   4.079  10.731  2.0244 -1.0901  0.9543
 4468SOL     OW24865   2.392   4.318   4.455 -0.6361  0.0701 -0.8494
 4468SOL    HW124866   2.323   4.382   4.473  0.6095  0.3853  2.8278
 4468SOL    HW224867   2.404   4.278   4.541 -1.4060  0.3916 -0.5924
 4469SOL     OW24868   0.374   4.010   8.827  0.2297  0.0851  0.0764
 4469SOL    HW124869   0.384   3.917   8.847  1.3702  0.5291  1.5192
 4469SOL    HW224870   0.324   4.010   8.745 -0.2790 -2.6704  0.3986
 4470SOL     OW24871   3.334   3.922   4.736  0.0979 -0.1396 -0.0528
 4470SOL    HW124872   3.414   3.898   4.690 -0.7736  2.0645 -2.7062
 4470SOL    HW224873   3.358   4.006   4.775  0.9584 -1.0488  1.3819
 4471SOL     OW24874   1.421   4.307   0.998 -1.0555 -0.6398 -0.2691
 4471SOL    HW124875   1.366   4.264   1.063 -1.1991  0.6373  0.4554
 4471SOL    HW224876   1.500   4.309   1.053 -0.7194  0.9715 -0.7868
 4472SOL     OW24877   1.985   1.839   1.765 -0.3789  0.4938 -0.0139
 4472SOL    HW124878   1.931   1.912   1.735  0.5778  1.1596 -0.1139
 4472SOL    HW224879   2.059   1.845   1.704 -0.3118 -1.8517 -0.1887
 4473SOL     OW24880   4.382   0.115   7.334 -0.6645  0.0137 -0.8846
 4473SOL    HW124881   4.295   0.154   7.336 -0.0597  1.2674  0.6996
 4473SOL    HW224882   4.444   0.187   7.323 -1.2279  0.1561 -3.1274
 4474SOL     OW24883   0.334   1.558  14.915  0.3404 -0.5689 -0.7040
 4474SOL    HW124884   0.392   1.612  14.970  0.0160  0.7894 -1.6935
 4474SOL    HW224885   0.394   1.539  14.843 -0.2800 -0.1785 -1.3153
 4475SOL     OW24886   2.208   1.147   2.541 -0.2713 -0.0004 -0.0418
 4475SOL    HW124887   2.264   1.194   2.604  1.0772  0.1804 -1.3940
 4475SOL    HW224888   2.145   1.096   2.593 -1.7570  0.9494 -0.8992
 4476SOL     OW24889   2.731   1.624  11.733  1.3535 -0.0116  0.1071
 4476SOL    HW124890   2.712   1.717  11.727 -1.2046 -0.4415  1.5299
 4476SOL    HW224891   2.705   1.605  11.823  0.2478  0.3737 -0.1288
 4477SOL     OW24892   4.427   2.734   6.585  0.3754 -0.5415 -0.1069
 4477SOL    HW124893   4.463   2.650   6.557  2.5451  0.7650 -1.2596
 4477SOL    HW224894   4.399   2.709   6.673 -0.7655  0.3170 -0.2151
 4478SOL     OW24895   3.788   1.484   9.973 -0.9667 -0.1093  0.1919
 4478SOL    HW124896   3.808   1.443   9.890 -0.7283  0.5564 -0.0840
 4478SOL    HW224897   3.796   1.403  10.023  0.9920  0.5146  0.9271
 4479SOL     OW24898   2.595   2.901   5.369 -0.3383  0.0869 -0.1719
 4479SOL    HW124899   2.547   2.848   5.431  0.2405  0.7363  0.8345
 4479SOL    HW224900   2.528   2.969   5.359 -0.7946 -0.3563 -0.1032
 4480SOL     OW24901   4.212   2.396   3.445 -0.1046  0.1771  0.1112
 4480SOL    HW124902   4.268   2.404   3.522  1.2497 -0.8936 -0.7736
 4480SOL    HW224903   4.273   2.399   3.372 -1.0324 -1.9938 -0.7413
 4481SOL     OW24904   2.676   4.586  15.167 -0.1041 -0.5556  0.0778
 4481SOL    HW124905   2.672   4.669  15.214  1.6088 -0.6851  0.4730
 4481SOL    HW224906   2.584   4.562  15.175 -0.5384  0.6103 -1.3216
 4482SOL     OW24907   2.958   0.941  11.538 -0.9542  0.2776  0.5054
 4482SOL    HW124908   2.870   0.908  11.554 -0.4196 -0.9840  0.8456
 4482SOL    HW224909   2.969   1.012  11.601 -0.6119  2.2473 -1.7822
 4483SOL     OW24910   4.109   1.948  15.840  0.1678  0.3209  0.0808
 4483SOL    HW124911   4.077   2.026  15.796  2.7267  0.4972 -1.4876
 4483SOL    HW224912   4.040   1.885  15.819 -1.1666  1.6391  0.5274
 4484SOL     OW24913   4.640   1.824  12.956  0.3045  0.2583 -0.0053
 4484SOL    HW124914   4.684   1.900  12.993  1.4582 -0.0559 -0.7164
 4484SOL    HW224915   4.705   1.781  12.900 -0.7735  2.1409 -2.6878
 4485SOL     OW24916   0.508   3.319  11.805 -0.2367 -0.0694  0.2331
 4485SOL    HW124917   0.443   3.372  11.851  0.3956 -0.8361  1.9805
 4485SOL    HW224918   0.475   3.307  11.716 -1.4040  2.3517  0.3455
 4486SOL     OW24919   1.799   0.419   5.285  0.0209  0.2506  0.0073
 4486SOL    HW124920   1.825   0.398   5.374  1.3141  2.1148  0.0887
 4486SOL    HW224921   1.839   0.351   5.231 -0.0110 -0.1697  0.5201
 4487SOL     OW24922   2.117   1.927   0.756 -0.2175 -0.4538  0.0400
 4487SOL    HW124923   2.146   1.996   0.696 -0.5534 -0.6262 -0.3267
 4487SOL    HW224924   2.024   1.930   0.731 -0.0559 -1.7823 -0.7569
 4488SOL     OW24925   2.700   4.438   8.088 -0.1741 -0.5840 -0.4170
 4488SOL    HW124926   2.743   4.358   8.057 -2.9992 -1.9539 -0.7420
 4488SOL    HW224927   2.658   4.401   8.165  1.1827  3.6357  2.3811
 4489SOL     OW24928   1.660   2.452   6.870  0.0706 -0.0433 -0.1277
 4489SOL    HW124929   1.689   2.533   6.828  0.8128 -1.0274 -1.5377
 4489SOL    HW224930   1.669   2.388   6.799  2.4778  1.2065 -0.9544
 4490SOL     OW24931   1.872   1.585   7.265  0.1990  0.2023  0.0237
 4490SOL    HW124932   1.864   1.499   7.225  0.8448 -0.4053  1.2073
 4490SOL    HW224933   1.964   1.596   7.289 -0.1476  1.0793  0.9955
 4491SOL     OW24934   4.549   4.274   6.950 -0.6190 -0.1975  0.3458
 4491SOL    HW124935   4.557   4.217   6.873 -0.4569  1.8098 -1.1160
 4491SOL    HW224936   4.615   4.240   7.011  0.1552 -0.1083 -0.4464
 4492SOL     OW24937   4.478   3.109   7.821 -0.5876  0.3918 -0.2877
 4492SOL    HW124938   4.555   3.067   7.858  0.0207  0.6636 -1.2398
 4492SOL    HW224939   4.487   3.199   7.850 -1.3197  0.8708 -1.5546
 4493SOL     OW24940   3.817   3.939   7.748  0.3204  0.3568 -0.2384
 4493SOL    HW124941   3.878   3.963   7.678  0.8254 -1.3580 -0.3930
 4493SOL    HW224942   3.871   3.928   7.827 -0.7449  0.1159  0.4474
 4494SOL     OW24943   0.101   2.354   3.718  0.0124  0.1247 -0.7453
 4494SOL    HW124944   0.089   2.410   3.642  0.3876  0.8454 -0.2660
 4494SOL    HW224945   0.022   2.372   3.769  0.5266 -0.0875  0.1142
 4495SOL     OW24946   3.580   0.441   6.569 -0.7029  0.2205 -0.3294
 4495SOL    HW124947   3.643   0.466   6.500 -0.1769 -2.0188 -0.6754
 4495SOL    HW224948   3.615   0.359   6.605 -0.4812  0.8414  0.8574
 4496SOL     OW24949   2.796   2.049   5.287 -0.3181  0.5232 -0.5700
 4496SOL    HW124950   2.788   1.956   5.265  1.3379  0.1425  0.5031
 4496SOL    HW224951   2.853   2.058   5.362 -0.6810 -1.1811 -0.0905
 4497SOL     OW24952   2.723   0.642   4.463  0.8242 -0.4327  0.0034
 4497SOL    HW124953   2.692   0.680   4.545 -0.4897 -0.1563 -0.6162
 4497SOL    HW224954   2.817   0.629   4.470  1.0707  0.5561 -1.3461
 4498SOL     OW24955   3.375   1.973   8.584 -0.5519  0.6897  0.5216
 4498SOL    HW124956   3.289   1.933   8.571 -0.8698  1.3659  0.5020
 4498SOL    HW224957   3.406   1.931   8.664 -1.3841 -1.1058 -0.1131
 4499SOL     OW24958   0.105   4.575   5.094 -0.0048  0.3279  0.4428
 4499SOL    HW124959   0.061   4.591   5.178  0.8518 -3.0482  1.4908
 4499SOL    HW224960   0.145   4.661   5.079 -0.2759  0.2294 -0.8532
 4500SOL     OW24961   2.601   0.872   8.927 -0.3901 -0.0820 -0.0950
 4500SOL    HW124962   2.555   0.893   9.008 -0.9025 -2.8057  0.3331
 4500SOL    HW224963   2.616   0.777   8.926 -1.7536 -0.2759 -1.2094
 4501SOL     OW24964   2.693   2.265  17.275 -0.5153  0.4371 -0.1616
 4501SOL    HW124965   2.599   2.279  17.263 -0.2596  1.6013 -0.8726
 4501SOL    HW224966   2.692   2.276  17.370  0.3834 -1.2824  0.0467
 4502SOL     OW24967   3.563   0.965   7.225 -0.3866  0.2978  0.2511
 4502SOL    HW124968   3.515   1.016   7.159 -0.5253 -0.6137 -0.3432
 4502SOL    HW224969   3.602   0.893   7.176 -1.0869 -0.0169  0.1647
 4503SOL     OW24970   1.279   1.561   3.844  0.3458 -0.0223 -0.2581
 4503SOL    HW124971   1.348   1.524   3.788  0.3278  1.4383 -1.2363
 4503SOL    HW224972   1.306   1.650   3.866  0.5458 -0.8413  2.7513
 4504SOL     OW24973   2.719   3.366   9.274 -0.1754 -1.0902 -0.2569
 4504SOL    HW124974   2.709   3.281   9.317 -0.8071 -1.6925 -1.5889
 4504SOL    HW224975   2.695   3.342   9.185  1.0107 -0.6232 -0.6975
 4505SOL     OW24976   2.790   2.563   9.309  0.0632 -0.1498 -0.4690
 4505SOL    HW124977   2.769   2.485   9.361 -2.8656  0.2433 -1.1100
 4505SOL    HW224978   2.870   2.526   9.270 -0.3744 -0.1138 -1.4071
 4506SOL     OW24979   2.487   2.110   9.516 -0.4289 -0.2935  0.3527
 4506SOL    HW124980   2.492   2.072   9.428 -2.9396  0.7055 -0.2108
 4506SOL    HW224981   2.434   2.189   9.507  0.5117  0.2174 -0.8035
 4507SOL     OW24982   4.337   0.378  14.645 -0.1318  0.6479 -0.3766
 4507SOL    HW124983   4.417   0.429  14.657  0.4481 -0.6072  1.0358
 4507SOL    HW224984   4.328   0.402  14.553 -4.7263 -0.5593 -0.2164
 4508SOL     OW24985   0.227   4.028   6.022 -0.3110 -0.1006  0.0697
 4508SOL    HW124986   0.307   4.066   5.984 -0.3399 -1.3030 -1.1812
 4508SOL    HW224987   0.188   3.997   5.941 -0.3366  0.2967 -0.0684
 4509SOL     OW24988   0.787   2.269   4.384 -0.1012 -0.0807  0.5191
 4509SOL    HW124989   0.767   2.231   4.299  1.3207 -1.0953  0.6464
 4509SOL    HW224990   0.878   2.298   4.376 -0.1764 -0.3642 -1.2831
 4510SOL     OW24991   2.709   0.947   9.977 -0.5635 -0.5313  0.0006
 4510SOL    HW124992   2.638   1.006   9.952  0.6206  0.7924 -0.2359
 4510SOL    HW224993   2.664   0.865   9.961  0.9978 -1.4435  0.2645
 4511SOL     OW24994   1.016   4.078  14.048 -0.0492 -0.2271 -0.2962
 4511SOL    HW124995   0.961   4.151  14.076  2.1461  1.3956 -0.2550
 4511SOL    HW224996   0.998   4.059  13.956 -0.3771  1.6002 -0.6098
 4512SOL     OW24997   0.441   0.443   7.115 -0.4425  0.4596 -0.1999
 4512SOL    HW124998   0.361   0.409   7.076 -1.1723  0.9171  0.8776
 4512SOL    HW224999   0.474   0.498   7.045 -3.6238  0.9089 -1.3225
 4513SOL     OW25000   3.588   3.118   1.767  0.1771  0.2343 -0.0770
 4513SOL    HW125001   3.615   3.181   1.700 -0.4563  0.2052 -0.3620
 4513SOL    HW225002   3.494   3.127   1.751 -0.1663  1.0553  2.3947
 4514SOL     OW25003   2.529   1.938   7.300  0.3137  1.0762 -0.0218
 4514SOL    HW125004   2.548   1.993   7.376 -0.8939  2.2003 -0.5336
 4514SOL    HW225005   2.434   1.932   7.306  0.5868 -2.3975  0.8178
 4515SOL     OW25006   3.478   2.890   3.768  0.2208  0.3333  0.3782
 4515SOL    HW125007   3.429   2.953   3.821 -0.2501  1.4552 -1.4149
 4515SOL    HW225008   3.567   2.907   3.800 -1.2370  2.6169  3.2076
 4516SOL     OW25009   3.649   4.661   6.880 -0.3895  0.3343 -0.0004
 4516SOL    HW125010   3.738   4.631   6.898  1.0044  2.9191 -2.5939
 4516SOL    HW225011   3.630   4.608   6.803  0.4183  0.7631 -0.4927
 4517SOL     OW25012   1.574   0.321   2.822 -0.0624 -0.3651 -0.1947
 4517SOL    HW125013   1.611   0.246   2.776 -1.6442 -1.4830  0.3760
 4517SOL    HW225014   1.647   0.353   2.875  0.5613 -0.9939 -0.6801
 4518SOL     OW25015   0.427   0.624   2.232 -0.1226 -0.2629  0.4211
 4518SOL    HW125016   0.485   0.692   2.198  0.2451 -0.5989  0.3720
 4518SOL    HW225017   0.351   0.605   2.177 -0.2641  0.7123  0.2886
 4519SOL     OW25018   1.174   3.241   8.134 -0.3393 -0.9565  0.1951
 4519SOL    HW125019   1.102   3.218   8.192 -0.9013  0.5004  0.0715
 4519SOL    HW225020   1.198   3.154   8.103  1.1023 -0.8017  0.8462
 4520SOL     OW25021   0.995   0.288  11.142 -0.0110 -0.0214 -0.0295
 4520SOL    HW125022   0.967   0.379  11.150  3.1643  1.0453 -1.2151
 4520SOL    HW225023   1.061   0.300  11.073  1.0273  1.5875  1.2511
 4521SOL     OW25024   2.211   0.394  17.487 -0.7237 -0.3198 -1.3998
 4521SOL    HW125025   2.256   0.310  17.491 -0.4564 -0.0688  0.6463
 4521SOL    HW225026   2.146   0.371  17.420 -1.0751  0.9885 -1.5034
 4522SOL     OW25027   2.460   0.064  12.718  0.1293  0.2272 -0.3039
 4522SOL    HW125028   2.445   0.015  12.637  0.1155 -1.1028  0.5039
 4522SOL    HW225029   2.472   4.723  12.787  1.5131  0.3155 -0.4462
 4523SOL     OW25030   2.815   3.127   3.859  0.0842 -0.4900  0.6195
 4523SOL    HW125031   2.852   3.121   3.771 -1.2250 -0.4878  0.0674
 4523SOL    HW225032   2.770   3.211   3.861 -0.7605 -0.9132 -1.3969
 4524SOL     OW25033   3.574   1.177   5.973 -0.3427  0.1354  0.3336
 4524SOL    HW125034   3.534   1.125   6.043  0.6354  1.4994  1.8970
 4524SOL    HW225035   3.585   1.119   5.897  0.3843 -0.7837  1.1236
 4525SOL     OW25036   1.971   3.152   9.204 -0.4699 -0.6233 -0.1349
 4525SOL    HW125037   2.056   3.111   9.188  0.1811 -0.0388  1.8341
 4525SOL    HW225038   1.976   3.240   9.168  0.6695 -0.4891  0.3771
 4526SOL     OW25039   1.340   0.193   5.054  0.0905 -0.0331 -0.2018
 4526SOL    HW125040   1.350   0.124   5.120 -0.2053 -2.1795 -2.4239
 4526SOL    HW225041   1.358   0.267   5.113  0.1073  0.2576 -0.5737
 4527SOL     OW25042   2.095   1.126   1.439  0.1531 -0.2531 -0.0641
 4527SOL    HW125043   2.119   1.180   1.515 -0.8957 -1.8562  1.3958
 4527SOL    HW225044   2.182   1.089   1.422  1.1794  2.0966  0.0318
 4528SOL     OW25045   3.159   1.634  10.661 -0.0502  0.4850  0.4040
 4528SOL    HW125046   3.157   1.662  10.570  0.0404 -0.8543 -0.0110
 4528SOL    HW225047   3.203   1.711  10.699  1.9518 -1.3139  1.7201
 4529SOL     OW25048   3.770   4.065   5.853 -0.1654 -0.4747 -0.7734
 4529SOL    HW125049   3.721   4.060   5.935  0.5178  0.2054 -0.3200
 4529SOL    HW225050   3.751   4.154   5.823  1.3087  0.7726  1.9562
 4530SOL     OW25051   3.603   4.037   5.383 -0.3047 -0.0159 -0.4889
 4530SOL    HW125052   3.628   3.989   5.462  2.0299  1.7945 -0.1306
 4530SOL    HW225053   3.511   4.013   5.372 -0.9628  1.6635  1.4382
 4531SOL     OW25054   0.720   2.247   7.420 -0.2537 -0.1897  0.0383
 4531SOL    HW125055   0.816   2.243   7.419 -0.2455 -0.6660  1.4489
 4531SOL    HW225056   0.710   2.279   7.510  0.2739 -1.1243  0.4400
 4532SOL     OW25057   4.504   4.400   2.478  0.0937  0.6572 -0.0332
 4532SOL    HW125058   4.577   4.338   2.487 -1.5909 -1.2155  0.8729
 4532SOL    HW225059   4.468   4.372   2.394 -1.0886  0.0885  0.6687
 4533SOL     OW25060   2.853   2.963   5.833  0.2716 -0.1073  0.7414
 4533SOL    HW125061   2.841   2.868   5.834  1.9071 -0.3218  0.2916
 4533SOL    HW225062   2.939   2.965   5.791 -1.0163  2.2898 -1.7805
 4534SOL     OW25063   1.360   1.013  12.474 -0.4177  0.6074 -0.1896
 4534SOL    HW125064   1.343   1.079  12.541 -0.8395 -0.4512  0.7293
 4534SOL    HW225065   1.297   1.032  12.404 -0.3764 -0.4953 -0.5239
 4535SOL     OW25066   3.090   4.221   3.492  0.2212 -0.5574  0.1818
 4535SOL    HW125067   3.061   4.194   3.405 -2.2710  0.7464  0.6154
 4535SOL    HW225068   3.156   4.286   3.468 -0.0765 -1.2097 -2.3892
 4536SOL     OW25069   4.395   1.052   1.210  0.0742 -0.1268 -0.6827
 4536SOL    HW125070   4.313   1.094   1.236 -1.7083 -2.7173 -2.2653
 4536SOL    HW225071   4.374   1.032   1.119 -2.2428  0.7903 -0.3384
 4537SOL     OW25072   3.643   3.491   0.464  0.4978  0.7908  0.1836
 4537SOL    HW125073   3.634   3.421   0.529 -0.4525 -0.8146 -1.6417
 4537SOL    HW225074   3.551   3.493   0.437  0.4684  0.2056  0.2346
 4538SOL     OW25075   0.264   3.624   6.343  0.2676  0.1252 -0.3925
 4538SOL    HW125076   0.189   3.662   6.297  1.0179  0.9848 -0.9110
 4538SOL    HW225077   0.323   3.698   6.360  0.3761 -0.9064  3.5453
 4539SOL     OW25078   2.533   3.637   6.919  0.2016 -0.4731  0.4027
 4539SOL    HW125079   2.478   3.580   6.866 -1.5089 -0.4924  2.1788
 4539SOL    HW225080   2.543   3.596   7.005 -0.9737  0.9717  1.2379
 4540SOL     OW25081   0.041   0.870   2.674 -0.0899  0.1702 -0.3369
 4540SOL    HW125082   0.028   0.929   2.599  2.1136  0.2142 -0.6647
 4540SOL    HW225083   4.686   0.893   2.722 -0.2871  0.5308 -0.8337
 4541SOL     OW25084   1.234   1.994   6.992 -0.3698 -0.3734  0.3343
 4541SOL    HW125085   1.162   1.948   7.036  0.4357 -0.7415  1.2619
 4541SOL    HW225086   1.309   1.939   7.016 -0.9900 -0.9068  1.0723
 4542SOL     OW25087   2.281   4.512  10.719 -0.4432 -0.2600 -0.3876
 4542SOL    HW125088   2.252   4.604  10.713 -2.3857 -0.8278  0.3803
 4542SOL    HW225089   2.288   4.476  10.631  0.9103 -1.2874  0.1468
 4543SOL     OW25090   0.837   1.308  16.597 -0.1525  0.0339  0.6831
 4543SOL    HW125091   0.881   1.228  16.570 -0.6004  0.3582 -1.0192
 4543SOL    HW225092   0.838   1.275  16.687 -0.7971  0.4473  0.8460
 4544SOL     OW25093   0.044   2.678   8.791  0.1215  0.5365  0.2811
 4544SOL    HW125094   4.721   2.679   8.874 -1.2681  1.9037 -0.5256
 4544SOL    HW225095   0.128   2.636   8.811  0.5006  1.9595  1.6237
 4545SOL     OW25096   2.341   4.567   3.985  0.0477  0.1924 -0.3836
 4545SOL    HW125097   2.384   4.551   3.901  0.5849  1.4614 -0.3583
 4545SOL    HW225098   2.376   4.504   4.048 -0.1130  1.4367  0.9491
 4546SOL     OW25099   1.056   3.721   4.934  0.2992  0.0006 -0.6678
 4546SOL    HW125100   0.965   3.695   4.949  0.0566 -0.3782 -2.8759
 4546SOL    HW225101   1.074   3.738   5.027 -1.6192  0.1803 -0.3290
 4547SOL     OW25102   1.507   0.416   8.303  0.3094  0.4448  0.2877
 4547SOL    HW125103   1.498   0.489   8.365 -0.4973  1.5611 -1.1654
 4547SOL    HW225104   1.555   0.455   8.230  1.1886  1.0805  1.1942
 4548SOL     OW25105   1.505   4.578   5.920  0.3616  0.5050 -0.1692
 4548SOL    HW125106   1.472   4.627   5.995 -1.2273 -2.0985  0.8522
 4548SOL    HW225107   1.569   4.523   5.965  1.0185 -0.2289 -2.0214
 4549SOL     OW25108   2.081   4.377   5.432  0.4137  0.2094 -0.1712
 4549SOL    HW125109   2.105   4.365   5.524  2.4207 -1.2737 -0.9048
 4549SOL    HW225110   2.084   4.473   5.436 -0.2994  0.1921  0.9673
 4550SOL     OW25111   2.128   2.434   3.816 -0.4874  0.3135  0.0040
 4550SOL    HW125112   2.169   2.435   3.903  0.5139 -0.0684 -0.4633
 4550SOL    HW225113   2.137   2.344   3.784  3.0280  0.1914  1.2797
 4551SOL     OW25114   0.661   2.753  12.803  0.2878 -0.5086 -0.9738
 4551SOL    HW125115   0.586   2.730  12.748 -0.6697 -0.9635  0.5157
 4551SOL    HW225116   0.656   2.684  12.869  2.0619 -0.0489 -0.3418
 4552SOL     OW25117   0.736   1.537   4.062  0.0066  0.3711  0.3572
 4552SOL    HW125118   0.653   1.489   4.062  0.7274 -0.8517  0.3297
 4552SOL    HW225119   0.704   1.625   4.083 -2.2215 -0.7599  1.6670
 4553SOL     OW25120   3.213   1.333  12.042 -0.0239 -1.3415 -0.6142
 4553SOL    HW125121   3.125   1.343  12.078  0.7964 -1.1531  1.3394
 4553SOL    HW225122   3.251   1.274  12.107  0.3577 -0.0540  0.3412
 4554SOL     OW25123   1.784   4.072   2.577 -0.2277  0.6361 -0.1636
 4554SOL    HW125124   1.827   4.093   2.494 -1.2449  1.0872 -0.5675
 4554SOL    HW225125   1.823   3.989   2.607  0.9500  0.3041 -2.5956
 4555SOL     OW25126   3.482   2.612  17.568  0.3978 -0.0943 -0.1853
 4555SOL    HW125127   3.417   2.636  17.502 -1.2093  0.5265  1.6248
 4555SOL    HW225128   3.566   2.611  17.521  0.2428 -0.2998 -0.4558
 4556SOL     OW25129   1.695   1.675   8.740  0.1958 -0.5613  0.2061
 4556SOL    HW125130   1.723   1.627   8.819  3.4139  0.8127 -0.1231
 4556SOL    HW225131   1.634   1.610   8.705  0.4184 -0.4241 -0.4249
 4557SOL     OW25132   1.754   2.742   3.033  0.5163 -0.6614 -0.0812
 4557SOL    HW125133   1.808   2.690   2.973  0.4083  1.0534 -1.6788
 4557SOL    HW225134   1.821   2.802   3.067 -0.0796  0.4298 -0.8190
 4558SOL     OW25135   0.102   2.614   1.747  0.1902 -0.1218  0.1299
 4558SOL    HW125136   0.023   2.603   1.799 -0.3620  0.7858 -0.5161
 4558SOL    HW225137   0.072   2.677   1.681  0.0382 -0.7153 -0.3652
 4559SOL     OW25138   3.297   0.784  16.687  0.4939 -0.4752  0.0295
 4559SOL    HW125139   3.308   0.863  16.634  1.9688  0.5878  1.8851
 4559SOL    HW225140   3.221   0.743  16.645 -1.6432  1.6702  1.8310
 4560SOL     OW25141   3.145   0.212  15.398 -0.0322  0.1568 -0.1501
 4560SOL    HW125142   3.179   0.290  15.355 -1.7001 -0.0982 -1.9312
 4560SOL    HW225143   3.219   0.181  15.451  1.3272  0.2905 -1.9566
 4561SOL     OW25144   2.300   1.361   4.354 -0.5712 -0.0421 -0.4625
 4561SOL    HW125145   2.390   1.391   4.337 -1.2342  1.5373 -1.2405
 4561SOL    HW225146   2.319   1.274   4.387 -0.9668  1.1036  2.8242
 4562SOL     OW25147   1.980   4.086  14.844  0.2212  0.4088  0.3634
 4562SOL    HW125148   1.921   4.033  14.898 -0.3735  0.8582  0.1589
 4562SOL    HW225149   2.059   4.039  14.871 -0.7242 -0.9855  0.7075
 4563SOL     OW25150   2.291   2.454   6.528 -0.3893  0.5416 -0.4426
 4563SOL    HW125151   2.267   2.361   6.524  0.8592  0.1608  0.9736
 4563SOL    HW225152   2.380   2.470   6.496 -0.5323  0.1986 -1.0182
 4564SOL     OW25153   2.165   3.997   0.889  0.4158  0.5250  0.9344
 4564SOL    HW125154   2.093   4.059   0.900  0.5063  1.0850 -1.7914
 4564SOL    HW225155   2.208   4.051   0.823  0.2482  0.1919  0.5508
 4565SOL     OW25156   0.378   1.538  10.820 -0.2722 -0.5046 -0.3813
 4565SOL    HW125157   0.473   1.549  10.811 -0.1916  1.0579  2.2161
 4565SOL    HW225158   0.374   1.558  10.913  1.2941  0.6480 -0.5525
 4566SOL     OW25159   2.647   0.375   3.774 -0.0160 -0.0653  0.4708
 4566SOL    HW125160   2.667   0.306   3.710 -0.2241 -0.9037  1.2925
 4566SOL    HW225161   2.682   0.334   3.854 -0.0037  1.2759  1.1561
 4567SOL     OW25162   0.376   1.226   4.179  0.2791  0.0619 -0.1826
 4567SOL    HW125163   0.462   1.190   4.157  0.4534  0.6000 -0.3726
 4567SOL    HW225164   0.329   1.148   4.210  0.5515 -0.4068 -0.9708
 4568SOL     OW25165   0.948   4.414   1.504  0.0365 -0.9368 -0.6287
 4568SOL    HW125166   0.997   4.453   1.577  0.5808 -1.7662 -0.5427
 4568SOL    HW225167   0.882   4.482   1.490  0.5044 -0.2758  0.3568
 4569SOL     OW25168   3.974   1.057   4.297  0.1336  0.2331  0.5185
 4569SOL    HW125169   3.952   1.135   4.245 -0.7605  2.0349  3.5512
 4569SOL    HW225170   4.026   1.100   4.365 -0.9404  2.0549  0.2157
 4570SOL     OW25171   0.537   1.145   3.301  0.4949 -0.7228  0.1595
 4570SOL    HW125172   0.512   1.209   3.368  0.7379  0.6800 -1.0982
 4570SOL    HW225173   0.519   1.206   3.229 -1.2125 -0.2468  0.9866
 4571SOL     OW25174   3.911   0.596   2.052 -0.2294 -0.0932  0.2445
 4571SOL    HW125175   3.942   0.674   2.006 -1.4397 -0.6446 -1.5405
 4571SOL    HW225176   3.910   0.537   1.976  1.6684  1.9096 -1.3443
 4572SOL     OW25177   1.778   0.089   5.913  0.3245  0.1144 -0.4116
 4572SOL    HW125178   1.796   0.157   5.979 -0.6057  0.8577 -0.9235
 4572SOL    HW225179   1.764   0.020   5.978  1.8498 -0.3960 -0.6308
 4573SOL     OW25180   4.141   0.118   7.625  0.0495 -0.2054 -0.0213
 4573SOL    HW125181   4.200   0.093   7.696 -2.5028  0.8204  2.4397
 4573SOL    HW225182   4.150   0.212   7.611 -0.5029 -0.0035  0.9920
 4574SOL     OW25183   0.919   1.534   4.306  0.6753 -0.5880 -0.2922
 4574SOL    HW125184   0.852   1.471   4.332 -1.9013  1.0631 -2.9530
 4574SOL    HW225185   0.898   1.559   4.216 -0.1566 -1.7257 -0.4093
 4575SOL     OW25186   1.930   4.652  11.236  0.5127  0.1720  0.2069
 4575SOL    HW125187   2.016   4.616  11.260  0.8793 -0.0171 -1.4093
 4575SOL    HW225188   1.921   4.595  11.160  1.3388  0.7020 -0.2901
 4576SOL     OW25189   2.360   0.154   4.651 -0.2998 -0.6478  0.3725
 4576SOL    HW125190   2.438   0.140   4.598  1.3469  1.5369  2.1761
 4576SOL    HW225191   2.327   0.236   4.615  0.7137  0.0265  0.9949
 4577SOL     OW25192   0.438   0.163   4.628 -0.1859  0.4602 -0.6928
 4577SOL    HW125193   0.359   0.216   4.620 -0.6566 -0.3153 -1.1254
 4577SOL    HW225194   0.449   0.152   4.534 -1.0514 -1.5632 -0.5673
 4578SOL     OW25195   2.512   4.071   0.708 -0.1197 -0.5818  0.1911
 4578SOL    HW125196   2.532   4.093   0.799  0.1924 -1.1331  0.2568
 4578SOL    HW225197   2.570   3.998   0.689 -1.5252 -1.5926 -0.1640
 4579SOL     OW25198   1.305   4.032  16.782 -0.2060  0.1453  0.3823
 4579SOL    HW125199   1.283   4.059  16.693 -1.9282  3.2738  1.7424
 4579SOL    HW225200   1.217   4.028  16.820 -0.1281  0.7218  0.6268
 4580SOL     OW25201   3.744   2.791   9.197  0.1655  0.2399 -0.1051
 4580SOL    HW125202   3.777   2.714   9.150  0.0997 -0.0859  0.3776
 4580SOL    HW225203   3.656   2.796   9.160  0.1888 -1.0853 -0.3161
 4581SOL     OW25204   3.767   1.827   6.192 -0.8745 -0.0002  0.0029
 4581SOL    HW125205   3.698   1.824   6.125 -1.5046 -0.1565  0.6606
 4581SOL    HW225206   3.727   1.856   6.274 -1.3639 -0.4850 -0.0687
 4582SOL     OW25207   0.497   3.296   5.509  0.8267  0.0056 -0.5358
 4582SOL    HW125208   0.574   3.307   5.566 -1.0908 -0.5555  2.1822
 4582SOL    HW225209   0.432   3.269   5.573  1.7872 -2.5335 -0.6227
 4583SOL     OW25210   1.969   3.455   5.049  0.8350 -0.5654 -0.2601
 4583SOL    HW125211   1.976   3.446   5.144  1.2251 -0.3511 -0.2706
 4583SOL    HW225212   2.045   3.404   5.022 -0.0398 -2.6217  1.0998
 4584SOL     OW25213   4.512   3.780  14.666 -0.0425  0.4017 -0.2743
 4584SOL    HW125214   4.468   3.818  14.742  1.6651  1.9007 -0.0204
 4584SOL    HW225215   4.528   3.849  14.602 -1.3562  1.8029  0.9019
 4585SOL     OW25216   2.062   4.556  15.306  0.4726  0.4656  0.2126
 4585SOL    HW125217   2.010   4.636  15.297  0.2058  0.2088 -0.4547
 4585SOL    HW225218   2.035   4.529  15.394 -1.0371  1.4937  0.0752
 4586SOL     OW25219   4.550   4.675   2.496  0.0350 -0.1792 -0.4658
 4586SOL    HW125220   4.526   4.582   2.491 -0.4838 -0.0167 -1.0207
 4586SOL    HW225221   4.494   4.709   2.565  1.9539  0.8558  0.5505
 4587SOL     OW25222   0.290   2.742   6.554 -0.0032 -0.7457  0.5467
 4587SOL    HW125223   0.279   2.779   6.466 -3.3270 -2.9354  0.0311
 4587SOL    HW225224   0.385   2.728   6.549  0.1173 -0.0438  0.9256
 4588SOL     OW25225   3.975   1.857   1.825 -0.4812  0.1300 -0.2753
 4588SOL    HW125226   3.986   1.950   1.809  0.5196  0.4908  2.3956
 4588SOL    HW225227   3.971   1.823   1.736  0.7935 -0.1045 -0.2367
 4589SOL     OW25228   2.913   3.125   2.052  0.1448 -0.0603 -0.1907
 4589SOL    HW125229   2.904   3.091   1.963 -2.8792  0.1467  0.0193
 4589SOL    HW225230   2.997   3.081   2.066 -1.2108 -3.0009 -1.3014
 4590SOL     OW25231   4.693   3.971  17.303 -0.4623  0.2268 -0.0180
 4590SOL    HW125232   4.615   4.016  17.270 -1.6393 -0.8821  1.2563
 4590SOL    HW225233   0.004   3.967  17.214  0.8709 -0.0607  0.5300
 4591SOL     OW25234   1.044   0.572  10.758  0.1637 -0.2092 -0.2596
 4591SOL    HW125235   1.034   0.519  10.836 -0.0124  2.4222  1.4922
 4591SOL    HW225236   1.080   0.651  10.798  0.9899 -0.8208  0.2155
 4592SOL     OW25237   0.107   2.522   6.581 -0.0222 -0.4899  0.3615
 4592SOL    HW125238   0.178   2.585   6.567 -1.4076 -0.0030 -4.7863
 4592SOL    HW225239   0.048   2.548   6.509 -0.1535 -0.1468  0.5936
 4593SOL     OW25240   1.281   2.730   2.195 -0.6002 -0.0961  0.0392
 4593SOL    HW125241   1.265   2.638   2.216 -0.5388 -0.3737 -1.1480
 4593SOL    HW225242   1.198   2.763   2.160 -1.8486 -1.6028  1.5552
 4594SOL     OW25243   1.552   3.016   5.822  0.4353 -0.2116 -0.0619
 4594SOL    HW125244   1.575   2.928   5.854  0.3867 -0.5018 -0.8318
 4594SOL    HW225245   1.634   3.032   5.775 -0.5236  0.8230 -1.3731
 4595SOL     OW25246   2.826   3.399   6.882  0.9175 -0.3608  0.6082
 4595SOL    HW125247   2.819   3.401   6.978 -1.1540  1.7009  0.4134
 4595SOL    HW225248   2.875   3.481   6.871  1.8338 -0.8147  1.2100
 4596SOL     OW25249   3.066   2.462   9.278  0.1969  0.0927  0.1903
 4596SOL    HW125250   3.037   2.452   9.187 -1.4611  2.8710  0.4208
 4596SOL    HW225251   3.113   2.543   9.257  0.0854 -0.7281 -3.1991
 4597SOL     OW25252   1.300   1.536   8.607  0.4143 -0.0387  0.3213
 4597SOL    HW125253   1.366   1.537   8.538 -1.7847  0.9476 -1.7990
 4597SOL    HW225254   1.319   1.621   8.648  1.3537 -0.1655  0.1398
 4598SOL     OW25255   2.969   0.710  10.471  0.3937  0.3686 -0.6748
 4598SOL    HW125256   2.984   0.617  10.486  1.3900  0.4513 -1.2001
 4598SOL    HW225257   3.051   0.750  10.501  1.4287 -1.1385 -1.4900
 4599SOL     OW25258   3.162   0.300  12.900  0.5543  0.0392  0.5501
 4599SOL    HW125259   3.107   0.365  12.855  0.6085 -0.0346  0.3767
 4599SOL    HW225260   3.183   0.244  12.826 -0.8032  0.6156 -0.2751
 4600SOL     OW25261   0.124   3.943   2.661  0.0733 -0.6433 -0.2175
 4600SOL    HW125262   0.031   3.953   2.639 -0.1381  1.5648  1.6506
 4600SOL    HW225263   0.117   3.855   2.698 -1.2706 -0.1886  0.6061
 4601SOL     OW25264   1.718   2.980  17.294 -0.6604 -0.3547 -0.1330
 4601SOL    HW125265   1.664   2.914  17.338  0.6807 -1.1096  0.3699
 4601SOL    HW225266   1.738   2.928  17.217 -0.8796  1.7460 -1.6023
 4602SOL     OW25267   4.375   2.777  13.557  0.2038 -0.0398  0.1312
 4602SOL    HW125268   4.434   2.803  13.627  0.0111  0.4089  0.1285
 4602SOL    HW225269   4.399   2.848  13.497 -2.4715 -0.0003 -0.9294
 4603SOL     OW25270   3.352   1.874   4.425  0.1884  0.2972  0.0226
 4603SOL    HW125271   3.288   1.821   4.378 -0.2429  1.6067 -0.8470
 4603SOL    HW225272   3.313   1.952   4.464 -0.2730 -0.2583  0.6702
 4604SOL     OW25273   3.660   3.728   8.029  0.0278 -0.3273  0.2339
 4604SOL    HW125274   3.656   3.814   8.071 -1.7696 -0.1976 -0.2010
 4604SOL    HW225275   3.584   3.682   8.065  0.4493 -1.9549 -0.9871
 4605SOL     OW25276   1.041   0.867   5.820 -0.0585  0.4022 -0.1845
 4605SOL    HW125277   1.005   0.781   5.843  0.5952  0.0878 -0.3444
 4605SOL    HW225278   1.114   0.853   5.760 -1.0588 -2.3901 -0.7730
 4606SOL     OW25279   3.744   4.192  16.532  0.0461 -0.5700  0.3597
 4606SOL    HW125280   3.837   4.213  16.545 -0.4819  1.2088  1.2691
 4606SOL    HW225281   3.754   4.109  16.486  1.1118  0.8181 -1.8942
 4607SOL     OW25282   2.563   3.765   8.302  0.2978  0.7142  0.4704
 4607SOL    HW125283   2.544   3.799   8.215 -0.3248 -1.5317 -0.2709
 4607SOL    HW225284   2.587   3.675   8.278 -0.5863  0.2711  1.2439
 4608SOL     OW25285   2.801   1.386   3.910  0.3339  0.2255 -0.1357
 4608SOL    HW125286   2.894   1.385   3.932 -0.0610 -0.0121  1.4668
 4608SOL    HW225287   2.800   1.478   3.880  0.5581  0.3374  0.2002
 4609SOL     OW25288   0.512   4.275   1.428  0.2264  0.6168 -0.0448
 4609SOL    HW125289   0.459   4.197   1.447  0.4458  0.5104  0.1363
 4609SOL    HW225290   0.583   4.237   1.376  1.1735  4.2631 -1.3744
 4610SOL     OW25291   0.146   0.024   8.292 -0.0730 -0.1567 -0.3397
 4610SOL    HW125292   0.071   0.044   8.348  0.2699 -1.6236  0.6411
 4610SOL    HW225293   0.217   0.047   8.353 -0.2030  0.1151 -0.2915
 4611SOL     OW25294   2.332   4.566   8.195  0.6476 -0.1804 -0.5389
 4611SOL    HW125295   2.240   4.574   8.219  0.9339  1.1270  0.1452
 4611SOL    HW225296   2.373   4.650   8.216 -1.3818  1.0525 -1.5574
 4612SOL     OW25297   1.664   3.261   5.576 -0.2960  0.7009  0.2562
 4612SOL    HW125298   1.689   3.333   5.519  0.4407 -0.2283 -0.6088
 4612SOL    HW225299   1.590   3.225   5.528 -0.6891 -2.1877  3.0400
 4613SOL     OW25300   3.865   0.497   7.385 -0.1942 -1.0198  0.4712
 4613SOL    HW125301   3.840   0.427   7.446 -1.0140 -1.1267  0.0115
 4613SOL    HW225302   3.780   0.536   7.365 -0.0545 -0.4576  0.9801
 4614SOL     OW25303   2.845   2.061   1.405  0.3350 -0.2132 -0.0902
 4614SOL    HW125304   2.912   2.014   1.455  2.4159  1.2282 -1.5092
 4614SOL    HW225305   2.906   2.124   1.366  0.4120  0.1717  0.6313
 4615SOL     OW25306   4.646   3.420   7.647 -0.0946  0.3870  0.1569
 4615SOL    HW125307   4.693   3.377   7.718 -0.4923  0.7212  0.6233
 4615SOL    HW225308   4.710   3.462   7.589  0.1942 -0.6413 -0.2526
 4616SOL     OW25309   4.329   1.950   7.484  0.3872  0.1528  0.3402
 4616SOL    HW125310   4.412   1.934   7.527 -1.2938 -0.7608  3.2494
 4616SOL    HW225311   4.333   1.870   7.432 -0.4692  0.6310 -0.4715
 4617SOL     OW25312   4.408   2.315   1.071  0.6286 -0.1797 -0.6750
 4617SOL    HW125313   4.320   2.312   1.110  0.3521  0.3888 -1.2493
 4617SOL    HW225314   4.445   2.360   1.146  0.5201 -1.1332 -0.0435
 4618SOL     OW25315   1.949   0.772   2.307 -0.2944 -0.1145  0.6352
 4618SOL    HW125316   1.961   0.704   2.373  1.9202 -0.3575 -0.0120
 4618SOL    HW225317   1.854   0.778   2.300 -0.4794 -2.8493  0.8615
 4619SOL     OW25318   4.472   3.969   0.743  0.5176 -0.1462 -0.5960
 4619SOL    HW125319   4.437   3.911   0.675 -0.2871  1.6243 -1.6943
 4619SOL    HW225320   4.476   4.055   0.701  0.7172  0.8599  1.5074
 4620SOL     OW25321   2.083   4.680   3.985 -0.4384  0.0141 -0.4748
 4620SOL    HW125322   2.171   4.646   3.998  0.3478  2.2588  0.0266
 4620SOL    HW225323   2.101   0.048   3.968  0.9466  0.2731  2.3445
 4621SOL     OW25324   2.760   3.918  14.448 -0.4419  0.2388  0.2062
 4621SOL    HW125325   2.833   3.924  14.386 -0.9480  1.0551 -0.3132
 4621SOL    HW225326   2.687   3.899  14.389 -0.5790  0.9598  0.1419
 4622SOL     OW25327   2.679   4.439   6.048 -0.2722 -0.1260 -0.3028
 4622SOL    HW125328   2.661   4.504   5.979  0.7148  0.4763  0.0012
 4622SOL    HW225329   2.636   4.481   6.122  1.7322 -0.0284  0.7950
 4623SOL     OW25330   2.436   3.811   7.568 -0.5788  0.2762  0.0270
 4623SOL    HW125331   2.398   3.754   7.502 -1.1832  1.8026 -0.9320
 4623SOL    HW225332   2.470   3.879   7.510  1.3652 -1.0238 -0.3664
 4624SOL     OW25333   1.011   3.758   5.671 -0.0600 -0.1191 -0.1646
 4624SOL    HW125334   0.983   3.734   5.583 -0.3950  1.8790 -0.6086
 4624SOL    HW225335   1.013   3.854   5.671  0.2597 -0.1242 -1.3593
 4625SOL     OW25336   3.143   1.046   2.907  0.2058  0.6117  0.3820
 4625SOL    HW125337   3.176   1.036   2.818  0.1555  0.5233  0.3735
 4625SOL    HW225338   3.187   1.122   2.946  0.1061  1.7540 -1.7315
 4626SOL     OW25339   2.630   2.187   3.265  0.1770 -0.5373  0.0790
 4626SOL    HW125340   2.630   2.267   3.317 -0.7306 -0.9623  0.7517
 4626SOL    HW225341   2.715   2.187   3.222 -0.4972  0.0799 -1.2871
 4627SOL     OW25342   2.219   2.233   2.041 -0.3934 -0.3265 -0.3404
 4627SOL    HW125343   2.236   2.147   2.080 -0.2607 -0.1961 -0.1101
 4627SOL    HW225344   2.293   2.261   1.986  0.8918 -0.7210  1.1848
 4628SOL     OW25345   1.224   2.023   4.522  0.3034 -0.1609  0.1217
 4628SOL    HW125346   1.212   1.995   4.432  0.5754  0.9672 -0.2612
 4628SOL    HW225347   1.221   1.941   4.572 -1.2742  1.3199  2.4484
 4629SOL     OW25348   4.032   2.666   0.445 -0.1972 -0.2540  0.7476
 4629SOL    HW125349   4.044   2.676   0.351  1.3745 -0.8757  0.8777
 4629SOL    HW225350   4.108   2.614   0.474 -0.7121 -1.2122  0.3768
 4630SOL     OW25351   0.051   4.151   5.444  0.9107 -0.7841  0.3905
 4630SOL    HW125352   4.699   4.189   5.488  1.1296 -0.2947  0.3436
 4630SOL    HW225353   4.723   4.117   5.371 -0.0975  3.3989 -0.8420
 4631SOL     OW25354   1.067   2.827  13.739 -0.1190 -0.2460 -0.2202
 4631SOL    HW125355   1.017   2.774  13.677  0.4787 -1.5091  0.3679
 4631SOL    HW225356   1.148   2.848  13.692  1.3037 -1.8869  1.5034
 4632SOL     OW25357   0.174   1.010   4.207 -0.0328  0.2937  0.0062
 4632SOL    HW125358   0.178   1.060   4.289  0.7717  0.9038 -0.4066
 4632SOL    HW225359   0.114   1.069   4.161  1.7240  1.0333 -1.3243
 4633SOL     OW25360   2.406   3.213  13.055 -0.1053  0.2828 -0.0507
 4633SOL    HW125361   2.419   3.145  13.121  0.6508  0.5842  0.1107
 4633SOL    HW225362   2.457   3.284  13.095  0.9458 -0.8832  0.6672
 4634SOL     OW25363   1.995   2.006   9.091  0.4142 -0.0649 -0.2353
 4634SOL    HW125364   1.902   1.986   9.097  0.7577 -1.6215 -0.0650
 4634SOL    HW225365   2.028   1.949   9.161 -0.9756  1.2944  1.5263
 4635SOL     OW25366   2.046   2.771  17.212 -0.1685 -0.1569 -0.5284
 4635SOL    HW125367   2.033   2.730  17.127  0.0329 -1.6923  0.1631
 4635SOL    HW225368   2.108   2.839  17.189  1.4008 -1.7824 -1.1125
 4636SOL     OW25369   1.928   3.841   1.460  0.1125  0.3028 -0.5484
 4636SOL    HW125370   1.940   3.782   1.534 -2.8293  0.6773  0.1832
 4636SOL    HW225371   1.879   3.785   1.399  0.6659 -2.8493  1.9100
 4637SOL     OW25372   3.003   0.584   0.361  0.3073 -0.2502  0.4243
 4637SOL    HW125373   3.079   0.549   0.316 -0.8302 -2.0011 -0.1379
 4637SOL    HW225374   3.041   0.590   0.448 -0.2553  1.3904  0.5639
 4638SOL     OW25375   3.560   2.390   4.029  0.5187  0.0587  0.0497
 4638SOL    HW125376   3.559   2.318   3.966  0.8409  1.7066 -1.8576
 4638SOL    HW225377   3.465   2.397   4.039  0.6457 -0.0328  1.3712
 4639SOL     OW25378   2.392   3.500  12.072  0.0453  0.6297 -0.4414
 4639SOL    HW125379   2.377   3.425  12.015  1.2344 -0.0839  0.1840
 4639SOL    HW225380   2.316   3.556  12.055 -1.6930 -1.1443  1.4792
 4640SOL     OW25381   0.200   0.912  17.576 -0.2809  0.4062  0.0919
 4640SOL    HW125382   0.189   0.933  17.483  0.6838  2.2050  0.3918
 4640SOL    HW225383   0.292   0.887  17.569 -0.2058  0.6186  0.3310
 4641SOL     OW25384   2.978   1.937   8.099  0.3992 -0.2068 -0.2547
 4641SOL    HW125385   2.901   1.895   8.060  0.8258 -0.9300 -0.3215
 4641SOL    HW225386   3.016   1.972   8.018  1.4505 -1.7746 -0.4485
 4642SOL     OW25387   3.256   3.580   4.704 -0.2760  0.3264 -0.2869
 4642SOL    HW125388   3.203   3.650   4.665  0.8648  0.4940 -1.5314
 4642SOL    HW225389   3.231   3.507   4.648 -0.1851  0.5326 -0.5996
 4643SOL     OW25390   3.414   3.100   3.944 -0.1662  0.4762  0.1715
 4643SOL    HW125391   3.496   3.140   3.914  0.5849 -0.7678  0.5623
 4643SOL    HW225392   3.363   3.180   3.930  2.3274  2.3649  1.8521
 4644SOL     OW25393   0.292   1.926   7.182  0.5769 -0.0604  0.5761
 4644SOL    HW125394   0.230   1.935   7.110 -0.1844 -3.6761  0.7646
 4644SOL    HW225395   0.271   2.011   7.220 -1.3464 -0.0407 -0.5633
 4645SOL     OW25396   2.045   2.418   5.020  0.5925  0.2558 -0.7194
 4645SOL    HW125397   2.079   2.496   4.975 -0.3473  0.0789 -1.7439
 4645SOL    HW225398   1.955   2.441   5.042 -0.2114 -0.9588 -2.6992
 4646SOL     OW25399   3.698   2.491   3.599  0.2911  0.4078 -0.3079
 4646SOL    HW125400   3.613   2.531   3.616 -0.5446 -1.3691 -0.2794
 4646SOL    HW225401   3.763   2.561   3.599  1.1624 -0.4189  3.1935
 4647SOL     OW25402   0.242   1.601   6.217  0.4510 -0.5611  0.5862
 4647SOL    HW125403   0.162   1.638   6.254  0.2444  0.0737 -0.4981
 4647SOL    HW225404   0.226   1.620   6.124 -2.0260  1.2002  1.4041
 4648SOL     OW25405   1.152   0.239  12.504  0.5098 -0.4964 -0.2399
 4648SOL    HW125406   1.135   0.333  12.502 -0.0986 -0.5443  2.7012
 4648SOL    HW225407   1.220   0.230  12.437  2.5272 -1.0814  1.8691
 4649SOL     OW25408   1.502   3.244  15.521  0.1305  0.1912  0.3499
 4649SOL    HW125409   1.479   3.337  15.519  1.7250  0.5393 -1.4178
 4649SOL    HW225410   1.556   3.243  15.599 -1.6053  2.1419  1.5769
 4650SOL     OW25411   1.574   3.335   5.162  0.8487 -0.4137 -0.2294
 4650SOL    HW125412   1.599   3.407   5.220 -1.0393  0.5536 -0.6169
 4650SOL    HW225413   1.523   3.391   5.103 -0.0861 -2.7372 -1.6197
 4651SOL     OW25414   1.993   1.590   0.331  0.4452  0.5245 -0.7961
 4651SOL    HW125415   1.902   1.573   0.309  0.4695  0.8142 -1.1356
 4651SOL    HW225416   2.006   1.685   0.340 -1.3921  0.7807 -0.8370
 4652SOL     OW25417   1.556   2.130   2.107 -0.1393 -0.3754  0.4619
 4652SOL    HW125418   1.476   2.150   2.156  0.9023  0.7158  1.7243
 4652SOL    HW225419   1.551   2.165   2.019 -1.7044 -1.8450 -0.0425
 4653SOL     OW25420   3.163   3.313   3.721  0.1594 -0.4494 -0.1753
 4653SOL    HW125421   3.221   3.265   3.661 -2.5689  0.9711 -3.9655
 4653SOL    HW225422   3.210   3.397   3.727 -1.7899  0.4293  2.5791
 4654SOL     OW25423   2.262   4.093   7.547  0.3156  0.2572 -0.7405
 4654SOL    HW125424   2.352   4.127   7.554 -0.4752  2.2513 -0.3014
 4654SOL    HW225425   2.282   4.005   7.579 -2.1674  0.8638  2.4510
 4655SOL     OW25426   4.115   3.275   2.981 -0.1690 -0.0797  0.1301
 4655SOL    HW125427   4.208   3.256   2.968 -0.0237  1.5653 -1.1061
 4655SOL    HW225428   4.088   3.290   2.891 -0.0815 -1.9075 -0.2035
 4656SOL     OW25429   3.219   2.818   5.244 -0.1933  0.6165  0.0676
 4656SOL    HW125430   3.277   2.873   5.297  1.5971 -0.3393 -0.8734
 4656SOL    HW225431   3.221   2.873   5.166  0.3398 -0.6828 -0.8444
 4657SOL     OW25432   3.081   0.141   2.166  0.2541  0.0588 -0.2575
 4657SOL    HW125433   3.058   0.231   2.143  1.4092  0.2327 -0.7254
 4657SOL    HW225434   3.046   0.123   2.254  1.3377 -1.7010 -0.1708
 4658SOL     OW25435   3.815   1.982  15.187 -0.7263  0.0266 -0.1015
 4658SOL    HW125436   3.765   2.063  15.178 -0.1107  0.3420 -0.7347
 4658SOL    HW225437   3.782   1.931  15.113 -0.8020 -0.7332  0.4522
 4659SOL     OW25438   2.262   1.928   7.350 -0.8879 -0.2663 -0.0608
 4659SOL    HW125439   2.212   1.931   7.269  0.1679 -0.7889 -0.7460
 4659SOL    HW225440   2.198   1.895   7.412 -0.1180  0.4095  1.0953
 4660SOL     OW25441   4.320   0.777   9.216  0.1005 -0.1934  0.2166
 4660SOL    HW125442   4.337   0.711   9.283  0.7385 -0.0419  0.1987
 4660SOL    HW225443   4.371   0.849   9.252  1.9585 -1.6517  0.4970
 4661SOL     OW25444   0.098   3.952  10.484  0.0386  0.2205 -0.7912
 4661SOL    HW125445   0.157   3.956  10.559 -0.2219 -0.7824 -0.5217
 4661SOL    HW225446   0.030   4.009  10.518 -1.2045 -1.4567 -0.4535
 4662SOL     OW25447   1.920   1.258  14.637  0.2994  0.2208 -0.9420
 4662SOL    HW125448   1.979   1.185  14.617 -0.1669 -0.4840  0.2827
 4662SOL    HW225449   1.983   1.329  14.626  2.0268 -1.1279  0.2586
 4663SOL     OW25450   0.645   1.641   4.482 -0.7722  0.0984 -0.1240
 4663SOL    HW125451   0.614   1.551   4.467 -0.0822  0.0776 -1.3891
 4663SOL    HW225452   0.583   1.677   4.419  0.6875  0.9368 -1.0733
 4664SOL     OW25453   4.584   2.523   4.977 -0.2499  0.3530  0.4898
 4664SOL    HW125454   4.567   2.525   5.071 -1.4844 -1.6011  0.2965
 4664SOL    HW225455   4.524   2.583   4.932 -0.3585 -0.9833 -1.1312
 4665SOL     OW25456   3.530   1.523   9.265  0.3830  0.0529  0.4518
 4665SOL    HW125457   3.452   1.577   9.281 -0.1595  0.2880 -2.9703
 4665SOL    HW225458   3.501   1.479   9.185  0.1610 -0.2334  0.6885
 4666SOL     OW25459   4.004   3.922  16.444 -0.1530 -0.2325 -0.7472
 4666SOL    HW125460   3.917   3.890  16.468  1.5603 -1.9890  3.1361
 4666SOL    HW225461   4.027   3.859  16.375  2.0207  1.5791 -1.6776
 4667SOL     OW25462   0.941   2.473  17.632  0.1383  0.1439  0.0317
 4667SOL    HW125463   0.963   2.407  17.566 -0.2623  1.8988 -1.8565
 4667SOL    HW225464   0.926   2.409   0.003 -1.7685  1.0544  0.4597
 4668SOL     OW25465   4.156   3.114   2.418 -0.1939  0.3045 -0.3052
 4668SOL    HW125466   4.130   3.073   2.336 -2.5892 -0.5242  0.8593
 4668SOL    HW225467   4.156   3.206   2.392  2.1837 -0.0148 -1.4512
 4669SOL     OW25468   0.598   3.747   3.693  0.2781  0.0945 -0.4776
 4669SOL    HW125469   0.669   3.744   3.758 -0.1866  0.3964  0.0441
 4669SOL    HW225470   0.602   3.841   3.672  2.0108  0.7135  2.5729
 4670SOL     OW25471   3.429   3.355  12.170  0.2728  0.0871 -0.2243
 4670SOL    HW125472   3.487   3.321  12.102  0.5139  1.6078 -0.7714
 4670SOL    HW225473   3.465   3.443  12.180  1.5562 -0.5869  1.1951
 4671SOL     OW25474   0.779   1.963   8.948 -0.3744 -0.8944  0.2864
 4671SOL    HW125475   0.840   2.001   9.010  1.7831 -1.1464 -1.6743
 4671SOL    HW225476   0.750   2.039   8.897 -1.5297 -1.8531 -0.5044
 4672SOL     OW25477   0.477   3.148  11.995  0.1927 -0.6108  0.6048
 4672SOL    HW125478   0.498   3.223  11.939 -0.6531  0.4052  1.6373
 4672SOL    HW225479   0.398   3.180  12.038 -0.2976 -1.3330  0.2499
 4673SOL     OW25480   1.980   2.013   5.225  0.1732 -1.0400  0.3823
 4673SOL    HW125481   2.073   2.014   5.246  0.3162  0.1379 -0.3163
 4673SOL    HW225482   1.963   2.108   5.228  0.2225 -1.0943  2.4192
 4674SOL     OW25483   0.237   4.284   6.787 -0.3091  0.4587  0.3170
 4674SOL    HW125484   0.286   4.256   6.865  0.4490 -1.3312 -0.8048
 4674SOL    HW225485   0.205   4.370   6.815  1.1297  0.8329  0.8353
 4675SOL     OW25486   1.477   2.677   5.413  0.0804 -0.1277 -0.0750
 4675SOL    HW125487   1.502   2.590   5.381  1.5535  0.2564  0.0569
 4675SOL    HW225488   1.486   2.655   5.506 -2.9152  1.5808  0.6092
 4676SOL     OW25489   4.481   2.840   5.345 -0.2628 -0.2169 -0.5896
 4676SOL    HW125490   4.449   2.916   5.297 -2.5640 -1.6323 -1.3229
 4676SOL    HW225491   4.500   2.878   5.431  0.9498  2.3592 -1.9938
 4677SOL     OW25492   0.049   0.093   1.017  0.3528 -0.1910 -0.3404
 4677SOL    HW125493   0.086   0.023   1.071 -0.4200  0.7638  1.4501
 4677SOL    HW225494   4.683   0.061   1.008  1.0855 -1.6953 -2.0896
 4678SOL     OW25495   2.310   3.859   7.813 -0.2952  0.5821 -0.3297
 4678SOL    HW125496   2.361   3.830   7.737  0.9429  2.7772 -0.3321
 4678SOL    HW225497   2.231   3.806   7.800 -0.6780  0.6751  1.6233
 4679SOL     OW25498   1.162   2.160  11.222  0.5965  0.4728 -0.3997
 4679SOL    HW125499   1.113   2.117  11.292 -0.1490  0.3291 -1.0129
 4679SOL    HW225500   1.237   2.104  11.238  0.1453 -0.6063 -2.0910
 4680SOL     OW25501   1.096   2.775  12.000  0.1046  0.4044 -0.1320
 4680SOL    HW125502   1.097   2.736  12.087  0.4486 -1.9619 -1.1928
 4680SOL    HW225503   1.188   2.755  11.984  0.2973 -0.0404  1.4979
 4681SOL     OW25504   3.489   3.087   4.901 -0.4562  0.1376 -0.0900
 4681SOL    HW125505   3.415   3.037   4.868  0.7538 -0.7087 -1.5244
 4681SOL    HW225506   3.452   3.133   4.976  1.4475 -0.3747  1.1590
 4682SOL     OW25507   2.489   0.602   3.098  0.3887 -0.1092  0.4179
 4682SOL    HW125508   2.408   0.550   3.090 -0.0797  0.3043  2.4313
 4682SOL    HW225509   2.544   0.537   3.055 -2.3353 -2.5167  0.5064
 4683SOL     OW25510   4.303   1.127   7.065  0.0123 -0.2864  0.0736
 4683SOL    HW125511   4.308   1.078   7.147 -0.9622  0.1775  0.4092
 4683SOL    HW225512   4.378   1.094   7.015 -0.3541  1.2310 -1.4855
 4684SOL     OW25513   4.261   2.031   8.996  0.4049 -0.4454 -0.0463
 4684SOL    HW125514   4.337   2.013   9.051  0.1413  0.4465  0.6211
 4684SOL    HW225515   4.293   2.019   8.907  2.9079 -1.7628  1.0341
 4685SOL     OW25516   0.213   3.086   3.818 -0.3092 -0.0317 -0.2066
 4685SOL    HW125517   0.249   3.005   3.781 -1.9525 -1.4714  1.3679
 4685SOL    HW225518   0.149   3.101   3.748 -1.9721 -2.9258  0.7150
 4686SOL     OW25519   0.055   3.455   0.615 -0.2089  0.0654  0.3837
 4686SOL    HW125520   4.701   3.406   0.642 -0.4021 -0.0945 -0.4635
 4686SOL    HW225521   0.032   3.485   0.527  1.4533 -1.5184 -0.6022
 4687SOL     OW25522   1.417   3.059  17.284  0.6254  0.2489 -0.8467
 4687SOL    HW125523   1.505   3.063  17.246  1.6754 -0.3678  1.5567
 4687SOL    HW225524   1.433   2.989  17.348 -1.1555  1.1542  0.5746
 4688SOL     OW25525   1.247   4.217   1.190 -0.2738 -0.2545 -0.0824
 4688SOL    HW125526   1.189   4.146   1.218  0.4294 -0.7711  0.0638
 4688SOL    HW225527   1.203   4.300   1.208 -1.5459 -1.0061  0.2550
 4689SOL     OW25528   1.141   2.608  11.714  0.4171 -0.1788  0.0445
 4689SOL    HW125529   1.208   2.672  11.688  0.0019  0.0261 -0.5233
 4689SOL    HW225530   1.066   2.663  11.736  0.1425 -0.0646 -1.1787
 4690SOL     OW25531   2.458   2.696   0.407 -0.1673  0.8339  0.0806
 4690SOL    HW125532   2.428   2.662   0.323  2.7164 -0.3269 -0.4761
 4690SOL    HW225533   2.452   2.791   0.406 -1.3714  0.7364 -1.9636
 4691SOL     OW25534   1.630   2.476  11.788 -0.3277  0.6899  0.1721
 4691SOL    HW125535   1.544   2.434  11.777  0.9335 -1.4997 -1.4403
 4691SOL    HW225536   1.629   2.537  11.714 -0.3858 -0.0043 -0.4044
 4692SOL     OW25537   1.062   3.949  10.600 -0.0364  0.3291  0.5399
 4692SOL    HW125538   1.055   4.019  10.534  0.2598 -1.3196 -1.2590
 4692SOL    HW225539   1.118   3.894  10.545  1.2144  1.2385  0.8900
 4693SOL     OW25540   1.179   0.870   4.947 -0.7294  0.2141  0.2326
 4693SOL    HW125541   1.131   0.953   4.953  1.2022  1.3268  0.1715
 4693SOL    HW225542   1.107   0.824   4.903 -1.3534  1.6835 -0.2781
 4694SOL     OW25543   1.309   0.471   5.827 -1.1168 -0.1955  0.4813
 4694SOL    HW125544   1.291   0.384   5.863 -1.7532 -0.7781 -1.2174
 4694SOL    HW225545   1.286   0.525   5.903 -0.2628  0.1757  0.4672
 4695SOL     OW25546   1.216   3.556   2.611  0.1014 -0.9950  0.0030
 4695SOL    HW125547   1.135   3.507   2.595 -0.8758  0.2403  1.2287
 4695SOL    HW225548   1.274   3.527   2.540  2.5928  1.3531  1.0933
 4696SOL     OW25549   2.550   4.559   7.188  0.0432 -0.0715  0.0085
 4696SOL    HW125550   2.513   4.613   7.117 -0.2352  1.4448  1.3227
 4696SOL    HW225551   2.641   4.560   7.158  0.3554  1.2072  1.0117
 4697SOL     OW25552   2.247   3.923   9.737 -0.2777  0.2301  0.3609
 4697SOL    HW125553   2.260   4.006   9.691  0.2379 -0.5137 -0.8276
 4697SOL    HW225554   2.336   3.886   9.736 -0.2627  0.2477  0.9028
 4698SOL     OW25555   1.261   0.175  11.031  0.1165 -0.1632 -0.6935
 4698SOL    HW125556   1.353   0.149  11.038  0.0957 -0.0466  0.0310
 4698SOL    HW225557   1.274   0.268  11.011 -1.7760  0.6085  1.7679
 4699SOL     OW25558   3.231   2.347   5.761 -0.5771 -0.2177  0.5167
 4699SOL    HW125559   3.302   2.325   5.700  0.2909 -0.2057  1.5113
 4699SOL    HW225560   3.241   2.272   5.820 -0.0055 -1.2170 -0.8393
 4700SOL     OW25561   3.478   0.257   6.014  0.1192 -0.1520  0.0425
 4700SOL    HW125562   3.548   0.294   5.959  0.8803 -0.4450  0.8228
 4700SOL    HW225563   3.451   0.185   5.957 -0.3232  0.3224 -0.3515
 4701SOL     OW25564   4.134   0.542  12.420  0.5392  0.3880 -0.1019
 4701SOL    HW125565   4.185   0.531  12.501  0.1342  2.2274  0.3894
 4701SOL    HW225566   4.144   0.635  12.404 -0.4156  0.1165 -2.2055
 4702SOL     OW25567   3.600   4.403   5.453 -0.7038 -0.4200 -0.1555
 4702SOL    HW125568   3.587   4.437   5.365  2.2074  0.5538 -0.2118
 4702SOL    HW225569   3.525   4.430   5.507 -1.0872 -0.9649 -0.4202
 4703SOL     OW25570   1.883   3.075   8.956  0.1426  0.0918 -0.5567
 4703SOL    HW125571   1.914   2.984   8.964 -1.6284 -0.4033  0.4883
 4703SOL    HW225572   1.917   3.113   9.037 -1.2626 -1.7886  0.9038
 4704SOL     OW25573   4.602   2.662   7.746 -0.3697 -0.0128  0.6813
 4704SOL    HW125574   4.695   2.685   7.746  0.2017 -2.2880  0.7625
 4704SOL    HW225575   4.567   2.728   7.686  2.5564  0.8213 -0.0793
 4705SOL     OW25576   1.700   0.968  17.442  0.6116  0.7065  0.1565
 4705SOL    HW125577   1.718   1.047  17.493  1.9678  1.0169 -0.8073
 4705SOL    HW225578   1.680   0.902  17.507 -0.8584  0.0938 -0.9152
 4706SOL     OW25579   0.121   4.136   2.106 -0.2163 -0.0202  0.0393
 4706SOL    HW125580   0.118   4.096   2.193  2.8535  0.0826  0.1978
 4706SOL    HW225581   0.193   4.085   2.068 -0.6502 -1.1919  0.8089
 4707SOL     OW25582   0.555   3.179   1.659  0.2470  0.0520  0.0875
 4707SOL    HW125583   0.494   3.210   1.592  1.1992 -0.3881 -0.9779
 4707SOL    HW225584   0.490   3.126   1.707 -0.3563  0.2782 -0.4838
 4708SOL     OW25585   2.528   2.165  12.401 -0.2968  0.0601  0.0360
 4708SOL    HW125586   2.454   2.116  12.365  1.8207 -3.6265  0.6817
 4708SOL    HW225587   2.527   2.135  12.492  1.0424 -3.7599 -1.1731
 4709SOL     OW25588   4.170   2.879  16.620  0.2244  0.2899  0.7155
 4709SOL    HW125589   4.260   2.847  16.614 -0.3398 -1.5560  2.1055
 4709SOL    HW225590   4.179   2.955  16.678  3.4010 -0.1688  0.8193
 4710SOL     OW25591   1.399   1.743   3.452  0.2243 -0.2582 -0.2197
 4710SOL    HW125592   1.440   1.821   3.491 -0.8490 -0.5929  1.5991
 4710SOL    HW225593   1.317   1.778   3.416 -0.3673 -0.5701  0.8175
 4711SOL     OW25594   2.588   1.608   9.877 -0.1191  0.0205 -0.8024
 4711SOL    HW125595   2.549   1.524   9.902  0.1382 -0.1734 -1.0385
 4711SOL    HW225596   2.523   1.654   9.825 -0.4908  0.6110  0.2033
 4712SOL     OW25597   2.980   4.202   5.309  0.3162  0.6358 -0.0139
 4712SOL    HW125598   2.959   4.157   5.391 -1.5903  0.9036 -0.3526
 4712SOL    HW225599   2.907   4.264   5.304 -2.2977 -2.4712 -0.1679
 4713SOL     OW25600   1.720   4.692   3.689  0.0406 -0.2756  0.4135
 4713SOL    HW125601   1.660   4.680   3.615  0.1650  0.9813  0.1102
 4713SOL    HW225602   1.748   4.602   3.707  1.7062  0.6079  2.1989
 4714SOL     OW25603   1.895   3.167   4.685 -0.1447  0.0220 -0.0627
 4714SOL    HW125604   1.832   3.104   4.652  0.2265  0.6830 -2.0409
 4714SOL    HW225605   1.841   3.245   4.674 -0.2982 -0.3178 -1.8391
 4715SOL     OW25606   1.998   4.634   7.769 -0.3717  0.0844 -0.1538
 4715SOL    HW125607   1.930   4.622   7.835  2.3325  0.0639  2.6702
 4715SOL    HW225608   2.062   4.576   7.811  0.4989  1.5047  0.4907
 4716SOL     OW25609   3.962   1.581   4.355 -0.4107 -0.4375 -0.0755
 4716SOL    HW125610   3.917   1.503   4.388 -0.3692 -0.6539 -0.5299
 4716SOL    HW225611   4.030   1.544   4.298  1.1201  1.7133  0.3486
 4717SOL     OW25612   3.266   0.435  17.556 -0.3125  0.9443 -0.3293
 4717SOL    HW125613   3.318   0.385  17.493  1.3989 -1.0598  2.6819
 4717SOL    HW225614   3.327   0.445  17.629  1.0790  1.6383 -1.5656
 4718SOL     OW25615   0.690   0.495   4.027 -0.1164 -0.3364  0.1250
 4718SOL    HW125616   0.627   0.529   3.963 -0.0624 -0.3132  0.0848
 4718SOL    HW225617   0.766   0.524   3.978  0.1302 -0.4220  0.4588
 4719SOL     OW25618   1.260   4.723   7.732 -0.3058  0.0464 -0.5699
 4719SOL    HW125619   1.306   4.664   7.792 -0.4585  2.3736  1.8581
 4719SOL    HW225620   1.274   0.085   7.773  2.7551  0.1050 -1.7856
 4720SOL     OW25621   4.564   3.030  15.317 -0.0348 -0.5146 -0.2266
 4720SOL    HW125622   4.580   2.944  15.357 -1.2122 -0.2008  0.9454
 4720SOL    HW225623   4.470   3.041  15.299  0.0465 -0.9630 -0.8889
 4721SOL     OW25624   4.055   1.505   0.751  0.0093  0.0356 -0.0593
 4721SOL    HW125625   3.995   1.477   0.820 -0.8224  3.0401  0.4037
 4721SOL    HW225626   3.994   1.483   0.680  3.2496 -1.2958 -2.4343
 4722SOL     OW25627   1.139   4.422   0.285 -0.0699 -0.0207  0.4368
 4722SOL    HW125628   1.153   4.512   0.256 -2.4525  0.0925 -0.3594
 4722SOL    HW225629   1.211   4.380   0.238 -0.8367  0.4182 -1.1209
 4723SOL     OW25630   3.168   0.173  14.386 -0.1159 -0.1328 -0.4150
 4723SOL    HW125631   3.188   0.153  14.478 -2.5281 -1.1856 -0.1112
 4723SOL    HW225632   3.179   0.088  14.344 -0.7185 -1.3350  1.8693
 4724SOL     OW25633   4.188   3.726   4.565  0.4920 -0.9063 -0.5990
 4724SOL    HW125634   4.110   3.778   4.583  1.2872  0.5133 -1.2815
 4724SOL    HW225635   4.223   3.769   4.487  0.0033 -0.1754 -0.4082
 4725SOL     OW25636   1.643   3.664   2.058  0.3546 -0.2385 -0.0453
 4725SOL    HW125637   1.555   3.629   2.045 -0.3481  1.4283  0.2047
 4725SOL    HW225638   1.611   3.747   2.093 -0.5572  0.0329 -1.5281
 4726SOL     OW25639   1.209   0.203   1.999 -0.1707 -0.2795  0.2014
 4726SOL    HW125640   1.210   0.297   2.020  1.3582 -0.6003  1.5226
 4726SOL    HW225641   1.189   0.204   1.905 -0.2252  1.6356  0.2243
 4727SOL     OW25642   3.428   1.710  16.728  0.1215 -0.0579 -0.5545
 4727SOL    HW125643   3.455   1.658  16.803  0.0831 -0.9708 -1.1791
 4727SOL    HW225644   3.337   1.735  16.746  0.7953  1.4017  0.8068
 4728SOL     OW25645   0.507   4.109   9.106  0.8195 -0.8560 -0.1508
 4728SOL    HW125646   0.572   4.071   9.166  1.5448  0.1826 -0.2919
 4728SOL    HW225647   0.447   4.035   9.094  0.1292 -0.1095 -1.2175
 4729SOL     OW25648   2.239   3.410   9.235  0.3831  0.4299  0.1548
 4729SOL    HW125649   2.263   3.441   9.148  0.8834 -0.5299 -0.0500
 4729SOL    HW225650   2.168   3.473   9.240 -0.0033  0.1670 -2.0535
 4730SOL     OW25651   2.657   0.542  14.388 -0.3870  0.1277 -0.0107
 4730SOL    HW125652   2.616   0.459  14.413  0.6377 -0.2493  0.4286
 4730SOL    HW225653   2.643   0.546  14.294 -3.1439  0.1321  0.3871
 4731SOL     OW25654   0.806   4.612  17.582  0.1412 -0.2531  0.2996
 4731SOL    HW125655   0.783   4.627  17.673 -0.0470 -0.5635  0.3045
 4731SOL    HW225656   0.768   4.525  17.574 -1.0169  0.3054 -0.1629
 4732SOL     OW25657   0.851   0.676   5.507  0.5467 -0.1327 -0.5544
 4732SOL    HW125658   0.817   0.757   5.543  1.0834 -0.6179  1.0314
 4732SOL    HW225659   0.787   0.614   5.543  1.2112 -0.5073 -0.0113
 4733SOL     OW25660   3.219   2.611   0.368  0.3877  0.1730 -0.2310
 4733SOL    HW125661   3.155   2.664   0.415 -0.0894  1.1324 -1.9853
 4733SOL    HW225662   3.274   2.682   0.334 -0.7863  1.5297  0.7233
 4734SOL     OW25663   1.387   2.577   6.236 -0.3896  0.0275  0.2154
 4734SOL    HW125664   1.302   2.552   6.272  0.2147 -1.7951  0.3712
 4734SOL    HW225665   1.445   2.565   6.311  2.3012 -1.9926 -2.1923
 4735SOL     OW25666   3.829   0.370   3.815 -0.1767 -0.0184 -0.0706
 4735SOL    HW125667   3.793   0.336   3.897 -2.0382 -1.7284 -1.5714
 4735SOL    HW225668   3.916   0.331   3.808  0.3326  0.5028  3.8489
 4736SOL     OW25669   0.541   2.110   4.418  0.2667  0.1313  0.5283
 4736SOL    HW125670   0.623   2.134   4.375 -0.8878 -2.2562 -2.9815
 4736SOL    HW225671   0.568   2.041   4.478  2.4852 -0.9944 -1.7378
 4737SOL     OW25672   1.308   2.844   3.985 -0.0145  0.5293 -0.0487
 4737SOL    HW125673   1.350   2.926   3.959 -0.1854 -0.0132 -2.0289
 4737SOL    HW225674   1.218   2.841   3.950 -0.0829 -0.6034  0.2357
 4738SOL     OW25675   0.232   0.522   4.220 -0.0759 -0.8664 -0.4709
 4738SOL    HW125676   0.274   0.603   4.193 -2.6618  0.6950  0.2578
 4738SOL    HW225677   0.218   0.465   4.144 -0.0585  1.4312 -2.2023
 4739SOL     OW25678   3.584   1.343  14.785  0.4717  0.4014 -0.1859
 4739SOL    HW125679   3.525   1.366  14.713  3.0635 -0.3334 -2.5342
 4739SOL    HW225680   3.652   1.290  14.744 -0.3001  0.4466 -1.5197
 4740SOL     OW25681   1.491   0.439   5.191 -0.4150 -0.0800 -0.0929
 4740SOL    HW125682   1.558   0.405   5.131  1.0898  1.5150  0.6870
 4740SOL    HW225683   1.552   0.495   5.239  0.0572  0.9974 -1.9758
 4741SOL     OW25684   2.609   1.216  15.931 -0.0845 -0.1801 -0.0253
 4741SOL    HW125685   2.538   1.219  15.994 -0.3037 -1.5128 -0.2157
 4741SOL    HW225686   2.679   1.256  15.982  0.1668 -2.1576  1.1757
 4742SOL     OW25687   3.099   3.650   7.658 -0.4511  0.3493 -0.1057
 4742SOL    HW125688   3.137   3.569   7.691 -0.6787  0.9010  1.5684
 4742SOL    HW225689   3.139   3.663   7.572 -2.5560  0.3372 -1.0946
 4743SOL     OW25690   3.004   3.962   7.994  0.2879  0.4841  0.4938
 4743SOL    HW125691   2.962   4.009   8.066  1.4326  1.3147  0.6088
 4743SOL    HW225692   3.097   3.983   7.995  0.4714 -0.2797 -0.7430
 4744SOL     OW25693   1.732   4.042   7.070  0.5521 -0.2394  0.1382
 4744SOL    HW125694   1.734   4.123   7.122 -1.6840 -0.8669  1.1969
 4744SOL    HW225695   1.771   3.984   7.136 -2.0961 -0.4281  1.5492
 4745SOL     OW25696   3.834   4.619   2.497  0.0286  0.6242 -0.0884
 4745SOL    HW125697   3.818   4.710   2.522  2.0258  0.2668  2.5956
 4745SOL    HW225698   3.743   4.587   2.498  1.0994 -2.4318 -1.2289
 4746SOL     OW25699   0.618   0.957   5.808 -0.0020  0.3949 -0.3097
 4746SOL    HW125700   0.524   0.946   5.794  0.1790 -0.6167 -0.7132
 4746SOL    HW225701   0.617   0.963   5.904 -1.4532 -1.7968 -0.1801
 4747SOL     OW25702   1.685   3.031   6.496 -0.0242  0.2485 -0.2222
 4747SOL    HW125703   1.640   2.985   6.425  2.3720 -2.4288 -0.0246
 4747SOL    HW225704   1.610   3.068   6.543 -2.2803 -1.1628 -2.6499
 4748SOL     OW25705   4.322   0.745  15.089 -0.1928  0.1779 -0.2018
 4748SOL    HW125706   4.376   0.823  15.102  0.0505  0.0013 -0.1582
 4748SOL    HW225707   4.327   0.720  14.997 -0.6736 -2.5431  0.5183
 4749SOL     OW25708   1.797   2.977   4.894 -0.3787 -0.3146 -0.6652
 4749SOL    HW125709   1.829   2.941   4.977 -2.3452 -0.8669 -0.1603
 4749SOL    HW225710   1.787   3.070   4.913 -0.2521 -0.1984 -1.1860
 4750SOL     OW25711   0.281   3.020   0.330 -0.0521  0.2211  0.0398
 4750SOL    HW125712   0.312   2.968   0.404  0.5520 -0.3026 -0.5776
 4750SOL    HW225713   0.281   3.108   0.368 -2.3594  0.6937 -1.0684
 4751SOL     OW25714   0.724   4.312   6.988 -0.0127 -0.0578  0.2679
 4751SOL    HW125715   0.729   4.340   6.897  0.5024  3.8022  1.5128
 4751SOL    HW225716   0.743   4.393   7.034 -0.4677 -0.2651  0.8254
 4752SOL     OW25717   2.646   2.963   0.404  0.1800 -0.2128 -0.6306
 4752SOL    HW125718   2.646   2.967   0.308  1.5725 -0.4594 -0.6365
 4752SOL    HW225719   2.735   2.989   0.428  0.2230 -2.2988  1.5105
 4753SOL     OW25720   2.599   2.417   0.610  0.4128 -0.2467  0.8420
 4753SOL    HW125721   2.645   2.496   0.584  0.1236  0.0016  1.0874
 4753SOL    HW225722   2.636   2.354   0.548  0.9843  0.9068  0.0226
 4754SOL     OW25723   3.069   3.624   3.938  0.0035 -0.0729 -0.5520
 4754SOL    HW125724   3.163   3.614   3.921 -0.3220 -3.0660 -0.6498
 4754SOL    HW225725   3.043   3.559   3.873  3.0837 -0.7736 -1.0589
 4755SOL     OW25726   4.147   2.514  10.092  0.1971  0.0603  0.1191
 4755SOL    HW125727   4.223   2.478  10.137 -0.6131  1.9508  2.9585
 4755SOL    HW225728   4.172   2.606  10.097  0.0137  0.1631 -0.8398
 4756SOL     OW25729   1.277   1.610   4.253 -0.2882  0.0549 -0.0169
 4756SOL    HW125730   1.221   1.676   4.212  0.3466  0.4879 -0.1880
 4756SOL    HW225731   1.223   1.586   4.329  0.1453 -1.2113 -0.1028
 4757SOL     OW25732   2.612   0.499   7.162  0.1188 -0.0646 -0.0570
 4757SOL    HW125733   2.630   0.462   7.075 -0.3299 -2.4551  0.8795
 4757SOL    HW225734   2.539   0.443   7.186 -1.1317  0.0745 -3.5875
 4758SOL     OW25735   2.791   2.779   5.245 -0.2964 -0.7454 -0.2648
 4758SOL    HW125736   2.723   2.819   5.299 -2.1309 -3.2534 -0.7343
 4758SOL    HW225737   2.775   2.817   5.158  0.1144 -3.6293 -1.5779
 4759SOL     OW25738   1.041   3.980   1.202  0.1593 -0.6324  0.3600
 4759SOL    HW125739   1.058   3.888   1.180  1.5996 -0.7779  2.0816
 4759SOL    HW225740   0.951   3.979   1.235 -0.0476  0.3758 -0.1629
 4760SOL     OW25741   2.217   2.357   0.128  0.1334 -0.8892 -0.4872
 4760SOL    HW125742   2.241   2.283   0.072 -0.4766 -0.1133 -1.7728
 4760SOL    HW225743   2.131   2.377   0.092  0.7763 -1.3733 -2.2943
 4761SOL     OW25744   4.724   2.910   0.815  0.0165 -0.1855  0.4198
 4761SOL    HW125745   0.090   2.877   0.815 -0.0244 -0.2776 -3.0132
 4761SOL    HW225746   4.686   2.850   0.750 -1.7922  0.6661  0.7170
 4762SOL     OW25747   3.006   2.418   3.557 -0.2867  0.2382 -0.7729
 4762SOL    HW125748   3.089   2.456   3.588 -1.9497  1.6427  1.9656
 4762SOL    HW225749   3.033   2.328   3.539  1.0425  0.6722 -1.0209
 4763SOL     OW25750   1.756   2.455   3.642  0.9202  0.6773 -0.5974
 4763SOL    HW125751   1.740   2.465   3.548 -1.3923  1.6364 -0.1039
 4763SOL    HW225752   1.782   2.544   3.667 -0.5843  0.5526  1.3304
 4764SOL     OW25753   3.944   1.527  13.130  0.5736  0.1081 -0.1869
 4764SOL    HW125754   3.998   1.495  13.203 -0.4349 -1.1756 -0.0100
 4764SOL    HW225755   3.962   1.460  13.064 -1.0212  0.0845 -0.5828
 4765SOL     OW25756   3.647   4.678  15.926  0.5791 -0.4635  0.5645
 4765SOL    HW125757   3.646   4.599  15.980  3.0025 -2.3732 -2.1928
 4765SOL    HW225758   3.736   4.709  15.942  1.2630 -2.1118 -0.0395
 4766SOL     OW25759   0.372   0.222   2.053  0.3008  0.6235 -0.9797
 4766SOL    HW125760   0.306   0.288   2.077  1.8412  1.6141  0.5058
 4766SOL    HW225761   0.326   0.172   1.986 -0.6363 -2.2355  1.8006
 4767SOL     OW25762   4.415   3.770  11.912  0.0349  0.1363 -0.0654
 4767SOL    HW125763   4.401   3.722  11.994 -2.8166  2.6769  0.9469
 4767SOL    HW225764   4.327   3.802  11.893 -0.2543  0.0068  1.0820
 4768SOL     OW25765   3.719   1.315   3.181 -0.4918 -0.0309 -0.3506
 4768SOL    HW125766   3.764   1.400   3.179  0.7187 -0.7074 -1.3722
 4768SOL    HW225767   3.769   1.268   3.248 -0.1174  0.4510 -0.2870
 4769SOL     OW25768   2.012   1.065   8.371 -0.3329 -0.2105 -0.0263
 4769SOL    HW125769   1.986   0.989   8.422 -0.0361 -0.1447  0.2214
 4769SOL    HW225770   1.941   1.125   8.393 -0.3018  0.0398 -0.6045
 4770SOL     OW25771   0.363   4.337   5.073  0.0900  0.1749 -0.1824
 4770SOL    HW125772   0.297   4.356   5.006  0.8618  2.4485 -0.3228
 4770SOL    HW225773   0.306   4.299   5.139 -0.3658  0.9060 -0.1564
 4771SOL     OW25774   1.671   4.621   6.339  0.2808  0.6683  0.6982
 4771SOL    HW125775   1.650   4.626   6.245  2.0401  3.0307  0.4443
 4771SOL    HW225776   1.579   4.613   6.366  1.4592 -2.1766  3.7887
 4772SOL     OW25777   0.077   0.761   1.057  0.2047  0.4121  0.3103
 4772SOL    HW125778   0.042   0.704   0.988  2.8889  0.1217 -0.8277
 4772SOL    HW225779   0.121   0.695   1.111 -0.2763  1.0549  1.4804
 4773SOL     OW25780   1.059   2.300   6.385  0.5339 -0.2388  0.8087
 4773SOL    HW125781   1.093   2.388   6.402  2.6793 -0.7107 -1.0570
 4773SOL    HW225782   1.126   2.246   6.428 -0.1245 -0.7848  1.1538
 4774SOL     OW25783   1.852   4.643   8.804 -0.7003  0.8503 -0.6338
 4774SOL    HW125784   1.889   0.003   8.777 -0.1634  1.2760  1.4020
 4774SOL    HW225785   1.918   4.617   8.869 -0.2969  1.1309 -0.9258
 4775SOL     OW25786   0.738   1.074   8.008  0.2177  0.2290 -0.5844
 4775SOL    HW125787   0.659   1.128   8.014 -0.4051 -0.6558 -0.9015
 4775SOL    HW225788   0.787   1.107   8.084 -2.0144 -1.4646  1.5949
 4776SOL     OW25789   3.730   3.386   1.306 -0.5801 -0.2925 -0.3022
 4776SOL    HW125790   3.802   3.431   1.264 -1.6162  1.3501 -0.3272
 4776SOL    HW225791   3.676   3.465   1.315 -1.2916 -0.7399 -0.5789
 4777SOL     OW25792   3.275   1.596  12.962 -0.2593  0.3171 -0.3656
 4777SOL    HW125793   3.263   1.530  12.894 -1.3898 -0.2223  0.3585
 4777SOL    HW225794   3.254   1.680  12.920 -0.5264  1.1250  1.3717
 4778SOL     OW25795   3.769   2.130   4.297 -0.2344  0.3762  0.0867
 4778SOL    HW125796   3.673   2.127   4.287 -0.3888 -0.9587  1.8600
 4778SOL    HW225797   3.782   2.036   4.312 -1.0444  0.3004  0.3328
 4779SOL     OW25798   3.318   0.132   5.823 -0.5078  0.0816 -0.0472
 4779SOL    HW125799   3.289   0.045   5.852  0.7840  0.5846  2.6731
 4779SOL    HW225800   3.255   0.188   5.868 -0.0596  0.2477  0.3553
 4780SOL     OW25801   4.607   4.288   4.107  0.3945  0.0727  0.1357
 4780SOL    HW125802   4.594   4.262   4.016  1.9964 -1.2910  0.2895
 4780SOL    HW225803   4.701   4.271   4.118  0.4341 -0.8728 -1.5420
 4781SOL     OW25804   1.570   3.567   4.517  0.5657  0.4058 -0.9786
 4781SOL    HW125805   1.544   3.654   4.486  0.7746  0.2897 -1.4853
 4781SOL    HW225806   1.507   3.556   4.588  0.4770 -0.4601 -1.1854
 4782SOL     OW25807   0.724   1.117   6.395 -0.3604 -0.4496  0.7526
 4782SOL    HW125808   0.777   1.105   6.316 -0.1451 -2.4745  1.2125
 4782SOL    HW225809   0.767   1.064   6.462 -0.0357 -2.1655 -0.8344
 4783SOL     OW25810   2.867   0.406   6.020 -0.3559  0.1194 -0.2938
 4783SOL    HW125811   2.841   0.428   6.109  1.1828  1.4112 -0.1543
 4783SOL    HW225812   2.961   0.391   6.032 -0.2834  0.0736 -0.9363
 4784SOL     OW25813   4.597   0.993   0.895  0.1435  0.1242 -0.4049
 4784SOL    HW125814   4.634   0.931   0.833 -1.4786 -0.1567 -1.0980
 4784SOL    HW225815   4.669   1.005   0.956 -0.0018  2.8911 -0.7771
 4785SOL     OW25816   1.679   0.940  11.949 -0.2005  0.2761 -0.3316
 4785SOL    HW125817   1.639   0.879  12.011  0.9364 -0.8959 -0.7561
 4785SOL    HW225818   1.771   0.924  11.971 -0.2230  0.3880 -0.1533
 4786SOL     OW25819   1.789   0.523   3.023 -0.5837 -0.2179  0.1786
 4786SOL    HW125820   1.849   0.455   3.055 -1.2227 -0.8302  0.0973
 4786SOL    HW225821   1.822   0.590   3.082 -2.6341 -0.7870  1.9753
 4787SOL     OW25822   1.879   3.274   3.357 -0.0254 -0.3379  0.2512
 4787SOL    HW125823   1.922   3.191   3.335  1.0440  0.3610 -0.2951
 4787SOL    HW225824   1.845   3.310   3.275 -1.3715  0.8174  1.3046
 4788SOL     OW25825   1.255   4.528   8.914 -0.0938 -0.2076 -0.3896
 4788SOL    HW125826   1.180   4.470   8.905  0.5537 -1.0478 -0.3645
 4788SOL    HW225827   1.249   4.536   9.009 -1.7953  0.1368 -0.5272
 4789SOL     OW25828   0.221   2.149   6.836  0.5171 -0.1673  0.0220
 4789SOL    HW125829   0.181   2.079   6.888 -0.7402 -0.1907 -0.9877
 4789SOL    HW225830   0.309   2.145   6.872  1.1272  2.3609 -1.1798
 4790SOL     OW25831   4.202   1.297   5.825  0.6829  0.4190 -0.0476
 4790SOL    HW125832   4.226   1.205   5.820 -0.5817  0.1259 -0.6732
 4790SOL    HW225833   4.114   1.305   5.788  0.5283 -0.8353  0.0553
 4791SOL     OW25834   0.278   4.657  11.567 -0.0798 -0.5702  0.6997
 4791SOL    HW125835   0.363   4.618  11.590  0.6533  0.0619 -0.9403
 4791SOL    HW225836   0.223   4.630  11.641  1.2031 -0.7448  1.5954
 4792SOL     OW25837   3.677   4.715   3.709  0.3530  0.4332  0.5802
 4792SOL    HW125838   3.610   0.026   3.767  0.0374  0.8907 -0.0583
 4792SOL    HW225839   3.742   4.681   3.770  1.6634 -0.1201 -1.1242
 4793SOL     OW25840   0.420   2.347   8.348 -0.0989  0.3919  0.5916
 4793SOL    HW125841   0.415   2.404   8.425 -0.1414  1.5908 -0.2892
 4793SOL    HW225842   0.350   2.283   8.359  0.5270 -0.6839 -1.6919
 4794SOL     OW25843   1.102   1.191   3.428 -0.9128 -0.2322 -0.2754
 4794SOL    HW125844   1.125   1.249   3.355 -0.8961 -1.5162 -1.3085
 4794SOL    HW225845   1.189   1.171   3.460 -0.7958 -0.7737 -0.9253
 4795SOL     OW25846   4.014   4.691   7.439 -0.7334 -0.3095  0.1896
 4795SOL    HW125847   4.064   0.016   7.504  2.4391 -1.4670 -1.3171
 4795SOL    HW225848   4.061   4.713   7.358 -0.9581  1.8562  0.6394
 4796SOL     OW25849   3.230   4.114   8.077 -0.1011  0.0354 -0.0676
 4796SOL    HW125850   3.318   4.116   8.113  0.0705 -0.3097 -0.4611
 4796SOL    HW225851   3.179   4.101   8.157  0.3260  0.2541  0.2352
 4797SOL     OW25852   4.274   1.485   0.276 -1.1524 -0.1829  0.0535
 4797SOL    HW125853   4.236   1.553   0.222 -0.1150  0.0570 -0.3846
 4797SOL    HW225854   4.198   1.428   0.265 -0.1638 -1.7446  1.2390
 4798SOL     OW25855   2.905   1.164  13.003  0.0124 -0.2425 -0.1975
 4798SOL    HW125856   2.970   1.228  12.974 -0.6874  0.6279  0.1760
 4798SOL    HW225857   2.938   1.150  13.092 -0.0776 -0.8919 -0.2698
 4799SOL     OW25858   3.539   2.784  15.456 -0.1216 -0.9313  0.0477
 4799SOL    HW125859   3.586   2.860  15.491  2.0588 -2.3596  0.2122
 4799SOL    HW225860   3.595   2.767  15.380  2.5040  0.5662  1.6230
 4800SOL     OW25861   0.541   4.608   6.569  0.2333  0.0738 -0.0026
 4800SOL    HW125862   0.462   4.598   6.517 -0.2912 -2.7596  1.3611
 4800SOL    HW225863   0.517   4.686   6.618 -1.3476  0.5585 -1.5715
 4801SOL     OW25864   3.482   2.676  13.821  0.9052  0.0896  0.1747
 4801SOL    HW125865   3.456   2.730  13.746 -1.0209  0.6418  1.2452
 4801SOL    HW225866   3.414   2.698  13.885  0.5897 -1.5353  0.3872
 4802SOL     OW25867   2.976   4.466   3.198  0.6213  0.1802  0.0411
 4802SOL    HW125868   3.059   4.508   3.220 -0.1073  1.0251  1.1710
 4802SOL    HW225869   2.994   4.431   3.111  0.9600 -1.4350  0.7479
 4803SOL     OW25870   3.695   3.667  10.857 -0.4052 -0.4806  0.3320
 4803SOL    HW125871   3.613   3.627  10.885 -1.3659  1.5145  0.4070
 4803SOL    HW225872   3.713   3.732  10.925 -1.9529  1.8674 -1.5076
 4804SOL     OW25873   0.531   1.240  12.564  0.0297  0.1341 -0.6892
 4804SOL    HW125874   0.444   1.229  12.604 -0.1850 -0.1200 -1.2205
 4804SOL    HW225875   0.514   1.301  12.493 -2.2574  0.9975  0.5854
 4805SOL     OW25876   2.438   4.301   9.438 -0.1730 -0.2393 -0.1541
 4805SOL    HW125877   2.451   4.337   9.350  1.4447  2.5121  1.1961
 4805SOL    HW225878   2.520   4.324   9.482 -0.2381  0.8775 -0.6253
 4806SOL     OW25879   0.946   2.758   5.812  0.6147 -0.7201  0.3120
 4806SOL    HW125880   0.969   2.840   5.856  0.2285  0.3356 -1.4491
 4806SOL    HW225881   0.917   2.699   5.882 -1.0135  1.6171  1.6092
 4807SOL     OW25882   1.687   1.769   7.170 -0.4291 -0.3107  0.1080
 4807SOL    HW125883   1.664   1.686   7.213  0.7316 -0.4548  0.4324
 4807SOL    HW225884   1.770   1.740   7.132  0.3460  1.3282  0.5591
 4808SOL     OW25885   4.301   1.273   3.978 -0.3803 -0.3625  0.5441
 4808SOL    HW125886   4.285   1.211   4.049 -3.1939 -0.4827 -0.1826
 4808SOL    HW225887   4.370   1.224   3.934  1.2717  0.4511  2.1966
 4809SOL     OW25888   1.839   0.753   8.803  0.1084  0.2392  0.0252
 4809SOL    HW125889   1.782   0.702   8.861 -1.0315 -0.0342 -1.3247
 4809SOL    HW225890   1.901   0.784   8.869  0.4454 -0.4619  0.0498
 4810SOL     OW25891   4.678   1.986   6.214 -0.1493 -0.7306  0.1908
 4810SOL    HW125892   4.691   2.019   6.303 -1.6525 -1.8380  0.8305
 4810SOL    HW225893   0.047   1.990   6.193  0.3029 -0.7321  2.2203
 4811SOL     OW25894   2.145   2.400  12.719 -0.2905  0.5631 -0.6480
 4811SOL    HW125895   2.116   2.325  12.771 -1.9665  2.2302  0.8171
 4811SOL    HW225896   2.060   2.430  12.688  0.1344  0.6332 -1.7407
 4812SOL     OW25897   0.362   1.055   3.497 -0.1435 -0.1407  0.8317
 4812SOL    HW125898   0.350   1.036   3.404  1.9379 -2.8866  1.1062
 4812SOL    HW225899   0.292   1.117   3.514 -0.2624  0.2746 -1.1651
 4813SOL     OW25900   3.689   1.372   6.501 -0.0996 -0.4564 -0.2227
 4813SOL    HW125901   3.646   1.286   6.496  0.5241 -0.7048 -1.4062
 4813SOL    HW225902   3.759   1.362   6.566  0.7486  2.3311 -0.7310
 4814SOL     OW25903   4.371   0.132   5.581 -0.5358  0.7843 -0.2475
 4814SOL    HW125904   4.358   0.216   5.538  1.9559  0.8866 -0.8083
 4814SOL    HW225905   4.435   0.086   5.526  1.7738  0.9359  2.3136
 4815SOL     OW25906   2.275   1.334   2.269 -0.9811 -0.5117  0.0929
 4815SOL    HW125907   2.251   1.305   2.357  0.4940 -1.3244  0.2202
 4815SOL    HW225908   2.365   1.361   2.286 -0.1983 -0.4747 -4.2083
 4816SOL     OW25909   4.266   1.962   7.942 -0.5197  0.0133  0.2006
 4816SOL    HW125910   4.342   1.913   7.911 -0.9551 -0.9338  0.6257
 4816SOL    HW225911   4.291   2.039   7.892  4.1123 -1.1853  0.6291
 4817SOL     OW25912   0.665   1.928  13.293  0.8670 -0.2323 -0.0206
 4817SOL    HW125913   0.690   1.931  13.385  0.3196 -0.7603  0.1366
 4817SOL    HW225914   0.596   1.863  13.301  0.8165 -0.2644 -0.6864
 4818SOL     OW25915   0.403   3.947   2.598  0.5936 -0.1714  0.0821
 4818SOL    HW125916   0.433   3.989   2.516 -1.1183  0.7004 -0.0994
 4818SOL    HW225917   0.308   3.940   2.607  0.7262  0.7881  2.0925
 4819SOL     OW25918   4.000   0.494   3.633 -0.1710 -0.5731 -0.2772
 4819SOL    HW125919   3.945   0.484   3.555  0.5265  1.7960 -1.0591
 4819SOL    HW225920   3.937   0.457   3.695  0.0329 -0.0186  0.2587
 4820SOL     OW25921   3.960   4.258   3.435  0.0670  0.1803  0.3998
 4820SOL    HW125922   3.888   4.239   3.495  1.9165 -1.6586  2.0352
 4820SOL    HW225923   3.926   4.346   3.416  0.7472  0.4743  0.5463
 4821SOL     OW25924   0.189   3.042   3.317 -0.2696  0.7616  0.0706
 4821SOL    HW125925   0.181   3.008   3.228  1.7077  0.7445 -0.0979
 4821SOL    HW225926   0.267   3.098   3.314  1.2284 -1.2942  0.1635
 4822SOL     OW25927   1.721   3.288   6.094  0.0901  0.3999 -0.1142
 4822SOL    HW125928   1.760   3.202   6.077 -1.7830  0.3500 -4.2429
 4822SOL    HW225929   1.708   3.291   6.189 -0.7904 -0.9028 -0.2046
 4823SOL     OW25930   3.292   0.097   3.041 -0.1128  0.1988  0.2654
 4823SOL    HW125931   3.257   0.078   2.954 -1.9855 -0.0428  1.0493
 4823SOL    HW225932   3.216   0.140   3.082  0.0504  1.1139 -0.4233
 4824SOL     OW25933   4.473   1.969   6.510  0.2456  0.1817 -0.5633
 4824SOL    HW125934   4.562   1.946   6.536  0.3414 -1.2582 -2.1952
 4824SOL    HW225935   4.474   1.920   6.427 -0.3791  2.1711 -1.7449
 4825SOL     OW25936   2.684   0.077  11.193 -0.3730 -0.4996 -0.5928
 4825SOL    HW125937   2.769   0.106  11.226 -2.0945  0.8887  2.6440
 4825SOL    HW225938   2.683   4.706  11.207  0.6900 -0.1391  1.9710
 4826SOL     OW25939   1.811   2.045   9.811  0.0573  0.1578  0.6020
 4826SOL    HW125940   1.832   2.117   9.870  0.6116 -0.0098  0.6141
 4826SOL    HW225941   1.774   1.983   9.874  1.3179 -1.3910 -0.1551
 4827SOL     OW25942   4.717   0.500  12.469 -0.5390  0.1024  0.4677
 4827SOL    HW125943   4.698   0.578  12.522 -2.0907 -1.1505  1.7623
 4827SOL    HW225944   0.050   0.530  12.399 -1.3091 -2.0455 -1.0686
 4828SOL     OW25945   1.568   0.195   3.625 -0.5193  0.2592  0.0975
 4828SOL    HW125946   1.644   0.138   3.637 -1.7764 -0.7774  3.2375
 4828SOL    HW225947   1.496   0.139   3.655 -0.3886 -1.0388 -1.9562
 4829SOL     OW25948   0.132   3.522   5.718 -0.5138  0.0009  0.2534
 4829SOL    HW125949   0.072   3.462   5.674  1.1563 -0.1729 -1.7549
 4829SOL    HW225950   0.209   3.467   5.707  1.0809  2.2219  0.2824
 4830SOL     OW25951   3.397   1.936   1.639 -0.5535 -0.3440  0.3215
 4830SOL    HW125952   3.384   1.855   1.589 -3.7703  0.7946 -0.6411
 4830SOL    HW225953   3.462   1.911   1.705 -1.2177 -1.4755  0.5544
 4831SOL     OW25954   4.026   4.209   3.983  0.0478  0.2214  0.1452
 4831SOL    HW125955   3.951   4.205   3.924  1.4714 -1.2535 -1.5743
 4831SOL    HW225956   4.094   4.249   3.928  1.8989 -1.6081  1.0646
 4832SOL     OW25957   2.743   4.194   3.154  0.0411  0.0070 -0.2808
 4832SOL    HW125958   2.744   4.280   3.197 -0.2981  0.8172 -1.8571
 4832SOL    HW225959   2.676   4.213   3.088  0.8479  3.4590 -0.1249
 4833SOL     OW25960   1.018   2.364   4.016  0.0923  0.2698  0.5866
 4833SOL    HW125961   1.109   2.389   4.029 -0.3084  1.5365  0.9484
 4833SOL    HW225962   1.015   2.284   4.068  1.9404 -0.7178 -0.8554
 4834SOL     OW25963   0.636   0.478   6.291  0.4128  0.0425 -0.1816
 4834SOL    HW125964   0.621   0.558   6.341 -1.9742  0.0205 -0.8670
 4834SOL    HW225965   0.626   0.500   6.198  1.5333 -0.5977 -0.4650
 4835SOL     OW25966   2.707   3.208   3.502  0.2137  0.4994  0.1291
 4835SOL    HW125967   2.742   3.245   3.422  0.0323  2.9363  1.1850
 4835SOL    HW225968   2.790   3.195   3.547 -0.4211 -0.9345  0.9053
 4836SOL     OW25969   2.190   0.415   1.198  0.4775  0.1932 -0.3337
 4836SOL    HW125970   2.199   0.383   1.288  2.2205  2.5642  0.3187
 4836SOL    HW225971   2.161   0.505   1.214 -3.0932 -1.0920  0.4228
 4837SOL     OW25972   2.913   3.479   4.348  0.3324  0.3365  0.3748
 4837SOL    HW125973   2.935   3.456   4.438  1.5733 -1.6545 -0.4532
 4837SOL    HW225974   2.913   3.575   4.343  1.0578  0.3727  1.1427
 4838SOL     OW25975   0.830   3.655   2.875 -0.3040 -0.0126 -0.0597
 4838SOL    HW125976   0.777   3.677   2.952 -2.1159 -0.8991 -1.0823
 4838SOL    HW225977   0.902   3.717   2.888 -0.3026 -0.3251  1.5223
 4839SOL     OW25978   2.255   1.540   3.577  0.0492  0.6628 -0.1398
 4839SOL    HW125979   2.332   1.573   3.531 -0.5089  0.2304 -1.3649
 4839SOL    HW225980   2.250   1.447   3.557 -1.7019 -0.2005  4.2458
 4840SOL     OW25981   2.259   1.239  12.542  0.4092  0.6062  0.1330
 4840SOL    HW125982   2.333   1.253  12.601  0.7034 -0.9977  0.1632
 4840SOL    HW225983   2.271   1.159  12.490  1.3077 -0.0584  1.3696
 4841SOL     OW25984   2.299   0.929   7.998 -0.1015  0.1677  0.3744
 4841SOL    HW125985   2.309   0.857   7.935  0.5201  0.0700  0.5827
 4841SOL    HW225986   2.391   0.947   8.016 -0.2621  1.3902 -0.0569
 4842SOL     OW25987   4.517   2.789   8.165  0.2575 -0.1781 -1.1728
 4842SOL    HW125988   4.596   2.810   8.114  1.1862 -1.5460 -0.3110
 4842SOL    HW225989   4.560   2.737   8.233 -0.6298 -1.6990 -1.7974
 4843SOL     OW25990   3.125   0.583   8.421  0.5125 -0.3723 -0.1356
 4843SOL    HW125991   3.113   0.676   8.437  2.2081 -0.6441  2.6906
 4843SOL    HW225992   3.086   0.538   8.496 -2.7914  0.2237 -1.4829
 4844SOL     OW25993   0.774   3.662   4.298  0.2285  0.3927  0.2177
 4844SOL    HW125994   0.795   3.683   4.207  0.5238 -0.8301  0.0029
 4844SOL    HW225995   0.679   3.675   4.310 -0.1287 -1.1074 -1.0387
 4845SOL     OW25996   2.646   0.126  15.271 -0.0609 -0.0477  0.0886
 4845SOL    HW125997   2.615   0.110  15.360  1.0703 -0.3129  0.4381
 4845SOL    HW225998   2.730   0.165  15.292  1.1746 -2.3738 -0.4870
 4846SOL     OW25999   4.552   1.499  12.660  0.6249 -0.5249 -0.2895
 4846SOL    HW126000   4.582   1.573  12.607  0.1772 -1.1443 -1.4066
 4846SOL    HW226001   4.472   1.536  12.698  0.9949 -2.2477  2.2069
 4847SOL     OW26002   1.473   0.731   7.166 -0.6325 -0.6784 -0.0505
 4847SOL    HW126003   1.474   0.729   7.071  0.0664  4.4116 -0.1706
 4847SOL    HW226004   1.563   0.729   7.198 -0.6536  1.1093  0.1484
 4848SOL     OW26005   1.782   2.122  15.210 -0.5880  0.3365 -0.1807
 4848SOL    HW126006   1.790   2.192  15.146  2.5825 -0.2619 -0.4430
 4848SOL    HW226007   1.872   2.121  15.244 -0.8480 -1.0235  0.4669
 4849SOL     OW26008   1.070   4.359   5.830 -0.0794 -0.1592  0.9871
 4849SOL    HW126009   1.160   4.368   5.801 -0.7068 -1.5993 -1.3798
 4849SOL    HW226010   1.023   4.396   5.755  1.7441  1.4200  0.6202
 4850SOL     OW26011   4.132   3.311   6.373 -0.7227 -0.0838 -0.3677
 4850SOL    HW126012   4.071   3.268   6.433 -0.2399 -1.1935 -0.6773
 4850SOL    HW226013   4.107   3.256   6.299 -2.6561 -0.2170  0.3975
 4851SOL     OW26014   1.535   3.881   8.241  0.0976 -0.2960  0.0265
 4851SOL    HW126015   1.619   3.838   8.223  0.0285 -1.6185  2.8197
 4851SOL    HW226016   1.486   3.812   8.196 -0.1802  0.8166 -1.3659
 4852SOL     OW26017   1.151   0.345   3.683 -0.4144  0.0031 -0.1475
 4852SOL    HW126018   1.091   0.270   3.688 -1.3300  0.6990 -0.5845
 4852SOL    HW226019   1.211   0.321   3.753  1.0230 -0.7430 -1.6178
 4853SOL     OW26020   1.606   1.636   6.064 -0.2561 -0.2800 -0.4241
 4853SOL    HW126021   1.601   1.732   6.059 -2.2850 -0.2301  2.3542
 4853SOL    HW226022   1.566   1.608   5.982  0.9524 -1.0529 -0.7510
 4854SOL     OW26023   3.354   1.868  14.654  0.8825 -0.3863  0.2937
 4854SOL    HW126024   3.305   1.843  14.575 -1.0468  2.0886  0.7186
 4854SOL    HW226025   3.443   1.838  14.633  1.1056  0.4113  0.0977
 4855SOL     OW26026   4.235   4.429  15.834 -0.3889 -0.0051 -0.3412
 4855SOL    HW126027   4.194   4.485  15.900 -0.4338 -0.9528  0.4288
 4855SOL    HW226028   4.326   4.460  15.834 -0.3721 -0.0619  0.0913
 4856SOL     OW26029   0.163   0.312   1.177  0.1619 -0.2314  0.1431
 4856SOL    HW126030   0.091   0.289   1.236  0.3125 -2.5133 -0.5840
 4856SOL    HW226031   0.139   0.289   1.088  2.5274  0.1581 -0.6125
 4857SOL     OW26032   0.832   0.476   6.753  0.0301  0.5167  0.1213
 4857SOL    HW126033   0.776   0.554   6.763 -0.1050  0.8069 -3.0916
 4857SOL    HW226034   0.789   0.438   6.677  2.2836 -0.9214 -0.4224
 4858SOL     OW26035   4.078   3.105   3.871 -0.5061 -0.6678 -0.4758
 4858SOL    HW126036   4.146   3.119   3.936 -3.0684  1.2824  1.7391
 4858SOL    HW226037   4.048   3.022   3.907 -0.9378  1.1273  3.2831
 4859SOL     OW26038   2.175   1.302   3.339  0.1131 -0.2198  0.1558
 4859SOL    HW126039   2.243   1.248   3.379  0.0433  1.0049  1.9769
 4859SOL    HW226040   2.118   1.232   3.307 -0.1100  1.0025 -2.1263
 4860SOL     OW26041   1.526   3.764   9.898  0.1281 -0.0078 -0.1814
 4860SOL    HW126042   1.617   3.769   9.929  0.2375 -2.3810 -0.1677
 4860SOL    HW226043   1.493   3.707   9.967 -1.9360  0.6856 -0.6108
 4861SOL     OW26044   0.177   0.809  12.717 -0.2024 -0.0535  0.3444
 4861SOL    HW126045   0.263   0.850  12.723  0.1014 -0.7692  0.8271
 4861SOL    HW226046   0.206   0.748  12.650  4.4260 -2.0995  4.2354
 4862SOL     OW26047   2.832   3.833   2.482 -0.2888 -0.2166 -0.2643
 4862SOL    HW126048   2.921   3.828   2.447 -0.3715 -0.7527 -0.4062
 4862SOL    HW226049   2.825   3.927   2.499 -2.9444 -0.2445 -1.2545
 4863SOL     OW26050   2.466   0.082   4.032  0.3191  1.0611 -0.3290
 4863SOL    HW126051   2.546   0.073   3.980  0.7135  0.5709  0.3562
 4863SOL    HW226052   2.420   4.724   4.015  1.8328  0.4970 -1.5941
 4864SOL     OW26053   4.346   3.939  15.176  0.1416  0.1016  0.6715
 4864SOL    HW126054   4.369   3.975  15.262  0.0224 -0.9595  1.1489
 4864SOL    HW226055   4.387   3.854  15.192  0.3452  0.0169 -0.3459
 4865SOL     OW26056   2.443   2.104   4.185 -0.1172 -0.1737 -0.2750
 4865SOL    HW126057   2.456   2.019   4.227 -0.6081 -0.0582  0.1101
 4865SOL    HW226058   2.347   2.108   4.188 -0.0462  1.3792  0.0948
 4866SOL     OW26059   3.126   4.379   1.196 -0.3319 -0.0667  0.8683
 4866SOL    HW126060   3.063   4.352   1.129  0.8394 -1.5784  0.3724
 4866SOL    HW226061   3.213   4.371   1.157 -1.0088  0.2879 -0.7130
 4867SOL     OW26062   0.596   3.009   4.192  0.1763  0.3614  0.7416
 4867SOL    HW126063   0.667   2.974   4.139 -0.1318  1.2068 -0.2278
 4867SOL    HW226064   0.627   3.056   4.269  0.2465  0.2564  0.7776
 4868SOL     OW26065   4.084   4.447   6.017 -0.2631 -0.0535 -0.2326
 4868SOL    HW126066   4.042   4.364   5.994  0.2834 -0.2267 -0.6045
 4868SOL    HW226067   4.014   4.488   6.068  0.2684  0.2686  0.2404
 4869SOL     OW26068   4.535   4.160  11.543  0.5691  0.0721  0.4113
 4869SOL    HW126069   4.515   4.184  11.634 -0.3938  1.3573 -0.1429
 4869SOL    HW226070   4.582   4.239  11.516  1.1781 -0.0776  1.0218
 4870SOL     OW26071   3.321   3.020   4.324  0.0533  0.1689 -0.1457
 4870SOL    HW126072   3.247   2.980   4.369 -0.5500  1.5947  0.1256
 4870SOL    HW226073   3.277   3.083   4.267  0.3656 -1.6660 -2.4141
 4871SOL     OW26074   3.546   2.080  15.017 -0.7387 -0.4344 -0.1940
 4871SOL    HW126075   3.544   2.106  14.925 -2.0519  0.9108  0.2119
 4871SOL    HW226076   3.628   2.121  15.045 -1.2733  1.4275 -1.3294
 4872SOL     OW26077   3.968   0.442  16.465  0.2565  0.0971 -0.1857
 4872SOL    HW126078   3.964   0.466  16.558  1.7554  1.2169 -0.3946
 4872SOL    HW226079   4.047   0.493  16.443  0.9591 -1.1846 -0.6044
 4873SOL     OW26080   4.239   4.706   9.396 -0.0309  0.1496  0.1626
 4873SOL    HW126081   4.212   4.636   9.336  1.8862 -2.5389  2.4456
 4873SOL    HW226082   4.302   4.649   9.440 -0.1175  0.1294  0.2602
 4874SOL     OW26083   4.197   1.912   6.954 -0.1884 -0.0237 -0.3768
 4874SOL    HW126084   4.160   1.994   6.986 -1.7990 -1.5813  1.8134
 4874SOL    HW226085   4.199   1.925   6.859  2.2257  2.9645  0.1106
 4875SOL     OW26086   1.415   1.819   3.881  0.1899 -0.0992 -0.0573
 4875SOL    HW126087   1.454   1.898   3.920 -0.9799  1.2033 -1.5061
 4875SOL    HW226088   1.483   1.754   3.894  0.0553 -0.1285  0.5185
 4876SOL     OW26089   2.655   0.292   2.363  0.5238  0.0747  0.0564
 4876SOL    HW126090   2.708   0.214   2.381 -0.9003 -1.0072 -0.4778
 4876SOL    HW226091   2.575   0.261   2.406  0.8738  0.2191  0.8059
 4877SOL     OW26092   0.293   1.111   5.859 -0.2784 -0.0418  0.3803
 4877SOL    HW126093   0.228   1.049   5.892  0.7839 -0.8884  0.8915
 4877SOL    HW226094   0.252   1.130   5.775 -0.2501  1.5681  0.7399
 4878SOL     OW26095   3.949   4.533   5.066  0.1591  0.1006  0.0862
 4878SOL    HW126096   4.037   4.496   5.057 -0.4312 -1.3254  0.0809
 4878SOL    HW226097   3.912   4.499   4.984 -0.3800 -0.1631  0.4395
 4879SOL     OW26098   1.381   3.304   8.352 -0.2471  0.2843 -0.3531
 4879SOL    HW126099   1.317   3.269   8.414 -0.3894 -1.0298 -1.2337
 4879SOL    HW226100   1.316   3.333   8.287 -1.1497 -2.3435 -0.6026
 4880SOL     OW26101   3.556   1.812   2.698 -0.4767  0.0106 -0.3971
 4880SOL    HW126102   3.525   1.730   2.738  0.1843  0.2090  0.5054
 4880SOL    HW226103   3.481   1.864   2.671 -0.3808  0.3166 -0.0659
 4881SOL     OW26104   3.946   3.687   8.081 -0.1721  0.3988  0.6859
 4881SOL    HW126105   3.990   3.603   8.070 -1.6163  0.1358 -3.2525
 4881SOL    HW226106   3.854   3.667   8.093 -0.4192  0.7251 -0.7079
 4882SOL     OW26107   3.728   4.319   3.632 -0.3023  0.6949  0.2900
 4882SOL    HW126108   3.764   4.272   3.707 -1.5013 -0.0369  0.4047
 4882SOL    HW226109   3.646   4.271   3.618  0.2381  0.2173 -1.2081
 4883SOL     OW26110   0.567   3.037   3.073 -0.1206 -0.1287  0.8549
 4883SOL    HW126111   0.475   3.018   3.089  0.4479 -3.0598  0.6462
 4883SOL    HW226112   0.594   2.960   3.022  0.1204  0.7982 -0.4190
 4884SOL     OW26113   0.894   4.106   8.677  0.1725  0.4106 -0.5490
 4884SOL    HW126114   0.928   4.123   8.589  0.6055 -2.5915 -0.9752
 4884SOL    HW226115   0.829   4.038   8.659 -2.1050  2.3460  0.3568
 4885SOL     OW26116   1.421   0.731   4.421  0.1012 -0.0193 -0.2886
 4885SOL    HW126117   1.371   0.798   4.375 -0.0358  0.7005  0.9105
 4885SOL    HW226118   1.424   0.771   4.508 -2.5212 -0.8956  0.2251
 4886SOL     OW26119   2.846   4.173  15.970 -0.1175 -0.0519 -0.2741
 4886SOL    HW126120   2.779   4.239  15.952  1.0160  2.2575  4.0770
 4886SOL    HW226121   2.802   4.094  15.940 -2.9317  1.1540  0.6791
 4887SOL     OW26122   0.988   3.349   2.421 -0.1316 -0.4370 -0.3059
 4887SOL    HW126123   1.027   3.384   2.341 -1.0341  0.1006 -0.5148
 4887SOL    HW226124   0.913   3.409   2.425 -1.1994 -1.8297  0.5810
 4888SOL     OW26125   0.445   0.848   9.567  0.1393 -0.2438  0.5060
 4888SOL    HW126126   0.474   0.939   9.555 -2.9481  0.7613  0.7883
 4888SOL    HW226127   0.354   0.862   9.544 -0.1072 -0.4675  1.3571
 4889SOL     OW26128   3.757   3.571  11.220  0.5410  0.3445 -0.3320
 4889SOL    HW126129   3.757   3.631  11.295 -1.4610  0.9297 -0.7863
 4889SOL    HW226130   3.662   3.561  11.210  0.6219  0.3955 -1.1213
 4890SOL     OW26131   2.169   4.489   7.903  0.0607 -0.4129 -0.5655
 4890SOL    HW126132   2.240   4.461   7.845 -1.3361 -0.6456 -2.1773
 4890SOL    HW226133   2.222   4.537   7.966 -1.7861  0.4764  0.3046
 4891SOL     OW26134   3.776   2.890   7.568  0.1412  0.2029 -0.6419
 4891SOL    HW126135   3.707   2.862   7.508 -2.0871  2.7210  0.7604
 4891SOL    HW226136   3.795   2.804   7.605  0.6902  0.5636 -0.0811
 4892SOL     OW26137   2.521   0.915  12.445  0.3747 -0.1632 -0.8728
 4892SOL    HW126138   2.579   0.846  12.411 -1.8495 -1.2806 -2.3993
 4892SOL    HW226139   2.594   0.964  12.482 -0.7378 -0.0554  1.1354
 4893SOL     OW26140   3.810   3.834   4.411 -0.3148 -0.2078 -0.2192
 4893SOL    HW126141   3.765   3.749   4.419  0.1687 -0.2247  2.2115
 4893SOL    HW226142   3.895   3.820   4.370 -0.1114 -0.4383  0.2799
 4894SOL     OW26143   0.145   0.223   9.794  0.0704  0.1570  0.1494
 4894SOL    HW126144   0.177   0.258   9.711 -0.4278  0.1665 -0.0353
 4894SOL    HW226145   0.212   0.161   9.826  0.4558 -1.2029 -3.2603
 4895SOL     OW26146   1.700   0.446   1.194 -0.5640  0.3000  0.4688
 4895SOL    HW126147   1.767   0.380   1.175 -3.5777 -2.3971 -0.5924
 4895SOL    HW226148   1.685   0.482   1.106 -0.8203 -1.4455 -0.2044
 4896SOL     OW26149   0.272   3.739   4.168  0.1599  0.2104  1.0190
 4896SOL    HW126150   0.197   3.705   4.216  0.5492 -0.4214  1.1778
 4896SOL    HW226151   0.276   3.677   4.096  0.3843  1.3695  0.0230
 4897SOL     OW26152   0.129   1.842  12.527  0.1435 -0.4725 -0.0512
 4897SOL    HW126153   0.216   1.821  12.491 -0.2856 -1.7026 -0.3892
 4897SOL    HW226154   0.136   1.934  12.552 -1.6001  0.5285 -3.1953
 4898SOL     OW26155   4.061   3.046   5.995 -0.2251  0.3412  0.4566
 4898SOL    HW126156   4.062   2.954   5.969  3.4515  1.2083 -2.5875
 4898SOL    HW226157   4.124   3.046   6.067  1.0703  0.9008 -0.6793
 4899SOL     OW26158   2.028   3.624   1.659 -0.1961 -0.0099  0.4520
 4899SOL    HW126159   2.105   3.682   1.656 -0.0002 -0.2174  1.3234
 4899SOL    HW226160   2.066   3.543   1.691  0.4307  0.7677  1.6933
 4900SOL     OW26161   3.485   2.162   7.636  0.0562  0.0622 -0.3813
 4900SOL    HW126162   3.474   2.067   7.644 -0.8422  0.1445 -0.5543
 4900SOL    HW226163   3.507   2.186   7.726 -0.6424 -0.5933 -0.0375
 4901SOL     OW26164   0.666   1.109   2.054  0.0149  0.3054  0.5626
 4901SOL    HW126165   0.718   1.112   1.974  0.4681  0.3193  0.8554
 4901SOL    HW226166   0.589   1.059   2.024  1.1897 -1.3071  0.2318
 4902SOL     OW26167   4.264   4.375  12.482  0.3174 -0.0822 -0.1496
 4902SOL    HW126168   4.287   4.465  12.503  1.6455 -0.6065  0.7273
 4902SOL    HW226169   4.264   4.330  12.567 -2.1912 -1.7996 -1.0616
 4903SOL     OW26170   1.635   3.342   2.535  0.1804  0.1601 -0.4492
 4903SOL    HW126171   1.706   3.390   2.578  0.6488 -1.9017  1.1116
 4903SOL    HW226172   1.682   3.313   2.457  0.1489 -1.3725  0.0998
 4904SOL     OW26173   2.085   2.038   6.840  0.0122 -0.4923 -0.0247
 4904SOL    HW126174   2.029   2.114   6.826 -0.2184 -0.7283 -0.3632
 4904SOL    HW226175   2.082   1.980   6.764  1.9148 -0.8481  0.1796
 4905SOL     OW26176   0.876   2.833   4.778  0.1576  0.0161  0.3428
 4905SOL    HW126177   0.835   2.879   4.705  0.2547 -0.5914 -0.0948
 4905SOL    HW226178   0.965   2.844   4.743  0.2099 -1.2366  0.1074
 4906SOL     OW26179   3.510   2.913   4.511 -0.1420  0.0102 -0.8703
 4906SOL    HW126180   3.456   2.940   4.437  0.9652  2.3471 -0.8315
 4906SOL    HW226181   3.536   2.830   4.471 -1.0685 -0.7871  0.1584
 4907SOL     OW26182   0.006   1.587   8.358  0.1960  0.7619 -0.3635
 4907SOL    HW126183   4.721   1.638   8.278  1.2619  0.0796 -0.9184
 4907SOL    HW226184   4.689   1.650   8.417  0.4214  0.8881 -0.3443
 4908SOL     OW26185   2.544   0.381   8.016 -0.1266  0.4681 -0.0370
 4908SOL    HW126186   2.626   0.386   7.968  0.4126 -1.3692  0.6912
 4908SOL    HW226187   2.553   0.440   8.091  1.9243 -0.2812  0.3009
 4909SOL     OW26188   3.329   3.197   5.537  0.2718  0.1494  0.1272
 4909SOL    HW126189   3.241   3.203   5.572  0.1329  0.2149 -0.2315
 4909SOL    HW226190   3.335   3.282   5.494 -0.8783 -1.3621 -3.0427
 4910SOL     OW26191   2.885   4.175  16.539  0.3293 -0.2192  0.1946
 4910SOL    HW126192   2.958   4.114  16.554  0.8127 -0.1715 -1.9229
 4910SOL    HW226193   2.911   4.210  16.454 -3.1629  0.8839 -0.4138
 4911SOL     OW26194   1.388   1.484   3.392 -0.0075 -0.3463  0.6159
 4911SOL    HW126195   1.365   1.576   3.398  0.2304 -0.0416 -2.7760
 4911SOL    HW226196   1.311   1.445   3.350 -0.7190 -0.2051  1.7895
 4912SOL     OW26197   3.086   3.248   8.715 -0.1951  0.3175 -0.4513
 4912SOL    HW126198   3.094   3.313   8.644  0.7634 -1.0712 -1.6190
 4912SOL    HW226199   2.991   3.242   8.710 -0.1029 -2.0183  0.7649
 4913SOL     OW26200   4.025   0.700   5.866  0.0508 -0.1113  0.5880
 4913SOL    HW126201   3.971   0.640   5.918 -0.2012 -0.1079  0.3275
 4913SOL    HW226202   3.993   0.786   5.893 -1.9709 -0.7080  0.1181
 4914SOL     OW26203   1.027   0.734   4.265 -0.4032 -0.3798 -0.0406
 4914SOL    HW126204   0.937   0.733   4.232 -0.3809  0.0349 -0.1150
 4914SOL    HW226205   1.027   0.798   4.336  1.2260  0.0935 -0.4740
 4915SOL     OW26206   3.348   1.228   3.078  0.1074 -0.2151  0.0744
 4915SOL    HW126207   3.328   1.292   3.146  2.0510  0.9198 -0.4078
 4915SOL    HW226208   3.300   1.151   3.108 -1.7511  0.4119 -1.2538
 4916SOL     OW26209   2.199   0.811   4.220  0.6206 -0.4476 -0.0269
 4916SOL    HW126210   2.206   0.896   4.178 -1.6588 -1.0808 -1.6872
 4916SOL    HW226211   2.106   0.795   4.203  0.4632  1.3431 -0.7556
 4917SOL     OW26212   4.303   0.348   5.145 -0.1408 -0.0026  0.0272
 4917SOL    HW126213   4.315   0.343   5.050  1.5000  1.3163  0.1562
 4917SOL    HW226214   4.271   0.259   5.164  2.4728 -0.9963 -0.2188
 4918SOL     OW26215   3.670   1.570   7.564  0.0332  0.1820 -0.2006
 4918SOL    HW126216   3.758   1.568   7.526  0.1917  0.7488  0.1383
 4918SOL    HW226217   3.683   1.515   7.641 -0.6440 -0.4725 -0.5577
 4919SOL     OW26218   1.914   2.585   9.495  0.4168  0.2979 -0.0032
 4919SOL    HW126219   1.843   2.649   9.502  1.7683  1.8375 -0.0958
 4919SOL    HW226220   1.871   2.510   9.454  2.0121 -1.0622  0.8222
 4920SOL     OW26221   2.175   0.151   7.051 -0.5638  0.1117 -0.0098
 4920SOL    HW126222   2.155   0.223   7.111 -0.1625  0.9778 -0.8980
 4920SOL    HW226223   2.132   0.079   7.096 -3.4515  2.1264  0.4519
 4921SOL     OW26224   2.953   1.946   4.703  0.0866 -0.0964 -0.3523
 4921SOL    HW126225   2.944   1.979   4.792 -0.8343 -2.6510  0.4939
 4921SOL    HW226226   2.869   1.907   4.680  0.0149  0.8771 -1.7745
 4922SOL     OW26227   4.039   0.052   4.886 -0.3873 -0.4248  0.0843
 4922SOL    HW126228   4.113   4.721   4.860 -0.2321 -0.8096  1.3296
 4922SOL    HW226229   4.024   0.099   4.804 -1.6170  0.6897  0.9355
 4923SOL     OW26230   2.405   1.686   2.303  0.1570 -0.2704 -0.2277
 4923SOL    HW126231   2.413   1.759   2.364  0.4820 -0.7250  0.2712
 4923SOL    HW226232   2.311   1.678   2.288  0.3267  1.0313 -1.9661
 4924SOL     OW26233   3.957   4.033   7.509  0.3653  0.4447  0.1478
 4924SOL    HW126234   3.922   3.959   7.459 -0.4413  1.1334 -0.3155
 4924SOL    HW226235   4.024   4.061   7.447  1.0295  4.0323  2.4873
 4925SOL     OW26236   2.504   1.052   7.425 -0.7481  0.2894 -0.0462
 4925SOL    HW126237   2.445   1.126   7.441 -1.6671 -0.5643  0.5316
 4925SOL    HW226238   2.548   1.039   7.509  3.0863 -0.4382 -2.1835
 4926SOL     OW26239   3.148   4.611   6.578 -0.9748 -0.3101 -0.4708
 4926SOL    HW126240   3.061   4.612   6.538 -0.5629 -2.1199 -1.3812
 4926SOL    HW226241   3.160   4.517   6.592 -0.6033  0.3582  3.7995
 4927SOL     OW26242   0.364   2.634   4.380 -0.2284 -0.3448 -0.2019
 4927SOL    HW126243   0.362   2.586   4.463  1.0729  0.0153  0.0264
 4927SOL    HW226244   0.291   2.592   4.335  0.8953 -1.4495 -0.9993
 4928SOL     OW26245   2.701   1.713   4.136 -0.9176  0.6443  0.0279
 4928SOL    HW126246   2.681   1.622   4.159 -1.4210  1.3181  2.3015
 4928SOL    HW226247   2.625   1.752   4.178 -0.1744  2.3255 -0.1824
 4929SOL     OW26248   1.794   3.889   8.801  0.2255 -0.1235  0.4375
 4929SOL    HW126249   1.831   3.917   8.885  0.6365  1.2649 -0.2036
 4929SOL    HW226250   1.819   3.967   8.751  1.4546 -2.1973 -2.2052
 4930SOL     OW26251   4.532   2.296   1.319 -0.3118  0.5533 -0.2275
 4930SOL    HW126252   4.585   2.262   1.247  1.4497  1.5592  0.6051
 4930SOL    HW226253   4.585   2.294   1.399 -0.2231  0.3227 -0.2907
 4931SOL     OW26254   3.640   1.258  15.309  0.3145 -0.1614  0.0781
 4931SOL    HW126255   3.594   1.199  15.369 -3.2436  0.4584 -2.0601
 4931SOL    HW226256   3.684   1.195  15.253 -0.5681  1.2499 -2.1921
 4932SOL     OW26257   0.849   1.110   7.099  0.0415 -0.2145 -0.1170
 4932SOL    HW126258   0.802   1.120   7.182 -2.9388 -2.2233 -1.5591
 4932SOL    HW226259   0.938   1.130   7.127  0.1210 -1.1342  0.2824
 4933SOL     OW26260   3.187   2.189  13.887 -0.1264  0.3878  0.3642
 4933SOL    HW126261   3.127   2.116  13.870 -1.1084  1.3402 -0.3103
 4933SOL    HW226262   3.175   2.201  13.981  0.1858 -0.1262  0.4682
 4934SOL     OW26263   1.407   3.777   9.611 -0.1995  0.1606 -0.0666
 4934SOL    HW126264   1.386   3.870   9.614 -3.9781 -0.6762 -0.0771
 4934SOL    HW226265   1.463   3.764   9.687 -0.4485 -1.2221 -0.1094
 4935SOL     OW26266   3.818   1.557  17.677  0.3776 -0.2721 -0.5565
 4935SOL    HW126267   3.789   1.635  17.629 -0.3623  0.3868  0.9802
 4935SOL    HW226268   3.756   1.548   0.050  1.2218 -1.0386  0.0721
 4936SOL     OW26269   0.971   0.584   2.620  0.0913  0.0631 -0.3044
 4936SOL    HW126270   1.007   0.648   2.559 -1.1253  2.5993  1.6200
 4936SOL    HW226271   1.039   0.517   2.613  0.3259  0.2881 -0.1621
 4937SOL     OW26272   3.737   1.820  14.996 -0.5006  0.6329  0.2338
 4937SOL    HW126273   3.766   1.734  15.027  0.0923  0.6298 -0.3151
 4937SOL    HW226274   3.648   1.792  14.977 -0.6739  2.8912 -2.3603
 4938SOL     OW26275   2.802   2.905   2.736  0.5340  0.0360  0.0109
 4938SOL    HW126276   2.753   2.953   2.670  0.1989 -1.1305 -0.5937
 4938SOL    HW226277   2.886   2.903   2.690  0.1201 -1.6819 -0.6643
 4939SOL     OW26278   1.760   0.737   7.148  0.5369 -0.2039 -0.3619
 4939SOL    HW126279   1.807   0.736   7.232  1.5018  0.8054 -0.8979
 4939SOL    HW226280   1.784   0.820   7.106  0.0979  0.9094  1.5679
 4940SOL     OW26281   3.158   3.008   2.070  0.4895 -0.1778  0.1169
 4940SOL    HW126282   3.213   2.930   2.080  0.9376  0.0992 -0.2032
 4940SOL    HW226283   3.233   3.066   2.060 -1.0509  1.7144 -0.4718
 4941SOL     OW26284   2.078   4.380   4.952  0.3978  0.2270 -0.5211
 4941SOL    HW126285   2.017   4.374   5.025 -0.3396 -0.5822 -1.2071
 4941SOL    HW226286   2.162   4.352   4.988 -0.3014 -0.2835  0.6897
 4942SOL     OW26287   4.647   0.069   6.939  0.4630  0.2498 -0.5577
 4942SOL    HW126288   4.580   0.124   6.980  1.2141  0.3619  0.5319
 4942SOL    HW226289   4.618   4.703   6.946  0.9548  0.0603 -1.0065
 4943SOL     OW26290   3.783   3.027   4.559 -0.6938 -0.7218  0.1236
 4943SOL    HW126291   3.691   3.046   4.546 -0.6150  0.1458  0.8688
 4943SOL    HW226292   3.776   2.979   4.641  4.1523  0.1476  1.0910
 4944SOL     OW26293   3.875   1.567   2.690  0.3022  0.2055 -0.3241
 4944SOL    HW126294   3.845   1.480   2.665 -3.7745  0.3453  4.2230
 4944SOL    HW226295   3.901   1.559   2.781  0.4238  1.0939 -0.2818
 4945SOL     OW26296   4.027   4.464   7.590  0.7627 -0.0858  0.1885
 4945SOL    HW126297   4.090   4.414   7.538  0.8919 -1.6350  1.8197
 4945SOL    HW226298   4.013   4.529   7.521  1.4898  1.3256  1.3823
 4946SOL     OW26299   0.521   4.692   0.332 -0.1218 -0.2698 -0.7595
 4946SOL    HW126300   0.576   0.007   0.399 -1.5965  1.4480 -0.5596
 4946SOL    HW226301   0.572   4.615   0.306  1.8561  0.8750 -0.2052
 4947SOL     OW26302   4.374   2.337   2.311  0.5678  0.4070  0.4159
 4947SOL    HW126303   4.451   2.372   2.267  0.4322  0.0837 -0.0792
 4947SOL    HW226304   4.311   2.375   2.250 -0.8309 -0.1470  1.5178
 4948SOL     OW26305   1.874   0.379   3.481 -0.1469 -0.0135 -0.2442
 4948SOL    HW126306   1.911   0.292   3.465  0.9351  0.2426  0.8809
 4948SOL    HW226307   1.893   0.391   3.574  1.7688 -0.5265 -0.5821
 4949SOL     OW26308   1.745   1.254   5.073 -0.0875 -0.0086  0.3671
 4949SOL    HW126309   1.738   1.158   5.064  0.6473 -0.0167 -0.1846
 4949SOL    HW226310   1.656   1.288   5.077 -0.1589 -0.0979 -0.3402
 4950SOL     OW26311   1.235   1.602  16.069  0.7870  0.2466 -0.0425
 4950SOL    HW126312   1.150   1.643  16.079  2.2033  2.7543  1.7679
 4950SOL    HW226313   1.277   1.653  16.138  0.6858  0.6641 -0.2891
 4951SOL     OW26314   2.265   4.674  13.600  0.1536  0.4731  0.0910
 4951SOL    HW126315   2.219   0.008  13.661 -1.1452 -1.0859  0.5947
 4951SOL    HW226316   2.303   0.014  13.540 -1.1843  1.1228 -0.0546
 4952SOL     OW26317   2.771   1.051   5.862 -0.6344 -0.1624  0.5100
 4952SOL    HW126318   2.744   0.981   5.921 -0.5032  1.1669  2.1526
 4952SOL    HW226319   2.788   1.129   5.916  1.3963 -0.1072 -0.1972
 4953SOL     OW26320   1.934   2.853   7.581 -0.2827  0.0839  0.1894
 4953SOL    HW126321   1.849   2.819   7.552  0.4963 -1.9068  0.2730
 4953SOL    HW226322   1.954   2.906   7.504 -0.9110 -0.6095 -0.4513
 4954SOL     OW26323   4.501   1.774   7.929  0.0901  0.4038 -0.2530
 4954SOL    HW126324   4.471   1.688   7.901 -1.3802  0.4748  1.1031
 4954SOL    HW226325   4.596   1.777   7.913  0.7107 -0.0697  3.1980
 4955SOL     OW26326   0.326   1.554   6.690 -0.0171  0.6743  0.0220
 4955SOL    HW126327   0.381   1.497   6.635 -1.1444 -0.7526  0.3633
 4955SOL    HW226328   0.243   1.541   6.645  0.4808 -2.8438  0.0672
 4956SOL     OW26329   1.318   2.202   2.190 -0.5494  0.5276 -0.0267
 4956SOL    HW126330   1.274   2.188   2.106  0.4247  0.0981 -0.4660
 4956SOL    HW226331   1.249   2.184   2.254 -0.0561 -3.4160 -0.5650
 4957SOL     OW26332   0.767   0.722   9.895 -0.3894  0.5460 -0.0505
 4957SOL    HW126333   0.836   0.658   9.911 -1.0278  0.2086  1.2979
 4957SOL    HW226334   0.793   0.790   9.957  0.1314  1.9057 -1.7192
 4958SOL     OW26335   2.567   4.566   2.614  0.1431  0.5721  0.4526
 4958SOL    HW126336   2.597   4.517   2.538  0.2203 -1.4802  1.8290
 4958SOL    HW226337   2.497   4.509   2.646  0.8430 -0.2695  0.4654
 4959SOL     OW26338   4.006   2.937   4.950 -0.1859 -0.1229  0.1620
 4959SOL    HW126339   3.980   2.868   5.011 -0.5910  0.3822  0.5563
 4959SOL    HW226340   3.933   2.954   4.890 -0.9957 -1.9232  0.6282
 4960SOL     OW26341   0.127   0.487   5.367 -0.5859  0.1623  0.1517
 4960SOL    HW126342   0.105   0.466   5.458  1.7937 -3.5413 -0.1533
 4960SOL    HW226343   0.096   0.409   5.322 -1.2630 -0.0934  1.0593
 4961SOL     OW26344   2.352   3.094  11.755  0.9878 -0.0270 -0.4825
 4961SOL    HW126345   2.288   3.105  11.684  1.1065  0.2424 -0.5478
 4961SOL    HW226346   2.333   3.179  11.796 -2.1586 -0.5702 -0.8039
 4962SOL     OW26347   3.583   2.317  14.592  0.5890 -0.4628  0.0355
 4962SOL    HW126348   3.668   2.343  14.628 -0.0828  1.3303  0.3123
 4962SOL    HW226349   3.562   2.382  14.525 -0.7284 -1.5018 -0.5512
 4963SOL     OW26350   3.933   2.526   7.292  0.3879 -0.0870 -0.1770
 4963SOL    HW126351   4.021   2.560   7.311  0.6082 -0.8691  0.2064
 4963SOL    HW226352   3.939   2.432   7.305 -1.7270 -0.6769 -3.4939
 4964SOL     OW26353   1.906   1.713  14.634  0.7600  0.0295 -0.4827
 4964SOL    HW126354   1.816   1.739  14.655  1.1403  0.8902  0.0907
 4964SOL    HW226355   1.932   1.785  14.576 -0.5365  1.0351  0.1666
 4965SOL     OW26356   1.789   2.052   3.371  0.0766  0.3836 -0.4364
 4965SOL    HW126357   1.727   2.108   3.418 -0.5145  1.0722 -2.0168
 4965SOL    HW226358   1.869   2.053   3.423 -0.8966  0.9003  1.0545
 4966SOL     OW26359   4.205   0.741  15.325 -0.3963  0.4780  0.4290
 4966SOL    HW126360   4.112   0.718  15.319 -0.2551 -0.1879  0.7732
 4966SOL    HW226361   4.245   0.727  15.239  0.2595  1.8828  0.5085
 4967SOL     OW26362   2.662   0.875   6.289  0.0506  0.3552 -0.7327
 4967SOL    HW126363   2.647   0.802   6.348  3.5089  0.0207 -0.2629
 4967SOL    HW226364   2.588   0.930   6.316  0.3811  0.5711 -0.2595
 4968SOL     OW26365   4.419   3.553   0.490  0.4452  0.1364  0.3783
 4968SOL    HW126366   4.479   3.487   0.458  1.5840  2.1325 -1.6160
 4968SOL    HW226367   4.482   3.596   0.548 -0.9641  2.4072  0.2529
 4969SOL     OW26368   0.651   1.874   6.186  0.2971 -0.0587  0.0390
 4969SOL    HW126369   0.575   1.855   6.130  0.0485 -0.4709  0.5144
 4969SOL    HW226370   0.644   1.795   6.239  0.3346 -0.5277 -0.6484
 4970SOL     OW26371   2.812   3.583  15.191  0.1914 -0.5274 -0.0396
 4970SOL    HW126372   2.825   3.674  15.215  2.2610 -1.3165  1.8302
 4970SOL    HW226373   2.724   3.559  15.222  0.5559  0.3224  1.6557
 4971SOL     OW26374   1.570   3.671   6.861 -0.1199  0.2236  0.5502
 4971SOL    HW126375   1.535   3.759   6.878 -1.6346  0.1883 -2.3636
 4971SOL    HW226376   1.660   3.694   6.837  0.0305 -1.7212 -0.7751
 4972SOL     OW26377   4.419   2.438  16.557  0.5935 -0.2778  0.2958
 4972SOL    HW126378   4.452   2.424  16.468 -1.1813 -0.3021 -0.3627
 4972SOL    HW226379   4.413   2.346  16.584 -1.5166  0.1881  1.4615
 4973SOL     OW26380   2.866   2.290   2.809 -0.2437  0.0946 -0.3914
 4973SOL    HW126381   2.776   2.320   2.825 -0.9552 -1.0343 -2.2757
 4973SOL    HW226382   2.862   2.235   2.731  1.4913  0.1850 -0.5436
 4974SOL     OW26383   4.073   1.010   5.898  0.1219  0.5034  0.1168
 4974SOL    HW126384   4.122   1.027   5.818 -0.0068  0.8518  0.1142
 4974SOL    HW226385   4.145   0.996   5.961  0.3899 -1.5935 -0.6437
 4975SOL     OW26386   4.599   4.549  16.870  0.5981 -0.2463  0.3971
 4975SOL    HW126387   4.533   4.507  16.814  1.1688 -0.3659 -0.1946
 4975SOL    HW226388   4.663   4.577  16.805  0.7970  0.0346  0.7191
 4976SOL     OW26389   2.869   1.952   3.840 -0.0578  0.6028 -0.0033
 4976SOL    HW126390   2.848   2.000   3.921  1.4572 -1.1001  1.3961
 4976SOL    HW226391   2.805   1.995   3.784  0.7050  1.3382 -0.2942
 4977SOL     OW26392   0.570   2.399   2.811  0.1517  0.2592  0.2696
 4977SOL    HW126393   0.663   2.391   2.830 -0.2409 -1.1429  1.6667
 4977SOL    HW226394   0.562   2.334   2.741 -1.8295 -0.3563  1.0523
 4978SOL     OW26395   2.654   3.137   6.734 -0.0221  0.4635 -0.1116
 4978SOL    HW126396   2.732   3.184   6.763 -0.2587 -1.1061  3.0278
 4978SOL    HW226397   2.581   3.192   6.763  0.1877 -0.0094  1.3045
 4979SOL     OW26398   0.953   4.393   4.759 -0.0474  0.1633  0.2840
 4979SOL    HW126399   1.001   4.474   4.774  0.1835  0.2419 -0.8577
 4979SOL    HW226400   0.863   4.422   4.748  1.0495  2.7935 -1.6956
 4980SOL     OW26401   3.329   4.514   3.875 -0.5340  0.2892 -0.2724
 4980SOL    HW126402   3.414   4.472   3.888 -0.0474  1.6561  0.8899
 4980SOL    HW226403   3.323   4.511   3.779  0.4437  1.2473 -0.3658
 4981SOL     OW26404   2.922   2.527  17.600  0.5677  0.6100  0.2992
 4981SOL    HW126405   2.947   2.457  17.540 -1.5679  1.6326 -1.8058
 4981SOL    HW226406   2.985   2.509  17.669  0.0397  1.4135  0.9921
 4982SOL     OW26407   4.548   0.150   8.712  0.3101  0.0191 -0.3497
 4982SOL    HW126408   4.554   0.233   8.759 -0.2545 -0.1992  0.1103
 4982SOL    HW226409   4.538   0.082   8.779 -0.8983  0.6353  0.0956
 4983SOL     OW26410   1.453   2.928   7.273 -0.4154  0.3563 -0.2759
 4983SOL    HW126411   1.531   2.982   7.286 -0.0930  0.4452 -2.5773
 4983SOL    HW226412   1.420   2.913   7.362 -0.0344 -0.9269 -0.3507
 4984SOL     OW26413   0.714   0.348   2.403  0.0032 -0.1424 -0.1335
 4984SOL    HW126414   0.626   0.310   2.396  0.4570 -0.8909 -1.6458
 4984SOL    HW226415   0.710   0.400   2.323 -0.1953  0.2188  0.1090
 4985SOL     OW26416   1.576   1.511   2.104 -0.1399 -0.2091  0.3261
 4985SOL    HW126417   1.519   1.456   2.049  1.1875 -0.1020 -1.1551
 4985SOL    HW226418   1.505   1.559   2.146  0.5840  1.1348  0.0209
 4986SOL     OW26419   3.934   2.004  13.740  0.2748  0.0962 -0.1086
 4986SOL    HW126420   3.867   1.936  13.733 -1.5039  1.6381  1.9592
 4986SOL    HW226421   3.887   2.081  13.772 -0.3053 -0.0592 -0.6051
 4987SOL     OW26422   1.158   3.429   2.170  0.1178  0.2155  0.0995
 4987SOL    HW126423   1.120   3.498   2.116 -0.7087 -0.1514  0.2022
 4987SOL    HW226424   1.250   3.453   2.180 -0.0787  0.6196  0.9379
 4988SOL     OW26425   4.404   1.036   2.666 -0.8186 -0.1975 -0.4306
 4988SOL    HW126426   4.358   1.043   2.582  0.7370  1.2258 -1.1681
 4988SOL    HW226427   4.427   0.943   2.665 -3.2177 -0.8069  1.6279
 4989SOL     OW26428   2.612   2.970   7.907  0.6150  0.0984 -0.2707
 4989SOL    HW126429   2.517   2.968   7.896  0.9032 -0.1245 -2.6704
 4989SOL    HW226430   2.621   3.042   7.844 -2.5773  0.6317 -0.0843
 4990SOL     OW26431   4.093   2.548   5.877  0.3254  0.1946  0.5030
 4990SOL    HW126432   4.046   2.466   5.861  1.9707 -0.3659 -1.4469
 4990SOL    HW226433   4.167   2.531   5.819 -0.6727 -2.5854  0.0130
 4991SOL     OW26434   2.084   2.731   3.174 -0.5347 -0.3384 -0.3743
 4991SOL    HW126435   2.154   2.692   3.226 -1.1914 -1.9675 -0.6762
 4991SOL    HW226436   2.104   2.725   3.080  0.3722 -0.1791 -0.1911
 4992SOL     OW26437   0.323   4.520   8.678  0.1655 -0.0905 -0.6848
 4992SOL    HW126438   0.386   4.453   8.651  0.5602  0.4072 -0.9908
 4992SOL    HW226439   0.388   4.590   8.682 -2.6167  2.4707 -0.6556
 4993SOL     OW26440   3.408   4.399  11.888 -0.3677  0.1525  0.4844
 4993SOL    HW126441   3.388   4.488  11.919 -1.3600  0.2727 -0.5245
 4993SOL    HW226442   3.450   4.373  11.970 -1.5842  0.7073  1.2894
 4994SOL     OW26443   1.331   3.976   0.674 -0.0275 -0.2677 -0.0535
 4994SOL    HW126444   1.289   3.963   0.759 -1.9494  0.7417 -0.8455
 4994SOL    HW226445   1.287   4.055   0.645  0.4808  0.2246  0.5184
 4995SOL     OW26446   2.117   3.483   6.894 -0.0571 -0.4776  0.1226
 4995SOL    HW126447   2.082   3.468   6.806 -0.7187  1.5974  0.0375
 4995SOL    HW226448   2.040   3.472   6.950  1.0599 -1.7058  1.4217
 4996SOL     OW26449   3.648   1.441  12.860 -0.3738  0.2078  0.0718
 4996SOL    HW126450   3.679   1.455  12.770 -2.3496  2.4544 -0.2559
 4996SOL    HW226451   3.678   1.351  12.871 -0.5887  0.2139  0.6813
 4997SOL     OW26452   3.303   4.614   5.994  0.5307  0.1936 -0.0916
 4997SOL    HW126453   3.296   4.637   6.086  3.2284  1.6813 -0.2347
 4997SOL    HW226454   3.217   4.576   5.978  1.7512 -1.7183 -2.1306
 4998SOL     OW26455   2.325   1.172   3.025  0.0416 -0.1180  0.1413
 4998SOL    HW126456   2.398   1.162   3.086 -1.0158 -3.4898  0.8783
 4998SOL    HW226457   2.356   1.227   2.954  1.1741  1.6842  2.0425
 4999SOL     OW26458   1.146   3.524   8.117 -0.2673 -0.3290 -0.2885
 4999SOL    HW126459   1.169   3.434   8.092 -1.5656 -0.5534 -0.6942
 4999SOL    HW226460   1.086   3.513   8.191 -0.3074 -0.5013 -0.3469
 5000SOL     OW26461   0.183   2.217   4.763 -0.6979 -0.2547 -0.5047
 5000SOL    HW126462   0.271   2.238   4.795 -0.7497 -3.3721  1.6777
 5000SOL    HW226463   0.142   2.277   4.825  0.1896 -1.0538  0.8672
 5001SOL     OW26464   3.282   1.565   6.608  0.1186  0.2580 -0.4210
 5001SOL    HW126465   3.240   1.535   6.689 -1.0468  0.9118 -0.7787
 5001SOL    HW226466   3.370   1.556   6.645  0.0641  0.9633 -0.1291
 5002SOL     OW26467   3.386   4.231   8.519 -0.7881 -0.0827 -0.2885
 5002SOL    HW126468   3.413   4.206   8.607  0.2124  0.5017 -0.4400
 5002SOL    HW226469   3.424   4.316   8.500 -1.7530  0.6202  0.9541
 5003SOL     OW26470   0.013   0.957  14.245  0.1775 -0.1152 -0.1162
 5003SOL    HW126471   4.700   1.039  14.213 -2.5624 -1.5001 -0.4336
 5003SOL    HW226472   0.093   0.936  14.197  0.5120 -1.6021  1.0972
 5004SOL     OW26473   0.960   1.474   3.058  0.3715  0.4437 -0.0830
 5004SOL    HW126474   0.896   1.529   3.104  0.3707 -0.3985  0.9090
 5004SOL    HW226475   0.916   1.389   3.069  0.2406  0.6139  0.7210
 5005SOL     OW26476   1.063   4.629   7.272  0.0868 -0.1938 -0.1120
 5005SOL    HW126477   1.133   4.622   7.338  1.2344  0.0718 -1.2983
 5005SOL    HW226478   1.036   4.719   7.288 -0.1717  0.0383 -1.8851
 5006SOL     OW26479   2.514   1.019  14.075  0.5055  0.1809 -0.7058
 5006SOL    HW126480   2.476   1.029  14.163 -1.3663  0.2013 -1.5151
 5006SOL    HW226481   2.585   0.958  14.091 -1.7376 -2.0152  0.9984
 5007SOL     OW26482   1.631   1.230   2.073  0.2128 -0.0712  0.3409
 5007SOL    HW126483   1.657   1.321   2.089  0.2380 -0.1030  0.4900
 5007SOL    HW226484   1.678   1.180   2.140 -0.2769 -0.1185  0.6490
 5008SOL     OW26485   1.185   4.097  13.693 -0.1387  0.1337  0.2340
 5008SOL    HW126486   1.123   4.026  13.708 -0.3523  0.3543  0.4034
 5008SOL    HW226487   1.234   4.060  13.619 -1.8222  1.4063 -1.5254
 5009SOL     OW26488   2.053   2.359   4.325 -0.0223 -1.1943 -0.2891
 5009SOL    HW126489   2.124   2.421   4.344  0.1370 -1.0773 -1.2782
 5009SOL    HW226490   2.018   2.344   4.413 -0.6009 -3.4412 -0.8972
 5010SOL     OW26491   0.411   0.419   5.713 -0.6784  0.4520 -0.1374
 5010SOL    HW126492   0.466   0.345   5.687 -0.7552  0.5799 -0.6620
 5010SOL    HW226493   0.344   0.385   5.773 -0.4242  2.6279  1.3954
 5011SOL     OW26494   4.561   3.549   6.448  0.8429 -0.2399  0.0059
 5011SOL    HW126495   4.483   3.500   6.478 -0.0477  0.5214 -1.0971
 5011SOL    HW226496   4.558   3.554   6.353  0.7050  1.9083  0.1331
 5012SOL     OW26497   2.289   2.876   8.165  0.1486  0.7974  0.4319
 5012SOL    HW126498   2.322   2.916   8.084 -0.7908  0.2370 -0.2281
 5012SOL    HW226499   2.375   2.846   8.195  0.2497  0.0763 -0.5905
 5013SOL     OW26500   2.758   4.410   5.262  0.0567  0.2063 -0.5265
 5013SOL    HW126501   2.727   4.405   5.172 -2.6423 -0.1711  0.4313
 5013SOL    HW226502   2.683   4.452   5.305  0.4068  0.3617 -0.0623
 5014SOL     OW26503   0.066   1.591  12.428  0.0055 -0.7849  0.1560
 5014SOL    HW126504   0.094   1.676  12.462 -0.2593 -1.1094  1.1817
 5014SOL    HW226505   4.700   1.616  12.448  0.1815  0.7962 -1.0865
 5015SOL     OW26506   4.135   3.930   6.737 -0.0313  0.0170 -0.1709
 5015SOL    HW126507   4.154   4.007   6.790  1.1035 -1.0519  0.9755
 5015SOL    HW226508   4.208   3.868   6.733  0.0388  0.0475  0.6323
 5016SOL     OW26509   3.064   4.515   5.924 -0.0443 -0.6663  0.3681
 5016SOL    HW126510   3.046   4.453   5.854 -0.1267 -1.1662  0.8352
 5016SOL    HW226511   3.059   4.599   5.878  0.9276 -0.2992  0.9268
 5017SOL     OW26512   4.675   4.006   3.176 -0.1090 -0.0034 -0.1438
 5017SOL    HW126513   4.703   4.093   3.204 -0.4632  0.9737 -2.8042
 5017SOL    HW226514   4.588   4.031   3.142  0.0373  0.4653 -0.1808
 5018SOL     OW26515   1.548   1.791   9.862  0.0907 -0.0791  0.7455
 5018SOL    HW126516   1.598   1.856   9.912 -2.3751  1.8170  0.6931
 5018SOL    HW226517   1.535   1.849   9.786  1.1773  1.3603  1.6417
 5019SOL     OW26518   2.513   2.092  10.562 -0.0169  0.7080  0.0238
 5019SOL    HW126519   2.510   2.140  10.645 -2.5133  0.4266  0.0858
 5019SOL    HW226520   2.593   2.040  10.571 -0.0008  0.6109 -0.7173
 5020SOL     OW26521   2.169   1.072  15.264  0.2821 -0.7562 -0.4815
 5020SOL    HW126522   2.220   1.080  15.345  0.1744  0.9283 -0.5742
 5020SOL    HW226523   2.152   1.165  15.249 -0.6920 -0.4362  2.5515
 5021SOL     OW26524   1.494   0.166   4.151  0.0702  0.4603  0.4695
 5021SOL    HW126525   1.447   0.244   4.181 -2.7117 -0.7887 -0.6783
 5021SOL    HW226526   1.430   0.096   4.165  0.3118  0.2516  0.5133
 5022SOL     OW26527   1.984   1.237  13.550 -0.5359  0.1340  0.1634
 5022SOL    HW126528   2.047   1.190  13.605  0.2826 -2.5374 -3.1307
 5022SOL    HW226529   2.033   1.291  13.488 -0.4266  0.5852  0.6356
 5023SOL     OW26530   3.564   0.501  14.238 -0.0315  0.0997  0.2944
 5023SOL    HW126531   3.638   0.483  14.180  1.2759  4.3588  0.6744
 5023SOL    HW226532   3.526   0.413  14.242  0.1231  0.0226  0.0340
 5024SOL     OW26533   4.194   0.234  11.667  0.0079 -0.3871  0.5478
 5024SOL    HW126534   4.167   0.317  11.629 -0.1532 -0.1888  1.0909
 5024SOL    HW226535   4.255   0.267  11.733 -2.0514  0.4018  2.0913
 5025SOL     OW26536   0.319   4.503  10.519  0.2552 -0.7641 -0.3790
 5025SOL    HW126537   0.398   4.523  10.470 -0.2824  1.8105 -0.1883
 5025SOL    HW226538   0.338   4.445  10.593 -1.8903  0.5631  1.2239
 5026SOL     OW26539   2.344   1.246   1.187 -0.9232  0.2783 -0.3292
 5026SOL    HW126540   2.405   1.197   1.133  0.4985  1.2832  0.3578
 5026SOL    HW226541   2.368   1.222   1.276 -2.9942  0.3536  0.2492
 5027SOL     OW26542   2.493   1.869  14.229  0.2497 -0.3065  0.3642
 5027SOL    HW126543   2.557   1.940  14.235  0.8352 -0.8948  1.0133
 5027SOL    HW226544   2.412   1.915  14.252 -0.5206 -1.0563 -0.8705
 5028SOL     OW26545   2.035   0.874   0.675 -0.6058 -0.4615  0.3035
 5028SOL    HW126546   2.008   0.803   0.733  0.5322 -2.2020 -1.3135
 5028SOL    HW226547   2.128   0.884   0.698 -0.3159 -0.8724 -0.6920
 5029SOL     OW26548   1.800   0.527   8.236 -0.8755 -0.3969  0.1988
 5029SOL    HW126549   1.872   0.565   8.287 -0.7327  0.2185 -0.4620
 5029SOL    HW226550   1.838   0.526   8.148  0.2546  0.1676  0.6672
 5030SOL     OW26551   4.588   0.745   0.681  0.3299 -0.5187 -0.0509
 5030SOL    HW126552   4.677   0.776   0.699  0.0247 -0.2574  1.0124
 5030SOL    HW226553   4.599   0.657   0.644  0.4528  0.1740 -1.6468
 5031SOL     OW26554   3.134   4.199  15.336  0.1456  0.0351  0.3940
 5031SOL    HW126555   3.185   4.209  15.256  0.6689 -0.4921  0.6603
 5031SOL    HW226556   3.043   4.184  15.310  0.0437  1.1411  0.1156
 5032SOL     OW26557   2.050   1.763   2.435  0.1303  0.3876 -0.0691
 5032SOL    HW126558   1.962   1.797   2.450  0.4521  0.8334  0.8338
 5032SOL    HW226559   2.025   1.678   2.400 -1.1136  0.2407  1.1881
 5033SOL     OW26560   0.493   1.260   5.885  0.1123 -0.3315 -0.1632
 5033SOL    HW126561   0.412   1.210   5.873  0.5265 -1.4214  1.7085
 5033SOL    HW226562   0.531   1.251   5.797 -0.3191  2.6586 -0.6314
 5034SOL     OW26563   4.339   4.020   3.673  0.4716 -0.4143 -0.1085
 5034SOL    HW126564   4.277   4.015   3.600  0.1648 -0.7349  0.1651
 5034SOL    HW226565   4.347   3.927   3.697  2.3648  0.1008  1.1685
 5035SOL     OW26566   4.225   4.543   3.404  0.2400  0.0914 -0.1930
 5035SOL    HW126567   4.156   4.527   3.469 -0.4236  1.9600 -0.4297
 5035SOL    HW226568   4.189   4.510   3.322  0.1196 -2.4919  0.9020
 5036SOL     OW26569   2.725   3.722   5.701  0.5745 -0.0204  0.0654
 5036SOL    HW126570   2.681   3.660   5.760  1.5548  0.4044  1.2512
 5036SOL    HW226571   2.814   3.689   5.689 -0.1814 -0.9325 -2.8884
 5037SOL     OW26572   4.384   1.235   3.113 -0.2054 -0.0458 -0.7220
 5037SOL    HW126573   4.404   1.260   3.023  3.4055 -0.2224  0.0328
 5037SOL    HW226574   4.422   1.148   3.127 -1.1605 -0.2173  0.7972
 5038SOL     OW26575   1.603   1.139   0.668  0.0951 -0.6365  0.4667
 5038SOL    HW126576   1.697   1.120   0.661  0.3938  0.3219  1.9709
 5038SOL    HW226577   1.586   1.140   0.762  1.4122  1.2050  0.6904
 5039SOL     OW26578   0.287   3.274  13.917 -0.1316 -0.2939 -0.1688
 5039SOL    HW126579   0.376   3.247  13.939  0.8629  2.3897 -0.9047
 5039SOL    HW226580   0.285   3.224  13.835 -2.0063 -1.7641  0.7590
 5040SOL     OW26581   4.157   0.511   4.326  0.5071  0.6858  0.2133
 5040SOL    HW126582   4.175   0.535   4.235 -5.2291 -0.8141 -1.3700
 5040SOL    HW226583   4.187   0.420   4.323  0.9800  0.9127 -2.0117
 5041SOL     OW26584   2.673   1.880   4.572  0.6526 -0.4058  0.7450
 5041SOL    HW126585   2.671   1.906   4.664 -2.1168  0.5777  0.4097
 5041SOL    HW226586   2.638   1.791   4.569  1.2309 -0.6046 -0.0429
 5042SOL     OW26587   3.810   3.064   5.192  0.8660 -0.5855 -0.0328
 5042SOL    HW126588   3.797   3.054   5.287 -0.6808 -3.7885 -0.5674
 5042SOL    HW226589   3.805   2.969   5.180 -0.3505 -0.1761 -2.8159
 5043SOL     OW26590   0.484   0.995  10.427  0.0384  0.2798 -0.6962
 5043SOL    HW126591   0.516   1.044  10.351 -0.0192  0.5847 -0.5261
 5043SOL    HW226592   0.390   1.013  10.420 -0.0537  0.7375  1.7804
 5044SOL     OW26593   2.975   4.147  14.104  0.0097  0.2308 -0.2095
 5044SOL    HW126594   2.913   4.210  14.141  1.2966  0.5128  1.4816
 5044SOL    HW226595   2.966   4.070  14.160 -2.3979 -1.1311 -2.4963
 5045SOL     OW26596   3.540   2.931   8.438 -0.1356 -0.2742  0.2664
 5045SOL    HW126597   3.481   2.879   8.492  0.0590 -0.3748  0.3842
 5045SOL    HW226598   3.575   2.983   8.510 -0.3775  1.3513 -0.8011
 5046SOL     OW26599   2.015   2.412   2.691 -0.6740  0.7487  0.3857
 5046SOL    HW126600   2.076   2.342   2.669  0.9034  2.2071  0.0848
 5046SOL    HW226601   1.933   2.387   2.649 -0.3613 -0.8859  0.7240
 5047SOL     OW26602   2.587   1.064  17.505 -0.2433 -0.7001 -0.5373
 5047SOL    HW126603   2.611   0.980  17.544 -2.4901 -1.7344 -1.3811
 5047SOL    HW226604   2.609   1.130  17.570  2.0777 -1.4708 -0.5306
 5048SOL     OW26605   1.183   3.701  12.195  0.3208 -0.5982 -0.4244
 5048SOL    HW126606   1.187   3.610  12.165  2.3145 -1.5262  2.6502
 5048SOL    HW226607   1.139   3.732  12.116 -1.0029  0.4034  0.7184
 5049SOL     OW26608   1.850   3.756   3.545 -0.0008  0.2771  0.3439
 5049SOL    HW126609   1.788   3.701   3.592  1.2416 -0.3075  1.2866
 5049SOL    HW226610   1.820   3.724   3.459 -2.5526  0.1295  1.2939
 5050SOL     OW26611   4.627   1.966   2.916  0.0796  0.8259  0.9571
 5050SOL    HW126612   4.611   1.895   2.853  0.0636  1.4182  0.2929
 5050SOL    HW226613   4.551   2.021   2.899 -2.4378 -2.4995  1.5055
 5051SOL     OW26614   0.253   4.712   1.940 -0.7393  0.1126 -0.0715
 5051SOL    HW126615   0.205   4.638   1.902  1.1288 -0.7279 -0.8071
 5051SOL    HW226616   0.336   4.670   1.963 -0.9057 -0.9214 -1.3868
 5052SOL     OW26617   2.485   2.294   6.273  0.3491 -0.1240 -0.0488
 5052SOL    HW126618   2.534   2.355   6.219 -0.5185 -1.3076 -2.1792
 5052SOL    HW226619   2.531   2.213   6.251  0.9966 -0.2946  1.9351
 5053SOL     OW26620   2.561   1.875   1.462  0.4877 -0.0018  0.4197
 5053SOL    HW126621   2.574   1.969   1.450 -1.1490  0.2756  0.8288
 5053SOL    HW226622   2.502   1.846   1.393  1.4831  1.3011 -0.9996
 5054SOL     OW26623   0.805   2.395   3.414 -0.4104  0.0223  0.0790
 5054SOL    HW126624   0.836   2.331   3.479 -2.7572 -1.6779 -0.5012
 5054SOL    HW226625   0.723   2.414   3.460  0.4812  0.5065  1.4820
 5055SOL     OW26626   0.690   2.446   7.058  0.0586 -0.1369  0.8379
 5055SOL    HW126627   0.737   2.470   6.978  2.3216 -0.2225  2.1514
 5055SOL    HW226628   0.665   2.354   7.042 -0.8933  0.7606 -2.7586
 5056SOL     OW26629   2.281   0.460   2.314  0.4162 -0.0936 -0.0878
 5056SOL    HW126630   2.219   0.486   2.246  0.6615 -0.2169 -0.3587
 5056SOL    HW226631   2.358   0.513   2.292 -1.5214  3.3505  1.4421
 5057SOL     OW26632   3.943   2.913   6.539  0.2526  0.5289 -0.0457
 5057SOL    HW126633   3.897   2.867   6.469 -2.8796  1.3342  1.4722
 5057SOL    HW226634   3.989   2.842   6.584  0.4972 -0.2333 -1.4845
 5058SOL     OW26635   4.700   3.884   8.844  0.2590 -0.0903 -0.7941
 5058SOL    HW126636   4.694   3.957   8.906 -0.1555 -0.2982 -0.5897
 5058SOL    HW226637   0.001   3.934   8.766  1.1397 -0.1424 -0.5355
 5059SOL     OW26638   1.991   2.497   0.382  0.3039  0.3092  0.0170
 5059SOL    HW126639   1.950   2.582   0.369 -1.1164 -0.2823  0.6804
 5059SOL    HW226640   2.063   2.510   0.320 -1.6836 -2.4483 -2.8393
 5060SOL     OW26641   1.539   4.460   9.453 -0.2627 -0.3876 -0.8559
 5060SOL    HW126642   1.621   4.419   9.426  0.4175  1.0019 -0.8785
 5060SOL    HW226643   1.567   4.486   9.540 -0.5901  1.1666 -1.2126
 5061SOL     OW26644   0.278   4.001  14.247  0.5945  0.3165 -0.1886
 5061SOL    HW126645   0.323   3.920  14.223 -0.1437 -0.5011  1.2010
 5061SOL    HW226646   0.258   4.052  14.168  1.5009 -2.1508 -2.0132
 5062SOL     OW26647   0.659   0.637   3.143 -0.6331 -0.2281  0.0294
 5062SOL    HW126648   0.733   0.584   3.113  0.9437  1.9371  0.0670
 5062SOL    HW226649   0.667   0.614   3.236 -1.2330  1.6511  0.5340
 5063SOL     OW26650   0.937   0.803   8.948  0.3006 -0.1748  0.4899
 5063SOL    HW126651   0.882   0.782   9.023  1.0121 -0.9800  0.7911
 5063SOL    HW226652   1.027   0.783   8.976  0.6455  1.0980  0.3221
 5064SOL     OW26653   0.694   0.883  14.172 -0.7086 -0.3904 -0.1368
 5064SOL    HW126654   0.599   0.890  14.159 -0.6872  0.4106  0.1762
 5064SOL    HW226655   0.695   0.848  14.261  2.8590 -0.4022 -0.1998
 5065SOL     OW26656   3.741   2.595   6.437 -0.0925  0.1828  0.5006
 5065SOL    HW126657   3.759   2.678   6.394 -0.1722 -0.3026 -0.4656
 5065SOL    HW226658   3.714   2.541   6.363  0.1244  0.6601  0.0763
 5066SOL     OW26659   1.552   2.628   3.884 -0.7605  0.8891  0.1232
 5066SOL    HW126660   1.504   2.621   3.801 -3.3011  0.4084  1.6303
 5066SOL    HW226661   1.500   2.696   3.929  1.9766  3.1240 -0.1322
 5067SOL     OW26662   3.177   3.148   6.147 -0.2410  0.4127 -0.0985
 5067SOL    HW126663   3.149   3.133   6.057 -0.9993  0.4123  0.1388
 5067SOL    HW226664   3.120   3.099   6.206  0.0592 -0.0310 -0.1754
 5068SOL     OW26665   2.002   1.831   2.042 -0.2184  0.1057 -0.5186
 5068SOL    HW126666   1.910   1.817   2.065  0.2645  0.4227  1.5924
 5068SOL    HW226667   1.995   1.830   1.947  0.8997 -1.4035 -0.5905
 5069SOL     OW26668   3.360   2.482   3.008 -0.5659 -0.3529  0.1177
 5069SOL    HW126669   3.406   2.507   3.088  0.6803 -1.0653 -0.3806
 5069SOL    HW226670   3.423   2.415   2.984  0.0305 -0.2345  1.3639
 5070SOL     OW26671   2.229   2.274   8.042 -0.2457  0.4464 -0.4544
 5070SOL    HW126672   2.233   2.229   7.958 -0.9188  0.4191 -0.4702
 5070SOL    HW226673   2.247   2.197   8.096 -0.7644 -0.4491 -1.5452
 5071SOL     OW26674   3.356   1.623   4.001 -0.2663  0.1877 -0.6974
 5071SOL    HW126675   3.393   1.688   4.061 -0.8896  2.2358 -2.5360
 5071SOL    HW226676   3.264   1.647   4.006 -0.5840 -1.3855  1.1631
 5072SOL     OW26677   2.947   3.475   3.733  0.1544 -0.7635 -0.4949
 5072SOL    HW126678   2.941   3.506   3.643  1.4809 -1.0535 -0.6830
 5072SOL    HW226679   3.007   3.402   3.718 -1.8658 -2.9242  1.8753
 5073SOL     OW26680   1.658   3.612   3.624  0.2042  0.2116 -0.3955
 5073SOL    HW126681   1.665   3.596   3.718 -2.0746 -1.1571 -0.4661
 5073SOL    HW226682   1.569   3.646   3.627 -0.1044 -0.6510  0.2588
 5074SOL     OW26683   1.197   3.835   7.410 -0.1838  0.2094 -0.3875
 5074SOL    HW126684   1.141   3.909   7.433 -0.8654  0.1703 -1.8857
 5074SOL    HW226685   1.183   3.805   7.320  0.1222 -0.2166 -0.2874
 5075SOL     OW26686   4.544   0.607   2.122 -0.0172  0.4842  0.3671
 5075SOL    HW126687   4.451   0.586   2.133  0.1083 -0.7441 -0.8951
 5075SOL    HW226688   4.558   0.613   2.027  0.0282 -0.6623  0.2954
 5076SOL     OW26689   2.407   4.102   5.834 -0.5412  0.0952  0.0861
 5076SOL    HW126690   2.467   4.116   5.907 -0.3722  2.1279 -0.4384
 5076SOL    HW226691   2.369   4.016   5.852  0.7915 -0.4241  0.4398
 5077SOL     OW26692   0.456   1.779  10.938  0.3871  0.2650  0.0942
 5077SOL    HW126693   0.386   1.825  10.985  0.6492 -0.2753  1.0128
 5077SOL    HW226694   0.434   1.807  10.849  0.4540 -1.7141 -0.5529
 5078SOL     OW26695   1.400   2.214   8.766 -0.0530 -0.0503 -0.2189
 5078SOL    HW126696   1.322   2.267   8.784  0.5070  0.7309 -0.0936
 5078SOL    HW226697   1.461   2.282   8.738 -0.7145 -0.6215 -2.9933
 5079SOL     OW26698   2.340   2.493   1.994 -0.0600  0.2110 -0.0491
 5079SOL    HW126699   2.309   2.549   1.923 -0.9141 -0.0650  0.1112
 5079SOL    HW226700   2.265   2.518   2.048  0.1051  0.3583  0.1146
 5080SOL     OW26701   1.077   4.549  13.469 -0.1786  0.7417  0.0404
 5080SOL    HW126702   1.048   4.639  13.456 -1.2009  0.1994 -1.5155
 5080SOL    HW226703   1.099   4.545  13.562 -3.3545  0.6557  0.7618
 5081SOL     OW26704   2.339   0.240   6.322  0.1386 -0.4925  0.0535
 5081SOL    HW126705   2.358   0.146   6.316  2.8034  0.0553  0.1384
 5081SOL    HW226706   2.271   0.238   6.390 -1.1118 -1.9015 -1.2237
 5082SOL     OW26707   2.191   3.177   0.901  0.0965 -0.3066  0.5543
 5082SOL    HW126708   2.279   3.187   0.937 -0.0801 -1.5544  1.2957
 5082SOL    HW226709   2.192   3.238   0.827  2.6892 -2.7500 -1.4177
 5083SOL     OW26710   2.717   1.327   5.238 -0.8766  0.0942 -0.1791
 5083SOL    HW126711   2.786   1.333   5.172  0.2264 -1.2400  0.8618
 5083SOL    HW226712   2.738   1.244   5.279  0.4327 -0.0751 -1.1874
 5084SOL     OW26713   2.309   1.411   0.882  0.1065 -0.2468  0.4548
 5084SOL    HW126714   2.390   1.438   0.838  0.8354  0.3691  2.1478
 5084SOL    HW226715   2.342   1.348   0.947 -0.0866  0.1445  0.9364
 5085SOL     OW26716   2.047   1.413  12.497  0.2447 -0.0551  0.1302
 5085SOL    HW126717   2.134   1.374  12.488  0.2411  0.4703 -2.1171
 5085SOL    HW226718   2.003   1.395  12.414 -0.3082 -2.0190  0.8484
 5086SOL     OW26719   2.011   1.107  11.295  0.4869  0.0806 -0.4981
 5086SOL    HW126720   1.984   1.022  11.260 -1.0531  0.8563 -1.1720
 5086SOL    HW226721   1.995   1.093  11.388 -1.0762 -2.5952 -1.1646
 5087SOL     OW26722   4.217   2.889   8.971  0.3485  0.2520 -0.0838
 5087SOL    HW126723   4.232   2.856   8.882 -0.5461 -0.5712  0.0618
 5087SOL    HW226724   4.304   2.875   9.008  0.5874  0.8616 -0.4153
 5088SOL     OW26725   1.761   2.109   8.123  0.0859  0.3973  0.1856
 5088SOL    HW126726   1.769   2.038   8.060 -2.9729 -0.0451  0.3008
 5088SOL    HW226727   1.845   2.115   8.168  0.2131 -0.1766  0.0204
 5089SOL     OW26728   0.331   2.938   2.828  0.1697 -0.0671 -0.4352
 5089SOL    HW126729   0.373   2.878   2.766  1.4440  2.4237 -2.0025
 5089SOL    HW226730   0.249   2.960   2.783  1.9894  1.6742 -2.9013
 5090SOL     OW26731   0.700   1.339   4.737  0.7969 -0.2769  0.0443
 5090SOL    HW126732   0.662   1.401   4.675 -0.6211 -1.4469 -0.2556
 5090SOL    HW226733   0.647   1.259   4.730  0.7789 -0.2291 -0.3398
 5091SOL     OW26734   1.650   2.779   2.371  0.2019  0.1955  0.2585
 5091SOL    HW126735   1.738   2.788   2.336  0.4673 -1.9170  0.3603
 5091SOL    HW226736   1.612   2.765   2.284  0.3931  0.3325  0.1547
 5092SOL     OW26737   4.163   1.006  14.336  0.2933 -0.4100 -0.5273
 5092SOL    HW126738   4.196   1.069  14.401  2.6101 -0.0689 -2.0270
 5092SOL    HW226739   4.200   1.037  14.254 -0.3144 -1.2131 -1.1023
 5093SOL     OW26740   2.115   1.659  14.973  0.1969 -0.1450  0.1027
 5093SOL    HW126741   2.116   1.564  14.960 -0.3252 -0.1175 -0.1011
 5093SOL    HW226742   2.127   1.657  15.068  1.7796 -1.4497 -0.1295
 5094SOL     OW26743   2.275   1.053  11.120  0.6297 -0.5815  0.1874
 5094SOL    HW126744   2.370   1.063  11.129  0.7772 -0.5276 -1.3198
 5094SOL    HW226745   2.270   1.019  11.031 -1.7830 -1.4554  0.6654
 5095SOL     OW26746   4.285   0.205   2.530  0.2624 -0.1571 -0.1139
 5095SOL    HW126747   4.198   0.213   2.570  0.7780  2.8290  0.3839
 5095SOL    HW226748   4.326   0.148   2.595  0.8832 -0.5287 -0.8302
 5096SOL     OW26749   3.113   0.851  11.185 -0.1609  0.1380 -0.3819
 5096SOL    HW126750   3.168   0.929  11.180  1.7710 -1.1757  0.2982
 5096SOL    HW226751   3.021   0.874  11.198 -0.1092 -0.3089  0.7765
 5097SOL     OW26752   2.296   1.575  14.337 -0.1562  0.3246 -0.4374
 5097SOL    HW126753   2.304   1.656  14.386 -0.0316 -0.4608  0.8599
 5097SOL    HW226754   2.288   1.610  14.248  0.3506  1.2083 -0.1324
 5098SOL     OW26755   4.587   2.521   4.208 -0.1447 -0.1646  0.1008
 5098SOL    HW126756   4.599   2.604   4.254  1.4217 -1.5428  2.1832
 5098SOL    HW226757   4.509   2.485   4.251 -1.5926  0.5249 -1.9513
 5099SOL     OW26758   0.101   1.145   0.299 -0.3827  0.6469 -0.2892
 5099SOL    HW126759   0.175   1.085   0.296 -0.6155  0.3277  0.3557
 5099SOL    HW226760   0.028   1.091   0.331 -0.1226 -0.2805 -1.2551
 5100SOL     OW26761   2.298   0.964   3.350 -0.2041 -0.4646  0.1358
 5100SOL    HW126762   2.245   1.011   3.287 -1.3384 -1.1452  0.5807
 5100SOL    HW226763   2.353   1.027   3.397  1.2617 -0.8961 -0.9867
 5101SOL     OW26764   2.895   0.609   2.697  0.1271  0.0046  0.1099
 5101SOL    HW126765   2.898   0.556   2.617  0.2053 -1.7644  1.3161
 5101SOL    HW226766   2.948   0.687   2.679  0.5206 -0.1165  0.7352
 5102SOL     OW26767   0.166   3.097   2.649  0.0849  0.3649 -0.0426
 5102SOL    HW126768   0.110   3.150   2.707  0.3149  1.6093 -0.9630
 5102SOL    HW226769   0.237   3.160   2.639  2.8183 -2.9293 -1.2346
 5103SOL     OW26770   1.695   2.434   9.685  0.0028 -0.2848 -1.1139
 5103SOL    HW126771   1.611   2.413   9.725 -0.6176  1.3944 -1.5553
 5103SOL    HW226772   1.704   2.358   9.628 -1.7395  0.6279 -2.5854
 5104SOL     OW26773   1.433   3.942   5.140  0.1502  0.2020 -0.3069
 5104SOL    HW126774   1.439   4.027   5.096  2.2858 -0.8056 -1.9466
 5104SOL    HW226775   1.354   3.963   5.190  0.4934  0.9700 -0.0926
 5105SOL     OW26776   0.639   0.170   6.342 -0.0285 -0.0566  0.3081
 5105SOL    HW126777   0.716   0.126   6.305  0.1305 -0.7313  1.4443
 5105SOL    HW226778   0.643   0.259   6.306 -0.1312 -0.8534 -1.6802
 5106SOL     OW26779   2.192   3.879   0.179 -0.1140  0.4393  0.7189
 5106SOL    HW126780   2.234   3.964   0.181  0.8767 -0.0759  2.5789
 5106SOL    HW226781   2.104   3.911   0.202 -0.5216  0.0647 -0.3523
 5107SOL     OW26782   2.284   4.451   9.045  0.2636 -0.6315  0.1483
 5107SOL    HW126783   2.341   4.525   9.023 -0.4195 -0.3537 -0.6894
 5107SOL    HW226784   2.341   4.402   9.104  0.0124  0.3493  1.1948
 5108SOL     OW26785   4.145   1.640   9.258  0.1757 -0.2602  0.0469
 5108SOL    HW126786   4.140   1.546   9.273  1.8046 -0.6187 -1.7130
 5108SOL    HW226787   4.106   1.682   9.335 -0.4302  0.2531 -0.5365
 5109SOL     OW26788   1.367   0.002   9.262  0.1303 -0.1857  0.5385
 5109SOL    HW126789   1.337   4.637   9.241 -0.1697  0.0660 -0.1045
 5109SOL    HW226790   1.302   0.060   9.221  0.5136  2.4941  3.7949
 5110SOL     OW26791   0.792   1.126   9.731  0.1907 -0.2585  0.0029
 5110SOL    HW126792   0.697   1.118   9.740  0.0841 -1.3952 -2.2175
 5110SOL    HW226793   0.791   1.204   9.674 -1.8496  0.2575  0.7360
 5111SOL     OW26794   3.156   4.664   1.967 -0.6005  0.6721 -0.3320
 5111SOL    HW126795   3.140   0.006   2.035  0.0506 -1.0203  1.4651
 5111SOL    HW226796   3.226   4.699   1.912  0.5486 -0.9601  0.0897
 5112SOL     OW26797   4.471   2.974   5.565  0.4269  0.5161  0.4771
 5112SOL    HW126798   4.515   2.990   5.648  0.8068 -0.7846  0.5381
 5112SOL    HW226799   4.394   2.940   5.610  0.5240  0.1307  0.3557
 5113SOL     OW26800   1.822   2.219   5.726 -0.0956 -0.0781 -0.3077
 5113SOL    HW126801   1.875   2.149   5.687 -1.8165 -0.9246 -1.1515
 5113SOL    HW226802   1.757   2.239   5.658  0.6410  1.5936 -0.5239
 5114SOL     OW26803   1.919   2.616  17.008  0.1369  0.4322  0.5012
 5114SOL    HW126804   1.919   2.522  17.027  0.7287  0.5387  1.0357
 5114SOL    HW226805   1.994   2.645  16.956  0.8267 -2.2767 -0.0267
 5115SOL     OW26806   0.780   4.454   2.667  0.6303  0.0716 -0.0847
 5115SOL    HW126807   0.762   4.376   2.720 -2.3182  0.9155  0.1404
 5115SOL    HW226808   0.769   4.429   2.576 -0.3961  0.6868 -0.1256
 5116SOL     OW26809   4.594   4.204   7.519  0.2137 -0.5972 -0.0877
 5116SOL    HW126810   4.644   4.144   7.464  0.2675  0.2467 -0.9551
 5116SOL    HW226811   4.507   4.168   7.502 -0.5730  0.8786  0.7975
 5117SOL     OW26812   4.040   4.680  12.441  0.3920 -0.2006  0.6083
 5117SOL    HW126813   4.049   0.050  12.457  2.5921 -0.2377 -0.5040
 5117SOL    HW226814   4.019   4.645  12.528  1.6781 -2.6984 -0.0900
 5118SOL     OW26815   4.085   4.579  17.093  0.5392  0.0124 -0.1572
 5118SOL    HW126816   4.019   4.519  17.130 -1.6228  2.5950  0.1652
 5118SOL    HW226817   4.156   4.563  17.155 -0.0806  1.4619  0.9354
 5119SOL     OW26818   1.525   4.229   3.192 -0.5805 -0.4154 -0.5584
 5119SOL    HW126819   1.451   4.258   3.244 -0.0644  0.1695 -0.1457
 5119SOL    HW226820   1.519   4.294   3.122 -2.2657 -1.8480 -1.7221
 5120SOL     OW26821   4.182   1.003  15.232 -0.6435  0.2985  0.0359
 5120SOL    HW126822   4.257   1.048  15.193  0.1623 -0.2435  0.9660
 5120SOL    HW226823   4.219   0.924  15.271 -0.1600  1.9611  2.9088
 5121SOL     OW26824   1.698   1.527   8.347  0.2153 -0.4645 -0.0539
 5121SOL    HW126825   1.732   1.451   8.395 -0.2996 -1.1589 -0.7905
 5121SOL    HW226826   1.624   1.556   8.401 -0.1279  1.1846 -1.4121
 5122SOL     OW26827   3.113   2.280   1.314  0.0409  0.0292  0.4447
 5122SOL    HW126828   3.135   2.360   1.362  0.6172 -0.9456  1.8069
 5122SOL    HW226829   3.191   2.260   1.261  1.8998 -1.2252  3.6394
 5123SOL     OW26830   3.738   2.163   8.281 -0.1368 -0.2886 -0.8869
 5123SOL    HW126831   3.694   2.101   8.339 -0.4329  0.2225 -0.5712
 5123SOL    HW226832   3.809   2.190   8.340 -1.6310 -0.6978  1.0817
 5124SOL     OW26833   2.916   0.381   2.854 -0.0423  0.2633  0.0085
 5124SOL    HW126834   2.902   0.460   2.801 -1.0571 -0.6694 -1.0886
 5124SOL    HW226835   2.999   0.354   2.816  0.4976  0.3154  1.1619
 5125SOL     OW26836   2.585   3.606   7.208  0.2269  0.4529 -0.2291
 5125SOL    HW126837   2.655   3.635   7.266 -0.3436 -0.2998  0.8436
 5125SOL    HW226838   2.529   3.683   7.217 -1.0246 -0.5124  0.2483
 5126SOL     OW26839   2.195   4.065   4.355  0.4396  0.3552 -0.4750
 5126SOL    HW126840   2.142   3.996   4.315  0.5077  0.1015 -0.1257
 5126SOL    HW226841   2.272   4.011   4.339 -0.2576 -0.5197 -0.9053
 5127SOL     OW26842   4.335   3.275  11.368  0.5358  0.4297 -0.2097
 5127SOL    HW126843   4.350   3.189  11.330 -1.2527  0.4470 -0.9750
 5127SOL    HW226844   4.408   3.321  11.326  1.0952 -1.0276 -0.8190
 5128SOL     OW26845   4.231   4.333   3.818  0.4335 -0.2996 -0.4367
 5128SOL    HW126846   4.294   4.377   3.876 -1.5979  2.1681 -0.1016
 5128SOL    HW226847   4.194   4.402   3.763  0.1904  0.9979  1.3553
 5129SOL     OW26848   2.733   2.747  11.553 -0.0130 -0.1422 -0.5831
 5129SOL    HW126849   2.655   2.784  11.595  0.6911  1.5462 -0.7978
 5129SOL    HW226850   2.739   2.661  11.596 -1.5395  1.6061  3.1301
 5130SOL     OW26851   4.661   3.947   0.515  0.5526 -0.1737  0.2454
 5130SOL    HW126852   4.669   4.021   0.455  1.7540 -1.4140 -1.1224
 5130SOL    HW226853   4.678   3.989   0.599 -1.2723 -0.5128  0.7723
 5131SOL     OW26854   3.170   2.714   2.690  0.1701  0.3159 -0.1503
 5131SOL    HW126855   3.148   2.770   2.765 -0.3723  0.6330 -0.5445
 5131SOL    HW226856   3.262   2.691   2.702  0.0887 -0.9089 -1.8384
 5132SOL     OW26857   3.298   0.397   7.079 -0.2171  0.1303 -0.0238
 5132SOL    HW126858   3.352   0.477   7.081  0.3155 -0.2549  1.4128
 5132SOL    HW226859   3.209   0.429   7.066 -0.6822 -1.6928 -1.2721
 5133SOL     OW26860   1.330   0.289  13.778  0.2107 -0.0530  0.3251
 5133SOL    HW126861   1.282   0.207  13.768  2.6723 -1.4303 -0.2567
 5133SOL    HW226862   1.263   0.348  13.812  1.2931  1.2976  0.1157
 5134SOL     OW26863   0.181   2.134  15.564  0.5989 -0.0979 -0.4320
 5134SOL    HW126864   0.151   2.100  15.649  0.3548  0.6965 -0.2058
 5134SOL    HW226865   0.100   2.167  15.525  1.3146  0.4557 -1.4486
 5135SOL     OW26866   2.836   0.661   7.134  0.2935  0.7956  0.2628
 5135SOL    HW126867   2.812   0.722   7.064 -0.4375  2.3526  1.8528
 5135SOL    HW226868   2.756   0.609   7.133  0.0504  1.1348  2.4972
 5136SOL     OW26869   2.152   0.305  15.853  0.2435  0.1170  0.9397
 5136SOL    HW126870   2.204   0.348  15.921  1.7449  0.7306 -0.5962
 5136SOL    HW226871   2.214   0.237  15.827  0.4100  0.9323 -0.7960
 5137SOL     OW26872   3.682   4.707  17.607  0.8569 -0.2258 -0.0628
 5137SOL    HW126873   3.704   4.690  17.515  3.6690 -1.6942  0.8788
 5137SOL    HW226874   3.588   4.697  17.594  1.1040 -1.8609 -0.6494
 5138SOL     OW26875   3.365   2.063   6.747  0.4212  0.0106 -0.6374
 5138SOL    HW126876   3.391   2.116   6.672 -0.2533  0.1466 -0.7795
 5138SOL    HW226877   3.433   1.996   6.743  1.2571  0.8722 -0.7773
 5139SOL     OW26878   1.560   3.772   6.135  0.1641 -0.1039 -0.4890
 5139SOL    HW126879   1.645   3.733   6.151 -0.0131  0.9458  3.0711
 5139SOL    HW226880   1.520   3.718   6.203  1.1024  0.6942  0.7064
 5140SOL     OW26881   3.057   4.400   2.949 -1.2208 -0.5967  0.5005
 5140SOL    HW126882   3.087   4.400   2.859 -3.4384  0.7257 -0.2221
 5140SOL    HW226883   2.962   4.404   2.940 -1.1901  0.3749  0.6969
 5141SOL     OW26884   4.345   3.079  17.542  0.2279 -0.5746  0.5205
 5141SOL    HW126885   4.391   3.142  17.597 -1.3356  0.9686  0.0654
 5141SOL    HW226886   4.304   3.145  17.487  0.1658 -0.5186  0.6339
 5142SOL     OW26887   2.138   1.242   3.960  0.4464  0.3510  0.1179
 5142SOL    HW126888   2.072   1.274   3.899  1.9483  0.5225 -1.4274
 5142SOL    HW226889   2.152   1.319   4.015 -0.1778  0.0420  0.7075
 5143SOL     OW26890   2.373   2.790   5.522  0.7094 -0.4779 -0.7688
 5143SOL    HW126891   2.341   2.858   5.581 -0.5279 -1.8235  0.1214
 5143SOL    HW226892   2.442   2.748   5.572 -0.4187 -0.2264  1.0136
 5144SOL     OW26893   0.982   0.361   4.857  0.1759 -0.2094  0.4644
 5144SOL    HW126894   1.031   0.443   4.856  3.0110 -1.8982 -0.6567
 5144SOL    HW226895   0.908   0.383   4.913 -2.0427 -2.2121 -1.6543
 5145SOL     OW26896   1.608   0.427   6.082 -0.1471  0.1358 -0.2657
 5145SOL    HW126897   1.691   0.405   6.040  0.8011  1.9561  0.6472
 5145SOL    HW226898   1.559   0.345   6.074  0.0166  0.2398 -2.3855
 5146SOL     OW26899   3.558   0.123   5.335  0.2451  0.0919  0.4672
 5146SOL    HW126900   3.585   0.214   5.320 -0.7657  0.6842  2.1741
 5146SOL    HW226901   3.469   0.119   5.299  1.3256 -2.2852 -1.9096
 5147SOL     OW26902   0.424   0.473   1.189 -0.2448 -0.2265 -0.6162
 5147SOL    HW126903   0.344   0.422   1.180  0.3459 -0.9376 -1.8547
 5147SOL    HW226904   0.390   0.542   1.245 -0.4360 -0.1765 -0.7961
 5148SOL     OW26905   4.384   2.001   0.470  0.1684 -0.0263  0.8130
 5148SOL    HW126906   4.350   1.999   0.381 -0.8434  1.7105  1.1565
 5148SOL    HW226907   4.475   2.018   0.445 -0.5442  1.8525 -0.4958
 5149SOL     OW26908   2.603   2.496   2.506 -0.3076 -0.1863 -0.1329
 5149SOL    HW126909   2.589   2.405   2.531 -0.0965 -0.1965 -0.0501
 5149SOL    HW226910   2.561   2.499   2.420 -0.9935  1.9215  0.2615
 5150SOL     OW26911   4.123   0.736   9.038 -0.2069  0.2936 -0.6620
 5150SOL    HW126912   4.193   0.762   9.098  0.2120 -2.6694  0.1519
 5150SOL    HW226913   4.044   0.777   9.074 -0.2934 -0.5196  0.0816
 5151SOL     OW26914   0.577   0.321  11.058  0.0446 -0.0591 -0.5183
 5151SOL    HW126915   0.619   0.378  11.123 -0.0402  0.4558 -0.9142
 5151SOL    HW226916   0.516   0.384  11.020 -1.0754 -0.7388  0.1547
 5152SOL     OW26917   2.706   0.170  12.729 -0.3580  0.0631  1.1278
 5152SOL    HW126918   2.614   0.146  12.737 -0.2549 -0.2034  1.5043
 5152SOL    HW226919   2.750   0.115  12.794  1.1821 -1.1821 -0.9500
 5153SOL     OW26920   2.493   1.379  10.004  0.0534  0.1972 -0.1297
 5153SOL    HW126921   2.518   1.292  10.035 -2.3912  0.3235  2.2590
 5153SOL    HW226922   2.473   1.425  10.086  1.4235 -0.2559  0.4452
 5154SOL     OW26923   1.811   1.837   4.628 -0.1407 -0.2920  0.7007
 5154SOL    HW126924   1.858   1.756   4.606 -0.0498  0.3222 -1.3495
 5154SOL    HW226925   1.881   1.869   4.685 -0.6677  1.2971  0.4447
 5155SOL     OW26926   3.377   1.841  10.636 -0.3749 -0.2413 -0.2811
 5155SOL    HW126927   3.378   1.914  10.574 -1.3593  0.7746  0.8962
 5155SOL    HW226928   3.431   1.772  10.597  0.4562 -0.0737  0.5874
 5156SOL     OW26929   1.017   4.336  13.848 -0.4404  0.2786  0.2165
 5156SOL    HW126930   1.065   4.401  13.797 -1.3332 -0.4870 -1.6231
 5156SOL    HW226931   1.073   4.261  13.826 -2.5271 -1.7295  1.7309
 5157SOL     OW26932   2.624   1.309  11.814  0.5400  0.1658 -0.0442
 5157SOL    HW126933   2.590   1.264  11.891 -1.0583  2.7524  0.7744
 5157SOL    HW226934   2.622   1.400  11.844  2.0984 -0.8052  3.0832
 5158SOL     OW26935   1.326   3.442   4.066 -0.2292  0.2055 -0.2420
 5158SOL    HW126936   1.264   3.430   4.138  0.2846 -1.5853 -0.0839
 5158SOL    HW226937   1.292   3.526   4.035 -0.6798  0.3040  0.5145
 5159SOL     OW26938   3.365   2.115   0.231 -0.4672 -0.4401 -0.5774
 5159SOL    HW126939   3.333   2.185   0.287 -1.8127 -1.2075 -0.3889
 5159SOL    HW226940   3.376   2.041   0.291 -1.8255  1.4188  1.9511
 5160SOL     OW26941   1.012   1.022   2.062  0.6037  0.0762 -0.7012
 5160SOL    HW126942   1.029   0.942   2.012 -1.6436 -0.4124 -0.6870
 5160SOL    HW226943   0.940   1.068   2.018  0.7439 -0.4194 -1.4427
 5161SOL     OW26944   0.301   0.461   9.096 -0.3768 -0.0307  0.3742
 5161SOL    HW126945   0.254   0.417   9.024  1.3743 -2.5409  0.7434
 5161SOL    HW226946   0.282   0.552   9.073 -0.1340  0.0183  0.3691
 5162SOL     OW26947   0.975   3.456  12.636  0.2274  0.3904  0.7653
 5162SOL    HW126948   1.014   3.371  12.658  1.2454  0.0404 -2.4329
 5162SOL    HW226949   0.998   3.467  12.544 -2.4436 -0.2474  0.0039
 5163SOL     OW26950   0.471   4.613   4.762 -0.2590  0.2210  0.7964
 5163SOL    HW126951   0.404   4.565   4.712  0.6583 -0.6249  0.3642
 5163SOL    HW226952   0.446   4.703   4.743  0.3008 -0.0195 -1.1083
 5164SOL     OW26953   1.928   0.630   6.146 -0.5202 -0.3386  0.0909
 5164SOL    HW126954   1.936   0.714   6.192  1.6288  0.6485 -2.0827
 5164SOL    HW226955   1.904   0.567   6.214  0.7506 -1.7026 -0.7242
 5165SOL     OW26956   0.394   4.253   7.042 -0.0336 -0.1206  0.4487
 5165SOL    HW126957   0.377   4.216   7.129 -0.7382  0.6995  0.6564
 5165SOL    HW226958   0.464   4.317   7.057 -1.4817  1.2786  1.2271
 5166SOL     OW26959   3.488   1.451  16.623 -0.4138 -0.0005 -0.2695
 5166SOL    HW126960   3.420   1.426  16.561 -0.1334  1.7386 -1.2786
 5166SOL    HW226961   3.445   1.432  16.706 -0.3314  0.1593 -0.1906
 5167SOL     OW26962   0.669   0.552   5.304 -0.7296  0.2598  0.6331
 5167SOL    HW126963   0.576   0.531   5.309 -0.5465 -0.7902 -0.3350
 5167SOL    HW226964   0.664   0.633   5.252 -0.0720 -0.8777 -1.2132
 5168SOL     OW26965   3.421   1.637   4.558 -0.2524  0.0446  0.0999
 5168SOL    HW126966   3.500   1.616   4.508  1.7566  0.7980  3.0057
 5168SOL    HW226967   3.420   1.731   4.541  1.3539 -0.1402 -1.0743
 5169SOL     OW26968   3.397   2.519  15.605 -0.5289 -0.8150 -0.1550
 5169SOL    HW126969   3.322   2.529  15.663  0.0240  2.1957  0.0065
 5169SOL    HW226970   3.368   2.446  15.551  2.0404 -0.8483 -1.4911
 5170SOL     OW26971   4.231   2.746   1.834 -0.3655 -0.2761 -0.5244
 5170SOL    HW126972   4.211   2.654   1.850  0.7244 -0.4341 -0.0408
 5170SOL    HW226973   4.243   2.766   1.927 -1.2838 -0.8214 -0.2931
 5171SOL     OW26974   0.397   3.078   6.275 -0.6214  0.2426 -0.0437
 5171SOL    HW126975   0.382   3.173   6.275 -3.8370 -0.2946 -0.3847
 5171SOL    HW226976   0.478   3.071   6.326 -0.9518  0.4799  0.5164
 5172SOL     OW26977   1.385   1.627   8.047  0.0677  0.2868  0.4671
 5172SOL    HW126978   1.480   1.618   8.037 -0.0086  0.4602 -0.4328
 5172SOL    HW226979   1.360   1.537   8.067  0.8047  0.3021  1.4404
 5173SOL     OW26980   3.005   2.729   3.566  0.1649 -0.0271 -0.4821
 5173SOL    HW126981   3.025   2.739   3.473  3.8050  0.9375  0.4089
 5173SOL    HW226982   2.919   2.686   3.562 -0.5282  1.3400 -0.2050
 5174SOL     OW26983   1.443   1.866   7.097 -0.4459 -0.1171 -0.0549
 5174SOL    HW126984   1.485   1.951   7.110 -1.4222  0.5723 -1.3978
 5174SOL    HW226985   1.525   1.816   7.094  0.1546  0.9125 -0.9982
 5175SOL     OW26986   2.208   3.775  14.741 -0.0467  0.2627 -0.0620
 5175SOL    HW126987   2.113   3.766  14.750 -0.0188 -1.1243 -1.3081
 5175SOL    HW226988   2.217   3.747  14.650  1.8056 -1.0081  0.5097
 5176SOL     OW26989   0.907   4.545   6.815  0.3348 -0.6016  0.3527
 5176SOL    HW126990   0.878   4.575   6.901 -1.4039 -2.8347  0.5252
 5176SOL    HW226991   0.966   4.476   6.845  0.0690 -1.7687 -1.8302
 5177SOL     OW26992   2.733   4.602   5.590 -0.6198  0.2080 -0.0583
 5177SOL    HW126993   2.827   4.616   5.579 -0.6576 -0.2155 -0.9147
 5177SOL    HW226994   2.713   4.512   5.564  0.8071 -0.1128 -0.0012
 5178SOL     OW26995   2.966   2.408   1.734 -0.2475  0.1992 -0.6693
 5178SOL    HW126996   3.025   2.359   1.792 -3.5549 -1.0491  1.6385
 5178SOL    HW226997   2.919   2.469   1.792  0.1885  0.9379 -1.0870
 5179SOL     OW26998   3.545   4.330  16.603 -0.0215 -0.0629 -0.1711
 5179SOL    HW126999   3.546   4.284  16.686 -3.0632  0.4480  0.1315
 5179SOL    HW227000   3.621   4.279  16.572  0.8757  0.5159  1.0732
 5180SOL     OW27001   4.612   0.716   7.042  0.0432 -0.6640 -0.2463
 5180SOL    HW127002   4.540   0.776   7.023  0.1474  0.2091  2.1149
 5180SOL    HW227003   4.686   0.773   7.020 -0.7461  0.2320 -0.5772
 5181SOL     OW27004   1.157   4.109   7.183 -0.7390 -0.3533  0.4003
 5181SOL    HW127005   1.127   4.169   7.252  0.4049  1.0815 -0.3555
 5181SOL    HW227006   1.070   4.085   7.153 -1.9503  2.6368  1.5535
 5182SOL     OW27007   1.156   2.719   9.095 -0.3892  0.1555  0.2303
 5182SOL    HW127008   1.199   2.714   9.180 -2.1924 -1.1826  1.0656
 5182SOL    HW227009   1.157   2.627   9.067  3.0953  0.9436 -2.2473
 5183SOL     OW27010   0.468   0.327  12.954  0.9159 -0.1001 -0.4119
 5183SOL    HW127011   0.489   0.397  13.015 -0.1441  0.6170 -0.8672
 5183SOL    HW227012   0.409   0.375  12.895 -0.0214 -1.8765 -0.9270
 5184SOL     OW27013   3.774   2.645   0.295 -0.2845  0.5470  0.3740
 5184SOL    HW127014   3.855   2.696   0.293 -0.6627  1.1008 -0.6205
 5184SOL    HW227015   3.736   2.661   0.381  4.9956  3.0489  2.2091
 5185SOL     OW27016   2.167   3.630   0.277 -0.2838 -0.1340 -0.7957
 5185SOL    HW127017   2.127   3.594   0.198 -2.6141  0.2708  0.2019
 5185SOL    HW227018   2.191   3.717   0.245 -1.9350 -0.1147 -1.9724
 5186SOL     OW27019   3.253   4.320   7.510 -0.0742 -0.1954 -0.5961
 5186SOL    HW127020   3.323   4.303   7.446  0.3231  2.3049 -0.8109
 5186SOL    HW227021   3.208   4.236   7.520  0.9606 -0.5432  1.1688
 5187SOL     OW27022   2.200   1.558  12.783 -0.4164  0.1177 -0.4506
 5187SOL    HW127023   2.205   1.498  12.709 -0.0597  1.0398 -1.1671
 5187SOL    HW227024   2.271   1.616  12.755 -1.2609  0.9237 -0.9370
 5188SOL     OW27025   3.870   3.907   2.260 -0.3219  0.0555 -0.1732
 5188SOL    HW127026   3.786   3.865   2.280  0.0123  0.2710  1.7656
 5188SOL    HW227027   3.839   3.990   2.223 -0.7344  0.9395  2.1349
 5189SOL     OW27028   1.722   3.842   0.910 -0.1611 -0.4759 -0.5978
 5189SOL    HW127029   1.663   3.830   0.835 -1.7868 -0.9230  0.7319
 5189SOL    HW227030   1.779   3.767   0.890 -0.9458 -0.4816 -2.7980
 5190SOL     OW27031   3.821   3.791   1.356  0.2879 -0.6678 -0.1225
 5190SOL    HW127032   3.783   3.825   1.275 -0.7275  1.2295  1.1575
 5190SOL    HW227033   3.869   3.718   1.317  2.1570  0.3615  0.2590
 5191SOL     OW27034   3.853   0.585   8.564  0.1062  0.0387 -0.0966
 5191SOL    HW127035   3.874   0.530   8.489  1.2252 -1.1949  1.1100
 5191SOL    HW227036   3.910   0.557   8.635 -1.8304 -1.3301  0.9342
 5192SOL     OW27037   4.025   1.917   5.332 -0.3541  0.1705  0.1163
 5192SOL    HW127038   4.010   1.954   5.245 -0.1385 -2.7423 -1.1465
 5192SOL    HW227039   4.018   1.994   5.389  2.7201 -0.4476  1.3266
 5193SOL     OW27040   1.067   2.288   4.378 -1.0997  0.2373  0.3088
 5193SOL    HW127041   1.112   2.273   4.462  0.9171  0.3221 -0.7654
 5193SOL    HW227042   1.117   2.225   4.327 -2.5335  0.0280 -0.8229
 5194SOL     OW27043   4.379   2.814   2.516  0.1530  0.2848  0.2286
 5194SOL    HW127044   4.427   2.744   2.560  1.8277  0.3678 -1.4382
 5194SOL    HW227045   4.324   2.759   2.460  0.3778  0.4228 -0.1316
 5195SOL     OW27046   2.687   4.173   4.097 -0.2623  0.3178 -0.3416
 5195SOL    HW127047   2.686   4.099   4.158 -0.4932  0.2700 -0.4035
 5195SOL    HW227048   2.725   4.127   4.023 -0.8635 -0.2066 -0.3279
 5196SOL     OW27049   1.906   0.206  15.951 -0.1047 -0.3940 -0.1734
 5196SOL    HW127050   1.986   0.258  15.944 -1.3666  1.6945  0.8261
 5196SOL    HW227051   1.868   0.259  16.022  0.0631 -0.1905 -0.2355
 5197SOL     OW27052   3.860   3.864   4.891 -0.2774  0.5449 -0.0938
 5197SOL    HW127053   3.845   3.771   4.904  0.1493  0.1347 -2.5535
 5197SOL    HW227054   3.785   3.910   4.929  0.5742  1.7320  0.1742
 5198SOL     OW27055   1.850   1.768   8.348  0.1409  0.6612  0.3540
 5198SOL    HW127056   1.784   1.702   8.332  1.1942 -0.0020 -1.2471
 5198SOL    HW227057   1.851   1.779   8.443  1.3753 -0.0023  0.4146
 5199SOL     OW27058   1.615   3.388   5.840  0.0234 -0.3943 -0.3267
 5199SOL    HW127059   1.624   3.345   5.755  2.5385 -1.2399  0.3555
 5199SOL    HW227060   1.669   3.333   5.897 -1.1559  0.3746  1.5337
 5200SOL     OW27061   0.793   2.930   6.170 -0.1583  0.1666  0.0048
 5200SOL    HW127062   0.796   2.998   6.103 -1.5555 -0.8303 -1.0554
 5200SOL    HW227063   0.810   2.845   6.130  0.8690  0.0907  0.5875
 5201SOL     OW27064   4.278   2.256   0.097  0.2222  0.3862  0.5570
 5201SOL    HW127065   4.252   2.338   0.138 -0.7161  1.6909 -2.6400
 5201SOL    HW227066   4.374   2.261   0.093  0.2891  0.1149  1.5993
 5202SOL     OW27067   1.850   4.299   1.889  0.3195 -0.2787  0.3647
 5202SOL    HW127068   1.881   4.380   1.930 -0.7145 -0.2127  1.0266
 5202SOL    HW227069   1.938   4.269   1.865  0.7241  1.9049 -0.8495
 5203SOL     OW27070   0.571   4.610   5.935  0.0833  0.2955 -0.2788
 5203SOL    HW127071   0.523   4.686   5.901  0.7346  0.5035 -0.7351
 5203SOL    HW227072   0.499   4.559   5.973 -0.6534  1.6794  0.1759
 5204SOL     OW27073   4.541   3.311   4.757  0.1438  0.1175  0.0573
 5204SOL    HW127074   4.546   3.221   4.725  0.4099 -0.2188  1.0328
 5204SOL    HW227075   4.573   3.352   4.676  0.9618 -0.0948  0.2794
 5205SOL     OW27076   1.063   4.615   1.660  0.0232  0.0938  0.2419
 5205SOL    HW127077   1.140   4.564   1.685 -1.4402 -1.2719  1.9663
 5205SOL    HW227078   1.102   4.660   1.585  1.3748 -1.9532 -0.2730
 5206SOL     OW27079   0.060   3.431   8.728 -0.3265 -0.4979  0.3620
 5206SOL    HW127080   0.044   3.363   8.793 -2.4244 -0.4206 -0.0824
 5206SOL    HW227081   0.121   3.387   8.668  0.4439 -0.2461  0.9602
 5207SOL     OW27082   2.023   4.321   1.314 -0.0047  0.0966  0.0795
 5207SOL    HW127083   2.007   4.246   1.371  0.7963 -0.8594 -0.9446
 5207SOL    HW227084   2.034   4.391   1.378 -0.8766  0.2139  0.1000
 5208SOL     OW27085   2.314   0.289   3.734  0.8392  0.1256  0.0412
 5208SOL    HW127086   2.405   0.268   3.758  1.4123  2.0682 -0.4308
 5208SOL    HW227087   2.264   0.257   3.809  0.0560  0.7408 -0.2166
 5209SOL     OW27088   0.417   2.193   7.019  0.4206  0.2509  0.3850
 5209SOL    HW127089   0.414   2.241   7.101 -0.4546  0.5985  0.1461
 5209SOL    HW227090   0.507   2.162   7.021  0.2533 -0.4219 -1.6051
 5210SOL     OW27091   1.119   1.904   6.207  0.4182 -0.6245  0.2850
 5210SOL    HW127092   1.178   1.979   6.216 -1.3773  0.8990 -0.5704
 5210SOL    HW227093   1.181   1.831   6.202 -1.2966 -1.9383 -1.7549
 5211SOL     OW27094   2.684   0.914   7.255 -0.1363 -0.3181 -0.5736
 5211SOL    HW127095   2.720   0.983   7.200 -3.0799  0.8117 -1.1005
 5211SOL    HW227096   2.628   0.964   7.315 -1.3327  0.2778 -2.1879
 5212SOL     OW27097   4.435   1.377   6.486 -0.6765 -0.1463  0.8101
 5212SOL    HW127098   4.385   1.355   6.565 -2.5973  1.0719 -0.0501
 5212SOL    HW227099   4.383   1.322   6.426 -1.2577  1.5823 -0.2702
 5213SOL     OW27100   3.291   2.304   6.891 -0.2211  0.0755  0.1690
 5213SOL    HW127101   3.341   2.226   6.868  1.4642  1.1276  0.2809
 5213SOL    HW227102   3.269   2.295   6.984  3.9039 -1.3401  1.0172
 5214SOL     OW27103   2.999   0.670  10.087 -0.0572  0.1541 -0.0044
 5214SOL    HW127104   3.066   0.739  10.094  0.7575 -0.8774  2.2663
 5214SOL    HW227105   2.938   0.708  10.150 -0.0168  0.4668 -0.1554
 5215SOL     OW27106   0.166   4.561   1.725  0.1868  0.2868  0.0021
 5215SOL    HW127107   0.196   4.478   1.686  0.2278 -0.5685  1.8655
 5215SOL    HW227108   0.160   4.610   1.643  0.4207 -0.5521 -0.5286
 5216SOL     OW27109   1.819   3.333  15.417  0.3181 -0.3699 -0.4532
 5216SOL    HW127110   1.760   3.391  15.369  0.3172  2.3996  2.8816
 5216SOL    HW227111   1.831   3.381  15.499 -0.8178  0.6504 -0.8958
 5217SOL     OW27112   0.468   3.998   4.835  0.3136  0.1337 -0.1022
 5217SOL    HW127113   0.464   4.012   4.741 -2.4022  0.2764  0.0448
 5217SOL    HW227114   0.462   3.902   4.837 -2.0301  0.2879 -0.1567
 5218SOL     OW27115   2.753   0.689   3.992  0.2592  0.1323 -0.0706
 5218SOL    HW127116   2.804   0.637   4.054  1.7738 -0.2294 -1.6029
 5218SOL    HW227117   2.809   0.766   3.981  2.7443 -1.7307 -0.5282
 5219SOL     OW27118   0.422   2.444   4.597  0.2568  0.0594  0.5263
 5219SOL    HW127119   0.514   2.447   4.573  0.5085  1.2366  1.6023
 5219SOL    HW227120   0.419   2.355   4.633  0.0758  0.4000  1.3769
 5220SOL     OW27121   3.597   2.675   5.298 -0.4170 -0.1139  0.3914
 5220SOL    HW127122   3.576   2.586   5.268 -1.4091  0.2786 -0.0840
 5220SOL    HW227123   3.520   2.693   5.352 -0.6585  0.6145 -0.2016
 5221SOL     OW27124   1.150   0.072   1.478 -0.7471  0.4418 -0.1480
 5221SOL    HW127125   1.157   0.040   1.388  1.3146 -0.9528  0.5398
 5221SOL    HW227126   1.056   0.089   1.466 -1.1009 -0.7826  0.9501
 5222SOL     OW27127   1.974   2.624   5.334  0.1685 -0.5789 -0.0194
 5222SOL    HW127128   2.051   2.569   5.346  1.3141  0.8942 -0.6701
 5222SOL    HW227129   2.010   2.679   5.265  2.8094 -0.8992  1.1034
 5223SOL     OW27130   2.333   0.789  15.507 -0.4646 -0.3063  0.3147
 5223SOL    HW127131   2.375   0.722  15.453 -1.3532 -0.3299 -0.3487
 5223SOL    HW227132   2.405   0.852  15.500 -0.8635  0.3318  2.1575
 5224SOL     OW27133   2.880   0.142   5.954 -0.2694  0.1733 -0.0483
 5224SOL    HW127134   2.956   0.099   5.917 -0.6299  0.2150 -0.8317
 5224SOL    HW227135   2.911   0.231   5.942 -0.1047  0.3894  1.9621
 5225SOL     OW27136   3.157   4.325   9.017 -0.1798  0.0101  0.3465
 5225SOL    HW127137   3.108   4.299   9.096  0.4367  2.5745  1.5851
 5225SOL    HW227138   3.147   4.248   8.961  0.9081 -0.0732  0.2730
 5226SOL     OW27139   3.212   0.420  16.771 -0.3929 -0.1091  0.1474
 5226SOL    HW127140   3.181   0.335  16.740 -0.7773 -0.2622  0.9499
 5226SOL    HW227141   3.160   0.480  16.717 -0.6999 -1.6313 -1.2366
 5227SOL     OW27142   1.661   4.027  12.692 -0.8731  0.2530  0.1825
 5227SOL    HW127143   1.726   3.982  12.747 -0.8968  1.8797  1.5232
 5227SOL    HW227144   1.686   4.008  12.601 -0.5220 -1.4042  0.6275
 5228SOL     OW27145   4.214   1.259   0.770 -0.1281 -0.0798  0.4538
 5228SOL    HW127146   4.184   1.349   0.785 -0.6027 -0.4736  1.8958
 5228SOL    HW227147   4.129   1.223   0.794 -0.6759  0.4900 -0.6184
 5229SOL     OW27148   1.276   0.893   7.262 -0.1357 -0.0549 -0.0905
 5229SOL    HW127149   1.307   0.910   7.351  0.2708  1.7648 -0.5802
 5229SOL    HW227150   1.344   0.830   7.237 -0.4189 -0.8729  1.2394
 5230SOL     OW27151   2.366   2.667   7.916  0.0507 -0.1776  0.2696
 5230SOL    HW127152   2.338   2.635   7.830  0.6467  0.0597 -0.0087
 5230SOL    HW227153   2.440   2.723   7.894  0.5861  0.2432  3.0548
 5231SOL     OW27154   4.374   0.518  12.636  0.2579 -0.4458 -0.0281
 5231SOL    HW127155   4.358   0.589  12.698 -1.8902 -0.5872 -0.4360
 5231SOL    HW227156   4.402   0.446  12.692  3.0164  0.4366 -0.2537
 5232SOL     OW27157   2.060   3.699   3.674  0.8691  0.1456 -0.7328
 5232SOL    HW127158   1.993   3.732   3.613  0.7132  0.3676 -0.4406
 5232SOL    HW227159   2.001   3.680   3.747  1.3113 -1.4850 -0.8035
 5233SOL     OW27160   0.906   4.279  13.025 -0.0032  0.0831  0.0343
 5233SOL    HW127161   0.979   4.262  13.085 -0.1383  0.3119  0.2601
 5233SOL    HW227162   0.898   4.374  13.028 -2.0955 -0.1153  0.9081
 5234SOL     OW27163   1.902   4.284   3.220 -0.2457 -0.0491 -0.2910
 5234SOL    HW127164   1.853   4.318   3.146 -1.3441  0.7963  0.8305
 5234SOL    HW227165   1.883   4.192   3.203 -0.0419 -0.1746  0.1485
 5235SOL     OW27166   3.824   3.271   2.365  1.0770 -0.4615  0.1199
 5235SOL    HW127167   3.801   3.220   2.442 -0.5281 -0.7414 -0.5513
 5235SOL    HW227168   3.912   3.238   2.344  0.3425 -1.1330 -1.8980
 5236SOL     OW27169   4.514   4.303   0.203  0.0228  0.1135  0.2739
 5236SOL    HW127170   4.423   4.322   0.225  0.2223  2.0061 -0.5155
 5236SOL    HW227171   4.507   4.306   0.108  1.7105 -0.6876  0.1293
 5237SOL     OW27172   3.442   3.091  11.892  0.1534 -0.0703  0.5346
 5237SOL    HW127173   3.350   3.116  11.905 -0.2988 -2.3847  1.6452
 5237SOL    HW227174   3.457   3.130  11.805 -1.6181 -0.3830  0.0926
 5238SOL     OW27175   2.467   2.311   0.243  0.1119 -0.3584  0.0128
 5238SOL    HW127176   2.522   2.381   0.209 -0.8664 -0.3455 -1.5903
 5238SOL    HW227177   2.378   2.336   0.217 -0.0869  0.0158  1.0612
 5239SOL     OW27178   0.218   2.707   2.971 -0.3977 -0.1879  0.4028
 5239SOL    HW127179   0.276   2.695   2.895 -0.4101  2.9829 -0.1032
 5239SOL    HW227180   0.163   2.629   2.962 -2.2511  0.7976  3.1758
 5240SOL     OW27181   4.511   0.971   2.356  0.1237  0.1033 -0.3116
 5240SOL    HW127182   4.497   0.882   2.389 -1.0240  0.4629  0.1858
 5240SOL    HW227183   4.438   0.980   2.294 -0.8877  2.6106  1.2634
 5241SOL     OW27184   2.929   4.461  16.868  0.4778 -0.5549 -0.4691
 5241SOL    HW127185   3.022   4.448  16.851 -0.2831 -1.9650 -3.5909
 5241SOL    HW227186   2.922   4.554  16.846  0.0575 -0.0942  1.5856
 5242SOL     OW27187   4.107   2.213  16.517 -0.2473 -0.3312 -0.5612
 5242SOL    HW127188   4.188   2.188  16.561 -0.8149  2.3946  2.0302
 5242SOL    HW227189   4.112   2.144  16.451 -2.0973 -0.9540 -0.0429
 5243SOL     OW27190   1.464   4.608   7.388  0.0343  0.2961  0.5677
 5243SOL    HW127191   1.500   4.681   7.338  0.4117 -0.8635 -0.8613
 5243SOL    HW227192   1.532   4.592   7.454  0.0391 -2.0833 -0.0325
 5244SOL     OW27193   1.252   0.336  16.460 -0.0817 -1.1374  0.0838
 5244SOL    HW127194   1.182   0.315  16.397  2.2447 -0.7535 -2.6293
 5244SOL    HW227195   1.207   0.374  16.535  2.5605  0.5049  0.8200
 5245SOL     OW27196   1.254   1.346   8.040  0.4621  0.3210  0.0772
 5245SOL    HW127197   1.258   1.297   8.122  2.4432 -1.9879 -1.3834
 5245SOL    HW227198   1.268   1.277   7.974 -0.3277 -0.6703  0.9571
 5246SOL     OW27199   3.217   2.691  16.807  0.0729 -0.1596 -0.5662
 5246SOL    HW127200   3.273   2.658  16.877 -0.1782 -0.0479 -0.3122
 5246SOL    HW227201   3.150   2.729  16.863 -0.1255 -0.8155 -0.3546
 5247SOL     OW27202   4.411   2.446   8.213 -0.2060 -0.2472 -0.0398
 5247SOL    HW127203   4.424   2.433   8.119  1.1254 -3.3046  0.5508
 5247SOL    HW227204   4.316   2.446   8.225 -0.0906 -0.7868  0.9358
 5248SOL     OW27205   0.736   2.062  13.051 -0.2823 -0.1496 -0.0966
 5248SOL    HW127206   0.706   2.150  13.030 -1.0859  0.1594  2.2992
 5248SOL    HW227207   0.722   2.069  13.146  1.4052 -2.6495  0.3388
 5249SOL     OW27208   4.452   0.531   3.997  0.6643 -0.0216 -0.1829
 5249SOL    HW127209   4.452   0.458   4.059  0.2367  0.7269  0.6978
 5249SOL    HW227210   4.480   0.478   3.922 -2.2452 -1.0913 -0.5255
 5250SOL     OW27211   1.547   0.931   6.586  0.4869  0.5286 -0.3818
 5250SOL    HW127212   1.461   0.974   6.584  1.1138  1.8090 -0.1211
 5250SOL    HW227213   1.572   0.951   6.676  1.0511  0.3142 -0.4930
 5251SOL     OW27214   3.105   2.712   3.307  0.4212 -0.1578 -0.3196
 5251SOL    HW127215   3.101   2.791   3.253 -0.8672  1.7987  2.6267
 5251SOL    HW227216   3.115   2.651   3.234 -1.0628 -2.1179  1.1431
 5252SOL     OW27217   3.104   1.123   4.029  0.5088  0.4428 -0.1115
 5252SOL    HW127218   3.145   1.140   3.944  0.0635 -2.4800 -0.9138
 5252SOL    HW227219   3.150   1.044   4.057 -1.8686 -0.7967  0.2280
 5253SOL     OW27220   0.799   1.008   8.803 -0.1683  0.7287 -0.4630
 5253SOL    HW127221   0.704   0.997   8.790  0.1077  0.4311 -2.2155
 5253SOL    HW227222   0.823   0.959   8.882 -2.5548 -0.5028 -0.4912
 5254SOL     OW27223   0.843   4.099   2.393  0.7017  0.0088  0.0494
 5254SOL    HW127224   0.775   4.163   2.368  0.2624  0.7546  3.1717
 5254SOL    HW227225   0.915   4.147   2.351  1.2879 -1.2351 -0.3545
 5255SOL     OW27226   4.164   3.985   6.405 -0.3251  0.1889 -0.0660
 5255SOL    HW127227   4.172   3.890   6.404 -1.4636  0.1006 -1.6760
 5255SOL    HW227228   4.096   3.992   6.472  0.2739  0.3740  0.5307
 5256SOL     OW27229   2.125   3.350   0.692 -0.1091  1.2492  0.5209
 5256SOL    HW127230   2.031   3.353   0.711 -0.0688 -1.2375  1.1373
 5256SOL    HW227231   2.118   3.375   0.600 -3.4773 -2.2433 -0.1476
 5257SOL     OW27232   0.517   0.981   0.446 -0.3330 -0.0822 -0.4808
 5257SOL    HW127233   0.586   0.918   0.469  2.2511  2.7897 -0.3947
 5257SOL    HW227234   0.568   1.062   0.447 -0.6453  0.1002  0.8043
 5258SOL     OW27235   3.089   1.572   3.698  0.0303 -0.2051  0.4573
 5258SOL    HW127236   3.027   1.615   3.639  1.9712 -1.3337 -2.3939
 5258SOL    HW227237   3.147   1.517   3.646 -0.6651 -0.7853  0.2931
 5259SOL     OW27238   2.837   0.638   9.855 -0.3008 -0.1751  0.3260
 5259SOL    HW127239   2.753   0.634   9.901  0.1952 -0.4642  1.1947
 5259SOL    HW227240   2.897   0.614   9.925  0.7389  3.1859  0.5844
 5260SOL     OW27241   2.538   1.738   5.984  0.5497  0.1034 -0.4300
 5260SOL    HW127242   2.590   1.819   5.992 -2.0394  1.9239 -1.9692
 5260SOL    HW227243   2.458   1.773   5.944 -0.6383 -1.5709  0.4724
 5261SOL     OW27244   0.018   4.251   3.480 -0.2926 -0.2348 -0.7352
 5261SOL    HW127245   4.710   4.339   3.502 -1.2723 -0.9500  0.6817
 5261SOL    HW227246   0.110   4.262   3.505 -0.6205 -0.1233  0.4528
 5262SOL     OW27247   0.553   3.243   3.626  0.5087  0.3049 -0.1711
 5262SOL    HW127248   0.501   3.274   3.701  1.8110 -1.6912  1.5529
 5262SOL    HW227249   0.629   3.225   3.682  3.0826 -0.5063 -3.9363
 5263SOL     OW27250   1.787   3.505   1.031 -0.0419 -0.2013 -0.0077
 5263SOL    HW127251   1.704   3.541   1.001 -0.0937 -0.5233 -0.2467
 5263SOL    HW227252   1.755   3.431   1.083  1.1773 -0.6643  0.0998
 5264SOL     OW27253   3.545   4.043   6.029  0.0769  0.4640 -0.1826
 5264SOL    HW127254   3.552   4.101   6.105 -0.6860  1.4102 -0.8350
 5264SOL    HW227255   3.456   4.065   6.002 -0.3793  0.6742  1.4679
 5265SOL     OW27256   2.488   1.059   4.863 -0.1678  0.4285  0.2337
 5265SOL    HW127257   2.459   1.055   4.773 -0.7209  1.6095  0.3630
 5265SOL    HW227258   2.402   1.079   4.900  0.1343  1.7949  0.2161
 5266SOL     OW27259   2.342   4.552   5.159  0.1723  0.4512 -0.3666
 5266SOL    HW127260   2.340   4.646   5.140  1.8774  0.2729 -1.3858
 5266SOL    HW227261   2.302   4.550   5.246 -1.0275 -1.8058 -0.9915
 5267SOL     OW27262   4.054   0.069   1.824 -0.6829 -0.0664  0.1815
 5267SOL    HW127263   4.093   0.157   1.823 -1.6975  0.3926 -0.1499
 5267SOL    HW227264   3.972   0.088   1.870  0.4795 -0.9511  2.5859
 5268SOL     OW27265   3.324   4.504   2.828  0.0447 -0.8510 -0.3688
 5268SOL    HW127266   3.265   4.463   2.764  1.8741 -1.2280 -1.8111
 5268SOL    HW227267   3.394   4.439   2.831  1.2565  0.3600 -2.5156
 5269SOL     OW27268   0.975   3.664   2.515 -0.2011  0.3232 -0.2276
 5269SOL    HW127269   0.946   3.755   2.508  1.0009  0.7134 -0.1732
 5269SOL    HW227270   1.033   3.654   2.439  0.8775 -2.2264  0.9149
 5270SOL     OW27271   3.399   3.954   3.164 -0.1823 -0.1906  0.3453
 5270SOL    HW127272   3.319   3.985   3.121  0.6234  2.1695  0.5484
 5270SOL    HW227273   3.380   3.934   3.255  1.2082  0.3725  0.7677
 5271SOL     OW27274   0.951   0.531   8.140  0.7885 -0.3331 -0.1123
 5271SOL    HW127275   0.942   0.572   8.226 -1.6969 -1.8263  0.3257
 5271SOL    HW227276   0.985   0.607   8.092  0.0148  0.4793  0.6274
 5272SOL     OW27277   0.098   4.207  11.058  0.1861  0.1898 -0.2256
 5272SOL    HW127278   0.124   4.288  11.014  2.0092  0.2887  1.0270
 5272SOL    HW227279   0.170   4.199  11.121 -2.5702  0.8952  3.0481
 5273SOL     OW27280   3.931   1.235   4.930 -0.1621  0.3491 -0.1594
 5273SOL    HW127281   3.999   1.217   4.995 -0.3132  0.9385  0.1687
 5273SOL    HW227282   3.953   1.179   4.856 -0.7640 -0.2703  0.1364
 5274SOL     OW27283   2.637   2.583   4.371 -0.1109 -0.2349  0.3880
 5274SOL    HW127284   2.727   2.553   4.376 -0.4047 -1.1660  0.0004
 5274SOL    HW227285   2.601   2.531   4.442 -2.7044  0.7015 -0.2096
 5275SOL     OW27286   3.092   3.063   1.485 -0.1461  0.1641  0.0641
 5275SOL    HW127287   2.997   3.070   1.476  0.0739  3.3952  0.1767
 5275SOL    HW227288   3.104   3.099   1.397 -2.7193 -3.9694 -1.9458
 5276SOL     OW27289   2.565   1.077   6.942 -0.4810 -0.2352 -0.1102
 5276SOL    HW127290   2.531   1.133   7.011  1.4240  1.0991 -0.2509
 5276SOL    HW227291   2.590   1.148   6.883 -1.2765  1.3619  1.5087
 5277SOL     OW27292   1.318   4.668   9.563 -0.0917  0.0100 -0.3152
 5277SOL    HW127293   1.360   4.684   9.478  0.6553 -0.7898 -0.0902
 5277SOL    HW227294   1.230   4.692   9.534 -1.2310 -1.7934  1.6588
 5278SOL     OW27295   1.266   3.450   5.455 -0.1795 -0.1201  0.3562
 5278SOL    HW127296   1.249   3.476   5.546  1.1977 -0.6967  0.7846
 5278SOL    HW227297   1.270   3.537   5.415  0.6375 -0.1822  0.2937
 5279SOL     OW27298   2.207   2.798  15.967  0.4018 -0.1872 -0.0328
 5279SOL    HW127299   2.224   2.704  15.963  0.1034 -0.3492  2.1214
 5279SOL    HW227300   2.286   2.829  16.013  0.8697 -0.1941 -0.8442
 5280SOL     OW27301   4.394   3.698  11.349  0.3123 -0.0387 -0.1993
 5280SOL    HW127302   4.318   3.748  11.319 -0.2715 -0.5727  0.4027
 5280SOL    HW227303   4.450   3.760  11.397 -0.3344 -0.4820  1.1240
 5281SOL     OW27304   2.728   1.416  13.017 -0.5716  0.3093  0.2500
 5281SOL    HW127305   2.751   1.325  13.038  0.8076  0.9709  1.6284
 5281SOL    HW227306   2.800   1.440  12.958  0.5143 -1.7364  0.7417
 5282SOL     OW27307   0.786   3.966   3.119  0.0533 -0.1810 -0.3661
 5282SOL    HW127308   0.718   3.953   3.053  1.2994 -0.9325 -1.5066
 5282SOL    HW227309   0.866   3.945   3.072  0.9978  0.7722  0.8233
 5283SOL     OW27310   4.184   1.174   7.529  0.2302  0.1615 -0.0879
 5283SOL    HW127311   4.228   1.117   7.466  2.8172  0.0271  1.8178
 5283SOL    HW227312   4.234   1.252   7.506 -0.6226  0.8115  0.2217
 5284SOL     OW27313   3.285   3.295   6.639 -0.9015  0.0330 -0.2813
 5284SOL    HW127314   3.352   3.283   6.706 -0.6326  2.8410 -0.0498
 5284SOL    HW227315   3.309   3.224   6.579  2.0979 -1.0518  2.2418
 5285SOL     OW27316   1.806   2.269   6.167  0.0755 -0.3088 -0.0800
 5285SOL    HW127317   1.848   2.354   6.151 -1.9559  0.2835 -2.2234
 5285SOL    HW227318   1.890   2.223   6.166  0.1354 -0.2983  3.9134
 5286SOL     OW27319   1.598   0.908   9.651 -0.0996  0.3309  0.0990
 5286SOL    HW127320   1.577   0.914   9.558  0.3745 -0.4581 -0.0584
 5286SOL    HW227321   1.615   0.815   9.671  0.5783  0.5260  0.4509
 5287SOL     OW27322   4.123   0.458   7.862 -0.0999 -0.6228  0.2871
 5287SOL    HW127323   4.105   0.549   7.885 -0.6369 -0.3643 -1.1430
 5287SOL    HW227324   4.065   0.423   7.929 -0.9390  0.4270  0.1127
 5288SOL     OW27325   4.498   1.245   0.218 -0.5223  0.0021  0.2902
 5288SOL    HW127326   4.531   1.323   0.262  1.3170 -0.5273 -0.1401
 5288SOL    HW227327   4.569   1.183   0.234  0.0570  1.1016  2.0703
 5289SOL     OW27328   1.855   4.538   8.411 -1.0537  0.5143 -0.1157
 5289SOL    HW127329   1.846   4.611   8.473  0.1979  1.9660 -1.6491
 5289SOL    HW227330   1.841   4.466   8.473  1.3445  0.0595 -0.1233
 5290SOL     OW27331   4.432   3.115  12.153 -0.5771  0.8305 -0.1605
 5290SOL    HW127332   4.523   3.100  12.180 -1.2110 -3.7889 -0.6971
 5290SOL    HW227333   4.412   3.191  12.208  0.2768 -0.7507  2.3417
 5291SOL     OW27334   2.482   1.378   7.336 -0.6814  0.2072  0.2836
 5291SOL    HW127335   2.440   1.360   7.420 -0.8736 -0.3331  0.0721
 5291SOL    HW227336   2.499   1.472   7.338 -0.6027  0.2334 -1.7994
 5292SOL     OW27337   1.114   3.967   3.617 -0.3662  0.1785  0.0162
 5292SOL    HW127338   1.050   3.903   3.587 -0.3314 -0.0042  0.3231
 5292SOL    HW227339   1.084   4.048   3.577 -2.6473 -1.2135 -1.0809
 5293SOL     OW27340   4.098   2.197   3.001 -0.1075 -0.1179 -0.4792
 5293SOL    HW127341   4.172   2.229   3.054 -0.2771 -1.8541  0.7897
 5293SOL    HW227342   4.043   2.155   3.067  0.1817  1.2238  0.6154
 5294SOL     OW27343   0.106   3.813  10.248  0.4251  0.0650  0.7380
 5294SOL    HW127344   0.098   3.861  10.331 -0.3256  0.9793  0.1481
 5294SOL    HW227345   0.023   3.764  10.252  0.2001  0.3831 -0.0403
 5295SOL     OW27346   4.423   3.800   6.134 -0.0325 -0.4667 -0.3501
 5295SOL    HW127347   4.455   3.733   6.074  1.6340  0.6816 -0.7141
 5295SOL    HW227348   4.328   3.784   6.128  0.0091 -0.4148 -1.1555
 5296SOL     OW27349   4.362   2.665  14.596  0.2285 -0.2936 -0.2207
 5296SOL    HW127350   4.300   2.652  14.524  1.8316 -3.1540 -1.0877
 5296SOL    HW227351   4.354   2.585  14.649  3.1326  0.1957  0.9347
 5297SOL     OW27352   0.376   3.583   2.504  0.2292 -0.1791  0.5202
 5297SOL    HW127353   0.470   3.576   2.485 -0.0109  0.7244 -0.9568
 5297SOL    HW227354   0.348   3.656   2.449  2.7377 -0.6157 -1.3061
 5298SOL     OW27355   0.811   0.547   7.755 -0.0318 -0.1567  0.3419
 5298SOL    HW127356   0.733   0.573   7.706  0.9787  0.0221 -1.1598
 5298SOL    HW227357   0.840   0.477   7.696  1.9916 -1.2766  2.7101
 5299SOL     OW27358   3.708   2.191   6.232 -0.0705  1.2387  0.3157
 5299SOL    HW127359   3.780   2.221   6.287 -2.0748  3.8701  1.4549
 5299SOL    HW227360   3.687   2.108   6.275 -1.4960  1.0723 -0.6735
 5300SOL     OW27361   1.949   4.507   2.028 -0.5390 -0.6439  0.1951
 5300SOL    HW127362   1.957   4.482   2.120 -0.1121 -1.1620  0.0215
 5300SOL    HW227363   2.037   4.508   1.990  0.0292 -1.3847  1.4895
 5301SOL     OW27364   4.234   0.028   5.971 -0.1121  0.2417 -0.2385
 5301SOL    HW127365   4.194   0.050   5.887  0.2634 -2.1280 -1.0141
 5301SOL    HW227366   4.267   4.666   5.947  2.2985  2.0885 -3.4178
 5302SOL     OW27367   1.925   0.277   1.199 -0.5708  0.1743  0.2997
 5302SOL    HW127368   2.012   0.302   1.229 -0.6744 -0.5933  1.2224
 5302SOL    HW227369   1.950   0.212   1.133 -0.9116  0.5413 -0.1994
 5303SOL     OW27370   4.659   2.380   2.122  0.1271  0.4984 -0.2601
 5303SOL    HW127371   4.626   2.438   2.053  0.8603  0.2496 -0.8297
 5303SOL    HW227372   4.718   2.440   2.167 -0.5454  0.1528  1.0686
 5304SOL     OW27373   4.253   3.226   5.693 -0.6297 -0.4835 -0.3420
 5304SOL    HW127374   4.339   3.210   5.732 -0.0084 -0.3983 -1.6782
 5304SOL    HW227375   4.223   3.146   5.651 -0.5237  0.5609 -2.4118
 5305SOL     OW27376   0.393   2.053   5.203  0.3513 -0.1317 -0.4035
 5305SOL    HW127377   0.348   2.137   5.209 -2.8312 -1.7407 -1.3834
 5305SOL    HW227378   0.388   2.031   5.295  0.5850  0.4167 -0.2595
 5306SOL     OW27379   0.991   0.327   2.327  0.5759 -0.3039  0.1824
 5306SOL    HW127380   0.974   0.311   2.234  1.0073 -1.8964  0.3775
 5306SOL    HW227381   0.906   0.358   2.359 -0.4126 -1.6044 -1.1754
 5307SOL     OW27382   4.532   1.476  16.294  0.1644  0.4867 -0.2166
 5307SOL    HW127383   4.616   1.487  16.338 -0.3457  1.2217  0.5890
 5307SOL    HW227384   4.522   1.558  16.246 -0.2063  1.5545  1.6872
 5308SOL     OW27385   0.675   3.259   4.707  0.4762  0.0434  0.0453
 5308SOL    HW127386   0.582   3.238   4.714  0.1617  0.9400 -1.3468
 5308SOL    HW227387   0.711   3.180   4.667  0.5722  0.6775 -1.1242
 5309SOL     OW27388   1.051   1.135   5.438  0.2432  0.1007  0.1146
 5309SOL    HW127389   1.061   1.040   5.441 -2.1302 -0.0794  2.5688
 5309SOL    HW227390   0.958   1.140   5.415  0.1264 -0.8055  0.3922
 5310SOL     OW27391   2.001   2.389   8.504 -0.3094  0.1123 -0.1547
 5310SOL    HW127392   1.970   2.439   8.580 -1.6213 -1.0643  0.0775
 5310SOL    HW227393   1.935   2.399   8.436 -0.7112 -2.1330 -0.0832
 5311SOL     OW27394   1.334   1.266  12.653 -0.1768 -0.0719  0.4078
 5311SOL    HW127395   1.358   1.316  12.731 -1.6728 -0.9371  1.4138
 5311SOL    HW227396   1.245   1.245  12.680  0.3300 -0.1388  2.0472
 5312SOL     OW27397   2.621   1.186   1.100 -0.0912  0.1923 -0.3405
 5312SOL    HW127398   2.640   1.264   1.151  0.3421  0.1486 -0.4342
 5312SOL    HW227399   2.688   1.126   1.134 -0.7343  0.9656  2.2245
 5313SOL     OW27400   0.254   1.569   1.679 -0.5837 -0.1203 -0.7177
 5313SOL    HW127401   0.222   1.498   1.623  0.1100 -0.6377 -0.4545
 5313SOL    HW227402   0.184   1.561   1.744 -0.3686  0.9229 -0.3541
 5314SOL     OW27403   4.008   2.223   2.245  0.0577 -0.0459  0.7560
 5314SOL    HW127404   3.930   2.180   2.209  2.2185 -1.0312 -2.7950
 5314SOL    HW227405   3.967   2.303   2.277 -1.0203  0.1241 -1.0350
 5315SOL     OW27406   0.079   0.820   5.662 -0.3903 -0.6801 -0.3899
 5315SOL    HW127407   0.046   0.733   5.637  1.7577 -1.0065 -1.9908
 5315SOL    HW227408   0.144   0.844   5.596 -2.1561 -0.8882 -2.2157
 5316SOL     OW27409   0.293   1.351   5.046 -0.0270 -0.2487 -0.2693
 5316SOL    HW127410   0.216   1.295   5.056  0.2686 -1.0704 -2.6270
 5316SOL    HW227411   0.284   1.403   5.126  2.1736 -0.1770 -0.0654
 5317SOL     OW27412   4.438   1.988  10.553  0.3044 -0.4067  0.0223
 5317SOL    HW127413   4.400   1.915  10.603  0.0451 -1.0660 -1.1427
 5317SOL    HW227414   4.525   1.976  10.591 -1.1456 -0.2326  3.3814
 5318SOL     OW27415   4.305   3.819   4.337  0.1165  0.0151 -0.7125
 5318SOL    HW127416   4.378   3.864   4.379 -0.2276 -0.4837  0.4057
 5318SOL    HW227417   4.340   3.815   4.248  3.5874 -0.5329  0.6891
 5319SOL     OW27418   2.132   0.542  11.265  0.2452  0.5434  0.1453
 5319SOL    HW127419   2.069   0.500  11.324  1.3542 -0.9585  0.2616
 5319SOL    HW227420   2.188   0.585  11.330  1.5826 -2.2099  0.8165
 5320SOL     OW27421   0.860   2.294   2.415  0.2354  0.2277  0.2229
 5320SOL    HW127422   0.794   2.321   2.351  0.8592  0.8615 -0.1509
 5320SOL    HW227423   0.822   2.228   2.474 -0.4407  1.2569  0.9442
 5321SOL     OW27424   1.943   1.196   7.720  0.0481 -0.4040 -0.9062
 5321SOL    HW127425   2.033   1.173   7.743  0.3339  1.6820  0.0851
 5321SOL    HW227426   1.954   1.291   7.713  1.3926 -0.3961  1.3985
 5322SOL     OW27427   2.010   1.848   0.400 -0.3529 -0.0189 -0.7539
 5322SOL    HW127428   2.102   1.834   0.422 -0.3331 -2.5226 -2.4117
 5322SOL    HW227429   1.985   1.925   0.452 -1.2329  0.1524 -1.4238
 5323SOL     OW27430   2.755   2.661   3.514  0.4161 -1.4118 -0.1595
 5323SOL    HW127431   2.674   2.680   3.562  2.1585  4.6523  0.4005
 5323SOL    HW227432   2.725   2.647   3.425  0.5235  2.1025 -0.7604
 5324SOL     OW27433   0.319   4.506   6.002 -0.2975  0.0516 -0.0226
 5324SOL    HW127434   0.254   4.556   6.051  1.4371  1.2635  1.0383
 5324SOL    HW227435   0.272   4.422   6.001 -0.3523  0.0696  0.9127
 5325SOL     OW27436   4.393   1.805   8.195  0.3759  0.5947  0.3515
 5325SOL    HW127437   4.315   1.750   8.185  0.5710  0.1473  1.2558
 5325SOL    HW227438   4.428   1.816   8.107 -1.8432 -0.2897 -0.6182
 5326SOL     OW27439   3.676   4.072   4.508 -0.1317 -0.3421  0.6163
 5326SOL    HW127440   3.716   4.020   4.438  0.3430  0.3331  0.3870
 5326SOL    HW227441   3.581   4.072   4.495 -0.2705 -0.2803  1.6370
 5327SOL     OW27442   3.032   3.162   8.145 -0.1716  0.5163  0.3556
 5327SOL    HW127443   2.953   3.111   8.128 -1.9108  2.3870  2.7838
 5327SOL    HW227444   3.019   3.238   8.089  3.5316  0.2206 -0.8919
 5328SOL     OW27445   1.818   1.267   7.291  0.2153 -0.3931 -0.4427
 5328SOL    HW127446   1.783   1.177   7.287  2.7262 -1.3250 -1.3075
 5328SOL    HW227447   1.901   1.261   7.244 -0.6858 -0.9033 -1.9834
 5329SOL     OW27448   2.545   4.600   9.225  0.3889  0.0304  0.0540
 5329SOL    HW127449   2.516   4.511   9.202 -0.0377 -0.5034  2.6715
 5329SOL    HW227450   2.626   4.602   9.174  0.3173 -3.4362 -0.2059
 5330SOL     OW27451   1.020   3.988  10.024  0.3515 -0.2521 -0.3972
 5330SOL    HW127452   1.086   3.953   9.964 -1.0348  0.1148 -2.1562
 5330SOL    HW227453   1.076   4.060  10.052 -0.3661 -0.4466  1.5651
 5331SOL     OW27454   3.494   1.788   3.803  0.3651  0.3735  0.5128
 5331SOL    HW127455   3.447   1.806   3.722 -0.3914 -1.8152  0.4692
 5331SOL    HW227456   3.465   1.700   3.828  1.0118  0.0866  0.2816
 5332SOL     OW27457   2.804   4.404   3.419  0.1452 -0.1039  0.2208
 5332SOL    HW127458   2.722   4.449   3.402 -0.5403 -0.8867  1.4555
 5332SOL    HW227459   2.857   4.441   3.349 -0.6981  0.8637  0.0999
 5333SOL     OW27460   2.165   3.795   8.853 -0.2197 -0.3739  0.2717
 5333SOL    HW127461   2.086   3.848   8.844  1.2778  1.4874 -1.9160
 5333SOL    HW227462   2.141   3.709   8.888 -1.6734  0.1257  0.4847
 5334SOL     OW27463   3.996   3.813  14.248  0.4542 -0.9851  0.7436
 5334SOL    HW127464   4.052   3.767  14.186  0.5570 -0.5828  0.5411
 5334SOL    HW227465   4.031   3.900  14.266  3.8535 -2.2696  0.2750
 5335SOL     OW27466   2.621   4.031   8.759 -0.6893  0.0887  0.0103
 5335SOL    HW127467   2.540   3.979   8.758 -1.0817  0.7400 -1.7561
 5335SOL    HW227468   2.579   4.114   8.782 -2.4822 -1.3211  1.9605
 5336SOL     OW27469   0.286   3.807   3.494 -0.0180  0.5518  0.3009
 5336SOL    HW127470   0.305   3.742   3.562  0.0435 -0.1283 -0.3685
 5336SOL    HW227471   0.306   3.886   3.544  0.2060  0.9174 -0.3785
 5337SOL     OW27472   2.276   0.350   2.685 -0.1499 -0.1410  0.0758
 5337SOL    HW127473   2.208   0.303   2.636 -1.5832  0.5816  1.3801
 5337SOL    HW227474   2.297   0.423   2.628 -0.8748  0.8106  1.0296
 5338SOL     OW27475   3.434   2.937  10.159 -0.0124  0.2152 -0.1225
 5338SOL    HW127476   3.397   2.869  10.216 -2.1537 -0.0029 -1.7690
 5338SOL    HW227477   3.479   2.993  10.221 -2.1310  0.6578  1.0167
 5339SOL     OW27478   3.930   2.214   6.404  0.2739 -0.1960 -0.1609
 5339SOL    HW127479   4.024   2.197   6.396  0.5995  0.1235  2.8978
 5339SOL    HW227480   3.903   2.161   6.479 -0.1094  0.5473  0.2207
 5340SOL     OW27481   2.344   2.584   4.624 -0.2206  0.3913 -0.3183
 5340SOL    HW127482   2.361   2.677   4.612 -2.5839  0.9987  0.9350
 5340SOL    HW227483   2.432   2.559   4.598 -0.1767  0.8592 -0.6110
 5341SOL     OW27484   4.377   3.930   9.228 -0.5095  0.2850  0.1007
 5341SOL    HW127485   4.420   3.916   9.143 -0.2995  0.3856  0.1924
 5341SOL    HW227486   4.419   3.859   9.277  0.5454  0.9416  0.1448
 5342SOL     OW27487   4.268   0.549   3.606  0.3567  0.4167  0.2941
 5342SOL    HW127488   4.237   0.634   3.574  1.0130  0.3802 -0.4561
 5342SOL    HW227489   4.184   0.512   3.632  0.1917  0.7016  0.1750
 5343SOL     OW27490   0.029   0.932   8.363  0.2640 -0.0905 -0.1179
 5343SOL    HW127491   4.687   0.869   8.336  1.4088 -0.9868 -0.8263
 5343SOL    HW227492   0.021   0.936   8.459 -0.2401  1.4140 -0.2179
 5344SOL     OW27493   1.569   1.299  10.683  0.2612 -0.8215 -0.3624
 5344SOL    HW127494   1.567   1.395  10.688  0.6974 -0.8513  0.4607
 5344SOL    HW227495   1.660   1.269  10.691  0.1148 -1.1179  0.2081
 5345SOL     OW27496   0.398   1.279   3.067  0.2378  0.6609 -0.4840
 5345SOL    HW127497   0.455   1.332   3.012  1.4088  1.0396  1.0997
 5345SOL    HW227498   0.333   1.247   3.004  0.2986  0.9292 -0.6797
 5346SOL     OW27499   2.691   0.918  10.660  0.3344 -0.2497 -0.2220
 5346SOL    HW127500   2.674   0.865  10.582  0.7215  0.5515 -0.8523
 5346SOL    HW227501   2.605   0.933  10.700  0.1582 -1.6054 -0.0978
 5347SOL     OW27502   3.593   1.633   0.420  0.8331  0.7990 -0.2658
 5347SOL    HW127503   3.554   1.614   0.506  3.4763 -0.4128  0.6723
 5347SOL    HW227504   3.552   1.566   0.366  1.9596 -0.6404  0.6423
 5348SOL     OW27505   2.999   1.399  12.230  0.2398  0.2041  0.0322
 5348SOL    HW127506   2.922   1.424  12.178  1.4054  0.7840 -1.4335
 5348SOL    HW227507   2.989   1.441  12.315 -1.6412 -2.2154  0.9963
 5349SOL     OW27508   0.391   3.978   3.929 -0.7448 -0.2481  0.3901
 5349SOL    HW127509   0.317   3.927   3.960 -2.2571 -0.1151 -3.0101
 5349SOL    HW227510   0.467   3.927   3.956 -0.0586 -0.6825 -2.3816
 5350SOL     OW27511   2.917   1.963  15.580  0.3517  0.1948  0.3801
 5350SOL    HW127512   2.894   2.006  15.498 -1.0458  1.5169  1.4556
 5350SOL    HW227513   2.834   1.987  15.622 -1.0540 -1.4319 -1.4239
 5351SOL     OW27514   3.951   2.323  17.610 -1.0511 -0.5943 -0.6881
 5351SOL    HW127515   3.945   2.276  17.693 -1.9922 -0.6044 -0.7599
 5351SOL    HW227516   3.857   2.343  17.603 -1.0378 -0.3017 -0.0271
 5352SOL     OW27517   0.167   1.952   2.838 -0.3151  0.0578 -0.0335
 5352SOL    HW127518   0.078   1.984   2.851 -0.0047  0.5125  0.9633
 5352SOL    HW227519   0.193   1.999   2.759  1.9516  0.1451  0.7577
 5353SOL     OW27520   2.883   2.773   8.213 -0.0359  0.3634 -0.5404
 5353SOL    HW127521   2.849   2.694   8.254  0.1505 -0.4603 -1.9815
 5353SOL    HW227522   2.975   2.746   8.218  0.2242  0.9469 -2.3860
 5354SOL     OW27523   0.872   3.042   6.572 -0.0481  0.4442  0.7101
 5354SOL    HW127524   0.848   3.025   6.663  0.9309 -2.5802  0.4323
 5354SOL    HW227525   0.935   2.971   6.558 -1.5087 -0.6506 -0.3486
 5355SOL     OW27526   4.667   1.490   7.010  0.3136  0.4620 -0.6064
 5355SOL    HW127527   4.626   1.405   6.996  0.8826  0.2139 -0.7859
 5355SOL    HW227528   4.683   1.512   6.919  0.6062  0.1758 -0.6242
 5356SOL     OW27529   3.715   2.461  15.740  0.0613  0.5413 -0.8961
 5356SOL    HW127530   3.731   2.368  15.725  2.8260  1.1369 -1.6975
 5356SOL    HW227531   3.767   2.473  15.820  0.6210  1.5700 -1.4096
 5357SOL     OW27532   2.343   2.609   0.124 -0.1828  0.3337  0.1005
 5357SOL    HW127533   2.247   2.612   0.122 -0.1859  1.6408  2.8991
 5357SOL    HW227534   2.346   2.549   0.048  0.1634  1.5820 -0.8691
 5358SOL     OW27535   0.873   3.769  10.687  0.3602  0.4785 -0.0145
 5358SOL    HW127536   0.928   3.848  10.692  0.5003  0.4625 -1.4048
 5358SOL    HW227537   0.894   3.721  10.767  1.0823  0.4202 -0.2375
 5359SOL     OW27538   2.298   1.750  10.165 -0.1512 -0.0935  0.2473
 5359SOL    HW127539   2.361   1.789  10.225  1.3911 -2.4353  0.1601
 5359SOL    HW227540   2.222   1.745  10.222 -0.3849  0.1824 -0.0399
 5360SOL     OW27541   2.799   0.135   4.705 -0.3392  0.4442 -0.4368
 5360SOL    HW127542   2.730   0.164   4.646  0.8832  0.0244 -2.0664
 5360SOL    HW227543   2.771   0.047   4.730  1.8953 -0.2566 -0.4042
 5361SOL     OW27544   4.474   0.776   2.626 -0.0131  0.0519 -0.0649
 5361SOL    HW127545   4.540   0.765   2.558  1.5883 -0.4997  1.5960
 5361SOL    HW227546   4.404   0.729   2.580  0.9161 -0.9528 -0.4401
 5362SOL     OW27547   3.238   2.132   3.056  0.5828 -0.4699  0.3408
 5362SOL    HW127548   3.190   2.213   3.071 -0.6827 -0.7438 -2.0825
 5362SOL    HW227549   3.215   2.121   2.963  0.6373  0.3452  0.2298
 5363SOL     OW27550   1.691   1.867   7.442  0.1439  0.2016  0.2364
 5363SOL    HW127551   1.629   1.794   7.447 -0.3051  0.6730  1.4670
 5363SOL    HW227552   1.707   1.874   7.348 -0.3476 -1.7062  0.0228
 5364SOL     OW27553   2.097   1.058  14.590  0.1602 -0.0417  0.5545
 5364SOL    HW127554   2.074   0.978  14.637  0.1301 -0.2773  0.1404
 5364SOL    HW227555   2.193   1.055  14.595  0.1057 -0.4518  1.2868
 5365SOL     OW27556   2.825   1.579   1.321 -0.2587  0.5392  0.5445
 5365SOL    HW127557   2.756   1.561   1.257  0.7000  2.7280 -1.0794
 5365SOL    HW227558   2.893   1.579   1.255 -1.2579 -0.6075 -0.4817
 5366SOL     OW27559   3.105   0.721  11.424  0.1205  0.4687  0.0390
 5366SOL    HW127560   3.033   0.779  11.449 -1.6662 -0.6819 -2.4265
 5366SOL    HW227561   3.114   0.750  11.334 -0.4564  2.7949  0.7274
 5367SOL     OW27562   3.220   0.316  12.043  0.5182  0.3927 -0.2130
 5367SOL    HW127563   3.181   0.391  12.088 -2.6114 -0.9161 -0.7829
 5367SOL    HW227564   3.314   0.328  12.056  0.4015  0.1918  0.8104
 5368SOL     OW27565   1.212   2.271   4.623 -0.1159 -0.6648 -0.5289
 5368SOL    HW127566   1.222   2.177   4.605 -0.0914 -0.2435 -2.6865
 5368SOL    HW227567   1.271   2.275   4.699 -1.0784  0.8884  0.1229
 5369SOL     OW27568   0.046   1.544  10.902  0.0657  0.0652  0.0006
 5369SOL    HW127569   0.137   1.536  10.872  0.2295 -0.3003  0.6048
 5369SOL    HW227570   0.006   1.606  10.841  1.8219  1.0358 -0.1546
 5370SOL     OW27571   0.621   3.232   9.478 -0.2833 -0.3619 -0.3769
 5370SOL    HW127572   0.534   3.241   9.515  0.2114  2.5841  0.1093
 5370SOL    HW227573   0.595   3.215   9.387  0.7945  0.6573 -0.8890
 5371SOL     OW27574   4.072   2.036   3.248  0.1926 -0.0157  0.6439
 5371SOL    HW127575   4.150   2.033   3.303  1.7172  2.2276 -1.3688
 5371SOL    HW227576   4.109   1.985   3.176 -0.1653 -0.1468  0.5512
 5372SOL     OW27577   2.118   1.598   9.281  0.4808 -0.3277 -0.4346
 5372SOL    HW127578   2.077   1.536   9.340  1.9212 -1.0307 -0.1638
 5372SOL    HW227579   2.192   1.604   9.342 -0.5377  1.4470  0.6364
 5373SOL     OW27580   3.281   0.746   6.238 -0.1265  0.1753  0.1537
 5373SOL    HW127581   3.306   0.680   6.174  0.4343  0.0243  0.5252
 5373SOL    HW227582   3.191   0.759   6.210 -0.6943 -0.4508  1.7051
 5374SOL     OW27583   3.500   1.226  11.009  0.0032 -0.1374 -0.5655
 5374SOL    HW127584   3.572   1.265  11.059  0.7382 -3.1452  0.6917
 5374SOL    HW227585   3.552   1.164  10.958  0.2491  0.3388 -0.8941
 5375SOL     OW27586   2.121   0.841   2.106  0.3670  0.1409 -0.2612
 5375SOL    HW127587   2.050   0.843   2.041 -0.6289  4.0168  0.9845
 5375SOL    HW227588   2.072   0.836   2.188  1.7597  1.2470  0.6287
 5376SOL     OW27589   1.247   3.437  10.252  0.2277 -0.3468 -0.4377
 5376SOL    HW127590   1.209   3.350  10.236  1.7152 -0.6730 -2.3214
 5376SOL    HW227591   1.219   3.483  10.173  3.3990  3.5142  0.6813
 5377SOL     OW27592   2.879   0.380   7.254  0.4911 -0.1808 -0.2400
 5377SOL    HW127593   2.813   0.426   7.202  0.6110  2.0063  1.5524
 5377SOL    HW227594   2.825   0.307   7.284  0.9918 -0.6460 -0.4537
 5378SOL     OW27595   3.507   4.326   4.307 -0.5363 -0.2239  0.4769
 5378SOL    HW127596   3.450   4.338   4.382  0.0836  1.0384  0.7393
 5378SOL    HW227597   3.492   4.232   4.294 -1.1591 -0.4457  2.7822
 5379SOL     OW27598   1.913   1.035   7.485 -0.0200  0.2783 -0.2975
 5379SOL    HW127599   1.915   1.128   7.461  0.6582  0.0415 -1.1389
 5379SOL    HW227600   1.893   1.037   7.579 -1.0758 -1.1693 -0.4913
 5380SOL     OW27601   0.113   0.456   8.362 -0.0579  0.4000  0.0881
 5380SOL    HW127602   0.069   0.537   8.389  1.2778  0.7325  1.2526
 5380SOL    HW227603   0.075   0.406   8.434  0.9784  0.2032  0.5001
 5381SOL     OW27604   2.642   1.927  11.259  0.4367 -0.1214  0.5190
 5381SOL    HW127605   2.680   1.885  11.337  1.1944 -3.1201 -1.4906
 5381SOL    HW227606   2.661   1.860  11.194 -2.9500  1.7044 -2.3418
 5382SOL     OW27607   1.834   1.070   9.698 -0.3473 -0.5379  0.1735
 5382SOL    HW127608   1.865   1.051   9.610  0.8124  1.5131  0.1366
 5382SOL    HW227609   1.752   1.022   9.699  0.6325 -2.2129 -0.1276
 5383SOL     OW27610   2.990   2.528  16.998 -0.5460  0.7320 -0.5835
 5383SOL    HW127611   3.051   2.468  16.955  1.9522  1.5473  1.8147
 5383SOL    HW227612   2.917   2.469  17.018 -0.6598  2.2507  3.5626
 5384SOL     OW27613   1.734   3.456   6.658  0.4479 -0.4297 -0.2025
 5384SOL    HW127614   1.806   3.466   6.720  0.4972  0.4796 -0.4052
 5384SOL    HW227615   1.761   3.519   6.592  1.9731 -0.4676  0.3900
 5385SOL     OW27616   2.560   4.183   6.806  0.1992  0.0764  0.4362
 5385SOL    HW127617   2.528   4.170   6.895 -3.6758 -2.9304 -1.4254
 5385SOL    HW227618   2.488   4.144   6.757  2.1031 -0.7226 -1.7764
 5386SOL     OW27619   3.879   4.495   5.727 -0.3381 -0.3187  0.7954
 5386SOL    HW127620   3.929   4.530   5.801 -0.5612  0.4209  0.5901
 5386SOL    HW227621   3.816   4.440   5.774  1.0613 -1.5043  1.3193
 5387SOL     OW27622   0.549   1.923   7.058  0.1454  0.2681  0.4411
 5387SOL    HW127623   0.462   1.939   7.094  0.1579  0.9351  0.1655
 5387SOL    HW227624   0.539   1.916   6.963 -0.8072  0.9529  0.4917
 5388SOL     OW27625   0.758   1.195   5.846 -0.3117  0.2999 -0.6714
 5388SOL    HW127626   0.677   1.244   5.860  1.0564  1.5766  2.8374
 5388SOL    HW227627   0.722   1.107   5.857 -0.5518  0.2670 -1.7353
 5389SOL     OW27628   2.053   4.509   1.527 -0.2644 -0.2055  0.7748
 5389SOL    HW127629   2.138   4.468   1.541  0.3388  0.5303 -0.6942
 5389SOL    HW227630   2.077   4.596   1.495  0.2525  0.1139  2.0001
 5390SOL     OW27631   1.714   1.125   7.847 -0.5072 -0.1576 -1.3470
 5390SOL    HW127632   1.718   1.159   7.936  2.3385  2.2956 -2.3832
 5390SOL    HW227633   1.793   1.153   7.801 -0.1230  0.3658 -0.3755
 5391SOL     OW27634   4.458   4.174  17.493  0.3233 -0.0084 -0.0928
 5391SOL    HW127635   4.491   4.253  17.450 -0.2638 -0.2920 -1.0507
 5391SOL    HW227636   4.544   4.135  17.513  0.2795  1.0333  2.2253
 5392SOL     OW27637   1.499   1.557   6.664  0.3421  0.0934 -0.3403
 5392SOL    HW127638   1.493   1.465   6.636  0.9738 -0.6895  2.1041
 5392SOL    HW227639   1.513   1.595   6.577 -2.6292  0.1565 -0.7727
 5393SOL     OW27640   1.534   4.649   3.484 -0.2176 -0.2242 -0.1803
 5393SOL    HW127641   1.449   4.685   3.458 -0.0056 -0.4536 -1.2122
 5393SOL    HW227642   1.535   4.565   3.437  1.1342 -0.9563  1.1447
 5394SOL     OW27643   0.391   3.967   7.028 -0.3856 -0.2905 -0.1654
 5394SOL    HW127644   0.305   4.008   7.016 -0.8785 -0.8069  1.5914
 5394SOL    HW227645   0.440   4.046   7.003 -0.1262 -0.9531 -1.7179
 5395SOL     OW27646   1.087   2.003   6.650 -0.5724  0.5402  0.0710
 5395SOL    HW127647   1.045   2.086   6.669  4.0341  2.0891  3.6342
 5395SOL    HW227648   1.023   1.969   6.588 -0.8269 -0.3578  0.8205
 5396SOL     OW27649   2.265   0.779   4.498 -0.0291 -0.0953 -0.3600
 5396SOL    HW127650   2.247   0.761   4.405  1.2691 -0.3258 -0.5627
 5396SOL    HW227651   2.285   0.691   4.528 -0.7049 -0.3469 -0.6358
 5397SOL     OW27652   0.259   1.828  14.611 -0.4019 -0.1570 -0.1210
 5397SOL    HW127653   0.316   1.905  14.621 -0.3452 -0.3558  1.1293
 5397SOL    HW227654   0.178   1.879  14.618 -0.7816 -0.6872 -0.7486
 5398SOL     OW27655   4.118   4.464   6.322 -0.4125 -0.3828 -0.1040
 5398SOL    HW127656   4.198   4.425   6.287  0.6877  0.5207  1.3548
 5398SOL    HW227657   4.049   4.422   6.271 -0.4372 -0.5176  0.0400
 5399SOL     OW27658   1.910   0.303   2.736  0.1660 -0.1424 -0.0838
 5399SOL    HW127659   1.863   0.223   2.716 -1.1099  0.9087 -1.3251
 5399SOL    HW227660   1.987   0.282   2.682 -0.4255 -0.7197 -0.6922
 5400SOL     OW27661   1.005   0.696   4.862  0.8289  0.1092 -0.4263
 5400SOL    HW127662   1.065   0.651   4.803 -0.1263 -1.4716 -0.2062
 5400SOL    HW227663   0.929   0.682   4.805  0.7649  1.7879 -0.7325
 5401SOL     OW27664   0.284   3.308   9.793 -0.2201  0.0709  0.5447
 5401SOL    HW127665   0.372   3.297   9.829  0.4831 -1.1094 -1.5405
 5401SOL    HW227666   0.237   3.352   9.864 -3.4857 -0.5308 -1.2881
 5402SOL     OW27667   3.846   0.839   9.823 -0.7191  0.3392  0.1604
 5402SOL    HW127668   3.752   0.826   9.837 -0.2808 -1.9707  0.8146
 5402SOL    HW227669   3.871   0.750   9.799 -1.6249 -0.4406  2.1584
 5403SOL     OW27670   0.176   4.435  13.104 -0.9442 -0.0551 -0.6941
 5403SOL    HW127671   0.152   4.469  13.018 -0.1183 -0.2254 -0.9916
 5403SOL    HW227672   0.099   4.379  13.110  1.2254 -2.7451  2.5469
 5404SOL     OW27673   1.536   0.858   9.016  0.5125 -0.2735  0.0472
 5404SOL    HW127674   1.497   0.917   8.951 -1.5255  0.1746  1.6762
 5404SOL    HW227675   1.576   0.787   8.966 -1.6329 -1.8542  0.5538
 5405SOL     OW27676   3.653   0.194   6.686  0.1710  0.6495 -0.2926
 5405SOL    HW127677   3.712   0.194   6.761 -0.6550  1.3555  0.3661
 5405SOL    HW227678   3.656   0.105   6.652 -1.0374 -0.0211  1.3496
 5406SOL     OW27679   1.010   2.533   8.379  0.0225  0.0402 -0.0927
 5406SOL    HW127680   0.955   2.454   8.376 -0.0025  0.1528 -2.1884
 5406SOL    HW227681   0.976   2.577   8.301  0.5014  1.7771  0.6987
 5407SOL     OW27682   2.237   0.666  12.456 -0.4962  0.4780 -0.1629
 5407SOL    HW127683   2.225   0.700  12.544 -0.6127 -1.9869  0.7694
 5407SOL    HW227684   2.162   0.607  12.443 -0.8984  0.9886 -0.1802
 5408SOL     OW27685   3.493   3.004  14.553  0.4513 -0.5040 -0.3205
 5408SOL    HW127686   3.508   2.982  14.645 -0.8195  0.4555  0.1201
 5408SOL    HW227687   3.572   3.050  14.526  0.1229  0.1447 -0.1704
 5409SOL     OW27688   4.384   3.477   2.497  0.0208 -0.3220  0.4595
 5409SOL    HW127689   4.425   3.414   2.438 -0.7289  1.4561 -1.9550
 5409SOL    HW227690   4.321   3.517   2.437  0.6151 -0.0601  0.0211
 5410SOL     OW27691   1.623   2.498  10.888  0.1398 -0.4844  0.0468
 5410SOL    HW127692   1.669   2.555  10.949 -1.0534  0.6061 -0.0829
 5410SOL    HW227693   1.639   2.544  10.806 -0.1059 -1.7142 -0.6918
 5411SOL     OW27694   2.667   0.699  12.658 -0.5307  0.3705  0.0885
 5411SOL    HW127695   2.572   0.689  12.651 -0.3327 -1.6020  0.3490
 5411SOL    HW227696   2.693   0.610  12.682 -0.0319  0.4961  0.0139
 5412SOL     OW27697   0.582   4.279   0.974  0.3619 -0.2156  0.1013
 5412SOL    HW127698   0.657   4.290   1.033 -0.0687  0.2083  0.5626
 5412SOL    HW227699   0.632   4.232   0.907 -0.4569  1.3329 -1.5946
 5413SOL     OW27700   4.546   4.188   5.575  0.5740 -0.0561 -0.3839
 5413SOL    HW127701   4.486   4.249   5.533  1.9737  0.6017 -1.4232
 5413SOL    HW227702   4.480   4.123   5.601 -0.8770  1.5256 -0.1108
 5414SOL     OW27703   2.484   1.539   4.849 -0.8233  0.2385 -0.1933
 5414SOL    HW127704   2.489   1.508   4.939 -4.1219  0.3035  0.0189
 5414SOL    HW227705   2.534   1.468   4.809 -2.8781 -0.6920 -1.1300
 5415SOL     OW27706   4.029   3.691   8.374 -0.1557 -0.2725 -0.2041
 5415SOL    HW127707   4.038   3.597   8.359  1.8559 -0.1852  0.4702
 5415SOL    HW227708   4.028   3.709   8.468  0.6055  1.7708 -0.5901
 5416SOL     OW27709   1.508   4.605   4.219 -0.1866 -0.0238 -0.3388
 5416SOL    HW127710   1.564   4.682   4.206 -1.3060  0.6116 -1.4360
 5416SOL    HW227711   1.563   4.537   4.180 -1.0604  0.5705 -2.6110
 5417SOL     OW27712   3.497   2.358   2.535 -0.3620  0.2052  0.3982
 5417SOL    HW127713   3.557   2.419   2.577 -0.2224  0.5690 -0.3302
 5417SOL    HW227714   3.502   2.280   2.591 -1.0392  0.3451  0.6461
 5418SOL     OW27715   1.540   1.258  17.168 -0.4551  0.0255 -0.2416
 5418SOL    HW127716   1.580   1.333  17.212 -0.5642 -1.1423  1.8781
 5418SOL    HW227717   1.593   1.182  17.193 -2.1340 -1.5484 -1.4575
 5419SOL     OW27718   0.372   3.999   8.517  0.1527  0.4051 -0.0175
 5419SOL    HW127719   0.466   3.998   8.536 -0.0920  1.6615  1.2884
 5419SOL    HW227720   0.358   4.084   8.476 -0.5198  0.2818 -0.0545
 5420SOL     OW27721   0.702   0.632  16.763 -0.0601 -0.0432 -0.2220
 5420SOL    HW127722   0.661   0.626  16.849  2.2059  1.9054  1.0031
 5420SOL    HW227723   0.776   0.574  16.781  0.3564  0.6023  0.1702
 5421SOL     OW27724   2.361   2.763   1.639  0.2384  0.2208 -0.5385
 5421SOL    HW127725   2.325   2.825   1.576  0.8615  2.0320  0.8695
 5421SOL    HW227726   2.325   2.677   1.621 -1.1731  0.4382  1.2113
 5422SOL     OW27727   3.523   1.594   5.270 -0.0400  0.2815  0.4218
 5422SOL    HW127728   3.428   1.595   5.255 -0.2114 -0.5885  1.4612
 5422SOL    HW227729   3.554   1.571   5.182  0.9100 -2.3737  1.4899
 5423SOL     OW27730   4.014   2.906  16.397  0.2505  0.4591 -0.2660
 5423SOL    HW127731   4.028   2.950  16.481  0.6831  0.3279 -0.2661
 5423SOL    HW227732   3.982   2.821  16.427 -0.6129  1.0476  0.4623
 5424SOL     OW27733   3.355   4.080   4.434 -0.4539  0.2261 -0.1345
 5424SOL    HW127734   3.268   4.048   4.409  0.4979 -1.5063 -1.2603
 5424SOL    HW227735   3.325   4.153   4.488  0.6105 -0.9245  1.9866
 5425SOL     OW27736   3.418   3.601   3.298  0.5923  0.4315  0.0933
 5425SOL    HW127737   3.484   3.536   3.323  0.8079  1.5795  2.4863
 5425SOL    HW227738   3.377   3.554   3.225 -2.9670  0.9690  1.7584
 5426SOL     OW27739   0.002   3.246   0.089 -0.7115 -0.0280  0.3750
 5426SOL    HW127740   4.707   3.207   0.174  0.0967 -1.1977  0.0283
 5426SOL    HW227741   0.046   3.168   0.055 -0.3116 -0.8564  2.7795
 5427SOL     OW27742   1.666   0.822  13.553  0.2764  0.2457 -0.1951
 5427SOL    HW127743   1.651   0.890  13.619  1.0789  0.9182 -0.7194
 5427SOL    HW227744   1.629   0.861  13.474 -0.6700  1.5932  0.9060
 5428SOL     OW27745   0.941   2.201   3.601 -0.4289 -0.1374 -0.1362
 5428SOL    HW127746   1.014   2.159   3.645 -1.1450 -0.8620  0.3582
 5428SOL    HW227747   0.904   2.259   3.667  0.4293  1.3056 -0.9362
 5429SOL     OW27748   2.724   2.868   0.696  0.0626 -0.2083  0.0346
 5429SOL    HW127749   2.682   2.802   0.641 -1.9475  2.3053 -1.4530
 5429SOL    HW227750   2.773   2.916   0.630  0.0613  0.2776  0.3868
 5430SOL     OW27751   1.001   4.376   1.001  0.2909  0.1832 -0.3544
 5430SOL    HW127752   0.992   4.382   1.096  0.6614 -2.3393 -0.1625
 5430SOL    HW227753   0.909   4.361   0.978  0.0648  1.9742 -0.6336
 5431SOL     OW27754   1.794   1.167  13.921  0.0497  0.1710 -0.5362
 5431SOL    HW127755   1.806   1.236  13.987  1.4802 -0.0259 -0.5876
 5431SOL    HW227756   1.767   1.091  13.971  0.8027 -0.2126 -0.7112
 5432SOL     OW27757   0.001   3.733   1.651 -0.2756 -0.0301  0.6685
 5432SOL    HW127758   4.670   3.734   1.572  0.0468  0.4497  0.4550
 5432SOL    HW227759   4.699   3.821   1.677 -0.5466  0.8054 -2.4438
 5433SOL     OW27760   2.088   1.320   1.145  0.2484 -0.5467  0.1591
 5433SOL    HW127761   2.040   1.254   1.194  0.0106  1.7045  2.9091
 5433SOL    HW227762   2.178   1.293   1.164  0.5958  2.1957  2.3928
 5434SOL     OW27763   1.959   0.574   0.465 -0.0748  0.5764 -0.7190
 5434SOL    HW127764   1.998   0.561   0.552  0.1392 -0.2791 -0.9534
 5434SOL    HW227765   2.032   0.566   0.405 -1.0488  1.1642 -1.9685
 5435SOL     OW27766   2.760   1.563   1.752  0.3721  0.4169  0.1093
 5435SOL    HW127767   2.691   1.616   1.711 -0.3557  0.3510  1.2474
 5435SOL    HW227768   2.820   1.637   1.764 -1.8143  2.2052  0.1694
 5436SOL     OW27769   0.629   0.992   3.091  0.0623  0.4224 -0.0733
 5436SOL    HW127770   0.688   1.038   3.150  2.5098 -0.6981 -1.6626
 5436SOL    HW227771   0.582   0.933   3.150 -0.2906 -0.6791 -1.4652
 5437SOL     OW27772   2.780   2.740  17.306 -0.0867 -0.3164 -0.7081
 5437SOL    HW127773   2.689   2.712  17.300 -0.8775  1.6637  2.3423
 5437SOL    HW227774   2.825   2.661  17.336  0.5204 -0.3943 -1.8267
 5438SOL     OW27775   2.398   0.857   6.848  0.0030 -0.5387 -0.2224
 5438SOL    HW127776   2.394   0.811   6.932 -0.8158  0.9931  0.6010
 5438SOL    HW227777   2.453   0.933   6.870  2.4727 -2.5415  0.4783
 5439SOL     OW27778   4.316   0.259  12.915 -0.1330  0.0610 -0.0776
 5439SOL    HW127779   4.255   0.195  12.952 -0.2693  2.4512  3.8399
 5439SOL    HW227780   4.269   0.339  12.939 -0.0055  0.0026  0.3745
 5440SOL     OW27781   0.165   4.450   8.373 -0.0761 -0.2772  0.3791
 5440SOL    HW127782   0.249   4.487   8.346 -0.3019 -1.2245 -1.6086
 5440SOL    HW227783   0.129   4.533   8.405 -0.8699 -0.2926 -0.4747
 5441SOL     OW27784   4.329   4.581   7.058 -0.4742 -0.3842  0.0655
 5441SOL    HW127785   4.345   4.583   6.964  1.6614  1.0567  0.4566
 5441SOL    HW227786   4.412   4.614   7.094 -1.2509 -0.5017  1.9993
 5442SOL     OW27787   2.355   4.678   1.006  0.2544 -0.1580 -0.5796
 5442SOL    HW127788   2.289   4.622   0.965 -0.4910 -1.1655  1.9524
 5442SOL    HW227789   2.413   4.689   0.931 -0.1384  1.2912 -0.6648
 5443SOL     OW27790   2.065   1.475  14.646 -0.0477 -0.1750 -0.0898
 5443SOL    HW127791   2.018   1.558  14.642 -2.5136 -1.4599  2.7536
 5443SOL    HW227792   2.090   1.474  14.738  0.3876  0.5391 -0.1988
 5444SOL     OW27793   1.464   3.433   2.056 -0.2154 -0.7551 -0.8605
 5444SOL    HW127794   1.542   3.378   2.051  0.1445 -0.3182  0.0349
 5444SOL    HW227795   1.400   3.362   2.065 -1.0460 -0.1506 -1.9231
 5445SOL     OW27796   1.060   1.779   9.866  0.1936  0.3792  0.1823
 5445SOL    HW127797   0.999   1.850   9.887  0.9263  1.3217 -0.8721
 5445SOL    HW227798   1.106   1.835   9.803  0.6361 -0.0502  0.1287
 5446SOL     OW27799   0.793   1.736  16.603 -0.4841 -0.4395  0.0511
 5446SOL    HW127800   0.803   1.787  16.684 -2.0549 -4.0426  2.5228
 5446SOL    HW227801   0.873   1.684  16.598  0.6448  1.0573  2.1121
 5447SOL     OW27802   4.336   4.288   0.835 -0.2415  0.0124 -0.0749
 5447SOL    HW127803   4.407   4.267   0.774 -0.9132  2.6566 -1.7951
 5447SOL    HW227804   4.270   4.337   0.786 -0.8707 -1.1076 -0.3343
 5448SOL     OW27805   2.203   2.968   3.565  0.3505  0.1437 -0.0106
 5448SOL    HW127806   2.181   2.934   3.651 -0.7265  2.2708  0.5627
 5448SOL    HW227807   2.296   2.950   3.565  0.5383  1.0748 -0.5905
 5449SOL     OW27808   2.446   0.023  11.353 -0.1440 -0.1201  0.7040
 5449SOL    HW127809   2.520   4.691  11.330 -0.9267 -0.6659 -0.4865
 5449SOL    HW227810   2.385   4.693  11.403 -1.1918  0.6850  0.3050
 5450SOL     OW27811   0.431   2.102  15.859 -0.4472 -0.3091  0.2887
 5450SOL    HW127812   0.515   2.060  15.838  0.5177  1.4577  0.6472
 5450SOL    HW227813   0.438   2.160  15.783  0.2718 -0.6912  0.0632
 5451SOL     OW27814   4.472   1.128  11.765  0.2583  0.2880 -0.2225
 5451SOL    HW127815   4.457   1.223  11.772  0.0838  0.4578 -2.8229
 5451SOL    HW227816   4.488   1.112  11.858  0.1811 -3.0530 -0.8103
 5452SOL     OW27817   0.937   0.537   3.886 -0.1571 -0.2138 -0.6073
 5452SOL    HW127818   1.001   0.609   3.890 -0.4642  0.1170 -1.4668
 5452SOL    HW227819   0.981   0.472   3.940 -1.5535 -0.7529 -0.1195
 5453SOL     OW27820   0.620   2.111   7.932  0.0398  0.4247  0.5992
 5453SOL    HW127821   0.701   2.086   7.977  0.3741 -0.3441 -0.4371
 5453SOL    HW227822   0.581   2.023   7.923 -0.0022  0.5312 -0.2672
 5454SOL     OW27823   0.318   1.583   5.202 -0.0919 -0.4236  0.2586
 5454SOL    HW127824   0.291   1.558   5.290 -2.3923  1.0220 -0.0408
 5454SOL    HW227825   0.413   1.570   5.199  0.0188  0.6410 -0.8497
 5455SOL     OW27826   0.866   2.166  11.142 -0.0844 -0.0092 -0.7098
 5455SOL    HW127827   0.954   2.148  11.109  1.0456  1.2717  1.5893
 5455SOL    HW227828   0.821   2.209  11.069 -2.1455  1.6685  1.5758
 5456SOL     OW27829   4.535   3.194   6.777  0.1526  0.1648 -0.1324
 5456SOL    HW127830   4.587   3.265   6.816 -1.3327  1.2439 -0.0975
 5456SOL    HW227831   4.461   3.246   6.745  0.8456  0.0743 -1.8236
 5457SOL     OW27832   2.265   2.560   7.645 -0.0173 -0.2542 -0.5794
 5457SOL    HW127833   2.313   2.621   7.589 -1.2206  0.6949 -0.5980
 5457SOL    HW227834   2.178   2.571   7.607 -0.1093 -1.1023 -0.6065
 5458SOL     OW27835   0.717   0.685   4.428 -0.3365 -0.7850  0.5601
 5458SOL    HW127836   0.704   0.777   4.406 -2.7892 -1.4798 -0.8119
 5458SOL    HW227837   0.631   0.677   4.468 -0.6844  0.0675 -0.0245
 5459SOL     OW27838   0.189   1.748   5.984 -0.2376 -0.0888  0.1467
 5459SOL    HW127839   0.126   1.777   5.919  0.6852 -0.9916 -1.1385
 5459SOL    HW227840   0.186   1.812   6.055  0.2906  1.0169 -0.8356
 5460SOL     OW27841   3.218   1.796   2.966  0.1559 -0.5178 -0.1314
 5460SOL    HW127842   3.247   1.752   2.886  1.0100 -0.9230  0.4102
 5460SOL    HW227843   3.131   1.756   2.975 -0.4340  0.7881 -0.0324
 5461SOL     OW27844   4.552   2.956   3.975  0.4638 -0.4110 -0.1378
 5461SOL    HW127845   4.553   2.870   3.933 -1.9352  0.8595 -2.8873
 5461SOL    HW227846   4.614   2.946   4.047  1.4629  1.0355 -0.7850
 5462SOL     OW27847   0.105   4.485   2.550 -0.2665 -0.3431 -0.0910
 5462SOL    HW127848   0.072   4.396   2.539 -0.9060 -0.0522 -0.4973
 5462SOL    HW227849   0.116   4.510   2.459 -0.6246 -3.1888 -0.9214
 5463SOL     OW27850   1.401   2.641   3.659  0.3565  0.3794 -0.3319
 5463SOL    HW127851   1.340   2.624   3.588  0.7287  1.0842 -0.8124
 5463SOL    HW227852   1.449   2.717   3.627  1.6608 -1.0054 -1.6525
 5464SOL     OW27853   4.293   1.567  15.890  0.2856 -0.2949  0.6452
 5464SOL    HW127854   4.285   1.611  15.805  0.6575  2.5286  2.0715
 5464SOL    HW227855   4.206   1.528  15.898 -1.1575  2.9591  0.7414
 5465SOL     OW27856   0.983   4.504   0.726  0.5013  0.1327 -0.0173
 5465SOL    HW127857   0.934   4.424   0.709 -1.1744  1.2237 -0.4360
 5465SOL    HW227858   1.070   4.468   0.740  0.5669  0.7097  1.0646
 5466SOL     OW27859   2.081   1.601   2.709 -0.0175 -0.3793 -0.0114
 5466SOL    HW127860   2.026   1.567   2.638 -1.9094  0.7596  0.9065
 5466SOL    HW227861   2.131   1.669   2.664  1.4522 -1.0202  0.6578
 5467SOL     OW27862   3.498   2.459  12.040 -0.3560  0.2878 -0.4203
 5467SOL    HW127863   3.528   2.447  11.950 -1.1175 -0.2223 -0.6127
 5467SOL    HW227864   3.529   2.381  12.085  1.0602  1.0531 -0.0707
 5468SOL     OW27865   0.370   3.770   7.213  0.2314 -0.6246  0.2898
 5468SOL    HW127866   0.392   3.810   7.128 -1.0350  0.0958  0.3175
 5468SOL    HW227867   0.438   3.800   7.273  0.6125 -3.8680  1.4959
 5469SOL     OW27868   3.699   1.855   5.300 -0.3734 -0.0298 -0.1039
 5469SOL    HW127869   3.777   1.886   5.255  0.2924 -0.5376  0.7036
 5469SOL    HW227870   3.726   1.767   5.325 -3.0217 -0.7656  0.1414
 5470SOL     OW27871   2.000   3.458   4.603 -0.2693  0.2537  0.1405
 5470SOL    HW127872   2.010   3.539   4.655 -0.0997 -0.1903  0.8041
 5470SOL    HW227873   2.074   3.408   4.638 -2.0030 -0.8948  2.1747
 5471SOL     OW27874   4.246   4.485   4.986 -0.0167 -0.3050 -0.0759
 5471SOL    HW127875   4.328   4.527   4.959  0.0031 -0.9037 -0.9445
 5471SOL    HW227876   4.204   4.459   4.904 -0.9188 -1.8382  0.8807
 5472SOL     OW27877   3.743   0.711   3.492 -0.3640  0.3663  0.4616
 5472SOL    HW127878   3.688   0.781   3.528 -1.3496 -0.1304 -0.0760
 5472SOL    HW227879   3.743   0.743   3.401  2.1174  2.2577  1.1268
 5473SOL     OW27880   4.110   1.961  15.477 -0.0501  0.1054  0.4543
 5473SOL    HW127881   4.118   2.003  15.391 -0.7734 -1.9313 -0.6074
 5473SOL    HW227882   4.097   1.873  15.442 -0.6663  0.0102  0.9166
 5474SOL     OW27883   3.269   4.316   1.844  0.1041  0.2230  0.5164
 5474SOL    HW127884   3.267   4.232   1.798 -2.0784  0.3795  0.3254
 5474SOL    HW227885   3.256   4.292   1.935 -1.6572 -1.1203 -0.1000
 5475SOL     OW27886   2.454   2.336   9.990  0.5253  0.3233  0.0441
 5475SOL    HW127887   2.448   2.241   9.985 -1.9172  0.4243  0.9644
 5475SOL    HW227888   2.385   2.354   9.926  0.1036 -1.3200  0.0207
 5476SOL     OW27889   2.047   3.347   3.103 -0.0014 -0.2445 -0.0172
 5476SOL    HW127890   1.956   3.317   3.104 -0.1049  0.1089  0.9123
 5476SOL    HW227891   2.087   3.272   3.059 -0.8953 -1.7392  1.6692
 5477SOL     OW27892   3.803   3.612   4.871  0.3525 -0.2665 -0.2720
 5477SOL    HW127893   3.868   3.547   4.896 -0.1630 -0.9887 -0.8022
 5477SOL    HW227894   3.724   3.572   4.908  0.1761 -1.3587 -1.8442
 5478SOL     OW27895   3.662   0.219   2.240 -0.4653 -0.2785  0.2457
 5478SOL    HW127896   3.646   0.170   2.159 -1.7049  1.0477 -0.3266
 5478SOL    HW227897   3.587   0.181   2.287  0.3111 -0.8550  1.0033
 5479SOL     OW27898   4.672   2.368   6.206  0.0828  0.9008 -0.1284
 5479SOL    HW127899   4.644   2.335   6.292  1.1832  2.9881  1.0527
 5479SOL    HW227900   4.704   2.454   6.236  1.2182  1.1716 -2.0991
 5480SOL     OW27901   2.554   2.155  14.593  0.4323  0.0268 -0.4256
 5480SOL    HW127902   2.618   2.198  14.536 -0.2919  2.0188  0.2531
 5480SOL    HW227903   2.533   2.222  14.658  0.8362 -2.1322  1.9151
 5481SOL     OW27904   4.132   1.473   6.539  0.1942  0.2254  0.6800
 5481SOL    HW127905   4.200   1.469   6.605  0.6836 -1.0637  0.1032
 5481SOL    HW227906   4.107   1.563   6.520 -0.0269  0.1629  0.6666
 5482SOL     OW27907   0.322   1.549   2.321  0.9653 -0.1037  0.3102
 5482SOL    HW127908   0.303   1.487   2.251 -1.1274 -0.3702  1.1114
 5482SOL    HW227909   0.247   1.608   2.327 -1.1745 -2.9405  1.2595
 5483SOL     OW27910   1.662   2.771   5.870  0.1797  0.3362  0.5819
 5483SOL    HW127911   1.755   2.752   5.860 -0.1298 -0.3103 -1.0027
 5483SOL    HW227912   1.648   2.734   5.957 -2.1582 -2.5220 -1.0363
 5484SOL     OW27913   0.929   1.903  10.727  0.1615  0.5411 -0.3594
 5484SOL    HW127914   1.006   1.950  10.758  1.6399 -0.7976 -2.0099
 5484SOL    HW227915   0.957   1.813  10.711  0.5447  0.7397 -0.7788
 5485SOL     OW27916   1.327   4.293   9.546 -0.4225 -0.0254  0.1139
 5485SOL    HW127917   1.323   4.339   9.629 -0.3480  1.1638 -0.5360
 5485SOL    HW227918   1.400   4.342   9.509  1.5088 -0.6426  3.1106
 5486SOL     OW27919   0.094   3.649  11.265 -0.1926 -0.5705 -0.1574
 5486SOL    HW127920   0.130   3.566  11.234 -2.9916 -1.1962 -1.7562
 5486SOL    HW227921   0.008   3.617  11.291  0.1478 -0.9256  0.5197
 5487SOL     OW27922   4.248   4.553   4.046  0.1862  0.8857 -0.2560
 5487SOL    HW127923   4.287   4.625   4.097  1.3188  1.2483 -1.6533
 5487SOL    HW227924   4.180   4.528   4.109 -0.8092  2.1457 -0.8179
 5488SOL     OW27925   1.981   1.569   4.276  0.0543 -0.1837 -0.4723
 5488SOL    HW127926   1.913   1.522   4.323  0.5407  0.1683  0.5804
 5488SOL    HW227927   2.005   1.506   4.208 -1.2666 -2.1291  0.8422
 5489SOL     OW27928   0.628   4.647   2.876  0.2097  0.5438 -0.1224
 5489SOL    HW127929   0.712   4.662   2.832 -0.2196 -1.4116 -1.6026
 5489SOL    HW227930   0.644   4.668   2.968  1.9571 -0.7926 -0.1260
 5490SOL     OW27931   0.775   4.352   1.165  0.0862  0.1657 -0.0092
 5490SOL    HW127932   0.746   4.427   1.218  0.6738  0.5669 -0.2542
 5490SOL    HW227933   0.747   4.275   1.214  2.6122 -0.1404  0.9617
 5491SOL     OW27934   0.481   1.125   4.533  0.0989  0.5696 -0.1388
 5491SOL    HW127935   0.394   1.097   4.562  0.2998  0.2049  0.1060
 5491SOL    HW227936   0.503   1.040   4.494 -0.0909  0.0330  0.9191
 5492SOL     OW27937   2.524   2.474   9.114 -0.1378  0.4863 -0.3032
 5492SOL    HW127938   2.521   2.382   9.142  0.0857  0.6267  0.1857
 5492SOL    HW227939   2.517   2.510   9.203 -1.1376 -0.3776 -0.0274
 5493SOL     OW27940   1.054   4.046  16.868 -0.3984  0.0515 -0.7857
 5493SOL    HW127941   0.992   4.117  16.880 -0.9443 -0.7161  0.8422
 5493SOL    HW227942   1.070   4.017  16.958  2.9131  0.3477 -1.2611
 5494SOL     OW27943   0.991   1.891   8.259  0.5571  0.6140  0.0634
 5494SOL    HW127944   0.946   1.822   8.308 -0.2005 -0.4414 -2.1215
 5494SOL    HW227945   1.080   1.868   8.285  0.3798 -2.4820 -1.9487
 5495SOL     OW27946   0.026   4.054   5.176  0.3392  0.0097 -0.2952
 5495SOL    HW127947   0.038   4.085   5.087  1.7369 -0.8502 -0.4101
 5495SOL    HW227948   4.668   4.009   5.163  0.1013  0.3819 -0.0992
 5496SOL     OW27949   1.784   0.844   8.220 -0.6985  0.2815 -0.1178
 5496SOL    HW127950   1.851   0.789   8.261 -2.8647 -1.6465  0.8878
 5496SOL    HW227951   1.824   0.864   8.136  0.1121 -0.2420  0.1402
 5497SOL     OW27952   4.654   1.698   5.587 -0.4323  0.5043 -0.5553
 5497SOL    HW127953   4.647   1.620   5.642  2.9681  0.1244 -0.6744
 5497SOL    HW227954   0.025   1.712   5.583 -0.2424 -0.5227  0.6424
 5498SOL     OW27955   0.633   0.193   8.090  0.2861 -0.6279 -0.5058
 5498SOL    HW127956   0.592   0.212   8.174 -2.9675  2.0198 -2.6589
 5498SOL    HW227957   0.570   0.236   8.032 -1.0013 -1.3403  0.3626
 5499SOL     OW27958   4.364   2.406   8.719 -0.4178 -0.0658 -0.3658
 5499SOL    HW127959   4.449   2.369   8.742 -0.6594  0.2965  1.1342
 5499SOL    HW227960   4.323   2.424   8.804 -1.1839 -0.7307 -0.5965
 5500SOL     OW27961   2.751   0.178   5.687 -0.5569  0.1083 -0.7500
 5500SOL    HW127962   2.791   0.173   5.773  0.4296 -0.7445 -1.2515
 5500SOL    HW227963   2.798   0.253   5.651 -2.2367  1.5442  0.0964
 5501SOL     OW27964   3.860   2.985  16.752 -0.1001  0.2676 -0.1942
 5501SOL    HW127965   3.820   3.031  16.826 -0.8739 -0.8554  0.0840
 5501SOL    HW227966   3.951   3.012  16.756 -0.3263  0.9402  0.3901
 5502SOL     OW27967   2.687   3.301   7.838  0.0520 -0.2282 -0.3084
 5502SOL    HW127968   2.641   3.253   7.770 -1.7115 -0.8009  1.2752
 5502SOL    HW227969   2.770   3.253   7.846 -1.6419 -3.2785 -0.7707
 5503SOL     OW27970   3.913   3.261   8.405 -0.0997 -0.3593 -0.1101
 5503SOL    HW127971   3.957   3.181   8.432  3.2749  2.3753  2.3742
 5503SOL    HW227972   3.834   3.227   8.361  0.5270 -1.2242 -0.5842
 5504SOL     OW27973   0.853   2.920  17.567  0.5204 -0.1616 -0.2174
 5504SOL    HW127974   0.870   3.005  17.606  2.4090 -0.9327  0.6172
 5504SOL    HW227975   0.768   2.902  17.607  0.4801  0.5381  0.0122
 5505SOL     OW27976   2.821   4.090   2.053 -0.4454  0.6809 -0.4557
 5505SOL    HW127977   2.783   4.003   2.044 -0.5595  0.3789  3.2362
 5505SOL    HW227978   2.891   4.086   1.987 -1.1490 -2.8282 -0.9802
 5506SOL     OW27979   0.863   1.477   3.804 -0.2736  0.4087 -0.1655
 5506SOL    HW127980   0.837   1.566   3.778 -0.3498  0.3318 -0.3510
 5506SOL    HW227981   0.795   1.418   3.772  0.9274  0.3256 -2.6319
 5507SOL     OW27982   3.659   0.693   7.585 -0.0288 -0.5871 -0.2178
 5507SOL    HW127983   3.577   0.718   7.627 -0.5325  0.2430 -1.6850
 5507SOL    HW227984   3.630   0.667   7.497 -1.2932  1.9906 -0.5494
 5508SOL     OW27985   3.017   3.767   1.827  0.6181  0.1686 -0.4267
 5508SOL    HW127986   3.066   3.719   1.762  1.0281  0.8933 -0.6545
 5508SOL    HW227987   2.936   3.716   1.832 -0.4265  1.6726 -1.9609
 5509SOL     OW27988   3.750   0.021   7.515  0.5252 -0.4691 -0.1910
 5509SOL    HW127989   3.841   4.718   7.500  1.3285  1.4743  1.0943
 5509SOL    HW227990   3.709   4.694   7.446 -0.2939 -1.6446  1.1827
 5510SOL     OW27991   0.901   3.063  14.283  0.1317 -0.3663 -0.1485
 5510SOL    HW127992   0.987   3.084  14.246  0.9312 -0.2475  1.7673
 5510SOL    HW227993   0.881   3.128  14.350  2.6595 -0.6704  0.8977
 5511SOL     OW27994   0.454   2.595  13.372 -0.3053 -0.1691 -0.7485
 5511SOL    HW127995   0.538   2.605  13.328 -0.4166  1.8391 -0.5074
 5511SOL    HW227996   0.427   2.524  13.314  0.7283 -2.9689  2.1739
 5512SOL     OW27997   3.534   3.470  16.613 -0.9931 -0.1250 -0.4097
 5512SOL    HW127998   3.520   3.454  16.706  0.1116  0.1902 -0.1897
 5512SOL    HW227999   3.556   3.386  16.571  0.6487  0.9246 -1.6596
 5513SOL     OW28000   4.196   0.169   8.167  0.7803 -0.0979 -0.5318
 5513SOL    HW128001   4.190   0.095   8.106 -1.8863  1.6229 -2.3580
 5513SOL    HW228002   4.124   0.145   8.226  0.6502 -1.8246 -1.3824
 5514SOL     OW28003   4.148   4.384  16.290  0.2760  0.4487  0.6273
 5514SOL    HW128004   4.205   4.433  16.230  1.5817  1.9830  3.1525
 5514SOL    HW228005   4.078   4.352  16.233 -0.3414 -0.3702  1.8520
 5515SOL     OW28006   3.418   2.480   4.527  0.2455 -0.2087  0.2331
 5515SOL    HW128007   3.472   2.401   4.537  1.2585  0.2759 -1.5299
 5515SOL    HW228008   3.489   2.544   4.528  0.9293 -0.9472 -0.4398
 5516SOL     OW28009   2.953   2.167   5.511 -0.7289  0.0110 -0.1412
 5516SOL    HW128010   3.038   2.204   5.488 -0.5111 -0.6218 -0.3752
 5516SOL    HW228011   2.968   2.104   5.582 -0.6123 -0.5731 -0.6794
 5517SOL     OW28012   2.387   0.154   3.175 -0.1918  0.5114  0.3590
 5517SOL    HW128013   2.314   0.199   3.217  0.6784  1.2000  1.1474
 5517SOL    HW228014   2.371   0.186   3.086  1.3105  0.0823 -0.0687
 5518SOL     OW28015   1.992   1.294   4.945  0.4461 -0.4171 -0.3598
 5518SOL    HW128016   1.913   1.273   4.996 -1.7546  1.8235 -2.7911
 5518SOL    HW228017   1.975   1.384   4.918 -2.1417 -1.3200 -1.7446
 5519SOL     OW28018   1.234   2.874   4.554 -0.2806  0.0969 -0.1935
 5519SOL    HW128019   1.306   2.811   4.552  0.4918  1.0211 -0.9791
 5519SOL    HW228020   1.175   2.810   4.514 -0.4655 -1.0261  1.8725
 5520SOL     OW28021   3.292   1.214   6.720 -0.5595 -1.1162  0.9110
 5520SOL    HW128022   3.334   1.184   6.640  2.0688  1.1061  1.4621
 5520SOL    HW228023   3.373   1.233   6.767  1.2370 -0.9604 -2.2720
 5521SOL     OW28024   4.511   2.576   5.238 -0.9322 -0.4600  0.4672
 5521SOL    HW128025   4.496   2.657   5.287 -0.9939  0.3802 -0.9419
 5521SOL    HW228026   4.587   2.545   5.286 -0.6214  0.7688  0.7561
 5522SOL     OW28027   2.692   1.708  14.376 -0.3152 -0.0825 -0.0304
 5522SOL    HW128028   2.641   1.722  14.296 -1.1789 -0.4449  0.4624
 5522SOL    HW228029   2.682   1.797  14.412 -1.8561  0.5858 -2.1355
 5523SOL     OW28030   4.549   4.606  11.205  0.3349  0.3156 -0.1002
 5523SOL    HW128031   4.513   4.692  11.226 -0.1077  0.0579  0.1921
 5523SOL    HW228032   4.644   4.616  11.201  0.3825  0.2520  1.0402
 5524SOL     OW28033   2.442   4.576  12.032  0.0489  0.7933  0.6975
 5524SOL    HW128034   2.377   4.506  12.045 -0.7610  1.0708 -1.9268
 5524SOL    HW228035   2.424   4.606  11.943  0.4632 -1.5692 -0.1919
 5525SOL     OW28036   2.329   1.394  14.612 -0.1549  0.0567 -0.1024
 5525SOL    HW128037   2.389   1.431  14.677  0.7441  1.6240 -1.8015
 5525SOL    HW228038   2.248   1.444  14.622 -1.3890 -2.1503  0.8043
 5526SOL     OW28039   3.068   0.221  16.688 -0.0982  0.1795 -0.2537
 5526SOL    HW128040   3.063   0.167  16.767  0.1886 -0.7719 -0.8733
 5526SOL    HW228041   3.107   0.161  16.624 -2.2870 -0.9857 -0.4793
 5527SOL     OW28042   4.283   4.639   3.792  0.2557  0.2162  0.4792
 5527SOL    HW128043   4.196   4.616   3.759  0.3592 -0.7904  0.9257
 5527SOL    HW228044   4.273   4.627   3.886  0.3041  2.1989  0.7436
 5528SOL     OW28045   2.631   2.778   2.078 -0.0243 -0.4610 -0.2776
 5528SOL    HW128046   2.562   2.822   2.027 -0.0450 -0.6106 -0.3798
 5528SOL    HW228047   2.637   2.829   2.158 -2.0114  0.4994 -0.7250
 5529SOL     OW28048   1.533   2.444   5.333  0.6895  0.1992  0.7027
 5529SOL    HW128049   1.581   2.386   5.393 -0.8312 -0.5174  1.2439
 5529SOL    HW228050   1.604   2.476   5.279  1.2334 -1.5894  0.3618
 5530SOL     OW28051   2.424   1.755   6.997 -0.4688 -0.4169  0.0712
 5530SOL    HW128052   2.437   1.737   6.903 -0.0016 -1.3360  0.3086
 5530SOL    HW228053   2.386   1.842   6.989 -0.9828 -0.8771 -2.6465
 5531SOL     OW28054   2.349   0.065   0.091 -0.3847  0.2016  0.1525
 5531SOL    HW128055   2.328   0.080  17.698 -0.5285 -1.2914 -0.0592
 5531SOL    HW228056   2.434   0.107   0.097 -0.7509  0.9638  0.0057
 5532SOL     OW28057   2.167   1.922   2.624  0.0252  0.4251 -0.2309
 5532SOL    HW128058   2.195   2.004   2.583  0.2668 -0.3435 -1.5998
 5532SOL    HW228059   2.136   1.874   2.547 -0.0776  0.5939 -0.2938
 5533SOL     OW28060   1.923   0.228  11.201  0.7036 -1.0824  0.0555
 5533SOL    HW128061   2.014   0.227  11.232  0.9033 -1.2863 -0.5478
 5533SOL    HW228062   1.908   0.137  11.175 -1.4501 -0.7992  0.3307
 5534SOL     OW28063   2.274   2.343   8.559 -0.1813 -0.1119 -0.1030
 5534SOL    HW128064   2.324   2.417   8.525  3.3947 -2.3234  0.3472
 5534SOL    HW228065   2.185   2.365   8.532 -0.7714 -1.9805  0.3120
 5535SOL     OW28066   3.433   3.169  15.695 -0.5573  0.3823 -0.5156
 5535SOL    HW128067   3.407   3.243  15.750  0.7303 -0.8231  1.7439
 5535SOL    HW228068   3.366   3.102  15.709  0.4515 -0.3476  0.8642
 5536SOL     OW28069   2.178   0.395   8.195  0.1614 -0.2589 -0.2321
 5536SOL    HW128070   2.227   0.363   8.271  1.2260  0.1411 -0.7525
 5536SOL    HW228071   2.197   0.488   8.208  1.7751 -0.6361  0.0863
 5537SOL     OW28072   0.195   1.978   0.034  0.1079 -0.5892 -0.2663
 5537SOL    HW128073   0.165   2.024   0.112 -0.7163  0.7782 -1.3880
 5537SOL    HW228074   0.284   2.011   0.023 -0.0169 -1.0547 -2.7573
 5538SOL     OW28075   3.232   2.520   3.747 -0.4249 -0.2127 -0.5369
 5538SOL    HW128076   3.251   2.432   3.777 -0.2940 -0.4406 -1.2913
 5538SOL    HW228077   3.320   2.545   3.719 -0.0953  2.0170  2.4416
 5539SOL     OW28078   4.330   2.273  15.904  0.4688  0.5915  0.0167
 5539SOL    HW128079   4.309   2.249  15.814  1.3063 -4.9046  1.2484
 5539SOL    HW228080   4.416   2.315  15.897  1.6493 -1.7524  0.4616
 5540SOL     OW28081   4.394   2.165  16.597 -0.2579 -1.2064 -0.4487
 5540SOL    HW128082   4.472   2.152  16.543  0.2914 -2.2309  0.6015
 5540SOL    HW228083   4.384   2.074  16.625  0.3969 -0.9426  0.6358
 5541SOL     OW28084   3.520   2.917   4.122  0.7732 -0.9803  0.5948
 5541SOL    HW128085   3.509   2.984   4.054 -0.1317 -2.2024 -0.4616
 5541SOL    HW228086   3.455   2.941   4.187  0.6460  2.3701 -0.7457
 5542SOL     OW28087   1.798   2.415   1.604 -0.4485 -0.2235  0.1998
 5542SOL    HW128088   1.839   2.331   1.623  2.5073  0.6947 -2.3224
 5542SOL    HW228089   1.718   2.401   1.656  0.5606 -0.5059  1.6710
 5543SOL     OW28090   1.621   0.981  17.202 -0.4524  0.0157 -0.1786
 5543SOL    HW128091   1.643   0.992  17.295  0.3772 -0.8732 -0.2714
 5543SOL    HW228092   1.526   0.971  17.208 -0.5274  1.2679  0.6867
 5544SOL     OW28093   4.052   1.808  17.257  0.8588  0.0056 -0.8476
 5544SOL    HW128094   4.141   1.842  17.270  0.8717 -0.1454 -0.5443
 5544SOL    HW228095   4.012   1.893  17.238 -1.0309 -1.3936 -3.1459
 5545SOL     OW28096   2.222   4.688   5.991  0.0757  0.0301  0.2940
 5545SOL    HW128097   2.224   0.034   6.056  1.3682 -3.4462  4.1014
 5545SOL    HW228098   2.297   4.633   6.016 -0.3500  1.2586  4.3926
 5546SOL     OW28099   2.854   2.584  12.090  0.4270  0.4661 -1.0114
 5546SOL    HW128100   2.799   2.587  12.011  0.1993 -0.2586 -0.8865
 5546SOL    HW228101   2.901   2.666  12.075  0.1249  1.2999  2.6395
 5547SOL     OW28102   0.868   0.650   2.876  0.0279 -0.3864  1.0752
 5547SOL    HW128103   0.805   0.594   2.923 -0.3561 -1.4247 -0.6824
 5547SOL    HW228104   0.870   0.612   2.789  0.9138 -1.7594  1.6935
 5548SOL     OW28105   1.757   0.889   4.835 -0.0991  0.4907  0.4517
 5548SOL    HW128106   1.833   0.920   4.787 -0.8702 -1.4857 -2.0468
 5548SOL    HW228107   1.759   0.935   4.919 -2.0125  0.8656  0.2916
 5549SOL     OW28108   4.279   2.431  15.612  0.2270 -0.3078 -0.3823
 5549SOL    HW128109   4.351   2.370  15.631  1.0306  1.4892  2.4177
 5549SOL    HW228110   4.245   2.386  15.535 -0.2858 -0.8584  0.1638
 5550SOL     OW28111   1.550   2.920   6.278 -0.4871  0.1640  0.1104
 5550SOL    HW128112   1.573   2.852   6.215 -1.5725 -0.0067 -0.1015
 5550SOL    HW228113   1.504   2.984   6.224 -0.4813  0.8222  0.8859
 5551SOL     OW28114   0.809   1.543  10.754 -0.1995 -0.1811  0.1220
 5551SOL    HW128115   0.863   1.468  10.777  0.5938 -0.3186 -2.1342
 5551SOL    HW228116   0.771   1.558  10.840 -0.5703  0.7599 -0.2085
 5552SOL     OW28117   3.638   1.249  13.868  0.3197 -0.1486  0.1140
 5552SOL    HW128118   3.561   1.194  13.851  1.4307 -1.7632  0.2762
 5552SOL    HW228119   3.702   1.202  13.815 -0.0862 -0.6788  0.0912
 5553SOL     OW28120   2.696   1.961   5.965 -0.0157  0.7030 -0.5461
 5553SOL    HW128121   2.723   2.034   5.910  0.3768  1.8173  1.1090
 5553SOL    HW228122   2.745   1.975   6.046  1.3278  0.2161 -1.2853
 5554SOL     OW28123   2.092   2.962   1.049 -0.2400 -0.2617 -1.0223
 5554SOL    HW128124   2.133   3.042   1.016  0.2552  0.1216  0.5315
 5554SOL    HW228125   2.051   2.929   0.969 -1.0785 -1.3243 -0.1463
 5555SOL     OW28126   3.862   2.787   4.457  0.3083  0.1952 -0.2746
 5555SOL    HW128127   3.856   2.874   4.498 -0.3999  0.0740 -0.1174
 5555SOL    HW228128   3.943   2.755   4.495  0.4771 -1.1601 -1.7900
 5556SOL     OW28129   3.471   0.473   8.089 -0.8571 -0.3596 -0.2107
 5556SOL    HW128130   3.525   0.395   8.108  0.4240  0.3696 -0.8542
 5556SOL    HW228131   3.434   0.503   8.172 -3.5904 -3.2315 -0.3845
 5557SOL     OW28132   3.162   3.363  17.217 -0.2083 -0.4453  0.1525
 5557SOL    HW128133   3.171   3.355  17.312  1.3983  0.2583  0.0570
 5557SOL    HW228134   3.150   3.455  17.196 -2.6322 -0.7009  0.4220
 5558SOL     OW28135   4.250   2.788   8.716 -0.5968  0.0489 -0.4969
 5558SOL    HW128136   4.202   2.818   8.639 -0.6807  0.6472 -0.2137
 5558SOL    HW228137   4.304   2.714   8.691  1.0001  1.3290 -0.8116
 5559SOL     OW28138   2.531   2.064   7.536 -0.1307 -0.0654  0.1551
 5559SOL    HW128139   2.595   2.129   7.566 -2.6397  2.5880 -0.2890
 5559SOL    HW228140   2.554   1.997   7.601  2.1059  1.1735  0.6501
 5560SOL     OW28141   0.019   3.544   7.993  0.2286  0.2406  0.5882
 5560SOL    HW128142   0.016   3.449   7.994  1.0077  0.2129  0.6347
 5560SOL    HW228143   4.689   3.564   8.069 -1.2173  0.1369 -0.4280
 5561SOL     OW28144   2.654   3.857   6.824 -0.1380 -0.7328  0.4355
 5561SOL    HW128145   2.628   3.772   6.860  0.2281 -1.8033 -1.7936
 5561SOL    HW228146   2.590   3.917   6.861  0.2813  1.4473 -2.4200
 5562SOL     OW28147   1.070   0.787   3.014  0.1391 -0.0071  0.0867
 5562SOL    HW128148   1.061   0.782   3.109  3.7661 -1.5754  0.3650
 5562SOL    HW228149   0.984   0.759   2.984 -0.6930  1.3523  1.2168
 5563SOL     OW28150   4.323   4.076  11.187 -0.9497  0.0969  0.8605
 5563SOL    HW128151   4.273   4.132  11.127  4.1807  2.4209 -1.2936
 5563SOL    HW228152   4.415   4.096  11.168 -0.7540 -0.0118  1.7079
 5564SOL     OW28153   4.251   2.653  12.379  0.4003 -0.0026  0.1291
 5564SOL    HW128154   4.204   2.712  12.320 -0.5338  0.9814  1.8860
 5564SOL    HW228155   4.263   2.697  12.462 -2.1763  1.4235 -0.2704
 5565SOL     OW28156   1.102   2.662   1.250 -0.1664  0.1348 -0.4175
 5565SOL    HW128157   1.129   2.753   1.232  2.4007 -1.2233 -3.4214
 5565SOL    HW228158   1.181   2.620   1.284 -0.3261  0.5603  0.4882
 5566SOL     OW28159   3.529   0.741   0.763 -0.3766 -0.4152 -0.8179
 5566SOL    HW128160   3.545   0.689   0.841 -1.2934 -0.5030 -0.6879
 5566SOL    HW228161   3.577   0.695   0.694  1.8304 -0.9928  1.1129
 5567SOL     OW28162   4.308   1.647   2.360 -0.0317 -0.3577 -0.1957
 5567SOL    HW128163   4.391   1.624   2.402  0.0521 -0.7059 -0.5531
 5567SOL    HW228164   4.330   1.647   2.267 -0.3138 -0.1497 -0.2631
 5568SOL     OW28165   0.798   1.168   6.813 -0.1089  0.1323  0.4794
 5568SOL    HW128166   0.731   1.231   6.785  0.0693  0.1226  0.0243
 5568SOL    HW228167   0.804   1.173   6.908  0.5547 -1.1824  0.5070
 5569SOL     OW28168   3.379   0.428  14.953  0.2083  0.7921 -0.5466
 5569SOL    HW128169   3.324   0.496  14.913 -2.4289  0.3451  2.3533
 5569SOL    HW228170   3.459   0.476  14.972  1.2728 -1.5584  0.8380
 5570SOL     OW28171   0.400   1.769   7.566  0.4264 -0.0346  0.7277
 5570SOL    HW128172   0.410   1.722   7.483 -1.0228  2.5989 -0.9426
 5570SOL    HW228173   0.408   1.862   7.544 -0.6701 -0.1905 -0.2911
 5571SOL     OW28174   2.143   1.292   7.396 -0.4013  0.1160  0.6383
 5571SOL    HW128175   2.122   1.378   7.433  2.7400  1.3677 -0.5484
 5571SOL    HW228176   2.221   1.264   7.445 -0.0042 -2.0927 -1.2407
 5572SOL     OW28177   1.413   0.448  10.399 -0.2875 -0.5099 -0.2813
 5572SOL    HW128178   1.354   0.436  10.324  2.1983  0.7778 -2.4673
 5572SOL    HW228179   1.343   0.456  10.463 -0.2253  4.0450 -0.7904
 5573SOL     OW28180   0.303   3.506   7.995  0.2525  0.5208  0.4659
 5573SOL    HW128181   0.208   3.517   7.995  0.2886  0.8231  0.8248
 5573SOL    HW228182   0.313   3.451   8.073  1.0501  0.2701  0.1888
 5574SOL     OW28183   4.140   0.770   3.481  0.2932  0.2940  0.2615
 5574SOL    HW128184   4.142   0.864   3.496  1.4082  0.5203 -1.2548
 5574SOL    HW228185   4.066   0.763   3.420  0.0597  0.7963  0.4917
 5575SOL     OW28186   2.438   3.758   2.981  0.2003 -0.1519  0.5021
 5575SOL    HW128187   2.424   3.815   3.056 -0.4059  0.7994 -0.3393
 5575SOL    HW228188   2.385   3.680   2.997 -0.5324  0.2024 -0.2070
 5576SOL     OW28189   4.554   4.167   4.424  0.4826  0.0386  0.1435
 5576SOL    HW128190   4.490   4.193   4.491  2.1873  0.7767  1.4987
 5576SOL    HW228191   4.532   4.229   4.355  0.6172 -0.0630  0.0108
 5577SOL     OW28192   2.392   3.652  15.156  0.1978 -0.5617  0.4099
 5577SOL    HW128193   2.337   3.721  15.193 -0.8936 -0.1261 -2.0188
 5577SOL    HW228194   2.442   3.695  15.087  1.3598 -2.0518  0.3167
 5578SOL     OW28195   3.661   1.896   4.945  0.0517 -0.6463 -0.3438
 5578SOL    HW128196   3.585   1.839   4.959 -0.9310  0.9978  1.0463
 5578SOL    HW228197   3.729   1.832   4.927  2.0437  1.5895 -0.8814
 5579SOL     OW28198   1.693   4.689  16.193 -0.6218  0.5164  0.3614
 5579SOL    HW128199   1.702   4.691  16.289 -0.4282  3.1727  0.2886
 5579SOL    HW228200   1.711   0.055  16.168  0.7864  0.2748  0.4870
 5580SOL     OW28201   2.553   1.676   8.708 -0.2876  0.2567 -0.2341
 5580SOL    HW128202   2.602   1.721   8.778  1.0823 -0.0701 -0.9828
 5580SOL    HW228203   2.523   1.599   8.756  0.7631 -0.1199 -0.1837
 5581SOL     OW28204   1.659   4.418   7.956  0.3683 -0.0446  0.1680
 5581SOL    HW128205   1.571   4.399   7.989  0.0532  1.0534 -0.0512
 5581SOL    HW228206   1.705   4.436   8.038 -1.1098  2.7168  0.4017
 5582SOL     OW28207   1.646   4.708  10.492 -0.2002 -0.0261  0.1305
 5582SOL    HW128208   1.711   4.718  10.561 -0.7796 -1.4540  0.8898
 5582SOL    HW228209   1.654   0.058  10.432  0.1150  0.8416  1.2510
 5583SOL     OW28210   2.144   1.658   5.827  0.1537  0.2026 -0.3719
 5583SOL    HW128211   2.067   1.622   5.871 -0.4288 -0.7666 -2.1804
 5583SOL    HW228212   2.189   1.581   5.794  0.3886  0.7884 -1.4190
 5584SOL     OW28213   1.122   0.247   8.537  0.6147 -0.0952 -1.0210
 5584SOL    HW128214   1.030   0.230   8.560  1.1925 -0.6110  0.9111
 5584SOL    HW228215   1.140   0.180   8.471 -4.5180 -2.7669  0.2794
 5585SOL     OW28216   4.698   4.461   2.831 -0.0146 -0.4096 -0.1814
 5585SOL    HW128217   4.713   4.367   2.832 -0.6896 -0.4794  2.4014
 5585SOL    HW228218   0.017   4.490   2.751  0.5747  0.5386  0.4764
 5586SOL     OW28219   1.977   0.425  17.628 -0.1705  0.3016  0.0053
 5586SOL    HW128220   2.073   0.424  17.635 -0.2056 -2.6884 -0.2845
 5586SOL    HW228221   1.944   0.336  17.624  0.5507  0.1691 -4.0104
 5587SOL     OW28222   3.911   2.162   9.240  0.2894  0.1615  0.2596
 5587SOL    HW128223   3.930   2.075   9.275 -0.6657  0.8857  2.5542
 5587SOL    HW228224   3.818   2.169   9.263 -0.0852 -1.3795 -0.8027
 5588SOL     OW28225   0.319   3.226   7.847 -0.0090  0.3521 -0.7857
 5588SOL    HW128226   0.399   3.270   7.875  2.5778 -4.0590 -1.4213
 5588SOL    HW228227   0.349   3.146   7.805 -1.6488 -0.2386 -0.8461
 5589SOL     OW28228   4.047   3.971  12.569 -0.2365 -0.6677 -0.5932
 5589SOL    HW128229   4.000   4.023  12.505  0.0819  0.9575  0.4957
 5589SOL    HW228230   4.081   3.900  12.513 -0.8460 -1.9871  0.7036
 5590SOL     OW28231   3.394   2.611   4.202  0.0565  0.8059  0.1685
 5590SOL    HW128232   3.379   2.680   4.267 -0.7604  2.2057 -1.5140
 5590SOL    HW228233   3.382   2.536   4.261  1.1877  0.4545 -0.0500
 5591SOL     OW28234   3.096   3.082  14.221  0.2048 -0.1960  0.1073
 5591SOL    HW128235   3.148   3.050  14.295  1.8175  1.7629 -0.1939
 5591SOL    HW228236   3.015   3.095  14.271  0.1895  0.6526 -0.1464
 5592SOL     OW28237   2.734   2.024   9.884  0.0296 -0.3435  0.7637
 5592SOL    HW128238   2.810   1.975   9.853 -0.0541  0.8113 -1.2917
 5592SOL    HW228239   2.665   1.987   9.829  0.3259  0.7283 -0.3357
 5593SOL     OW28240   2.360   3.031  12.010  0.3053  0.4890  0.7781
 5593SOL    HW128241   2.366   3.037  11.915  2.0226  3.1295  1.0607
 5593SOL    HW228242   2.427   3.090  12.044  1.1970  0.5624 -1.1432
 5594SOL     OW28243   4.574   1.825   2.197 -0.0535 -0.4708 -0.7666
 5594SOL    HW128244   4.511   1.755   2.210 -0.7326  0.0664 -1.1384
 5594SOL    HW228245   4.518   1.902   2.209  1.2620  0.0610  2.1427
 5595SOL     OW28246   4.586   0.807   6.321 -0.3796 -0.0175 -0.0951
 5595SOL    HW128247   4.500   0.842   6.341 -0.4407  0.8648 -1.8687
 5595SOL    HW228248   4.644   0.866   6.370 -0.1984 -0.2375 -0.0404
 5596SOL     OW28249   3.851   1.259  12.785 -0.3146 -0.2425 -0.0588
 5596SOL    HW128250   3.885   1.178  12.747 -0.3096 -0.7917  1.1185
 5596SOL    HW228251   3.925   1.285  12.840 -0.9326  0.5115  0.4060
 5597SOL     OW28252   1.450   3.183  10.867 -0.0323  0.1508  0.2053
 5597SOL    HW128253   1.490   3.100  10.841 -1.0959  0.2630 -1.8004
 5597SOL    HW228254   1.451   3.156  10.959 -1.8299 -0.2993  0.0878
 5598SOL     OW28255   0.401   1.954   6.422 -0.3993 -0.5187 -0.6382
 5598SOL    HW128256   0.440   1.869   6.402 -1.5242 -1.0347 -0.6480
 5598SOL    HW228257   0.453   1.996   6.490 -1.1252 -1.0674  0.2593
 5599SOL     OW28258   3.170   1.811   6.056 -0.4012  0.5727 -0.0757
 5599SOL    HW128259   3.244   1.770   6.102  0.3773  2.3995  0.2780
 5599SOL    HW228260   3.123   1.828   6.137  1.1798  3.7952  0.1407
 5600SOL     OW28261   0.719   2.120   5.984  0.2437 -0.0649  0.9854
 5600SOL    HW128262   0.802   2.101   5.940 -0.9020 -1.5258 -0.5601
 5600SOL    HW228263   0.712   2.045   6.043 -0.6832  0.6278  1.7572
 5601SOL     OW28264   2.660   3.007   0.133  0.3616  0.5105 -0.5303
 5601SOL    HW128265   2.628   2.945   0.067  2.5926 -0.6336 -0.5513
 5601SOL    HW228266   2.638   3.091   0.093  0.0612  1.6357  1.9699
 5602SOL     OW28267   2.069   3.320   7.564  0.0619 -0.3016 -0.0133
 5602SOL    HW128268   1.995   3.345   7.509 -0.8661 -0.1601  1.3057
 5602SOL    HW228269   2.032   3.333   7.651 -0.8246 -1.5977 -0.2020
 5603SOL     OW28270   3.183   3.020   5.073  0.0246  0.2044  0.0005
 5603SOL    HW128271   3.156   3.022   4.981 -0.9522 -5.6718  0.1864
 5603SOL    HW228272   3.240   3.096   5.088  0.7772  0.0278 -2.0242
 5604SOL     OW28273   2.185   2.640   9.452 -0.2783 -0.7630 -0.0847
 5604SOL    HW128274   2.092   2.620   9.456  0.1257 -2.8830 -1.0619
 5604SOL    HW228275   2.199   2.648   9.546 -1.5009 -0.9802  0.1125
 5605SOL     OW28276   1.327   0.676  10.882  0.1269 -0.2262 -0.1589
 5605SOL    HW128277   1.303   0.738  10.813  0.2966  0.2489  0.2051
 5605SOL    HW228278   1.410   0.719  10.902 -0.1855 -0.2581  1.1975
 5606SOL     OW28279   0.944   1.948   6.427 -0.1886  0.4110 -0.2444
 5606SOL    HW128280   1.010   1.948   6.358  0.3063 -1.1537  0.2240
 5606SOL    HW228281   0.889   2.019   6.393  0.7035  0.5924 -1.3014
 5607SOL     OW28282   0.505   0.822   2.039  0.1140  0.6321  0.4855
 5607SOL    HW128283   0.458   0.774   1.971 -0.4252  1.6020  0.1640
 5607SOL    HW228284   0.458   0.906   2.043  0.1648  0.7118 -0.5159
 5608SOL     OW28285   2.305   0.915   8.724 -0.5882  0.3751  0.1224
 5608SOL    HW128286   2.246   0.960   8.785 -2.3262 -1.2930 -0.3202
 5608SOL    HW228287   2.268   0.827   8.733  1.5093 -0.8276 -3.3310
 5609SOL     OW28288   0.929   0.485   1.965 -0.4540  0.2045 -0.0645
 5609SOL    HW128289   1.008   0.432   1.955 -1.3467 -1.0184 -0.6981
 5609SOL    HW228290   0.908   0.505   1.873 -0.0718 -0.4983 -0.2983
 5610SOL     OW28291   1.876   3.401   0.224 -0.0344  0.0816 -0.2548
 5610SOL    HW128292   1.817   3.335   0.260 -1.0637  2.0573  1.6487
 5610SOL    HW228293   1.919   3.411   0.309 -0.1701 -1.5959  0.0011
 5611SOL     OW28294   0.385   0.275   6.653 -0.3323 -0.1553 -0.1210
 5611SOL    HW128295   0.298   0.264   6.616 -0.7714  5.0267 -0.5960
 5611SOL    HW228296   0.378   0.348   6.714  0.3311  0.4576 -0.7776
 5612SOL     OW28297   0.279   4.270   2.803 -0.6306 -1.1073 -0.7182
 5612SOL    HW128298   0.340   4.279   2.730 -0.6908  2.1155 -0.3620
 5612SOL    HW228299   0.279   4.360   2.835  2.1243 -1.6119  0.7275
 5613SOL     OW28300   2.182   1.153  13.742  0.1248  0.4001  0.3375
 5613SOL    HW128301   2.178   1.077  13.801  1.5282  0.3110  0.3164
 5613SOL    HW228302   2.276   1.156  13.728  0.0728 -2.0910 -0.6979
 5614SOL     OW28303   0.735   1.275  17.367  0.1278 -0.0068 -0.0654
 5614SOL    HW128304   0.643   1.250  17.378  0.9189 -2.0286  1.7381
 5614SOL    HW228305   0.753   1.323  17.448 -1.7165  1.5298 -0.5566
 5615SOL     OW28306   3.239   2.948   1.685  0.4183  0.0251  0.5288
 5615SOL    HW128307   3.193   3.004   1.622 -1.0327 -0.4026  1.1982
 5615SOL    HW228308   3.304   3.010   1.718  0.5155 -0.4933  1.3032
 5616SOL     OW28309   2.659   1.845   7.667 -0.4570 -0.0556 -0.1498
 5616SOL    HW128310   2.668   1.793   7.588 -0.5757 -1.5480  0.8291
 5616SOL    HW228311   2.739   1.816   7.712 -1.5875 -0.2185  1.7390
 5617SOL     OW28312   3.436   0.189   6.861  0.3524  0.4193  0.0861
 5617SOL    HW128313   3.480   0.151   6.937  1.1956  0.0445 -0.5893
 5617SOL    HW228314   3.493   0.156   6.791 -1.2675  0.6409 -1.3394
 5618SOL     OW28315   2.457   1.564   8.990 -0.3658 -1.6306  0.0571
 5618SOL    HW128316   2.549   1.538   8.979  0.5238  1.6046 -0.1337
 5618SOL    HW228317   2.430   1.528   9.074  1.0029  0.8836  1.5606
 5619SOL     OW28318   3.391   0.510   2.544  0.1737 -0.1445  0.3435
 5619SOL    HW128319   3.374   0.544   2.632 -2.2961  0.7984 -0.5001
 5619SOL    HW228320   3.374   0.589   2.493 -2.8864  0.1437  1.8019
 5620SOL     OW28321   2.789   2.305   4.768  0.2250 -0.3060  0.1449
 5620SOL    HW128322   2.850   2.335   4.836  0.3301 -1.2167  0.4574
 5620SOL    HW228323   2.745   2.243   4.827  2.0485 -1.3658  0.3942
 5621SOL     OW28324   3.004   0.664  15.817  0.2964  0.4151  0.2070
 5621SOL    HW128325   3.036   0.587  15.864  0.9249  0.2567 -0.4891
 5621SOL    HW228326   3.078   0.722  15.836  0.0401  0.2840  1.6563
 5622SOL     OW28327   2.732   1.442   5.648  0.0123  0.0288 -0.2417
 5622SOL    HW128328   2.703   1.438   5.739  0.6707  0.4983 -0.0093
 5622SOL    HW228329   2.825   1.423   5.662  0.0353  1.6281  1.6242
 5623SOL     OW28330   0.828   3.099   6.854 -0.2090 -0.2418 -0.4946
 5623SOL    HW128331   0.842   3.058   6.939  0.8991  1.1487 -0.0063
 5623SOL    HW228332   0.879   3.179   6.865 -0.1313 -0.3072 -0.3727
 5624SOL     OW28333   1.852   0.438  11.379  0.1246 -0.5002  0.1897
 5624SOL    HW128334   1.868   0.388  11.299 -3.0038  0.5143 -1.0547
 5624SOL    HW228335   1.882   0.384  11.452 -2.6314 -1.4437  0.6144
 5625SOL     OW28336   1.510   0.457   3.698 -1.1254 -0.2744 -1.1813
 5625SOL    HW128337   1.526   0.368   3.668 -0.9949  0.2409 -2.6305
 5625SOL    HW228338   1.574   0.452   3.770 -0.3809  2.4393 -1.6430
 5626SOL     OW28339   1.197   3.672   6.615  0.0024 -0.0985  0.3340
 5626SOL    HW128340   1.135   3.599   6.613  1.1856 -1.0753 -0.1788
 5626SOL    HW228341   1.203   3.677   6.710 -5.1633  0.3686  0.6144
 5627SOL     OW28342   1.887   2.884   5.137  0.5339  0.1428  0.4326
 5627SOL    HW128343   1.917   2.934   5.213 -0.8787 -1.6838  2.1907
 5627SOL    HW228344   1.801   2.869   5.174 -0.3123 -0.8436 -1.9219
 5628SOL     OW28345   1.692   4.452   6.069  0.2137  0.6666 -0.2229
 5628SOL    HW128346   1.776   4.438   6.113  0.7658 -1.4669 -1.9316
 5628SOL    HW228347   1.664   4.361   6.055  2.9345 -0.0326 -1.1837
 5629SOL     OW28348   1.910   0.433   6.642 -0.2661  0.2224 -0.4137
 5629SOL    HW128349   1.884   0.525   6.645 -2.9822 -0.6103  1.2080
 5629SOL    HW228350   1.943   0.413   6.730 -0.2502 -1.3358 -0.7831
 5630SOL     OW28351   4.153   2.778  14.729 -0.5297  0.1346 -0.2930
 5630SOL    HW128352   4.113   2.864  14.711 -0.6878  0.4027  1.3336
 5630SOL    HW228353   4.236   2.781  14.682  0.2308 -1.7187  0.9960
 5631SOL     OW28354   0.846   4.400   7.975  0.3028 -0.3202 -0.5172
 5631SOL    HW128355   0.791   4.474   7.948 -0.8706 -0.1331  2.4191
 5631SOL    HW228356   0.870   4.358   7.892  0.9538  0.9343 -0.9597
 5632SOL     OW28357   3.680   0.369   4.585 -0.3500 -0.2652  0.1213
 5632SOL    HW128358   3.755   0.419   4.553 -1.1437  1.7835  1.4947
 5632SOL    HW228359   3.696   0.347   4.676  0.9991  1.2476  0.2435
 5633SOL     OW28360   0.361   0.550  11.798  0.3125  0.3494 -0.4403
 5633SOL    HW128361   0.285   0.519  11.847 -0.6601  3.0755 -0.2127
 5633SOL    HW228362   0.402   0.609  11.862 -1.0494 -1.7594  2.3678
 5634SOL     OW28363   1.189   3.733   1.162 -0.0832  0.8384  0.2972
 5634SOL    HW128364   1.273   3.779   1.154  1.4387 -2.5470 -3.1420
 5634SOL    HW228365   1.208   3.644   1.193 -0.9365 -0.1840 -2.1466
 5635SOL     OW28366   3.082   3.748   6.442 -0.6332  0.4932 -0.3392
 5635SOL    HW128367   3.089   3.793   6.526 -0.4396 -0.3856  0.1189
 5635SOL    HW228368   3.141   3.677   6.469  0.6691  0.7487 -2.4854
 5636SOL     OW28369   3.684   2.485  13.149  0.0831  0.0301 -0.6971
 5636SOL    HW128370   3.590   2.466  13.149  0.3299 -1.2114  1.3872
 5636SOL    HW228371   3.692   2.519  13.060 -0.3224 -1.3120 -1.2373
 5637SOL     OW28372   2.713   2.785   9.177  0.0237 -0.4079 -0.9458
 5637SOL    HW128373   2.742   2.734   9.253  0.1897  0.5566 -0.3619
 5637SOL    HW228374   2.649   2.846   9.213  1.3393 -0.9174  2.3307
 5638SOL     OW28375   1.136   3.552  10.568  0.3646 -0.2449 -0.2684
 5638SOL    HW128376   1.144   3.573  10.661  0.5999 -0.7679 -0.1691
 5638SOL    HW228377   1.147   3.639  10.530  0.9173  0.5341  1.6826
 5639SOL     OW28378   4.123   2.903   8.020 -0.2692  0.3067  0.5707
 5639SOL    HW128379   4.165   2.825   8.056  1.1342  0.9693  0.3535
 5639SOL    HW228380   4.175   2.936   7.947  0.1859 -0.1598  0.6898
 5640SOL     OW28381   3.541   1.155  12.983  0.2706 -0.2527  0.4885
 5640SOL    HW128382   3.617   1.164  13.040  0.0050  1.3844  0.5754
 5640SOL    HW228383   3.518   1.062  12.994  2.0872 -0.4389  2.6652
 5641SOL     OW28384   0.768   4.596   1.340 -0.3861  0.0096  0.0866
 5641SOL    HW128385   0.723   4.644   1.270  1.5792  0.7464 -0.6765
 5641SOL    HW228386   0.797   4.665   1.399 -1.5518  0.0147  0.6667
 5642SOL     OW28387   3.947   3.913  17.098  0.0163  0.4104  0.6255
 5642SOL    HW128388   3.962   3.904  17.192 -2.4795  1.6204  1.1565
 5642SOL    HW228389   3.943   4.009  17.093  0.3528  0.4054  0.2709
 5643SOL     OW28390   2.293   1.722   4.032 -0.0067  0.1230  0.2790
 5643SOL    HW128391   2.233   1.773   4.087 -1.5552 -2.3732  0.9156
 5643SOL    HW228392   2.297   1.775   3.953 -3.9693  1.4478  0.9949
 5644SOL     OW28393   1.145   3.329   5.848  0.3949 -0.4085 -0.0652
 5644SOL    HW128394   1.153   3.424   5.835 -1.6180 -0.3070 -0.5806
 5644SOL    HW228395   1.226   3.294   5.810  0.2961 -1.1653  0.4255
 5645SOL     OW28396   2.311   4.361   3.013  0.4508  0.6097  0.5244
 5645SOL    HW128397   2.370   4.310   3.069 -3.3591 -1.2194  2.7962
 5645SOL    HW228398   2.273   4.415   3.081  3.1296  0.6504  2.0012
 5646SOL     OW28399   4.008   2.366   6.883 -0.2165 -0.2311 -0.1118
 5646SOL    HW128400   4.073   2.360   6.813 -1.1530  1.1736 -1.1026
 5646SOL    HW228401   4.036   2.287   6.929 -2.1827 -0.8057  0.1245
 5647SOL     OW28402   0.943   4.554   2.307 -0.1873 -0.5235 -1.0700
 5647SOL    HW128403   0.949   4.560   2.212 -0.3832 -0.6366 -1.0901
 5647SOL    HW228404   0.876   4.621   2.315  0.2395 -0.4624  2.1008
 5648SOL     OW28405   1.730   4.663   3.298  0.2946  0.3490  0.0364
 5648SOL    HW128406   1.668   4.675   3.371 -0.0975 -0.9948 -0.0765
 5648SOL    HW228407   1.731   0.025   3.257 -1.5564  1.5897  2.5480
 5649SOL     OW28408   3.318   4.345  10.664  0.2683  0.2377 -0.6581
 5649SOL    HW128409   3.301   4.307  10.578  1.3807  1.0454 -1.2224
 5649SOL    HW228410   3.334   4.433  10.631  1.1569 -0.1994 -1.3648
 5650SOL     OW28411   3.580   2.128  13.789  0.1064 -0.2840 -0.6447
 5650SOL    HW128412   3.629   2.163  13.864  1.4366 -0.0714 -1.6128
 5650SOL    HW228413   3.523   2.203  13.771  0.0909 -0.3820 -0.9873
 5651SOL     OW28414   1.369   1.417   0.901  0.4677 -0.5363  0.0171
 5651SOL    HW128415   1.372   1.322   0.907  1.2096 -0.6247 -1.6820
 5651SOL    HW228416   1.341   1.443   0.989 -0.1891  0.0222 -0.3560
 5652SOL     OW28417   0.196   4.213  12.368  0.1049 -0.4424 -0.0488
 5652SOL    HW128418   0.270   4.241  12.422 -1.5406  3.1163  0.3848
 5652SOL    HW228419   0.133   4.178  12.432  2.2526 -1.6609  1.4138
 5653SOL     OW28420   1.287   3.368  11.037 -0.4477 -0.1259  0.2725
 5653SOL    HW128421   1.337   3.297  11.076 -0.1485 -0.5511 -0.8633
 5653SOL    HW228422   1.338   3.443  11.067  1.6594 -1.2161 -0.6188
 5654SOL     OW28423   0.508   4.597   1.995 -0.2672 -0.3849 -0.4960
 5654SOL    HW128424   0.566   4.601   1.918  0.0985  0.9430 -0.1481
 5654SOL    HW228425   0.555   4.539   2.055  0.9218  1.7102  0.5984
 5655SOL     OW28426   2.668   4.618   4.746 -0.0430  0.1721  0.6509
 5655SOL    HW128427   2.593   4.561   4.767 -0.8992  0.4235 -1.6460
 5655SOL    HW228428   2.666   4.593   4.654 -0.2652 -0.4943  0.8332
 5656SOL     OW28429   0.795   4.347   6.362 -0.0608  0.1093 -0.0279
 5656SOL    HW128430   0.878   4.341   6.315  0.0046  0.9175 -0.0163
 5656SOL    HW228431   0.781   4.437   6.391  0.4699  0.0712  0.3547
 5657SOL     OW28432   4.626   1.691  11.634 -0.1346  0.2306 -0.0269
 5657SOL    HW128433   4.700   1.630  11.631 -1.2353 -1.0633 -1.0646
 5657SOL    HW228434   4.617   1.701  11.729 -0.5097 -0.8724  0.0541
 5658SOL     OW28435   0.704   2.988   5.412  0.3205 -0.4364  0.2749
 5658SOL    HW128436   0.779   3.046   5.399  1.7873 -2.3788  0.0525
 5658SOL    HW228437   0.730   2.905   5.453  2.3607  0.3662  0.5988
 5659SOL     OW28438   1.170   1.990  10.856  0.4042  0.2273  0.1261
 5659SOL    HW128439   1.256   2.030  10.842  0.2598  0.4640 -0.0909
 5659SOL    HW228440   1.188   1.941  10.936  0.8058  0.3444  0.1081
 5660SOL     OW28441   2.313   3.049   8.866  0.4054  0.6158 -0.2035
 5660SOL    HW128442   2.297   3.117   8.801 -1.1789 -0.6090 -1.1097
 5660SOL    HW228443   2.287   2.973   8.813 -0.1262  1.3227 -0.9524
 5661SOL     OW28444   1.819   1.904  12.193  0.5905  0.4624  0.4277
 5661SOL    HW128445   1.788   1.930  12.280 -1.0380 -0.3923  0.1041
 5661SOL    HW228446   1.804   1.979  12.135 -0.5710  0.6040  0.9186
 5662SOL     OW28447   4.519   3.266   2.364  0.7068 -0.3905 -0.9542
 5662SOL    HW128448   4.490   3.187   2.408  1.2739 -1.0193 -1.7050
 5662SOL    HW228449   4.615   3.265   2.357  0.7973  0.0330  0.3631
 5663SOL     OW28450   3.637   3.147   1.050  0.9308  0.2101 -0.9000
 5663SOL    HW128451   3.676   3.223   1.092  0.2524  0.7466 -1.2441
 5663SOL    HW228452   3.696   3.077   1.079 -0.7647 -1.1377 -0.7041
 5664SOL     OW28453   1.780   3.375  12.333 -0.0899 -0.3778  0.2751
 5664SOL    HW128454   1.730   3.434  12.389  3.0996  2.8442 -0.1901
 5664SOL    HW228455   1.858   3.372  12.388 -0.9267  0.4997  1.5201
 5665SOL     OW28456   0.761   3.824   9.119  0.2159  0.0807  0.2420
 5665SOL    HW128457   0.745   3.862   9.032 -3.3230 -1.9774 -0.0464
 5665SOL    HW228458   0.747   3.729   9.109 -1.9877  0.2727  1.4335
 5666SOL     OW28459   2.883   1.652  15.607 -0.1916 -0.1098 -0.2467
 5666SOL    HW128460   2.881   1.643  15.702  2.2152 -0.9660 -0.2608
 5666SOL    HW228461   2.872   1.745  15.590 -0.0934 -0.2445 -1.0514
 5667SOL     OW28462   4.514   3.639   2.878 -0.1155 -0.2898  0.0600
 5667SOL    HW128463   4.528   3.725   2.837 -2.6531  0.4448  0.7715
 5667SOL    HW228464   4.537   3.657   2.969 -0.6101  1.5776 -0.1896
 5668SOL     OW28465   3.251   3.464   2.767  0.4035  0.0106  0.1931
 5668SOL    HW128466   3.317   3.430   2.706  0.5721  0.7785 -0.0480
 5668SOL    HW228467   3.282   3.554   2.775  0.5688  0.0055 -0.4332
 5669SOL     OW28468   3.008   1.236   3.541 -0.4371 -0.6976 -0.0478
 5669SOL    HW128469   2.921   1.215   3.508 -0.3557  0.4718 -0.9932
 5669SOL    HW228470   3.045   1.153   3.571  1.0688  0.3745  1.0684
 5670SOL     OW28471   2.167   1.564   1.899 -0.5179  0.0409 -0.0881
 5670SOL    HW128472   2.238   1.626   1.917 -1.0804  0.3578  1.0353
 5670SOL    HW228473   2.185   1.553   1.805 -0.7495  1.3389 -0.2779
 5671SOL     OW28474   2.065   4.037   3.676  0.4109  0.0225 -0.0994
 5671SOL    HW128475   2.025   4.120   3.700 -0.2201  0.0581 -1.2470
 5671SOL    HW228476   2.041   3.982   3.750 -0.9363 -0.8867 -1.2113
 5672SOL     OW28477   4.598   1.963   3.217  0.2620 -0.3051 -0.3544
 5672SOL    HW128478   4.622   1.965   3.124 -2.4644  0.9288 -1.0447
 5672SOL    HW228479   4.598   1.868   3.231 -1.0491 -0.1432  0.7776
 5673SOL     OW28480   4.059   1.924   5.950 -0.2877 -0.0146 -0.4548
 5673SOL    HW128481   4.012   1.844   5.927 -0.3162 -0.7325  2.0112
 5673SOL    HW228482   4.069   1.960   5.863  0.6997  0.4662 -0.1403
 5674SOL     OW28483   1.361   2.414   3.301 -0.1504  0.2902  0.4402
 5674SOL    HW128484   1.340   2.420   3.208 -0.6191  1.4484  0.6276
 5674SOL    HW228485   1.278   2.386   3.338  0.4900 -1.6746  0.4329
 5675SOL     OW28486   1.170   3.482   8.553  0.7523 -0.2343 -0.2762
 5675SOL    HW128487   1.141   3.391   8.546 -0.6901  0.2171 -0.1270
 5675SOL    HW228488   1.264   3.477   8.570  0.4308 -3.2408  0.5330
 5676SOL     OW28489   0.495   0.982   8.434  0.6785  0.1586  0.0632
 5676SOL    HW128490   0.455   1.068   8.445 -0.3649 -0.4414  0.9620
 5676SOL    HW228491   0.430   0.933   8.384 -0.5756  0.2220  1.6845
 5677SOL     OW28492   2.659   0.627  15.886  0.3744  0.1292  0.0359
 5677SOL    HW128493   2.624   0.543  15.915 -0.1538  0.0541 -0.8153
 5677SOL    HW228494   2.733   0.604  15.829 -0.3572 -0.3271 -0.7379
 5678SOL     OW28495   3.301   2.207   9.702  0.7887  0.3186 -0.3192
 5678SOL    HW128496   3.290   2.123   9.659  1.1133  1.2976 -2.2984
 5678SOL    HW228497   3.215   2.211   9.744  1.0168  2.2744 -0.0338
 5679SOL     OW28498   3.879   1.031   6.069  0.1399  0.1697  0.4454
 5679SOL    HW128499   3.841   1.119   6.071  1.4212  0.6801  2.1627
 5679SOL    HW228500   3.933   1.040   5.990 -0.1747  0.1752  0.2298
 5680SOL     OW28501   1.913   3.924   8.447 -0.2358 -0.4472 -0.2591
 5680SOL    HW128502   1.894   3.936   8.354  0.0443 -0.5175 -0.3229
 5680SOL    HW228503   1.953   4.010   8.458  0.5643 -1.0888  1.7447
 5681SOL     OW28504   2.864   3.763   4.353  0.2344 -0.0665  0.2217
 5681SOL    HW128505   2.805   3.750   4.279 -0.7755 -0.3172  1.0733
 5681SOL    HW228506   2.950   3.776   4.312 -0.1411 -0.1311 -0.5771
 5682SOL     OW28507   2.964   0.048   6.753 -0.9241 -0.2572  0.7151
 5682SOL    HW128508   3.039   0.069   6.809  0.3953 -0.0688 -1.1070
 5682SOL    HW228509   2.941   0.136   6.722  1.2728  0.2968  0.6565
 5683SOL     OW28510   3.355   4.459  11.359 -0.2505  0.2302 -0.4107
 5683SOL    HW128511   3.400   4.470  11.443 -3.1103 -1.8460  1.3832
 5683SOL    HW228512   3.264   4.457  11.387 -0.1599  0.8471 -0.0630
 5684SOL     OW28513   2.716   3.664   3.662  0.1200 -0.1499 -0.1561
 5684SOL    HW128514   2.735   3.574   3.689 -1.4286 -1.3067 -2.8573
 5684SOL    HW228515   2.803   3.701   3.676  0.1029 -0.1928  0.0520
 5685SOL     OW28516   1.669   1.890   8.566  0.0652  0.0652  0.8659
 5685SOL    HW128517   1.715   1.963   8.608 -1.3362  2.0443 -1.0482
 5685SOL    HW228518   1.687   1.823   8.632 -0.5763  0.3066  1.2925
 5686SOL     OW28519   2.336   2.776   7.030 -0.2842 -0.4674 -0.3374
 5686SOL    HW128520   2.395   2.852   7.031 -1.2717  0.2886  0.6309
 5686SOL    HW228521   2.327   2.741   6.941 -2.7583 -1.3517  0.2601
 5687SOL     OW28522   3.574   1.144   7.457  0.3164 -0.0655 -0.4823
 5687SOL    HW128523   3.567   1.088   7.380  1.6667 -2.2891  1.0361
 5687SOL    HW228524   3.486   1.142   7.494  0.1789  1.5064 -0.7265
 5688SOL     OW28525   1.903   1.774  10.083 -0.0377  0.1713 -0.4435
 5688SOL    HW128526   1.972   1.725  10.038  0.3153 -0.0552  0.3521
 5688SOL    HW228527   1.942   1.779  10.170 -0.1094 -0.2865 -0.3845
 5689SOL     OW28528   1.084   2.696   4.456  0.3222 -0.3246 -0.6232
 5689SOL    HW128529   1.006   2.740   4.422  1.1718  2.1568  0.6178
 5689SOL    HW228530   1.100   2.631   4.388  1.2267  1.8480 -2.5367
 5690SOL     OW28531   3.862   3.083   3.528 -0.0574 -0.7264 -0.0855
 5690SOL    HW128532   3.954   3.101   3.545 -0.5080  1.1461  0.3181
 5690SOL    HW228533   3.845   2.999   3.572 -0.9867 -1.2288 -1.4136
 5691SOL     OW28534   1.977   2.538   6.358 -0.1926 -0.5988 -0.2855
 5691SOL    HW128535   1.970   2.516   6.265  1.1750  2.4183 -1.0766
 5691SOL    HW228536   2.034   2.614   6.352 -1.3376  0.3280  0.7678
 5692SOL     OW28537   0.116   3.039   6.275  0.0553  0.0357  0.1282
 5692SOL    HW128538   0.057   3.090   6.331 -1.9728  0.3092 -2.2365
 5692SOL    HW228539   0.197   3.081   6.303 -0.1626 -0.1293  0.9961
 5693SOL     OW28540   3.064   0.058   7.836 -0.1821 -0.8257  0.3975
 5693SOL    HW128541   3.058   0.150   7.813 -0.0112 -0.4147  1.9795
 5693SOL    HW228542   2.982   0.026   7.799  0.0974 -0.4255 -0.5686
 5694SOL     OW28543   3.643   2.745   8.816  0.3192 -0.1482 -0.1071
 5694SOL    HW128544   3.677   2.832   8.835 -0.2278  0.1018 -0.2689
 5694SOL    HW228545   3.726   2.701   8.800 -0.7576 -2.2606  0.0416
 5695SOL     OW28546   2.352   1.452  11.634  1.1049  0.7317 -0.2094
 5695SOL    HW128547   2.416   1.458  11.563  3.0983  0.1653  1.5536
 5695SOL    HW228548   2.385   1.498  11.711  0.4147  0.5692  0.1843
 5696SOL     OW28549   2.602   1.249   9.021 -0.2658  0.3136 -0.2197
 5696SOL    HW128550   2.630   1.194   8.949  0.8699  0.9856 -0.2810
 5696SOL    HW228551   2.643   1.333   8.999 -0.3548  0.5174  0.3746
 5697SOL     OW28552   3.379   4.643   4.663  0.2215  0.5652  0.2520
 5697SOL    HW128553   3.339   0.003   4.681  1.3546  0.8804  1.2799
 5697SOL    HW228554   3.346   4.588   4.734 -0.2048 -0.1743 -0.5145
 5698SOL     OW28555   4.508   4.666  16.250  0.7628 -0.1884 -0.8238
 5698SOL    HW128556   4.546   0.016  16.296  0.1125  0.8600 -1.9863
 5698SOL    HW228557   4.587   4.622  16.217  0.2906 -1.1320 -0.7023
 5699SOL     OW28558   1.138   4.584  14.762  0.2148 -0.1646  0.3498
 5699SOL    HW128559   1.153   4.490  14.757 -0.2730 -0.2695  0.9950
 5699SOL    HW228560   1.056   4.597  14.714  1.4162  0.5449 -1.5214
 5700SOL     OW28561   2.105   1.203  17.650 -0.0503  0.3112 -0.0877
 5700SOL    HW128562   2.105   1.290  17.690 -1.0440  0.0257  0.5283
 5700SOL    HW228563   2.036   1.157  17.698  0.3344 -0.5240 -0.3286
 5701SOL     OW28564   0.657   0.638   8.157 -0.1343 -0.2701  0.5395
 5701SOL    HW128565   0.633   0.666   8.246 -0.4163  0.3149  0.2796
 5701SOL    HW228566   0.752   0.639   8.167 -0.0703 -0.8366 -0.0610
 5702SOL     OW28567   2.713   0.522   8.199 -0.0493  0.2064  0.3938
 5702SOL    HW128568   2.801   0.489   8.181 -0.5780 -1.5291  1.0248
 5702SOL    HW228569   2.721   0.531   8.294 -0.6833  1.6257  0.3137
 5703SOL     OW28570   0.989   3.757   3.522 -0.4458 -0.9222  0.2416
 5703SOL    HW128571   0.908   3.730   3.479 -1.0958 -0.7991  1.3843
 5703SOL    HW228572   1.056   3.705   3.477 -1.3806 -1.8381 -0.0977
 5704SOL     OW28573   3.747   4.398  12.290  0.5311 -0.5294  0.0171
 5704SOL    HW128574   3.825   4.434  12.248 -0.0666  1.2908  0.4716
 5704SOL    HW228575   3.785   4.392  12.378 -0.1073 -1.9578  0.1993
 5705SOL     OW28576   4.102   0.461   2.683  0.6549 -0.4977  0.1763
 5705SOL    HW128577   4.019   0.413   2.685 -0.6564  1.6914 -0.9707
 5705SOL    HW228578   4.135   0.440   2.770  0.2175 -2.2233 -0.0862
 5706SOL     OW28579   0.468   0.604   4.884  0.7182 -0.7197 -0.2255
 5706SOL    HW128580   0.381   0.640   4.898  1.5118  0.9600  0.3981
 5706SOL    HW228581   0.523   0.668   4.930  1.1654 -0.4015 -1.2035
 5707SOL     OW28582   2.438   2.834   4.574 -0.0616  0.8275  0.2135
 5707SOL    HW128583   2.505   2.889   4.535  1.2763 -0.4014  0.7807
 5707SOL    HW228584   2.415   2.877   4.656 -1.7737 -0.6762  0.5428
 5708SOL     OW28585   0.878   4.644   3.906  0.1110 -0.0996  0.0714
 5708SOL    HW128586   0.869   4.573   3.971  1.6740  1.0131  1.5165
 5708SOL    HW228587   0.786   4.666   3.892  0.5443  1.1603 -0.7109
 5709SOL     OW28588   2.561   3.321   7.247 -0.2126 -0.5208 -0.1680
 5709SOL    HW128589   2.629   3.283   7.192  1.4822  0.4161  1.3023
 5709SOL    HW228590   2.565   3.413   7.220  0.1035  0.1774  2.2554
 5710SOL     OW28591   0.400   3.999   5.377 -0.4670 -0.1208  0.3759
 5710SOL    HW128592   0.405   3.964   5.288  2.3827  0.7721  0.1778
 5710SOL    HW228593   0.478   3.961   5.419 -0.0998  0.8310  0.5639
 5711SOL     OW28594   0.930   3.972   7.295 -0.6145 -0.1145  0.4048
 5711SOL    HW128595   0.922   3.981   7.390 -0.6279  0.9721  0.3022
 5711SOL    HW228596   0.862   4.033   7.267  0.2128  0.9984  0.8097
 5712SOL     OW28597   2.842   1.672  13.770  0.0366  0.3107 -0.5102
 5712SOL    HW128598   2.814   1.588  13.807 -0.1623  1.1098  1.1600
 5712SOL    HW228599   2.790   1.672  13.690 -1.2128 -0.0824  0.3029
 5713SOL     OW28600   1.344   2.608   1.358 -0.5679 -0.7145  0.3840
 5713SOL    HW128601   1.375   2.519   1.378 -1.0143 -0.8359  0.5316
 5713SOL    HW228602   1.335   2.656   1.440 -0.5936 -0.9487  0.5212
 5714SOL     OW28603   2.394   4.304   8.253  0.1164 -0.6216  0.2360
 5714SOL    HW128604   2.374   4.392   8.221 -1.6591 -0.5286  1.6592
 5714SOL    HW228605   2.413   4.328   8.344  1.8236  0.3554 -0.3659
 5715SOL     OW28606   0.604   4.215   5.038 -0.0770  0.4109  0.2763
 5715SOL    HW128607   0.590   4.233   4.945 -0.5349  1.9740  0.6463
 5715SOL    HW228608   0.519   4.239   5.075 -0.7183  1.8650 -2.1547
 5716SOL     OW28609   2.879   2.713  13.197  0.2693  0.7208 -0.6007
 5716SOL    HW128610   2.956   2.683  13.245 -0.7557  1.5392  1.5481
 5716SOL    HW228611   2.909   2.706  13.106  1.4983  1.5803 -0.2648
 5717SOL     OW28612   2.730   4.505   4.259  0.5275 -0.1815 -0.2407
 5717SOL    HW128613   2.782   4.427   4.277  0.8952  0.7297  2.5881
 5717SOL    HW228614   2.658   4.470   4.206  0.1145 -0.0888  0.2562
 5718SOL     OW28615   1.632   4.718   9.314 -0.2151 -0.4043  0.3191
 5718SOL    HW128616   1.649   4.624   9.322 -1.0438 -0.5597  0.2500
 5718SOL    HW228617   1.536   4.712   9.307 -0.3650  1.5207  1.0171
 5719SOL     OW28618   2.530   1.070   3.244  0.3093  0.1889 -0.2956
 5719SOL    HW128619   2.614   1.057   3.199  0.3266  3.1554 -1.0941
 5719SOL    HW228620   2.501   0.980   3.261 -3.6303  1.3855 -0.6716
 5720SOL     OW28621   4.103   2.652   6.331 -0.0556  0.1721  1.0792
 5720SOL    HW128622   4.033   2.595   6.299 -0.7299  2.4154 -1.4865
 5720SOL    HW228623   4.144   2.602   6.402  0.8661 -1.6126 -0.6939
 5721SOL     OW28624   2.245   3.122  11.500  0.1521 -0.7450 -0.3044
 5721SOL    HW128625   2.214   3.194  11.446  3.5688  2.3341  1.8979
 5721SOL    HW228626   2.298   3.067  11.443  1.3357  1.9079 -1.7474
 5722SOL     OW28627   1.316   4.326  15.804 -0.4176 -0.9119  0.4111
 5722SOL    HW128628   1.341   4.247  15.757  0.3376 -0.3133 -0.1869
 5722SOL    HW228629   1.258   4.368  15.740  1.6039  1.4960  0.1630
 5723SOL     OW28630   3.038   3.446   3.269 -0.3645  0.5517 -0.2796
 5723SOL    HW128631   3.123   3.403   3.271  0.7158  2.7232  0.2002
 5723SOL    HW228632   3.034   3.456   3.174 -0.5440  0.1602 -0.3148
 5724SOL     OW28633   2.641   2.285   7.315 -0.0442 -0.0671 -0.4022
 5724SOL    HW128634   2.674   2.271   7.404  0.1875 -0.8445 -0.6152
 5724SOL    HW228635   2.549   2.259   7.322 -0.7971  2.8030  0.5569
 5725SOL     OW28636   1.878   2.261   5.312 -0.4319 -0.4675  0.4432
 5725SOL    HW128637   1.847   2.350   5.297  0.7370  0.1778  1.9333
 5725SOL    HW228638   1.803   2.213   5.345 -2.3371  2.3945  0.2816
 5726SOL     OW28639   1.817   1.269   8.469  0.0068 -0.5078 -0.3040
 5726SOL    HW128640   1.726   1.245   8.489 -1.0369  2.7135 -1.2170
 5726SOL    HW228641   1.860   1.265   8.555 -0.9656 -0.8889  0.1700
 5727SOL     OW28642   0.806   0.923   0.479 -0.1397  0.0705  0.1060
 5727SOL    HW128643   0.777   0.993   0.420  1.9721  1.0220  0.1860
 5727SOL    HW228644   0.823   0.978   0.555  0.6252  0.3417 -0.2582
 5728SOL     OW28645   3.540   2.620  13.431  0.2837  0.7157  0.2382
 5728SOL    HW128646   3.527   2.621  13.337 -3.1015 -1.2966  0.6799
 5728SOL    HW228647   3.506   2.532  13.446  1.9549  0.0144 -0.1556
 5729SOL     OW28648   3.135   0.448   6.017 -0.0593 -0.5640 -0.3718
 5729SOL    HW128649   3.176   0.474   5.935 -0.5874  1.0223 -0.1284
 5729SOL    HW228650   3.214   0.452   6.072  0.4847 -1.4138 -1.0989
 5730SOL     OW28651   2.582   3.806   2.472  0.1331 -0.3292  0.4083
 5730SOL    HW128652   2.552   3.728   2.518  2.8672 -1.5885  0.0214
 5730SOL    HW228653   2.676   3.793   2.480  0.3472  0.4740 -0.7643
 5731SOL     OW28654   4.147   2.131   4.937  1.2202 -0.1838  0.2330
 5731SOL    HW128655   4.086   2.070   4.895  1.8786 -0.9914  0.4582
 5731SOL    HW228656   4.177   2.086   5.016  2.6110  1.1860  0.4999
 5732SOL     OW28657   4.179   2.420   7.799  0.0088 -0.2308 -0.3477
 5732SOL    HW128658   4.094   2.396   7.836 -0.2425  0.4009 -0.5168
 5732SOL    HW228659   4.179   2.515   7.790 -0.0819  0.2534  4.3861
 5733SOL     OW28660   2.882   3.856  15.106  0.7643 -0.1212  0.5232
 5733SOL    HW128661   2.915   3.893  15.023 -3.4044 -0.5013 -1.2678
 5733SOL    HW228662   2.791   3.854  15.079  0.9890  1.3201 -0.3752
 5734SOL     OW28663   1.248   3.983   6.398  0.0093 -0.0073  0.6059
 5734SOL    HW128664   1.310   3.991   6.326 -0.4644 -1.0299  0.0906
 5734SOL    HW228665   1.211   3.895   6.394 -0.7440  0.3377  0.0636
 5735SOL     OW28666   1.353   2.688  11.980  0.6396 -0.5720  0.5807
 5735SOL    HW128667   1.367   2.725  11.893 -2.6127  2.1876  1.2050
 5735SOL    HW228668   1.429   2.635  12.002 -0.0392 -2.2574 -1.1275
 5736SOL     OW28669   1.811   3.694   6.244 -0.2472 -0.6521  0.1193
 5736SOL    HW128670   1.817   3.726   6.334 -0.0487 -4.0980  1.3171
 5736SOL    HW228671   1.884   3.742   6.204 -0.3001  1.0654  2.1093
 5737SOL     OW28672   0.806   0.281   3.384 -0.2501  0.2283 -0.1505
 5737SOL    HW128673   0.726   0.278   3.330 -0.2677  0.4228 -0.1354
 5737SOL    HW228674   0.873   0.249   3.323 -1.2824  0.5594 -1.4801
 5738SOL     OW28675   3.546   1.540   5.009 -0.3493 -0.3382 -0.2815
 5738SOL    HW128676   3.498   1.585   4.939 -1.0523 -1.1168 -0.3023
 5738SOL    HW228677   3.578   1.468   4.955 -1.3236 -0.1692 -1.0967
 5739SOL     OW28678   1.114   1.509   4.477 -0.3695  0.4261  0.0340
 5739SOL    HW128679   1.033   1.496   4.429 -0.5015 -0.8875  0.6093
 5739SOL    HW228680   1.135   1.417   4.492  1.4540  0.8856  0.3039
 5740SOL     OW28681   4.495   3.399   2.727 -0.1209  0.0336  0.1029
 5740SOL    HW128682   4.466   3.426   2.640 -2.5659 -2.8394  0.0220
 5740SOL    HW228683   4.532   3.482   2.758 -1.5279 -0.3155  2.6776
 5741SOL     OW28684   0.847   1.962   0.002  0.4803 -0.0548  0.4975
 5741SOL    HW128685   0.869   1.903   0.075 -1.4295 -0.6783  0.5682
 5741SOL    HW228686   0.889   2.040   0.037  2.7900 -0.7964 -0.6475
 5742SOL     OW28687   0.112   1.539  11.636  0.1809  0.1273  0.2637
 5742SOL    HW128688   0.065   1.461  11.666  1.2912 -0.7920 -0.3613
 5742SOL    HW228689   0.202   1.505  11.643 -0.4019 -0.8825  3.1846
 5743SOL     OW28690   3.696   1.934   3.090 -0.0357 -0.0882 -0.2584
 5743SOL    HW128691   3.665   2.004   3.147 -0.9246 -1.4945  0.9819
 5743SOL    HW228692   3.620   1.934   3.031  1.4643  2.2915 -2.2147
 5744SOL     OW28693   0.741   0.172   5.102  0.1410 -0.5318 -1.2155
 5744SOL    HW128694   0.810   0.239   5.100 -0.6704  0.3216 -0.6349
 5744SOL    HW228695   0.677   0.209   5.041 -0.5899 -0.3308 -0.3150
 5745SOL     OW28696   1.475   0.170   2.060 -0.2440  0.7243  0.1520
 5745SOL    HW128697   1.391   0.211   2.083 -0.6275 -0.0423  0.0897
 5745SOL    HW228698   1.437   0.089   2.028 -0.7134  0.8833  0.3086
 5746SOL     OW28699   3.657   1.706   1.828 -0.4814 -0.0511 -0.2193
 5746SOL    HW128700   3.726   1.681   1.890  0.3047 -1.0292 -1.4902
 5746SOL    HW228701   3.637   1.795   1.856 -3.1076 -0.1952 -1.6187
 5747SOL     OW28702   0.169   0.802  10.307  0.3422  0.2944  0.2640
 5747SOL    HW128703   0.236   0.769  10.367 -0.5805  2.1931  2.3356
 5747SOL    HW228704   0.119   0.722  10.294  0.2328  0.3671  0.2442
 5748SOL     OW28705   2.256   2.470   5.384 -0.1307 -0.1323  0.3308
 5748SOL    HW128706   2.289   2.492   5.296 -0.9694  0.2467  0.1117
 5748SOL    HW228707   2.325   2.406   5.400 -0.9472 -1.6312 -2.1540
 5749SOL     OW28708   3.496   1.790  10.905 -0.3259 -0.0019  0.0564
 5749SOL    HW128709   3.468   1.701  10.929  0.3209 -0.5834 -1.3511
 5749SOL    HW228710   3.501   1.782  10.810  0.0879  1.3854 -0.0398
 5750SOL     OW28711   1.428   0.774   4.955  0.2261 -0.2316 -0.1133
 5750SOL    HW128712   1.338   0.808   4.952 -1.3025 -4.2680 -0.0724
 5750SOL    HW228713   1.465   0.815   4.877 -1.0252 -0.0556 -0.6159
 5751SOL     OW28714   3.514   0.433  11.789  0.0564  0.3920  0.0024
 5751SOL    HW128715   3.570   0.472  11.856 -0.5015  1.7449 -0.3113
 5751SOL    HW228716   3.518   0.339  11.807 -4.4973  0.1436 -0.2540
 5752SOL     OW28717   1.579   3.170   4.472  0.2341 -0.4909  0.1260
 5752SOL    HW128718   1.615   3.100   4.526  1.1671  0.5272  0.8292
 5752SOL    HW228719   1.642   3.237   4.497  0.2976 -0.7715  0.7225
 5753SOL     OW28720   1.823   3.912   7.864 -0.1073  0.1686 -0.2216
 5753SOL    HW128721   1.809   3.986   7.924  3.1881  1.3012 -0.8584
 5753SOL    HW228722   1.731   3.887   7.860  0.5382 -2.6530  2.7009
 5754SOL     OW28723   3.774   2.817   6.282  0.1141  0.2220 -0.4903
 5754SOL    HW128724   3.805   2.819   6.192 -0.8340  0.7158 -0.8047
 5754SOL    HW228725   3.743   2.907   6.282  2.0130  0.8866 -0.9333
 5755SOL     OW28726   3.174   2.071   4.546  0.5281 -0.2304  0.8696
 5755SOL    HW128727   3.178   2.165   4.567  0.7879 -0.4808  1.9622
 5755SOL    HW228728   3.087   2.047   4.579  0.5788  1.2323  2.1244
 5756SOL     OW28729   0.719   1.731   5.468 -0.2066 -1.0162  0.2632
 5756SOL    HW128730   0.764   1.690   5.542  0.6828 -1.1731 -0.3573
 5756SOL    HW228731   0.704   1.669   5.397  2.1038 -2.1492  0.7685
 5757SOL     OW28732   1.514   0.342  11.362 -1.1672  0.4406 -0.3124
 5757SOL    HW128733   1.530   0.286  11.438 -1.9735  0.2177 -0.3029
 5757SOL    HW228734   1.601   0.380  11.370  0.5922 -3.1476 -2.4241
 5758SOL     OW28735   2.624   1.497   6.907  0.0451  0.0774  0.2330
 5758SOL    HW128736   2.666   1.560   6.965 -0.8093  1.5112 -0.7137
 5758SOL    HW228737   2.572   1.563   6.862  0.5419  0.0869 -0.3169
 5759SOL     OW28738   2.778   2.866   0.954 -0.2396 -0.4173 -0.0454
 5759SOL    HW128739   2.759   2.885   0.862  2.4765  1.5418 -0.2075
 5759SOL    HW228740   2.706   2.805   0.969 -0.9325  0.8743  1.8877
 5760SOL     OW28741   4.263   4.575   1.681 -0.1221  0.0003  0.1307
 5760SOL    HW128742   4.299   4.647   1.629  2.1640 -1.1199  0.1668
 5760SOL    HW228743   4.338   4.517   1.673  0.7117  1.2404 -1.0306
 5761SOL     OW28744   4.330   4.466   2.668  0.2439 -0.1482 -0.0713
 5761SOL    HW128745   4.263   4.453   2.601 -0.1067  0.9987  0.0462
 5761SOL    HW228746   4.399   4.425   2.616  0.3832 -0.6077  0.4722
 5762SOL     OW28747   3.639   3.266   5.143 -0.2623 -0.0907  0.1264
 5762SOL    HW128748   3.702   3.199   5.168  0.5890  0.7617  0.2688
 5762SOL    HW228749   3.638   3.325   5.218 -1.3015 -0.5977  0.5106
 5763SOL     OW28750   0.169   4.723   5.500 -0.2139  0.2674 -0.4418
 5763SOL    HW128751   0.235   0.031   5.560 -0.4662  0.1491 -0.0995
 5763SOL    HW228752   0.209   4.641   5.471 -1.0661 -0.1364 -0.5056
 5764SOL     OW28753   0.506   3.712   4.292 -0.0137 -0.1383  0.1102
 5764SOL    HW128754   0.467   3.666   4.367 -0.3604 -1.0546 -0.6368
 5764SOL    HW228755   0.427   3.713   4.238 -0.8972  1.5360  1.3977
 5765SOL     OW28756   3.317   4.113  11.926 -0.1530  0.2463 -0.3319
 5765SOL    HW128757   3.270   4.196  11.922 -0.4997  0.1997  2.3539
 5765SOL    HW228758   3.373   4.116  11.848  0.6016  1.5001  0.2531
 5766SOL     OW28759   2.320   2.675   3.956 -0.0591  0.2938  0.5521
 5766SOL    HW128760   2.369   2.616   3.898  1.1377  0.2192  1.6241
 5766SOL    HW228761   2.362   2.668   4.042  0.5280  0.1843  0.2596
 5767SOL     OW28762   3.424   2.149  15.243 -0.2745 -0.3683 -0.5729
 5767SOL    HW128763   3.478   2.108  15.176 -0.7880  0.7456 -1.6737
 5767SOL    HW228764   3.452   2.234  15.207 -0.1665 -0.1328  0.0733
 5768SOL     OW28765   0.069   4.044   7.395 -0.2075  0.2329 -0.4024
 5768SOL    HW128766   0.035   3.957   7.371 -1.4672  1.3612 -2.6618
 5768SOL    HW228767   0.106   4.034   7.483  1.4733 -1.7123 -1.3237
 5769SOL     OW28768   2.433   1.552   2.694 -0.0475  0.0072 -0.0360
 5769SOL    HW128769   2.436   1.648   2.692  2.5304 -0.0781  0.3989
 5769SOL    HW228770   2.459   1.547   2.602 -0.5772 -0.6126 -0.1521
 5770SOL     OW28771   3.865   0.038  16.963 -0.2214  0.2631 -0.0851
 5770SOL    HW128772   3.954   0.044  16.998  0.1167  0.7424 -1.0256
 5770SOL    HW228773   3.835   0.128  16.969  0.6910  0.6639 -1.3108
 5771SOL     OW28774   0.934   4.112   1.831 -0.0793 -0.5199  0.6732
 5771SOL    HW128775   0.986   4.189   1.809 -1.9711  0.9844  1.5318
 5771SOL    HW228776   0.912   4.136   1.921  0.0770  0.1490  0.5299
 5772SOL     OW28777   1.756   4.365   3.008  0.3442 -0.3506  0.4422
 5772SOL    HW128778   1.780   4.324   2.925 -2.5637 -1.4759  0.1809
 5772SOL    HW228779   1.663   4.386   3.003  0.7435  0.7082 -2.4945
 5773SOL     OW28780   2.374   2.668  17.372  0.0792  0.0710  0.5851
 5773SOL    HW128781   2.433   2.736  17.403 -0.5036 -0.0951  2.0349
 5773SOL    HW228782   2.420   2.633  17.295 -0.2091  0.1659  0.3688
 5774SOL     OW28783   3.818   4.430   6.767 -0.2481 -0.2937 -0.1757
 5774SOL    HW128784   3.821   4.438   6.672  1.4168  0.4039 -0.0657
 5774SOL    HW228785   3.833   4.338   6.788 -0.0668 -0.0910  0.5850
 5775SOL     OW28786   2.165   0.536   6.055 -0.4792 -0.3043 -0.0361
 5775SOL    HW128787   2.075   0.569   6.063  0.4663  2.1134  0.4727
 5775SOL    HW228788   2.206   0.598   6.115  1.6708 -2.3442  0.5987
 5776SOL     OW28789   2.409   1.220  16.108 -0.4840 -0.4092  0.3768
 5776SOL    HW128790   2.395   1.240  16.201 -1.3766  0.4715  0.0516
 5776SOL    HW228791   2.342   1.278  16.074  1.0344  0.6618 -0.8040
 5777SOL     OW28792   4.139   0.210   6.917  0.3853  0.1255 -0.4233
 5777SOL    HW128793   4.191   0.282   6.882 -0.0944  1.5923  1.9016
 5777SOL    HW228794   4.151   0.140   6.852  1.5592 -0.0479 -0.0135
 5778SOL     OW28795   4.395   1.764   3.743  0.0801  0.0945  0.2309
 5778SOL    HW128796   4.398   1.745   3.837  0.7598 -0.2255  0.1419
 5778SOL    HW228797   4.438   1.687   3.706  1.4546  0.3039  1.4024
 5779SOL     OW28798   1.870   4.001   5.214  0.1612 -0.6387 -0.2271
 5779SOL    HW128799   1.852   4.087   5.252 -1.4452 -0.2176 -1.8769
 5779SOL    HW228800   1.958   4.017   5.180 -0.2199  1.3044 -0.3240
 5780SOL     OW28801   3.454   4.470   5.726 -0.5259  0.1442  0.1726
 5780SOL    HW128802   3.475   4.552   5.681  0.3243 -0.3718 -0.3672
 5780SOL    HW228803   3.385   4.438   5.668 -1.2013 -0.8882  1.5516
 5781SOL     OW28804   4.008   1.505   7.743  0.3771 -0.0498  0.0076
 5781SOL    HW128805   4.095   1.467   7.750  1.9273  3.6968  1.2560
 5781SOL    HW228806   3.962   1.422   7.731  0.8098 -0.3163  0.1892
 5782SOL     OW28807   3.378   3.201   5.120  0.9259  0.9958  0.3197
 5782SOL    HW128808   3.473   3.203   5.119  0.8861  2.3125 -0.5436
 5782SOL    HW228809   3.352   3.275   5.176  0.7889  2.0488 -1.1259
 5783SOL     OW28810   1.897   0.652  10.357 -0.1614  0.0332  0.0256
 5783SOL    HW128811   1.985   0.684  10.377 -0.9391  1.5977  0.9413
 5783SOL    HW228812   1.893   0.643  10.262 -0.3479 -0.1289  0.0485
 5784SOL     OW28813   3.178   2.271   5.402 -0.9153 -0.0809  0.6647
 5784SOL    HW128814   3.273   2.260   5.399 -0.8436  0.4545  0.8640
 5784SOL    HW228815   3.185   2.364   5.379  0.9633 -0.3543  0.1816
 5785SOL     OW28816   1.213   3.748   7.703 -0.2627  0.5443 -0.1562
 5785SOL    HW128817   1.192   3.740   7.609 -1.0413  0.2809  0.0395
 5785SOL    HW228818   1.283   3.812   7.711  0.6614 -0.1210 -2.7521
 5786SOL     OW28819   1.843   0.988   5.084 -0.1784 -0.2574 -0.1318
 5786SOL    HW128820   1.933   0.956   5.088  0.8054  2.5593  0.4534
 5786SOL    HW228821   1.825   0.983   5.178  0.9945 -0.1015  0.0975
 5787SOL     OW28822   3.678   4.194   8.331  0.1007 -0.7506  0.2438
 5787SOL    HW128823   3.719   4.155   8.409 -0.5119  1.0607  1.4738
 5787SOL    HW228824   3.659   4.285   8.353  1.8230 -0.3268 -0.0312
 5788SOL     OW28825   0.842   3.606   5.475 -0.8426  0.4780  0.5472
 5788SOL    HW128826   0.866   3.547   5.546  1.3451 -1.7389 -2.0510
 5788SOL    HW228827   0.762   3.644   5.512 -1.5389 -0.4353 -0.0237
 5789SOL     OW28828   2.623   1.105   9.733 -0.3100 -0.1116  0.3525
 5789SOL    HW128829   2.670   1.031   9.696  1.9245  1.4405  0.1278
 5789SOL    HW228830   2.546   1.066   9.774  0.5833 -1.9395  0.2613
 5790SOL     OW28831   1.978   1.991   8.304  0.5046 -0.0017 -0.4132
 5790SOL    HW128832   1.952   1.900   8.320 -1.6468  0.6033 -0.4655
 5790SOL    HW228833   1.962   2.034   8.388  0.6216 -0.5463 -0.1101
 5791SOL     OW28834   3.714   1.653   4.055  0.2966 -0.1018 -0.1039
 5791SOL    HW128835   3.774   1.583   4.028  0.9329  0.3440  0.1386
 5791SOL    HW228836   3.753   1.730   4.012  0.2539 -0.9679 -1.6798
 5792SOL     OW28837   2.777   1.728  11.101  0.1204  0.3696 -1.1206
 5792SOL    HW128838   2.766   1.691  11.013 -0.3540 -0.1751 -0.8265
 5792SOL    HW228839   2.857   1.777  11.078  0.3188  0.1718 -0.8450
 5793SOL     OW28840   0.036   0.346   8.119 -0.2294 -0.2367  0.3335
 5793SOL    HW128841   0.045   0.383   8.207 -0.0217 -1.7079  0.9259
 5793SOL    HW228842   0.102   0.277   8.110  2.0029  1.8148  1.1298
 5794SOL     OW28843   3.119   1.434   4.239  0.5016 -0.0295  0.4793
 5794SOL    HW128844   3.092   1.468   4.153  3.1774 -0.0142 -0.3406
 5794SOL    HW228845   3.213   1.448   4.241  1.0759 -4.2743  2.4758
 5795SOL     OW28846   2.882   1.423  11.607  0.2257 -0.7417  0.2766
 5795SOL    HW128847   2.826   1.484  11.656 -0.8308 -0.9575 -0.6579
 5795SOL    HW228848   2.906   1.478  11.532 -2.0804 -0.5945 -0.3498
 5796SOL     OW28849   1.656   0.132   3.926  0.5233 -0.2559  0.3733
 5796SOL    HW128850   1.600   0.061   3.895  1.1764 -0.8546  0.5502
 5796SOL    HW228851   1.613   0.146   4.011 -0.3001  0.5796 -0.1844
 5797SOL     OW28852   1.939   1.694  15.973  0.6255 -0.3719  0.1630
 5797SOL    HW128853   1.907   1.686  15.884  2.6832 -3.0541 -0.3395
 5797SOL    HW228854   1.936   1.606  16.011  0.7033 -0.5467 -0.2423
 5798SOL     OW28855   4.667   0.040   8.473  0.3199  0.0479 -0.3109
 5798SOL    HW128856   4.708   4.703   8.535 -0.1308  0.3317  0.2604
 5798SOL    HW228857   4.647   0.108   8.537 -2.4793 -1.7120  0.6962
 5799SOL     OW28858   0.391   0.459   5.285  0.3871 -0.6789  0.6303
 5799SOL    HW128859   0.386   0.387   5.348 -1.2877  1.2815  2.7188
 5799SOL    HW228860   0.303   0.494   5.291  0.7824  0.2985  0.7048
 5800SOL     OW28861   0.945   2.276  15.538 -0.2386 -0.2828  0.2398
 5800SOL    HW128862   0.890   2.214  15.491 -0.9952  0.4033  0.2098
 5800SOL    HW228863   1.001   2.223  15.594 -0.7256 -1.8597 -0.7692
 5801SOL     OW28864   3.996   0.982  13.221  1.1984  0.2631 -0.1709
 5801SOL    HW128865   4.037   0.986  13.135  1.9558  1.3301  0.2392
 5801SOL    HW228866   4.064   1.022  13.275  1.4595  1.2133 -1.2095
 5802SOL     OW28867   3.094   0.539  12.196  0.2064 -0.0698  0.3677
 5802SOL    HW128868   3.010   0.562  12.157 -0.8280  0.9022  3.1092
 5802SOL    HW228869   3.153   0.604  12.158 -0.1653 -0.2259 -0.4676
 5803SOL     OW28870   3.703   1.585   3.456  0.3890  0.1164  0.3729
 5803SOL    HW128871   3.719   1.666   3.505  1.5129  0.7079 -0.9738
 5803SOL    HW228872   3.646   1.546   3.522  0.7978  0.0425  0.6834
 5804SOL     OW28873   2.611   2.768   6.344  0.0238  0.5206 -0.7855
 5804SOL    HW128874   2.695   2.800   6.375  0.2592 -0.9154  0.0863
 5804SOL    HW228875   2.619   2.734   6.255 -1.9122  1.3433 -1.2892
 5805SOL     OW28876   3.745   2.360   3.334  0.4017  0.2302  0.2669
 5805SOL    HW128877   3.818   2.308   3.366 -0.3213 -0.2031  1.2094
 5805SOL    HW228878   3.710   2.394   3.416 -0.0454  0.4669 -0.0216
 5806SOL     OW28879   3.703   0.927  12.984  0.1926  0.7476  0.4298
 5806SOL    HW128880   3.687   0.926  12.890 -1.7518 -2.0709  0.8208
 5806SOL    HW228881   3.780   0.870  12.984 -0.6175 -0.3434 -0.4156
 5807SOL     OW28882   3.601   2.167   3.193  0.2916 -0.0697  0.6796
 5807SOL    HW128883   3.579   2.221   3.117  1.1175  0.2001  0.6375
 5807SOL    HW228884   3.661   2.228   3.236 -1.4120  0.2132  2.6729
 5808SOL     OW28885   1.908   1.475  12.740  0.0869  0.8233 -0.0133
 5808SOL    HW128886   1.977   1.520  12.788  0.2119 -0.9451  1.4598
 5808SOL    HW228887   1.958   1.446  12.664 -1.2438  0.2737 -0.6826
 5809SOL     OW28888   2.382   3.288   4.448 -0.4111  0.5627 -0.3077
 5809SOL    HW128889   2.314   3.230   4.482  0.3411  0.4164  0.9289
 5809SOL    HW228890   2.412   3.249   4.366 -1.2122 -0.5035 -0.0932
 5810SOL     OW28891   2.821   0.758   5.449  0.6943  0.0688 -0.6264
 5810SOL    HW128892   2.829   0.681   5.394  1.6642 -0.8429  0.8034
 5810SOL    HW228893   2.733   0.791   5.426 -0.3925 -3.5019 -1.5699
 5811SOL     OW28894   1.249   0.014   4.217 -0.1046 -0.1817 -0.1679
 5811SOL    HW128895   1.158   4.715   4.203  0.1060 -1.9818  1.4013
 5811SOL    HW228896   1.271   4.670   4.280 -0.8154  0.0788  0.3554
 5812SOL     OW28897   1.659   2.622  13.238  0.1276 -0.5424  0.5694
 5812SOL    HW128898   1.601   2.557  13.278 -1.3333 -0.2691 -1.1063
 5812SOL    HW228899   1.678   2.586  13.151 -1.3305  1.3499 -0.5219
 5813SOL     OW28900   1.172   0.478  11.019  0.2543 -0.2079 -0.1254
 5813SOL    HW128901   1.232   0.535  10.971  0.2261  0.2862  0.4286
 5813SOL    HW228902   1.217   0.469  11.103 -0.2754 -3.2283 -0.1684
 5814SOL     OW28903   3.611   3.281   4.714  0.1145 -0.4339 -0.0418
 5814SOL    HW128904   3.539   3.298   4.653  0.3298 -1.8246 -0.6892
 5814SOL    HW228905   3.595   3.190   4.740  0.8555 -0.4786  0.2455
 5815SOL     OW28906   4.430   3.505   7.975  0.1248  0.5236  0.0154
 5815SOL    HW128907   4.384   3.440   8.027 -0.1954  0.7029 -0.0427
 5815SOL    HW228908   4.421   3.470   7.887  3.4483 -1.3115  0.4179
 5816SOL     OW28909   2.469   1.407   9.193 -0.2814 -0.0807 -0.3022
 5816SOL    HW128910   2.488   1.368   9.279  0.5941  1.7288  0.3309
 5816SOL    HW228911   2.528   1.355   9.139 -0.4742 -0.2442 -0.3526
 5817SOL     OW28912   3.234   4.180  14.203 -1.0551 -0.4377 -0.5702
 5817SOL    HW128913   3.259   4.233  14.127 -3.7347  0.4234 -0.8496
 5817SOL    HW228914   3.141   4.164  14.192 -1.0282 -1.4599  0.6812
 5818SOL     OW28915   1.014   4.548  10.082  0.2207  0.2759  0.4020
 5818SOL    HW128916   1.039   4.599  10.005  2.2015 -2.1594 -0.5727
 5818SOL    HW228917   1.086   4.574  10.139 -2.0723  1.5317  2.7648
 5819SOL     OW28918   2.731   1.303   6.500  0.1008 -0.1520  0.3166
 5819SOL    HW128919   2.775   1.221   6.479  0.4911  0.1816 -0.1990
 5819SOL    HW228920   2.707   1.289   6.591  1.0643 -0.4525  0.5207
 5820SOL     OW28921   3.704   0.423   5.128  0.1991 -0.6120 -0.1822
 5820SOL    HW128922   3.734   0.360   5.194 -1.4232  0.7590  1.8440
 5820SOL    HW228923   3.771   0.491   5.135  1.1220 -1.6602  1.1870
 5821SOL     OW28924   0.170   0.640   2.737 -0.9031 -0.2004  0.2469
 5821SOL    HW128925   0.240   0.666   2.797 -0.3180 -1.2029  0.0064
 5821SOL    HW228926   0.132   0.725   2.715 -2.5252 -0.7386  0.9788
 5822SOL     OW28927   0.725   3.033  14.068  0.2392  0.3457  0.0825
 5822SOL    HW128928   0.759   3.057  14.154  1.9906  1.3614 -0.8761
 5822SOL    HW228929   0.803   3.015  14.014  1.6384  3.0338  1.1955
 5823SOL     OW28930   2.574   2.606   1.741 -0.5330 -0.1547 -0.3258
 5823SOL    HW128931   2.601   2.581   1.653 -0.5653 -0.0224 -0.3738
 5823SOL    HW228932   2.509   2.674   1.724 -0.6853 -0.9428 -2.8768
 5824SOL     OW28933   1.577   1.484   0.722  0.2023  0.0846 -0.4849
 5824SOL    HW128934   1.520   1.443   0.787  1.1888 -1.0509 -0.3494
 5824SOL    HW228935   1.535   1.457   0.640 -1.1566 -0.1162  0.2910
 5825SOL     OW28936   0.841   3.942   7.568 -0.1643  0.4747 -0.2807
 5825SOL    HW128937   0.888   3.860   7.582 -1.3714  0.1192  1.6738
 5825SOL    HW228938   0.833   3.969   7.660 -0.9679  0.7653 -0.4352
 5826SOL     OW28939   1.182   1.373  14.590  0.4912 -0.5350  0.3858
 5826SOL    HW128940   1.100   1.384  14.541  0.9095  0.5822 -0.0602
 5826SOL    HW228941   1.245   1.380  14.519  0.8109  1.8321  0.8899
 5827SOL     OW28942   1.763   4.273  11.943  0.4757  0.0678  0.4061
 5827SOL    HW128943   1.768   4.212  12.016  0.5771  0.5662  0.8172
 5827SOL    HW228944   1.799   4.353  11.982  1.5710  0.3961 -1.2513
 5828SOL     OW28945   3.471   4.236  11.681  0.0962  0.2757  0.5083
 5828SOL    HW128946   3.559   4.218  11.713 -0.6767 -2.4194  1.0964
 5828SOL    HW228947   3.441   4.296  11.748 -1.0086  0.7495 -0.4121
 5829SOL     OW28948   1.275   0.396  10.170  0.2838 -0.2153  0.2792
 5829SOL    HW128949   1.245   0.310  10.141  3.2483 -0.4880 -1.9594
 5829SOL    HW228950   1.293   0.436  10.085  0.3920 -0.5070  0.1641
 5830SOL     OW28951   1.644   0.154   4.475 -0.0222 -0.1614 -0.5396
 5830SOL    HW128952   1.669   0.202   4.396  0.5690 -0.8398 -0.7527
 5830SOL    HW228953   1.688   0.210   4.538 -1.6213 -1.1221  1.4242
 5831SOL     OW28954   2.518   1.441  12.792 -0.0296  0.1886  0.2106
 5831SOL    HW128955   2.512   1.346  12.779 -0.9249  0.1753  0.7559
 5831SOL    HW228956   2.592   1.452  12.850 -0.5220  3.0832  0.2616
 5832SOL     OW28957   0.635   1.154   4.086  0.4393  0.8584 -0.0728
 5832SOL    HW128958   0.585   1.126   4.009  0.0403  0.9557  0.1466
 5832SOL    HW228959   0.690   1.214   4.035  1.3943 -0.8777 -1.0746
 5833SOL     OW28960   2.268   3.781   0.763  0.6527 -0.3320 -0.0644
 5833SOL    HW128961   2.215   3.837   0.820 -2.5768 -2.3154 -1.1172
 5833SOL    HW228962   2.230   3.799   0.677  1.1207  0.7311 -0.0516
 5834SOL     OW28963   3.590   0.576   7.323  0.1944 -0.0250  0.2165
 5834SOL    HW128964   3.536   0.503   7.352 -0.5044  0.6830  0.7110
 5834SOL    HW228965   3.535   0.651   7.300  0.0628 -0.0344  0.5018
 5835SOL     OW28966   0.003   2.954   2.459  0.7132 -0.4394  0.1832
 5835SOL    HW128967   0.051   3.006   2.523  1.1808  0.4698 -0.9114
 5835SOL    HW228968   4.639   2.976   2.488  0.8519  2.6064 -1.7311
 5836SOL     OW28969   3.355   1.894   8.012  0.4734  0.5936  0.4745
 5836SOL    HW128970   3.338   1.977   8.057  0.7402  1.1286 -0.3864
 5836SOL    HW228971   3.422   1.856   8.069  1.5563  0.1942 -1.0527
 5837SOL     OW28972   3.081   2.016   7.844 -0.0797 -0.2309 -0.1871
 5837SOL    HW128973   3.149   2.080   7.824 -0.9270  0.2356 -1.5692
 5837SOL    HW228974   3.111   1.948   7.785 -0.2488  0.6072 -1.2442
 5838SOL     OW28975   0.015   2.304  10.405  0.7163 -0.5183  0.2876
 5838SOL    HW128976   0.047   2.268  10.323 -0.5813  0.5156 -0.6808
 5838SOL    HW228977   0.070   2.261  10.470  0.4494  0.9873  1.5051
 5839SOL     OW28978   0.836   2.369   3.792  0.0680  0.0387  0.2251
 5839SOL    HW128979   0.869   2.346   3.879  0.0002  0.6864  0.4252
 5839SOL    HW228980   0.913   2.413   3.758  0.5169 -0.4545  0.6084
 5840SOL     OW28981   1.504   1.431  16.264 -0.0058 -0.3973  0.2390
 5840SOL    HW128982   1.478   1.445  16.355 -1.0659  0.1756 -0.1576
 5840SOL    HW228983   1.420   1.423  16.220  0.2578 -1.5897 -0.0481
 5841SOL     OW28984   1.776   0.487   7.016 -0.3575  0.3158 -0.0464
 5841SOL    HW128985   1.854   0.452   6.973 -0.4893 -2.2076  1.7473
 5841SOL    HW228986   1.790   0.575   7.052  0.4375 -0.6613  2.0594
 5842SOL     OW28987   2.040   4.520   3.752 -0.4537  0.1573  0.3271
 5842SOL    HW128988   2.045   4.568   3.834  0.2781  3.2809 -1.5719
 5842SOL    HW228989   2.078   4.435   3.776 -0.8757 -0.5528 -1.4572
 5843SOL     OW28990   1.448   1.088  17.603 -0.2199  0.1173 -0.4015
 5843SOL    HW128991   1.464   1.042  17.685  0.6560 -0.6311 -0.9904
 5843SOL    HW228992   1.536   1.125  17.590 -0.8754  1.4140 -1.1107
 5844SOL     OW28993   3.708   0.877   2.572  0.7582  0.2523  0.7822
 5844SOL    HW128994   3.743   0.915   2.653  2.8173  0.9727 -0.4398
 5844SOL    HW228995   3.766   0.894   2.498 -1.7018 -1.1339 -1.4885
 5845SOL     OW28996   2.860   1.649   7.021  0.1428 -0.0272 -0.7391
 5845SOL    HW128997   2.841   1.717   7.086  2.9800 -1.4839  1.6310
 5845SOL    HW228998   2.936   1.691   6.981  0.1421  2.1536  1.5136
 5846SOL     OW28999   3.989   0.595   3.318  0.4896  0.3653 -0.5545
 5846SOL    HW129000   4.047   0.520   3.312 -1.0034 -0.9000  0.5910
 5846SOL    HW229001   3.911   0.547   3.348  0.4539  0.2688 -0.7944
 5847SOL     OW29002   4.282   2.892   4.670  0.5914 -0.0248  0.3884
 5847SOL    HW129003   4.276   2.824   4.603  0.9907  1.1000 -0.7747
 5847SOL    HW229004   4.195   2.881   4.707  0.8813 -3.5838  0.0144
 5848SOL     OW29005   2.683   2.805   7.393 -0.1894  0.0354  0.5257
 5848SOL    HW129006   2.721   2.855   7.321  0.7514 -1.0037  0.2960
 5848SOL    HW229007   2.660   2.723   7.350  1.1501  0.2768 -0.6560
 5849SOL     OW29008   0.930   4.109   2.667 -0.7338 -0.1213  0.1093
 5849SOL    HW129009   0.972   4.026   2.687 -1.7576 -0.0965  2.3534
 5849SOL    HW229010   0.907   4.096   2.575  1.0478 -1.0054 -0.2129
 5850SOL     OW29011   3.096   3.831   2.386  0.4246  0.0906  0.4116
 5850SOL    HW129012   3.106   3.739   2.410  1.0157  0.3919  1.2726
 5850SOL    HW229013   3.129   3.874   2.465 -0.4110  1.1462  0.1959
 5851SOL     OW29014   4.290   4.455   0.009  0.2651 -0.1487  0.4606
 5851SOL    HW129015   4.215   4.407  17.672  0.2853  0.3821 -0.2981
 5851SOL    HW229016   4.272   4.437   0.101 -1.1280  0.0753  0.2353
 5852SOL     OW29017   2.687   2.423   0.992  0.0424  0.1343 -0.2521
 5852SOL    HW129018   2.777   2.396   0.972 -0.8502 -2.4672 -0.7864
 5852SOL    HW229019   2.686   2.385   1.080  0.2557 -2.2446 -1.2563
 5853SOL     OW29020   3.602   0.469  11.504 -0.1437 -0.0283  0.4030
 5853SOL    HW129021   3.526   0.516  11.470  0.2975  0.6804  0.4006
 5853SOL    HW229022   3.580   0.483  11.596  1.5057  1.1325  0.6151
 5854SOL     OW29023   0.069   3.503   4.600  0.1873 -0.1533 -0.2272
 5854SOL    HW129024   0.117   3.432   4.557  0.1434 -0.0023 -0.5240
 5854SOL    HW229025   4.720   3.522   4.541 -0.0660  0.4369  0.2788
 5855SOL     OW29026   0.653   4.195   5.591 -0.0562 -0.3668 -0.2723
 5855SOL    HW129027   0.627   4.266   5.533  1.5722  0.4230 -0.0502
 5855SOL    HW229028   0.617   4.227   5.673 -0.0797 -1.1119  0.0051
 5856SOL     OW29029   4.227   3.555  14.312 -0.0992  0.1764  0.0449
 5856SOL    HW129030   4.234   3.627  14.249 -0.0664 -1.9604 -2.3935
 5856SOL    HW229031   4.293   3.496  14.275  1.3023  1.3158  0.7143
 5857SOL     OW29032   4.173   4.161  10.127 -0.0438 -0.2248 -0.3503
 5857SOL    HW129033   4.162   4.164  10.032 -0.9412 -0.6494 -0.2611
 5857SOL    HW229034   4.269   4.159  10.130  0.0136 -0.6128 -1.9756
 5858SOL     OW29035   4.260   0.918   2.206 -0.2355  0.3707 -0.6131
 5858SOL    HW129036   4.215   0.841   2.240 -1.6859  1.9178  0.9759
 5858SOL    HW229037   4.195   0.988   2.214  0.5316  0.7043  2.6685
 5859SOL     OW29038   3.786   2.257   5.171  0.5748 -0.1108 -0.4711
 5859SOL    HW129039   3.707   2.311   5.179  1.2372  0.8413 -0.2872
 5859SOL    HW229040   3.808   2.243   5.263 -0.1652  0.9665 -0.1253
 5860SOL     OW29041   1.711   4.338  11.390  0.0182  0.0041  0.3173
 5860SOL    HW129042   1.693   4.244  11.385  1.3433 -0.3453  2.0623
 5860SOL    HW229043   1.681   4.363  11.303  1.5875  1.8213  0.2916
 5861SOL     OW29044   2.848   0.404   8.696 -0.0745  0.0610  0.3222
 5861SOL    HW129045   2.867   0.313   8.673  0.4985 -0.1760  1.6933
 5861SOL    HW229046   2.933   0.432   8.731  0.8603 -0.3162 -1.6435
 5862SOL     OW29047   0.160   3.145   6.855 -0.2682  0.5176 -0.0995
 5862SOL    HW129048   0.076   3.121   6.816  0.7318 -0.9929 -1.3658
 5862SOL    HW229049   0.212   3.124   6.777  1.8981 -1.5333  1.8885
 5863SOL     OW29050   3.145   3.426   8.529  0.3742 -0.1207  0.4608
 5863SOL    HW129051   3.097   3.501   8.494  2.6683  1.6668  1.1186
 5863SOL    HW229052   3.204   3.413   8.455  0.0456 -1.0953  0.3818
 5864SOL     OW29053   3.662   3.928   5.622  0.2672  0.2197  0.6576
 5864SOL    HW129054   3.672   3.976   5.704 -1.0401  3.2654 -0.9581
 5864SOL    HW229055   3.735   3.866   5.622  0.2239  0.1419 -2.2280
 5865SOL     OW29056   0.543   3.153  13.914  0.3825 -0.1588 -0.2172
 5865SOL    HW129057   0.590   3.231  13.885  2.2252 -0.7735  1.1186
 5865SOL    HW229058   0.618   3.108  13.954 -0.5834 -1.9785 -0.4349
 5866SOL     OW29059   3.592   3.588   1.439  0.4129 -0.1948  0.3451
 5866SOL    HW129060   3.545   3.668   1.414  0.9083 -0.1010 -0.2937
 5866SOL    HW229061   3.525   3.562   1.502 -1.5485  3.2859 -0.2802
 5867SOL     OW29062   1.307   0.260  14.771 -0.3041  1.0408 -0.1629
 5867SOL    HW129063   1.312   0.190  14.705 -1.3585 -0.4199  1.3019
 5867SOL    HW229064   1.213   0.271  14.757 -0.5257 -0.1285  0.4236
 5868SOL     OW29065   0.478   4.029   2.873 -0.1433 -0.3547  0.1063
 5868SOL    HW129066   0.393   4.072   2.884 -1.0264 -2.6789  2.2475
 5868SOL    HW229067   0.480   4.009   2.780 -0.0757  0.9449 -0.1691
 5869SOL     OW29068   0.915   2.544  14.968  0.3828 -0.1937 -0.2216
 5869SOL    HW129069   0.981   2.482  15.000  0.1850 -0.5927 -0.5890
 5869SOL    HW229070   0.874   2.480  14.909 -2.2131 -0.6668  2.1070
 5870SOL     OW29071   0.733   2.636   5.369  0.2554  0.4000  0.1219
 5870SOL    HW129072   0.791   2.683   5.429 -1.2360  2.0965  0.2223
 5870SOL    HW229073   0.649   2.668   5.401  0.5637 -0.0302  1.3349
 5871SOL     OW29074   0.182   2.180   7.261 -0.0748 -0.2140  0.1173
 5871SOL    HW129075   0.092   2.162   7.289 -0.1421  1.8914  1.3067
 5871SOL    HW229076   0.169   2.231   7.180  0.5603  0.7669  0.6265
 5872SOL     OW29077   0.554   3.758   9.519 -0.0045  0.0039 -0.6319
 5872SOL    HW129078   0.515   3.714   9.594 -1.7921  2.1531 -0.2904
 5872SOL    HW229079   0.486   3.815   9.484 -1.0032 -1.3395 -0.8682
 5873SOL     OW29080   3.128   0.399  11.399 -0.8782  0.6073 -0.1955
 5873SOL    HW129081   3.042   0.419  11.435  0.1155  2.0886  1.3517
 5873SOL    HW229082   3.180   0.449  11.463  1.3683 -1.1624 -0.6143
 5874SOL     OW29083   4.240   2.417   6.194 -0.3611 -0.6492 -0.4717
 5874SOL    HW129084   4.144   2.411   6.194 -0.3416 -0.9216  2.0254
 5874SOL    HW229085   4.271   2.433   6.105  3.5760  0.3712  1.0922
 5875SOL     OW29086   2.202   4.547   0.826  0.5472  0.0067 -0.0714
 5875SOL    HW129087   2.284   4.500   0.809  0.4029 -0.0293 -0.6867
 5875SOL    HW229088   2.169   4.492   0.897  0.3853  1.0481  0.6464
 5876SOL     OW29089   3.377   4.045   7.487 -0.5598  0.3873 -0.3258
 5876SOL    HW129090   3.410   4.025   7.575 -1.3543  0.8260  0.0692
 5876SOL    HW229091   3.285   4.025   7.502 -0.6665  0.0964 -1.3734
 5877SOL     OW29092   3.105   0.624   4.031 -0.0814 -0.3713  0.5352
 5877SOL    HW129093   3.034   0.619   4.095 -0.7669 -1.1756 -0.3014
 5877SOL    HW229094   3.127   0.532   4.015  2.1412 -0.0350  1.6602
 5878SOL     OW29095   3.834   3.100   7.344  0.0479  0.1083 -0.2862
 5878SOL    HW129096   3.809   3.033   7.407  0.0807 -2.9019 -3.4933
 5878SOL    HW229097   3.753   3.150   7.335  0.1559  0.6068  1.6828
 5879SOL     OW29098   0.129   2.870   7.429  0.3758 -0.1501 -0.3623
 5879SOL    HW129099   0.035   2.859   7.422  0.3366 -0.5525  0.7860
 5879SOL    HW229100   0.152   2.812   7.356 -2.1479  0.6331 -1.7704
 5880SOL     OW29101   1.880   1.606   5.886  0.4536  0.0301 -0.3918
 5880SOL    HW129102   1.805   1.574   5.836  0.1108 -1.7835  1.3281
 5880SOL    HW229103   1.863   1.701   5.883  0.1297 -0.1118 -3.0246
 5881SOL     OW29104   3.793   1.520  14.549  0.3242 -0.0999 -0.5815
 5881SOL    HW129105   3.888   1.518  14.538  0.4157  1.5145 -0.1554
 5881SOL    HW229106   3.767   1.429  14.535  0.9804 -0.2147 -1.0434
 5882SOL     OW29107   3.162   3.890   3.036 -0.1001  0.1617  0.2098
 5882SOL    HW129108   3.085   3.920   3.085 -0.3128 -1.5656  0.9377
 5882SOL    HW229109   3.174   3.798   3.058 -0.3994  0.4983  1.7643
 5883SOL     OW29110   2.884   0.660   2.178 -0.1439  0.1677 -0.5234
 5883SOL    HW129111   2.916   0.657   2.268  0.2119  1.6092 -0.5994
 5883SOL    HW229112   2.790   0.644   2.183  0.2402 -1.5770  0.8780
 5884SOL     OW29113   2.195   3.309  12.930  0.2143 -0.5734  0.6048
 5884SOL    HW129114   2.268   3.282  12.984  2.0368  0.7496 -1.1860
 5884SOL    HW229115   2.211   3.248  12.858 -3.5162 -0.7118 -0.1384
 5885SOL     OW29116   0.137   2.978   4.929 -0.6574  0.0555  0.7839
 5885SOL    HW129117   0.185   2.995   5.011 -1.3757  1.2875  0.9528
 5885SOL    HW229118   0.103   2.890   4.946 -1.9914  0.0700 -1.8098
 5886SOL     OW29119   1.484   1.969   1.797  0.6330  0.0976  0.0982
 5886SOL    HW129120   1.489   2.060   1.824  2.5987  0.2278 -0.6543
 5886SOL    HW229121   1.481   1.993   1.704 -0.6335 -0.1208  0.0920
 5887SOL     OW29122   2.592   3.518  16.040  0.1056 -0.2356  0.2906
 5887SOL    HW129123   2.540   3.562  15.974 -0.6325 -2.1882 -0.4203
 5887SOL    HW229124   2.554   3.431  16.031 -1.0721  0.0784  2.2037
 5888SOL     OW29125   3.732   4.040   9.851  0.1706 -0.7653  0.1926
 5888SOL    HW129126   3.767   4.067   9.766  1.1595  0.1255  0.8788
 5888SOL    HW229127   3.821   4.014   9.877  0.0838 -0.6346  0.6117
 5889SOL     OW29128   3.440   3.085  12.261  0.1939 -0.2188 -0.1203
 5889SOL    HW129129   3.531   3.065  12.286  0.3712  1.1299  0.3101
 5889SOL    HW229130   3.451   3.179  12.250  2.9627 -0.6624 -1.1383
 5890SOL     OW29131   2.758   1.494   2.310  0.2722  0.4796 -0.2436
 5890SOL    HW129132   2.813   1.522   2.383 -1.4929  3.4580 -0.0457
 5890SOL    HW229133   2.733   1.579   2.273  1.4344  1.0615  0.3226
 5891SOL     OW29134   4.180   1.057   4.103 -0.0096  0.1490 -0.0849
 5891SOL    HW129135   4.115   1.046   4.171  1.5287  1.1273  1.5355
 5891SOL    HW229136   4.212   0.967   4.096 -1.7966 -0.3894 -1.2561
 5892SOL     OW29137   3.763   2.803   6.004 -0.4089 -0.1428  0.5706
 5892SOL    HW129138   3.801   2.791   5.917  0.7984 -1.5910  1.3064
 5892SOL    HW229139   3.698   2.872   5.989 -0.8201 -0.5625  0.4236
 5893SOL     OW29140   3.809   0.026   3.189 -0.8994 -0.7992 -0.1449
 5893SOL    HW129141   3.724   0.053   3.225 -0.0735  0.3611  0.9272
 5893SOL    HW229142   3.787   4.696   3.113 -1.8208 -0.8490  0.1609
 5894SOL     OW29143   2.376   0.361  11.421  0.1807 -0.2685 -0.2282
 5894SOL    HW129144   2.387   0.319  11.506  0.0829  1.3700  0.6093
 5894SOL    HW229145   2.366   0.452  11.450 -0.5542 -0.2066 -0.6720
 5895SOL     OW29146   0.621   4.547   9.541 -0.2038 -0.3434  0.2756
 5895SOL    HW129147   0.698   4.521   9.490 -0.4041  0.2176 -0.2948
 5895SOL    HW229148   0.613   4.637   9.510 -2.0461 -0.6861 -0.2506
 5896SOL     OW29149   2.661   3.704  10.491  0.3790 -0.7417  0.2615
 5896SOL    HW129150   2.648   3.786  10.443  0.3632 -0.7669  0.2228
 5896SOL    HW229151   2.718   3.654  10.433 -3.2415 -2.4240 -1.8880
 5897SOL     OW29152   3.015   2.155   3.536  0.0433 -0.4343  0.0031
 5897SOL    HW129153   3.054   2.068   3.533  0.5654 -0.1565 -1.1408
 5897SOL    HW229154   3.003   2.156   3.631 -2.0014 -1.3334 -0.2279
 5898SOL     OW29155   3.210   0.915   1.933 -0.8334 -0.4772  0.0586
 5898SOL    HW129156   3.200   0.950   1.844  2.9743 -0.7957 -0.5009
 5898SOL    HW229157   3.124   0.878   1.952 -1.5545  0.5167 -1.2362
 5899SOL     OW29158   0.919   4.261   6.615  0.7816  0.3677 -1.1252
 5899SOL    HW129159   0.868   4.334   6.649  0.0523 -1.1862  1.1240
 5899SOL    HW229160   0.885   4.261   6.525 -0.3029  3.2062 -0.6892
 5900SOL     OW29161   4.501   3.272   1.906  0.4136  0.1807  0.3304
 5900SOL    HW129162   4.417   3.233   1.884 -0.3190  0.4243  2.7321
 5900SOL    HW229163   4.536   3.189   1.940 -1.2138 -0.6494 -0.0486
 5901SOL     OW29164   0.685   3.002   7.108 -0.0029  0.3692  0.1647
 5901SOL    HW129165   0.670   2.908   7.098 -0.0943  0.3066  0.8595
 5901SOL    HW229166   0.602   3.034   7.073 -0.2602  0.8703  1.2395
 5902SOL     OW29167   0.712   4.402   9.899 -0.1079 -0.2031 -0.2800
 5902SOL    HW129168   0.701   4.319   9.946 -1.3726  1.5066  2.4332
 5902SOL    HW229169   0.788   4.435   9.948  0.2171 -0.2168 -0.7608
 5903SOL     OW29170   0.453   3.438   3.437  0.2938  0.9346  0.1788
 5903SOL    HW129171   0.492   3.461   3.353 -0.0482 -0.2652 -0.2977
 5903SOL    HW229172   0.527   3.393   3.478  0.4062  0.2583 -0.7827
 5904SOL     OW29173   2.607   0.694   9.971 -0.4337  0.2050 -0.1587
 5904SOL    HW129174   2.552   0.646  10.033 -1.9429  1.0996 -0.8252
 5904SOL    HW229175   2.569   0.666   9.888 -0.5808 -1.1030  0.3562
 5905SOL     OW29176   1.815   4.330  15.219 -0.6844  0.5400 -0.6720
 5905SOL    HW129177   1.753   4.260  15.199 -0.7960  0.2827  0.5837
 5905SOL    HW229178   1.815   4.327  15.314 -0.8774 -0.4411 -0.7096
 5906SOL     OW29179   1.904   0.567  12.045  0.3411 -0.4366 -0.4021
 5906SOL    HW129180   1.911   0.650  12.092  0.7852 -0.0734 -1.0975
 5906SOL    HW229181   1.900   0.505  12.118 -1.0797  1.1765  0.8950
 5907SOL     OW29182   2.633   4.266   3.803 -0.2992  0.3023  0.0622
 5907SOL    HW129183   2.704   4.324   3.777  0.7501 -1.5499 -1.2151
 5907SOL    HW229184   2.631   4.278   3.898 -1.6347  0.2448  0.0465
 5908SOL     OW29185   2.352   2.681   5.872 -0.0975 -0.0123  0.2520
 5908SOL    HW129186   2.413   2.753   5.859  1.9734 -1.6586  0.8313
 5908SOL    HW229187   2.402   2.611   5.829 -1.1144  0.8551 -2.3108
 5909SOL     OW29188   1.920   2.249   0.104 -0.3550  0.1858 -0.5426
 5909SOL    HW129189   1.924   2.154   0.090  1.5127  0.0874  0.7591
 5909SOL    HW229190   1.969   2.272   0.025  1.8318  0.9936  1.0659
 5910SOL     OW29191   2.326   2.059   8.440  0.3483  0.2418  0.9416
 5910SOL    HW129192   2.297   2.125   8.503 -0.1559  0.0864  0.8783
 5910SOL    HW229193   2.297   1.984   8.492  1.8279  0.4904  2.1099
 5911SOL     OW29194   0.347   0.687   5.709 -0.0937 -0.3255  0.2102
 5911SOL    HW129195   0.342   0.687   5.805  0.3840 -0.3351  0.2381
 5911SOL    HW229196   0.341   0.593   5.693  2.2403 -0.6128  0.9480
 5912SOL     OW29197   2.259   2.050   4.912  0.0180 -0.4438  0.2536
 5912SOL    HW129198   2.321   2.031   4.842 -0.4659 -1.6945  0.1666
 5912SOL    HW229199   2.257   1.962   4.949  0.8931 -1.5564 -2.3955
 5913SOL     OW29200   3.194   4.011   3.660 -0.2684  0.8815  0.4351
 5913SOL    HW129201   3.150   4.068   3.596  0.0561  0.1343 -0.4652
 5913SOL    HW229202   3.151   4.040   3.740 -1.6760 -1.2844  0.4650
 5914SOL     OW29203   4.012   4.365   5.320 -0.0652  0.2217  0.7006
 5914SOL    HW129204   3.951   4.291   5.317  1.5033 -1.0430  0.0825
 5914SOL    HW229205   3.988   4.408   5.238  1.8844  0.9574  0.5080
 5915SOL     OW29206   3.748   3.567   4.450  0.3002  0.3896  0.3052
 5915SOL    HW129207   3.810   3.498   4.475 -1.0939 -1.3153 -0.9234
 5915SOL    HW229208   3.717   3.539   4.364  1.1160 -1.1160  0.4974
 5916SOL     OW29209   4.339   2.086   3.194 -0.2104 -0.4046  1.3584
 5916SOL    HW129210   4.328   2.014   3.132 -0.5738 -0.9780  2.0885
 5916SOL    HW229211   4.429   2.080   3.225 -0.1204 -1.2212  0.9427
 5917SOL     OW29212   1.965   2.193  12.197  0.1445  0.0600  0.4238
 5917SOL    HW129213   1.907   2.214  12.271  2.5565  2.0205  1.7800
 5917SOL    HW229214   1.903   2.215  12.127 -0.6691 -0.2389  1.0523
 5918SOL     OW29215   3.852   4.595   8.895 -0.1072  0.6709 -0.5970
 5918SOL    HW129216   3.877   4.681   8.930 -0.2693 -0.4301  2.2163
 5918SOL    HW229217   3.769   4.571   8.937  0.7774 -0.9485  0.2229
 5919SOL     OW29218   2.940   3.808   3.774 -0.4093 -0.1379  0.2477
 5919SOL    HW129219   3.001   3.825   3.702  1.7535 -0.0743  2.1176
 5919SOL    HW229220   2.988   3.747   3.829 -2.4635 -0.1118  2.0453
 5920SOL     OW29221   4.666   0.833   4.525 -0.0747 -0.0213 -0.0178
 5920SOL    HW129222   0.027   0.874   4.539  0.5896 -1.7133  0.9939
 5920SOL    HW229223   4.609   0.909   4.536  0.2626  0.1998  0.2011
 5921SOL     OW29224   1.641   0.999   6.832 -0.2014  0.4587  0.3136
 5921SOL    HW129225   1.568   0.954   6.876  1.6940 -2.7556  0.1879
 5921SOL    HW229226   1.697   1.013   6.908  0.6080 -0.4258 -0.1225
 5922SOL     OW29227   4.341   1.278   1.519 -0.0209  0.1684  0.0783
 5922SOL    HW129228   4.391   1.198   1.501 -0.3006 -0.3906  1.8270
 5922SOL    HW229229   4.373   1.342   1.456  0.4489  1.5037  1.6860
 5923SOL     OW29230   3.774   0.095   8.693  0.8175  0.6077  0.6716
 5923SOL    HW129231   3.757   0.165   8.631 -1.5457 -0.0627  0.5331
 5923SOL    HW229232   3.851   0.049   8.660  0.0363 -0.2790  0.0442
 5924SOL     OW29233   1.483   4.391   2.975  0.2023 -0.1544  0.0791
 5924SOL    HW129234   1.404   4.415   3.024  0.6548  1.3635  0.0386
 5924SOL    HW229235   1.458   4.374   2.884  1.0517 -2.4452  0.2571
 5925SOL     OW29236   4.274   4.085   6.044 -0.3218 -0.4653  0.5020
 5925SOL    HW129237   4.252   3.997   6.074 -2.2141  0.1117  0.8332
 5925SOL    HW229238   4.365   4.064   6.027  0.3838  2.1408  1.1375
 5926SOL     OW29239   3.425   0.957   3.508  0.1520  0.3559  0.2315
 5926SOL    HW129240   3.425   0.864   3.528 -0.0978  0.4750  0.7927
 5926SOL    HW229241   3.331   0.973   3.509  0.5848  2.9229 -1.1060
 5927SOL     OW29242   1.604   0.011   5.600 -0.1588 -0.9063  0.5779
 5927SOL    HW129243   1.605   0.067   5.523 -4.7466 -0.6484  0.6573
 5927SOL    HW229244   1.575   0.078   5.662 -0.5123 -0.5994  0.0851
 5928SOL     OW29245   4.530   3.749   3.487 -0.1072  0.3073  0.0604
 5928SOL    HW129246   4.607   3.726   3.434  2.1491  1.3146  2.8767
 5928SOL    HW229247   4.566   3.829   3.526  1.6969 -0.0585 -0.8395
 5929SOL     OW29248   0.900   4.148  11.067  0.6102  0.5617  0.2175
 5929SOL    HW129249   0.940   4.229  11.037  1.8218 -1.0930 -2.6779
 5929SOL    HW229250   0.934   4.092  10.997 -0.3351  1.4820 -0.9920
 5930SOL     OW29251   2.484   1.172  12.695 -0.6702  0.0834  0.4132
 5930SOL    HW129252   2.481   1.101  12.759 -3.4994  1.8891  2.2441
 5930SOL    HW229253   2.561   1.157  12.640  0.3924  0.6321  1.7430
 5931SOL     OW29254   2.492   0.320  14.469  0.1544 -0.0114 -0.0535
 5931SOL    HW129255   2.447   0.237  14.454 -3.5355  1.4341  3.0693
 5931SOL    HW229256   2.542   0.295  14.547 -0.1952  1.5663  0.6766
 5932SOL     OW29257   3.569   4.334   7.019 -0.1314 -0.3122 -0.1361
 5932SOL    HW129258   3.662   4.329   7.038 -0.5471 -0.5019  1.9134
 5932SOL    HW229259   3.531   4.382   7.093 -0.7167  4.1655 -3.3845
 5933SOL     OW29260   0.313   1.697  15.244 -0.2929  0.3216 -0.5002
 5933SOL    HW129261   0.374   1.625  15.261 -1.3115 -0.7444 -1.4357
 5933SOL    HW229262   0.357   1.731  15.166  1.8602  0.8890  0.9442
 5934SOL     OW29263   2.071   1.490   8.689 -0.3466  0.0112  0.2533
 5934SOL    HW129264   2.024   1.414   8.723 -2.6124  0.7885 -1.1627
 5934SOL    HW229265   2.162   1.461   8.701 -0.0965  0.1805 -1.2074
 5935SOL     OW29266   0.809   3.839   1.490 -0.3585  0.0405  0.7962
 5935SOL    HW129267   0.762   3.756   1.483  1.6890 -0.9605 -0.9837
 5935SOL    HW229268   0.808   3.862   1.397 -3.7116  0.1356  0.8631
 5936SOL     OW29269   4.140   0.574   5.224  0.2246  0.3438  0.6186
 5936SOL    HW129270   4.123   0.551   5.316  1.9032  0.2480  0.8988
 5936SOL    HW229271   4.200   0.505   5.198 -0.8998  0.6918 -2.8353
 5937SOL     OW29272   3.135   1.163   7.048  0.0579 -0.0935  0.1611
 5937SOL    HW129273   3.047   1.125   7.044 -0.1136  0.5428 -1.7649
 5937SOL    HW229274   3.114   1.236   7.106 -0.2124  1.3049 -1.7414
 5938SOL     OW29275   0.438   3.913   5.121 -0.1481  1.0861 -0.1531
 5938SOL    HW129276   0.504   3.851   5.091 -1.5509 -0.9198  0.8835
 5938SOL    HW229277   0.418   3.962   5.041  0.0022  2.0404  0.3952
 5939SOL     OW29278   2.516   2.077  17.146  0.2850 -0.3992 -0.9934
 5939SOL    HW129279   2.517   2.050  17.238 -0.6682 -0.0368 -0.8775
 5939SOL    HW229280   2.569   2.004  17.115 -0.8902 -1.3534 -0.7539
 5940SOL     OW29281   3.373   3.703   2.760 -0.0968  0.1917  0.0402
 5940SOL    HW129282   3.464   3.731   2.759  0.1241 -0.5149  0.2827
 5940SOL    HW229283   3.335   3.778   2.715  0.5838  1.0984  0.9898
 5941SOL     OW29284   1.245   2.784   7.158 -0.4665  0.1824  0.2974
 5941SOL    HW129285   1.310   2.839   7.201 -0.5314  0.1982  0.3746
 5941SOL    HW229286   1.212   2.729   7.229 -1.5789 -0.0107 -0.3702
 5942SOL     OW29287   4.684   0.473   7.436 -0.0390  0.6852  0.5266
 5942SOL    HW129288   4.627   0.397   7.423 -0.9631  1.0331  2.5955
 5942SOL    HW229289   0.046   0.450   7.402 -0.3826 -0.3401  0.3388
 5943SOL     OW29290   3.803   4.476   0.052 -0.0374 -0.0824  0.0599
 5943SOL    HW129291   3.729   4.532   0.028  0.8274  1.8528  1.8971
 5943SOL    HW229292   3.764   4.399   0.093 -0.6148  1.2465  2.0117
 5944SOL     OW29293   1.204   1.677   0.810 -0.3979  1.4034 -0.1314
 5944SOL    HW129294   1.208   1.772   0.802  3.5678  0.8737 -4.6255
 5944SOL    HW229295   1.273   1.649   0.871  0.4616  0.0239 -1.7150
 5945SOL     OW29296   2.003   1.701   6.960  0.0715 -0.2312 -0.0349
 5945SOL    HW129297   2.010   1.618   6.912 -2.4793 -1.5604  1.8965
 5945SOL    HW229298   1.951   1.759   6.905  1.3606  0.2391 -0.7595
 5946SOL     OW29299   1.994   0.507   3.243  0.0609 -0.6499 -0.4626
 5946SOL    HW129300   1.947   0.487   3.324 -0.5633  1.1984 -0.3774
 5946SOL    HW229301   2.001   0.421   3.202 -0.2216  0.8550 -3.6373
 5947SOL     OW29302   4.668   0.566   0.508 -0.0888 -0.1632  0.6453
 5947SOL    HW129303   4.708   0.643   0.468 -3.0235  0.9128 -0.2156
 5947SOL    HW229304   4.649   0.522   0.425 -0.2177  0.5619  0.2909
 5948SOL     OW29305   4.556   4.543   4.209  0.3154 -0.1233  0.2941
 5948SOL    HW129306   4.551   4.460   4.161 -2.6368 -0.0398  0.4422
 5948SOL    HW229307   4.650   4.555   4.221  0.1941 -1.0652  2.3003
 5949SOL     OW29308   0.856   0.993   3.909  0.1566 -0.0472 -0.4068
 5949SOL    HW129309   0.875   1.066   3.968  0.5924  1.5207 -2.4588
 5949SOL    HW229310   0.881   1.039   3.828  0.2518 -1.9023 -1.4339
 5950SOL     OW29311   2.683   3.957  11.810  0.1580 -0.4264  0.1437
 5950SOL    HW129312   2.611   3.916  11.761  0.9225  1.2909 -2.3933
 5950SOL    HW229313   2.718   3.880  11.854  0.4473 -0.7333 -0.6134
 5951SOL     OW29314   2.001   1.564  14.347  0.0903  0.0027 -0.4168
 5951SOL    HW129315   2.017   1.501  14.418 -2.3931 -0.8788 -0.6469
 5951SOL    HW229316   2.086   1.558  14.303  0.7609  1.4643  0.6724
 5952SOL     OW29317   2.198   2.692   1.083  0.2652  0.2865 -0.8497
 5952SOL    HW129318   2.193   2.638   1.161  2.1852  2.3327  0.6927
 5952SOL    HW229319   2.148   2.771   1.105  0.2928 -0.2355  1.0331
 5953SOL     OW29320   4.560   2.395  15.828  0.1643  0.2527  0.3193
 5953SOL    HW129321   4.577   2.478  15.784 -1.3665  0.1667 -0.4373
 5953SOL    HW229322   4.643   2.374  15.870  0.1380  0.6258  0.5618
 5954SOL     OW29323   3.524   4.454   5.986 -0.2718 -0.9860  0.1856
 5954SOL    HW129324   3.493   4.458   5.896  0.8830  2.7059 -0.0491
 5954SOL    HW229325   3.449   4.506   6.013  1.2850  1.2101  0.3042
 5955SOL     OW29326   3.127   1.870   7.625 -0.6884  0.0100 -0.0877
 5955SOL    HW129327   3.195   1.820   7.579 -2.8247 -3.0356  0.0457
 5955SOL    HW229328   3.105   1.930   7.554  0.3922 -0.7346 -1.0669
 5956SOL     OW29329   1.735   3.694   7.689  0.2202  0.0000 -0.0896
 5956SOL    HW129330   1.800   3.741   7.741  1.0927 -1.4210  0.0752
 5956SOL    HW229331   1.729   3.761   7.621  3.1693 -0.5733 -0.9006
 5957SOL     OW29332   3.752   4.168   4.767 -0.2985 -0.9747 -0.8364
 5957SOL    HW129333   3.737   4.135   4.679  0.4753 -2.3753 -0.4466
 5957SOL    HW229334   3.666   4.157   4.809 -1.3344  0.1699 -2.6704
 5958SOL     OW29335   3.511   4.374  14.451  0.2749 -0.1523 -0.0920
 5958SOL    HW129336   3.573   4.431  14.406  0.8431 -0.0324  0.8454
 5958SOL    HW229337   3.509   4.290  14.406 -1.3861  1.1565 -2.4533
 5959SOL     OW29338   4.353   0.009   1.217  0.0564 -0.0515  0.6069
 5959SOL    HW129339   4.332   4.640   1.211 -0.4803  0.0433  1.0185
 5959SOL    HW229340   4.297   0.047   1.148 -0.2320 -1.9223 -0.1848
 5960SOL     OW29341   0.480   0.829   9.039 -0.2811 -0.7919 -0.3029
 5960SOL    HW129342   0.406   0.792   9.089  0.6006 -2.1178  0.0313
 5960SOL    HW229343   0.504   0.908   9.086  0.1538 -0.2546 -1.4405
 5961SOL     OW29344   1.810   4.336   9.811 -0.0418 -0.1919  0.2243
 5961SOL    HW129345   1.861   4.307   9.886  2.9271  1.2336 -1.2060
 5961SOL    HW229346   1.819   4.269   9.743  1.5655 -0.6933  0.9273
 5962SOL     OW29347   2.393   2.003   4.527 -0.0786  0.3543  0.2228
 5962SOL    HW129348   2.322   1.941   4.546  0.1717 -0.1406 -0.4377
 5962SOL    HW229349   2.474   1.980   4.572 -0.3730  1.0473  1.1043
 5963SOL     OW29350   2.009   1.272   0.837 -0.0894 -0.4033  0.2470
 5963SOL    HW129351   2.079   1.331   0.809  0.1135 -1.1903 -0.8745
 5963SOL    HW229352   2.045   1.241   0.920 -2.0250 -1.6867  0.6026
 5964SOL     OW29353   0.188   0.263  12.604  0.2240 -0.4799 -0.3820
 5964SOL    HW129354   0.145   0.186  12.566  0.7809  0.2508 -2.4995
 5964SOL    HW229355   0.110   0.316  12.620  1.2395  1.1468 -0.8493
 5965SOL     OW29356   3.317   4.507  14.565  0.2835 -0.3570 -0.1210
 5965SOL    HW129357   3.385   4.458  14.518  0.8553 -0.4100  0.7521
 5965SOL    HW229358   3.239   4.487  14.514  0.5746  0.3460 -0.8275
 5966SOL     OW29359   4.600   1.174   6.332 -0.8064  0.1468  0.8076
 5966SOL    HW129360   4.614   1.251   6.387  1.8204 -0.2596  0.7370
 5966SOL    HW229361   4.543   1.207   6.262  0.0690 -1.4192 -0.6389
 5967SOL     OW29362   1.524   1.412   5.246  0.2109 -0.0287 -0.2540
 5967SOL    HW129363   1.465   1.457   5.306  2.0078  2.3063 -0.2610
 5967SOL    HW229364   1.556   1.484   5.192  2.1877 -0.6430  0.0892
 5968SOL     OW29365   3.125   3.815   4.600  0.2505 -0.2923 -0.1507
 5968SOL    HW129366   3.117   3.864   4.518 -0.0967  0.4443  0.3284
 5968SOL    HW229367   3.204   3.855   4.635  1.8136 -2.4832 -1.1572
 5969SOL     OW29368   2.146   1.623   7.300  0.3108  0.5862  0.0599
 5969SOL    HW129369   2.211   1.590   7.362  1.8989  0.4106 -1.6770
 5969SOL    HW229370   2.175   1.580   7.220 -0.1320  2.7184 -1.2458
 5970SOL     OW29371   1.912   1.846   5.030  0.1827 -0.0692  0.2327
 5970SOL    HW129372   1.938   1.903   5.102 -0.0029  2.1994 -1.5007
 5970SOL    HW229373   1.869   1.777   5.080  0.2722  0.7020  1.3784
 5971SOL     OW29374   4.099   3.422  11.364 -0.0076 -0.2531 -0.3876
 5971SOL    HW129375   4.181   3.375  11.377 -0.0430 -0.3515 -0.5192
 5971SOL    HW229376   4.112   3.508  11.402  0.2426 -2.2934  4.1385
 5972SOL     OW29377   4.689   2.122  15.993 -0.2936  0.2263  0.1972
 5972SOL    HW129378   0.008   2.188  15.939  0.0221 -0.5831 -0.5346
 5972SOL    HW229379   0.002   2.039  15.964  1.7441  0.4733  2.1504
 5973SOL     OW29380   1.731   0.276   1.958  0.0567  0.0895  0.0350
 5973SOL    HW129381   1.729   0.280   1.862  3.0842  0.3801 -0.0311
 5973SOL    HW229382   1.641   0.252   1.981  0.1394  0.5369  0.8451
 5974SOL     OW29383   4.448   4.607  15.618 -0.1898 -0.1304 -0.1108
 5974SOL    HW129384   4.357   4.596  15.590 -0.9052  0.4585  1.9338
 5974SOL    HW229385   4.491   4.631  15.536  0.5092  0.6593  0.4878
 5975SOL     OW29386   2.029   3.902   4.184 -0.3671  0.2602  0.2871
 5975SOL    HW129387   2.069   3.823   4.220  0.8403  0.2359 -1.0916
 5975SOL    HW229388   1.939   3.875   4.200  0.7358 -1.3754  3.6724
 5976SOL     OW29389   3.287   3.778   6.178 -0.3045 -0.4512  0.4882
 5976SOL    HW129390   3.230   3.805   6.250 -1.2153 -0.6405 -0.1656
 5976SOL    HW229391   3.223   3.781   6.107 -2.2395 -1.2085  2.2012
 5977SOL     OW29392   4.099   0.712   2.266 -0.6497 -0.0528 -0.1213
 5977SOL    HW129393   4.008   0.685   2.266 -0.4859 -0.5753  3.1295
 5977SOL    HW229394   4.116   0.715   2.360 -1.9806  3.2769  0.0171
 5978SOL     OW29395   2.109   3.169   7.327  0.3294 -0.5298  0.7229
 5978SOL    HW129396   2.020   3.134   7.318  0.4647 -1.2654  2.1143
 5978SOL    HW229397   2.099   3.217   7.409 -0.9600  0.2621  0.0901
 5979SOL     OW29398   4.472   4.134   3.877 -0.1607 -0.5699 -0.1883
 5979SOL    HW129399   4.561   4.141   3.844  0.7903  0.4603  2.5292
 5979SOL    HW229400   4.425   4.109   3.798  0.2191  0.3669 -0.7004
 5980SOL     OW29401   1.194   1.405  15.258 -0.1945 -0.6927 -0.2192
 5980SOL    HW129402   1.160   1.363  15.336 -1.5094  0.5352 -0.1325
 5980SOL    HW229403   1.288   1.397  15.276 -0.2975  0.7112  0.9098
 5981SOL     OW29404   1.803   1.012   7.051  0.6112 -0.3490  0.0046
 5981SOL    HW129405   1.769   1.023   7.140  1.8112 -1.7903  0.6396
 5981SOL    HW229406   1.880   1.069   7.050  0.8208 -0.6113  0.9512
 5982SOL     OW29407   3.945   2.666   7.613  0.0693 -0.1087 -0.3604
 5982SOL    HW129408   4.022   2.672   7.670  0.5355 -0.3039 -0.9711
 5982SOL    HW229409   3.984   2.704   7.534 -1.7169  0.0702 -1.1497
 5983SOL     OW29410   1.515   1.950  15.090 -0.2657  0.2931 -1.1245
 5983SOL    HW129411   1.474   1.876  15.044 -1.6022  1.0142 -1.1064
 5983SOL    HW229412   1.570   1.987  15.021  0.3336  0.9321 -0.3040
 5984SOL     OW29413   1.147   3.757  13.618  0.0956 -0.3425 -0.1850
 5984SOL    HW129414   1.068   3.704  13.622 -0.9761  1.2877  0.5021
 5984SOL    HW229415   1.181   3.756  13.528  0.3364 -0.7026 -0.0848
 5985SOL     OW29416   4.299   0.576   0.686  0.9442 -0.0796  0.4462
 5985SOL    HW129417   4.315   0.535   0.601 -1.8002  0.1150 -0.1786
 5985SOL    HW229418   4.278   0.501   0.742 -0.8568 -1.0747 -1.5652
 5986SOL     OW29419   2.241   0.908  14.900 -0.7082  0.2412 -0.3493
 5986SOL    HW129420   2.252   0.813  14.912  0.9110  0.6205  1.2495
 5986SOL    HW229421   2.156   0.911  14.856  0.2750  0.5464 -2.2103
 5987SOL     OW29422   2.323   3.506  11.103  0.1127 -0.1029  0.2314
 5987SOL    HW129423   2.254   3.569  11.084 -0.2887 -0.4969  0.3930
 5987SOL    HW229424   2.354   3.469  11.020  1.6150  0.4236  0.5660
 5988SOL     OW29425   4.265   0.997   5.700 -0.3024  0.3794  0.1724
 5988SOL    HW129426   4.245   1.046   5.620  1.7693  0.2206 -0.4379
 5988SOL    HW229427   4.265   0.905   5.673  0.1162 -0.0117  1.5137
 5989SOL     OW29428   0.225   2.877   4.411  0.5184 -0.3971  0.3264
 5989SOL    HW129429   0.196   2.845   4.496 -0.0355 -0.3617  0.1516
 5989SOL    HW229430   0.293   2.812   4.395 -0.4900 -1.3709  0.0378
 5990SOL     OW29431   4.604   1.186   8.005 -0.6454  0.3539 -0.2635
 5990SOL    HW129432   4.577   1.113   7.950  2.5179 -0.5092 -0.6762
 5990SOL    HW229433   4.521   1.185   8.054 -0.7882 -0.1352 -0.5083
 5991SOL     OW29434   1.540   0.808  15.314  0.1388  0.5461 -0.2004
 5991SOL    HW129435   1.592   0.817  15.234  0.3179 -0.0711 -0.1502
 5991SOL    HW229436   1.601   0.865  15.360  0.3825  0.0270  0.1157
 5992SOL     OW29437   2.302   3.922   3.641  0.0744 -0.8013  0.0664
 5992SOL    HW129438   2.214   3.948   3.667  1.0908  3.4775 -0.6969
 5992SOL    HW229439   2.344   3.989   3.696  1.3700 -0.4513 -1.3612
 5993SOL     OW29440   0.031   3.708   4.311  0.7285 -0.1304 -0.4333
 5993SOL    HW129441   4.679   3.762   4.330  1.0281 -0.1697  0.8685
 5993SOL    HW229442   4.707   3.643   4.261 -0.3643 -0.3495  0.9041
 5994SOL     OW29443   3.350   3.495   9.275  0.1377  0.2374 -0.1987
 5994SOL    HW129444   3.423   3.473   9.332 -1.0408 -1.3186  0.7103
 5994SOL    HW229445   3.353   3.417   9.219 -0.6248  0.7324 -0.9382
 5995SOL     OW29446   0.026   1.241   4.097 -0.0539 -0.2852  0.1728
 5995SOL    HW129447   0.004   1.273   4.010 -1.2423 -2.8947 -0.4695
 5995SOL    HW229448   0.097   1.303   4.118 -1.1021  1.0387 -0.1976
 5996SOL     OW29449   1.928   1.501   2.406 -0.4430 -0.5217 -0.2997
 5996SOL    HW129450   1.929   1.507   2.310 -0.3528 -1.0782 -0.3323
 5996SOL    HW229451   1.878   1.421   2.424  0.3147 -0.7070  0.9246
 5997SOL     OW29452   0.641   3.603   2.437  0.3848 -0.9408  0.0814
 5997SOL    HW129453   0.707   3.671   2.427 -0.2750 -0.7652 -3.0966
 5997SOL    HW229454   0.623   3.594   2.343 -0.2789 -0.2343  0.1457
 5998SOL     OW29455   0.766   3.556  12.229 -0.6532  0.1954 -0.1165
 5998SOL    HW129456   0.831   3.530  12.164 -0.0392 -0.8055  0.8884
 5998SOL    HW229457   0.697   3.491  12.239 -0.8964  0.6776  1.3441
 5999SOL     OW29458   4.468   2.001   3.991 -0.3187 -0.7820  0.1261
 5999SOL    HW129459   4.481   2.082   4.040 -0.7219 -1.1717  0.8962
 5999SOL    HW229460   4.486   2.024   3.900 -4.4459 -3.2103 -1.2971
 6000SOL     OW29461   3.984   0.795   1.868 -0.0457  0.3949 -0.2383
 6000SOL    HW129462   4.035   0.812   1.789 -0.7937 -0.2491 -0.8495
 6000SOL    HW229463   3.900   0.795   1.823  0.4455 -1.0555 -1.1484
 6001SOL     OW29464   2.665   3.714   6.112 -0.4180  0.3622  0.6957
 6001SOL    HW129465   2.642   3.655   6.040  1.6395 -0.0686  0.3957
 6001SOL    HW229466   2.730   3.657   6.154 -1.0535 -0.7566  0.1715
 6002SOL     OW29467   1.925   4.438  15.516  0.1936 -0.4030 -0.1037
 6002SOL    HW129468   1.865   4.461  15.587 -0.6232 -0.7430 -0.6842
 6002SOL    HW229469   1.972   4.361  15.548  0.7077 -0.1844 -0.3417
 6003SOL     OW29470   4.648   2.760   1.571 -0.1316  0.0386  0.1368
 6003SOL    HW129471   0.002   2.795   1.530 -0.7592  0.1429 -0.9605
 6003SOL    HW229472   4.581   2.818   1.536 -1.5644 -1.5017  0.3467
 6004SOL     OW29473   1.987   1.218   7.077  0.3973 -0.2189  0.7200
 6004SOL    HW129474   2.069   1.198   7.122  0.6736 -3.0986 -1.0695
 6004SOL    HW229475   2.029   1.257   7.000 -1.5693  2.0951  0.8349
 6005SOL     OW29476   3.442   2.761   0.576  0.3435  0.9920  0.0447
 6005SOL    HW129477   3.482   2.710   0.647  1.8353  1.5910 -0.3725
 6005SOL    HW229478   3.512   2.791   0.518  0.3992 -0.0006 -0.4025
 6006SOL     OW29479   2.057   0.322  11.567 -0.2923 -0.0213  0.0119
 6006SOL    HW129480   2.064   0.248  11.627 -1.6994  0.8790  1.2984
 6006SOL    HW229481   2.094   0.272  11.494  0.1169  2.3770 -1.4263
 6007SOL     OW29482   2.776   1.010  11.773  0.8631  0.9136 -0.0094
 6007SOL    HW129483   2.729   0.929  11.751  1.0352  0.9840 -0.6195
 6007SOL    HW229484   2.781   1.001  11.868 -0.2063  2.1590  0.1459
 6008SOL     OW29485   4.213   3.969   2.789 -0.0295 -0.7766 -0.0691
 6008SOL    HW129486   4.190   3.878   2.809 -1.7395 -0.1656  0.7046
 6008SOL    HW229487   4.179   4.012   2.867 -2.1659 -0.8131 -0.9857
 6009SOL     OW29488   3.177   4.077   1.670  0.1855  0.8585 -0.5611
 6009SOL    HW129489   3.186   3.984   1.652 -0.9081  0.5378  0.5796
 6009SOL    HW229490   3.196   4.108   1.581  1.4502  0.6551 -0.3578
 6010SOL     OW29491   3.655   3.245  12.000 -0.2675  0.8245 -1.1663
 6010SOL    HW129492   3.709   3.198  12.063  1.7469  1.5921 -2.3037
 6010SOL    HW229493   3.594   3.174  11.980 -1.0505  0.8625  1.0606
 6011SOL     OW29494   4.096   2.859   3.061  0.5627 -0.1562 -0.3519
 6011SOL    HW129495   4.017   2.912   3.052  0.2476 -0.1784  2.2638
 6011SOL    HW229496   4.159   2.930   3.077 -1.8227  1.6931  0.7648
 6012SOL     OW29497   0.186   1.115  11.140  0.1668 -0.0645  0.4205
 6012SOL    HW129498   0.264   1.112  11.084 -1.0701 -0.6564 -1.2510
 6012SOL    HW229499   0.177   1.022  11.156  1.3861  0.0598  1.8220
 6013SOL     OW29500   1.082   3.088  16.768  0.0417  0.0630  0.7089
 6013SOL    HW129501   1.000   3.063  16.811 -0.5464 -0.3102 -0.5992
 6013SOL    HW229502   1.122   3.137  16.839  1.6075 -0.1392 -0.0340
 6014SOL     OW29503   4.020   2.311   5.770  0.4335 -0.0203 -0.5252
 6014SOL    HW129504   3.976   2.257   5.835  0.6820 -2.3936 -2.3224
 6014SOL    HW229505   4.101   2.263   5.756 -1.1877 -2.4825 -1.4478
 6015SOL     OW29506   1.147   2.129   3.752 -0.3146 -0.2297 -0.1078
 6015SOL    HW129507   1.223   2.181   3.727  0.0784 -1.8839 -2.3993
 6015SOL    HW229508   1.154   2.134   3.848  1.6794  2.8458 -0.4305
 6016SOL     OW29509   3.302   2.484   5.112  0.0163 -0.1987 -0.3172
 6016SOL    HW129510   3.231   2.535   5.072 -0.5564 -1.3917 -0.8190
 6016SOL    HW229511   3.349   2.461   5.033 -1.1195 -1.5135 -0.6061
 6017SOL     OW29512   1.140   0.879   9.128 -0.3106  0.0924 -0.1593
 6017SOL    HW129513   1.205   0.845   9.067 -0.4521 -2.0894  0.9040
 6017SOL    HW229514   1.186   0.878   9.213 -0.2923  0.3939 -0.1656
 6018SOL     OW29515   2.020   4.641   1.761 -0.0967  0.5379  0.1761
 6018SOL    HW129516   2.075   4.581   1.812 -0.5741 -0.9591 -1.0629
 6018SOL    HW229517   2.001   4.589   1.683  2.6736 -0.4410  0.1605
 6019SOL     OW29518   2.270   0.730  11.117 -0.1040  0.9460  0.0804
 6019SOL    HW129519   2.234   0.645  11.143  1.2923  0.2658 -0.1878
 6019SOL    HW229520   2.205   0.791  11.084 -0.3922  0.4691 -0.2343
 6020SOL     OW29521   4.213   2.100  13.389 -0.5800 -0.4104  0.0649
 6020SOL    HW129522   4.196   2.167  13.323  0.4734 -0.9778 -0.7684
 6020SOL    HW229523   4.254   2.157  13.454 -3.9651  2.7086 -0.4887
 6021SOL     OW29524   1.377   0.308   5.538  0.0379  0.0062  0.0272
 6021SOL    HW129525   1.427   0.374   5.489 -0.3225  1.7288  2.0105
 6021SOL    HW229526   1.444   0.265   5.590  0.3609  0.5858  0.0914
 6022SOL     OW29527   3.103   4.030   5.081  0.5747  0.4317  0.3477
 6022SOL    HW129528   3.125   4.123   5.082 -2.4030  1.1501 -0.4228
 6022SOL    HW229529   3.009   4.017   5.070  0.4819 -0.5432  2.2464
 6023SOL     OW29530   3.537   4.560   6.627  0.4796 -0.0732  0.2289
 6023SOL    HW129531   3.551   4.466   6.623 -0.8137 -0.3007  1.1438
 6023SOL    HW229532   3.446   4.561   6.656  0.3409  0.6280 -0.2295
 6024SOL     OW29533   2.075   1.755   5.602  0.3981  0.4082 -0.3336
 6024SOL    HW129534   2.091   1.668   5.565 -0.9250  0.4572 -1.0000
 6024SOL    HW229535   2.086   1.732   5.694 -0.7769  0.9419 -0.0661
 6025SOL     OW29536   1.888   0.901   3.986  0.1248 -0.0894  0.0244
 6025SOL    HW129537   1.801   0.931   4.012 -0.6528 -0.2190 -2.3687
 6025SOL    HW229538   1.860   0.829   3.930  0.9258  0.9566 -1.7259
 6026SOL     OW29539   3.550   0.345   2.718  0.7789 -0.3533 -0.2241
 6026SOL    HW129540   3.509   0.296   2.646 -1.6234 -0.6648  1.3682
 6026SOL    HW229541   3.480   0.405   2.744  2.4861  0.6054  2.1165
 6027SOL     OW29542   4.529   2.417  13.233  0.3152  0.4107 -0.4087
 6027SOL    HW129543   4.566   2.505  13.243 -2.4501  1.5832 -0.5735
 6027SOL    HW229544   4.463   2.409  13.302  1.0754  1.8617  0.4744
 6028SOL     OW29545   3.872   2.005   5.121  0.1854  0.0772 -0.0094
 6028SOL    HW129546   3.804   1.981   5.057  2.4158 -2.2650 -1.5083
 6028SOL    HW229547   3.827   2.088   5.134  0.0347  0.0716 -0.4924
 6029SOL     OW29548   1.645   0.672   1.357 -0.0153  0.0258  0.0883
 6029SOL    HW129549   1.673   0.588   1.321  1.7398  0.6663 -0.0692
 6029SOL    HW229550   1.550   0.675   1.344  0.0660  1.1111 -0.2774
 6030SOL     OW29551   4.237   4.699   4.676 -0.8326 -0.2430 -0.0335
 6030SOL    HW129552   4.199   4.670   4.593 -0.9568  1.2076 -0.4724
 6030SOL    HW229553   4.236   0.069   4.662  1.3652 -0.3596 -0.9560
 6031SOL     OW29554   0.526   2.282   1.303  0.2272 -0.1018  0.3468
 6031SOL    HW129555   0.612   2.242   1.293 -0.0860 -1.1474  1.7753
 6031SOL    HW229556   0.505   2.275   1.396 -0.1031  1.3016  0.3795
 6032SOL     OW29557   4.069   0.988   6.313  0.5615 -0.0473 -0.2349
 6032SOL    HW129558   4.016   0.972   6.391 -3.3335  0.3641 -2.8368
 6032SOL    HW229559   4.002   1.025   6.256  0.0306  1.5635  1.4511
 6033SOL     OW29560   2.255   2.648   2.608  0.3887 -0.5153 -0.3491
 6033SOL    HW129561   2.216   2.608   2.530  1.1027 -2.0787  0.1179
 6033SOL    HW229562   2.274   2.565   2.651 -0.3175 -1.5995 -2.1254
 6034SOL     OW29563   3.955   4.188   3.180  0.6409 -0.1399 -0.1467
 6034SOL    HW129564   3.899   4.266   3.172 -0.2490 -0.8746 -1.1550
 6034SOL    HW229565   3.994   4.225   3.259  1.0039  0.8081 -0.7723
 6035SOL     OW29566   3.706   2.485   4.262 -0.0164 -0.0597 -0.5069
 6035SOL    HW129567   3.639   2.421   4.237 -1.2952  0.3701  1.8357
 6035SOL    HW229568   3.740   2.509   4.176  1.5126  0.7060  0.3211
 6036SOL     OW29569   2.284   3.621   4.709  0.5522  0.5701 -0.6663
 6036SOL    HW129570   2.359   3.624   4.649 -0.6556 -2.2322 -2.2907
 6036SOL    HW229571   2.272   3.526   4.713 -2.4589  0.9372 -1.1598
 6037SOL     OW29572   2.198   0.558   8.546  0.6988 -0.1897  0.7727
 6037SOL    HW129573   2.217   0.618   8.618  1.6397  0.7524 -0.2607
 6037SOL    HW229574   2.285   0.564   8.507  0.3813 -2.1669 -0.2328
 6038SOL     OW29575   2.555   0.958   7.703 -0.6651  0.1243 -0.8324
 6038SOL    HW129576   2.516   0.966   7.790  1.7151  1.5675  0.0899
 6038SOL    HW229577   2.575   0.865   7.690  3.3938  0.9348 -0.2978
 6039SOL     OW29578   1.086   0.638  16.303 -0.0891  0.0370  0.6074
 6039SOL    HW129579   1.066   0.619  16.395  1.3233 -1.7109  0.5691
 6039SOL    HW229580   1.030   0.714  16.291 -1.4488 -1.2601 -1.2360
 6040SOL     OW29581   2.708   2.670   8.718 -0.4935  0.0097 -0.2494
 6040SOL    HW129582   2.745   2.643   8.802 -1.0445 -0.7307 -0.2487
 6040SOL    HW229583   2.614   2.674   8.733 -0.8656 -1.3577 -2.1668
 6041SOL     OW29584   2.377   2.464  17.585 -0.3201  0.2186 -0.4398
 6041SOL    HW129585   2.372   2.537  17.522 -1.2132 -0.8488 -1.5967
 6041SOL    HW229586   2.362   2.381  17.540 -1.7800  1.5124 -2.3888
 6042SOL     OW29587   2.462   1.886   7.860  0.4786  0.1584  0.0653
 6042SOL    HW129588   2.531   1.896   7.794  1.2328 -0.7026  0.7362
 6042SOL    HW229589   2.394   1.942   7.822  1.1643 -0.1098 -1.5851
 6043SOL     OW29590   4.072   0.244  17.102  0.1724  0.4511 -0.2152
 6043SOL    HW129591   4.084   0.339  17.099 -1.0258  0.7129  2.8893
 6043SOL    HW229592   4.161   0.210  17.092  0.5629  1.9503 -1.8296
 6044SOL     OW29593   4.230   4.091  14.750 -0.0614  0.1195 -0.0505
 6044SOL    HW129594   4.165   4.159  14.769  0.4574  1.3736 -2.7810
 6044SOL    HW229595   4.185   4.007  14.746 -3.3997  1.6977  4.6100
 6045SOL     OW29596   4.627   3.259  13.109  0.2513 -0.4008  0.1347
 6045SOL    HW129597   4.535   3.280  13.090  0.1067  1.4110  2.8464
 6045SOL    HW229598   4.608   3.173  13.146 -0.8254  1.1984  3.3495
 6046SOL     OW29599   0.995   0.271   4.006 -0.4562 -0.1606  0.0215
 6046SOL    HW129600   0.974   0.239   3.918  0.6711 -0.3656 -0.1832
 6046SOL    HW229601   1.089   0.253   4.010 -0.3638  0.5638  0.8904
 6047SOL     OW29602   2.097   4.621   6.345 -0.6572  0.2747 -0.1512
 6047SOL    HW129603   2.069   4.706   6.378  0.6696  0.7528 -0.2835
 6047SOL    HW229604   2.185   4.640   6.312 -0.6516  1.1201  0.3760
 6048SOL     OW29605   4.513   4.415  15.922 -0.6399 -0.0307 -0.6030
 6048SOL    HW129606   4.577   4.460  15.867 -0.7125  1.0076  0.1819
 6048SOL    HW229607   4.571   4.350  15.963 -0.3021  0.1672 -0.7603
 6049SOL     OW29608   2.872   3.226   0.170  0.2135  0.4730  0.4736
 6049SOL    HW129609   2.798   3.278   0.139  0.6712  2.6410  3.0028
 6049SOL    HW229610   2.838   3.137   0.166  0.1263  0.5724 -0.8068
 6050SOL     OW29611   2.748   2.665  15.648 -0.3257 -0.5386  1.0451
 6050SOL    HW129612   2.807   2.653  15.573 -1.0770  1.5330  0.1323
 6050SOL    HW229613   2.664   2.642  15.609  0.1176  1.8823 -1.3757
 6051SOL     OW29614   2.045   2.309   9.605  0.1476  0.0330  0.1135
 6051SOL    HW129615   2.010   2.278   9.522 -0.1876  1.0647 -0.1344
 6051SOL    HW229616   1.974   2.368   9.633 -1.0402 -1.1318 -0.4717
 6052SOL     OW29617   4.082   4.309   1.887 -0.1183  0.3582 -0.8405
 6052SOL    HW129618   4.158   4.286   1.834 -0.0522 -1.1893 -0.0861
 6052SOL    HW229619   4.084   4.235   1.948  2.6426  0.4568 -0.7876
 6053SOL     OW29620   0.188   3.357   3.374  0.4194 -0.5394  0.0486
 6053SOL    HW129621   0.279   3.375   3.398  0.2833  0.7984 -0.4314
 6053SOL    HW229622   0.205   3.351   3.280 -0.8010 -2.0666 -0.0635
 6054SOL     OW29623   0.358   1.008   6.901 -0.1526  0.5813  0.0559
 6054SOL    HW129624   0.441   0.971   6.871 -0.5514 -0.0864 -0.2355
 6054SOL    HW229625   0.384   1.100   6.906  0.6008  0.2745  1.7457
 6055SOL     OW29626   4.258   1.154   4.832 -0.3650  0.3362 -0.1703
 6055SOL    HW129627   4.266   1.059   4.822  1.2569  0.4462  0.1119
 6055SOL    HW229628   4.343   1.184   4.802 -0.3646 -1.4518 -1.9615
 6056SOL     OW29629   0.562   0.478   7.932 -0.0376 -0.2512  0.0728
 6056SOL    HW129630   0.600   0.490   8.019  0.1950 -1.3121  0.1229
 6056SOL    HW229631   0.636   0.442   7.883  1.3920  4.2432 -0.9961
 6057SOL     OW29632   3.158   0.154  13.905 -0.2355 -0.0233  0.0444
 6057SOL    HW129633   3.116   0.240  13.912  2.0368  0.8552  2.5215
 6057SOL    HW229634   3.101   0.120  13.835  0.7744 -0.9218 -0.3391
 6058SOL     OW29635   1.498   1.339   9.648 -0.1735 -0.1010  0.2174
 6058SOL    HW129636   1.453   1.378   9.723  0.7230  0.2540  0.5638
 6058SOL    HW229637   1.443   1.261   9.636 -0.1496 -0.4364  2.3891
 6059SOL     OW29638   2.787   2.352  10.879 -0.5723 -0.2258 -0.5061
 6059SOL    HW129639   2.715   2.313  10.828 -0.9408  0.0349 -0.1858
 6059SOL    HW229640   2.772   2.445  10.863  1.3121  0.7974  3.7924
 6060SOL     OW29641   4.090   2.570   9.148 -0.5642 -0.1469  0.5422
 6060SOL    HW129642   4.032   2.524   9.209  0.4240 -1.8016  0.2365
 6060SOL    HW229643   4.159   2.595   9.209 -0.0752 -2.3282  0.8774
 6061SOL     OW29644   0.781   2.725  10.797 -0.0052 -0.1119  0.6557
 6061SOL    HW129645   0.781   2.762  10.885  0.5824  1.4896 -0.0052
 6061SOL    HW229646   0.840   2.651  10.809 -0.6369 -0.7693 -0.3078
 6062SOL     OW29647   2.242   2.959   4.258  0.1323 -0.3166  0.1566
 6062SOL    HW129648   2.219   3.041   4.214  1.3016 -0.2696 -0.3624
 6062SOL    HW229649   2.171   2.904   4.225  1.6190 -0.8963 -2.1163
 6063SOL     OW29650   3.825   2.351  16.537  0.2061 -0.3083 -0.3996
 6063SOL    HW129651   3.919   2.335  16.536  0.4159  0.8914  0.3127
 6063SOL    HW229652   3.818   2.400  16.456  2.2203 -1.7010 -1.4140
 6064SOL     OW29653   0.016   1.646   3.489 -0.1366  0.0542  0.1256
 6064SOL    HW129654   4.650   1.635   3.518  1.3162 -2.2801  3.7080
 6064SOL    HW229655   0.062   1.637   3.572 -0.3738 -1.0990  0.1358
 6065SOL     OW29656   4.128   0.502   7.061  0.9714 -0.3305 -0.0592
 6065SOL    HW129657   4.190   0.471   6.994  2.6434  2.5595  0.1521
 6065SOL    HW229658   4.194   0.552   7.109 -0.5641  1.4626  0.1967
 6066SOL     OW29659   4.188   4.102   2.534  0.0875 -0.1408 -0.1273
 6066SOL    HW129660   4.124   4.169   2.555  1.3197  1.4637 -1.4889
 6066SOL    HW229661   4.222   4.069   2.617  1.6081 -1.2926 -1.1993
 6067SOL     OW29662   1.400   0.972   8.306  0.3259 -0.6261 -0.5419
 6067SOL    HW129663   1.376   0.940   8.219 -0.1573 -1.0898 -0.2419
 6067SOL    HW229664   1.318   1.017   8.327  0.7450 -0.5781  1.0418
 6068SOL     OW29665   3.424   3.069   0.748  0.0432 -0.1844  0.0456
 6068SOL    HW129666   3.374   3.032   0.676 -2.8728  3.5934  0.1513
 6068SOL    HW229667   3.409   3.005   0.818  0.7952  0.8086  1.1189
 6069SOL     OW29668   3.633   2.005   6.893 -0.3622 -0.2695  0.3261
 6069SOL    HW129669   3.589   1.924   6.867 -0.7643 -0.9492  3.1505
 6069SOL    HW229670   3.594   2.032   6.976  0.7589  2.7206 -0.1208
 6070SOL     OW29671   3.635   0.080   9.387 -0.4776 -0.1274  0.2225
 6070SOL    HW129672   3.584   0.084   9.468  0.8994  0.5485  1.0447
 6070SOL    HW229673   3.560   0.072   9.327 -0.4851  0.4081  0.1628
 6071SOL     OW29674   1.017   4.653   5.884  0.0434 -0.0697 -0.7530
 6071SOL    HW129675   1.046   4.582   5.826 -4.9861 -1.3512 -1.6484
 6071SOL    HW229676   1.088   4.716   5.868  1.0002 -0.8376  0.4103
 6072SOL     OW29677   1.069   1.215   1.346  0.1578 -0.5072 -0.0460
 6072SOL    HW129678   1.018   1.138   1.319  0.2313 -0.9807  1.1701
 6072SOL    HW229679   1.022   1.282   1.296 -0.2146 -1.1651 -0.5817
 6073SOL     OW29680   1.136   1.802   2.315 -0.5055  0.4986 -0.9298
 6073SOL    HW129681   1.077   1.739   2.274  0.4893  0.7769 -2.7737
 6073SOL    HW229682   1.222   1.767   2.293 -0.3159 -0.6311  1.6256
 6074SOL     OW29683   2.318   4.060   2.556  0.1727  0.2817 -0.6738
 6074SOL    HW129684   2.253   4.126   2.532  1.1245  1.2634 -0.5787
 6074SOL    HW229685   2.275   4.020   2.632  3.1433 -3.0139 -0.7215
 6075SOL     OW29686   2.758   0.985   4.277 -0.3747  0.1117 -0.1821
 6075SOL    HW129687   2.712   0.990   4.360  1.8963  2.6529  0.9098
 6075SOL    HW229688   2.704   0.922   4.229 -0.5150 -0.8002  1.2060
 6076SOL     OW29689   3.122   1.371  14.071 -0.2911 -0.6461  0.4126
 6076SOL    HW129690   3.115   1.361  13.976  0.7900 -2.4262  0.5250
 6076SOL    HW229691   3.032   1.401  14.086 -0.0748 -0.1827  0.7996
 6077SOL     OW29692   4.586   1.401   5.669  0.5320  0.1040  0.1893
 6077SOL    HW129693   4.578   1.310   5.642 -1.5205  0.0293  1.0563
 6077SOL    HW229694   4.496   1.432   5.659 -0.0694 -1.3343  1.1155
 6078SOL     OW29695   3.671   4.716   7.752  0.4506 -0.1570 -0.0173
 6078SOL    HW129696   3.731   0.032   7.815 -0.6746 -0.6393  1.3665
 6078SOL    HW229697   3.701   0.012   7.663 -0.6843 -1.5459 -0.7273
 6079SOL     OW29698   3.368   3.697  11.967 -0.1698  0.3905 -0.0456
 6079SOL    HW129699   3.426   3.773  11.963  2.1842 -1.2516  3.2270
 6079SOL    HW229700   3.286   3.724  12.010 -0.2633  1.0664 -0.6440
 6080SOL     OW29701   4.158   2.451   8.914 -0.2006 -0.1597 -0.2100
 6080SOL    HW129702   4.113   2.374   8.949 -2.7785  1.4055 -0.0968
 6080SOL    HW229703   4.150   2.514   8.986  0.4161  1.1892 -1.3310
 6081SOL     OW29704   3.448   1.959   2.992 -0.1924  0.3310  0.3617
 6081SOL    HW129705   3.377   1.895   2.994 -0.2799  0.4087 -0.1376
 6081SOL    HW229706   3.398   2.035   3.021 -1.5110 -0.8065  1.0465
 6082SOL     OW29707   1.744   1.855   1.067  0.3235 -0.3078 -0.4513
 6082SOL    HW129708   1.833   1.844   1.033  0.9407  1.5852  0.5500
 6082SOL    HW229709   1.704   1.769   1.052  0.6532 -0.3154 -1.2764
 6083SOL     OW29710   2.437   2.617  16.678  0.9067 -0.0070  0.4907
 6083SOL    HW129711   2.399   2.704  16.693  4.4852  1.9250 -1.7463
 6083SOL    HW229712   2.524   2.634  16.642  1.3213 -0.7727  1.1376
 6084SOL     OW29713   4.175   0.421  11.006 -0.1641 -0.1423  0.0954
 6084SOL    HW129714   4.104   0.373  11.050  0.2231  1.4430  2.4557
 6084SOL    HW229715   4.164   0.392  10.916 -0.3680  0.6850 -0.1415
 6085SOL     OW29716   2.596   4.322   5.555  0.1529  0.0118 -1.1635
 6085SOL    HW129717   2.640   4.240   5.578  0.1601  0.5696  0.7912
 6085SOL    HW229718   2.555   4.300   5.472 -2.1766  2.4117 -0.6738
 6086SOL     OW29719   0.717   0.915   1.225 -0.0387  0.1643 -0.2864
 6086SOL    HW129720   0.770   0.945   1.298 -0.7944  1.2238 -0.1677
 6086SOL    HW229721   0.762   0.953   1.151 -2.1055  2.4986 -0.3326
 6087SOL     OW29722   3.063   0.588  14.943  0.3536 -0.2976 -0.4108
 6087SOL    HW129723   3.127   0.654  14.969  0.1007 -0.1585 -0.1418
 6087SOL    HW229724   3.059   0.600  14.848 -0.3786 -3.9579 -0.8175
 6088SOL     OW29725   4.049   4.692  12.723 -0.4453  0.3929  0.6070
 6088SOL    HW129726   4.134   4.651  12.738 -0.8213  0.1632  2.1056
 6088SOL    HW229727   4.007   4.690  12.809 -0.7484  0.2261  0.4549
 6089SOL     OW29728   4.320   0.509  10.546  1.0520  0.1623  0.0666
 6089SOL    HW129729   4.414   0.524  10.538  0.9442 -0.1974 -1.8764
 6089SOL    HW229730   4.328   0.510  10.642  0.6301 -1.5385  0.1144
 6090SOL     OW29731   4.378   1.398   2.616  0.0112 -0.4990 -0.3428
 6090SOL    HW129732   4.441   1.347   2.665  1.1410 -0.1287 -1.4147
 6090SOL    HW229733   4.375   1.361   2.528 -4.7154 -0.4015 -0.2674
 6091SOL     OW29734   3.106   3.388   4.559 -0.3334 -0.3891 -0.3856
 6091SOL    HW129735   3.167   3.315   4.570  0.4404  0.5063  1.2555
 6091SOL    HW229736   3.021   3.349   4.583  0.0603 -1.2684 -0.4191
 6092SOL     OW29737   2.991   3.894   5.615  0.1456 -0.1461  0.2970
 6092SOL    HW129738   3.086   3.894   5.623  0.1938 -0.6674 -0.2544
 6092SOL    HW229739   2.974   3.802   5.637  0.3355 -0.1916  0.2553
 6093SOL     OW29740   2.111   0.188   0.555  0.0502 -0.4441  0.5509
 6093SOL    HW129741   2.133   0.279   0.573  0.7968 -0.3830 -0.6702
 6093SOL    HW229742   2.064   0.165   0.635  0.6953 -1.0826  0.7421
 6094SOL     OW29743   1.007   2.766   2.497  0.2820 -0.2355  0.0115
 6094SOL    HW129744   1.017   2.683   2.544  1.7335 -0.4834 -0.7485
 6094SOL    HW229745   1.098   2.792   2.482 -0.5022  1.4055 -1.9785
 6095SOL     OW29746   0.598   3.599   3.030  0.2475  0.2396 -0.3145
 6095SOL    HW129747   0.567   3.523   2.980 -0.4035 -1.1202  2.1697
 6095SOL    HW229748   0.550   3.674   2.996 -0.4637 -0.4963 -0.9396
 6096SOL     OW29749   2.948   1.560   8.025  0.4418  0.3588 -0.3425
 6096SOL    HW129750   3.027   1.612   8.016  2.3814 -2.3883  0.7613
 6096SOL    HW229751   2.983   1.485   8.074  2.3850  1.8122  0.4616
 6097SOL     OW29752   3.619   3.779   7.763 -0.1162  0.1439 -0.2727
 6097SOL    HW129753   3.693   3.837   7.748 -0.6748  1.3720  1.7730
 6097SOL    HW229754   3.641   3.757   7.853 -2.1546  0.1065  0.2239
 6098SOL     OW29755   4.393   0.591   8.510 -0.5468 -0.0430 -0.1651
 6098SOL    HW129756   4.361   0.501   8.498 -1.7844  0.3755  0.0156
 6098SOL    HW229757   4.337   0.613   8.585  3.6888  1.4014  2.5469
 6099SOL     OW29758   3.226   0.890  14.734 -0.5551 -0.1623 -0.3818
 6099SOL    HW129759   3.259   0.931  14.814  0.1425  0.7707 -1.1395
 6099SOL    HW229760   3.150   0.947  14.727 -0.1372  0.4951  0.4836
 6100SOL     OW29761   1.879   1.036   9.431  0.0428 -0.6712  0.4941
 6100SOL    HW129762   1.798   1.050   9.381  1.0411 -1.4272 -1.3148
 6100SOL    HW229763   1.950   1.062   9.372  0.5651  1.7508  2.2243
 6101SOL     OW29764   1.859   2.103  13.625  0.4770 -0.6738 -0.0138
 6101SOL    HW129765   1.906   2.027  13.659  1.1384 -0.5171 -0.5841
 6101SOL    HW229766   1.784   2.053  13.594  0.3884 -1.6337  1.7150
 6102SOL     OW29767   3.256   2.073  14.993 -0.7444  0.2661  0.5957
 6102SOL    HW129768   3.344   2.043  15.013 -0.0613  1.2357 -0.9485
 6102SOL    HW229769   3.276   2.114  14.909 -2.4410  0.7109  0.4121
 6103SOL     OW29770   0.145   3.142  15.305 -0.3469 -0.4208 -0.6941
 6103SOL    HW129771   0.070   3.083  15.305 -0.0783 -0.7574  0.0061
 6103SOL    HW229772   0.212   3.093  15.352  1.1516  1.4046 -0.8885
 6104SOL     OW29773   3.847   4.655  16.449  0.2796  0.1060 -0.3369
 6104SOL    HW129774   3.774   4.710  16.421 -1.2044 -1.3414  0.6925
 6104SOL    HW229775   3.880   4.716  16.515  1.6213  0.0479 -0.9541
 6105SOL     OW29776   2.106   4.012   5.075  0.2517 -0.7002 -0.2835
 6105SOL    HW129777   2.073   3.967   4.997 -0.6469 -0.6312  0.0569
 6105SOL    HW229778   2.195   3.987   5.050 -0.4193 -0.3003 -3.0151
 6106SOL     OW29779   0.019   2.826   0.182 -0.3896 -0.0693 -0.9883
 6106SOL    HW129780   0.015   2.741   0.138  1.6054 -0.7419  0.0961
 6106SOL    HW229781   0.081   2.795   0.249  0.5888  2.6781 -0.6382
 6107SOL     OW29782   2.104   2.084  11.187  0.3349 -0.4213 -0.4432
 6107SOL    HW129783   2.010   2.079  11.202  0.4279 -0.8301 -0.0052
 6107SOL    HW229784   2.108   2.173  11.152  0.9833  0.5610  2.1391
 6108SOL     OW29785   1.045   1.484  14.854 -0.3924  0.5129  0.2920
 6108SOL    HW129786   1.044   1.577  14.832  0.1020  0.0745 -1.5564
 6108SOL    HW229787   0.974   1.480  14.919 -0.9551 -2.2655 -0.4726
 6109SOL     OW29788   2.389   3.443   2.432 -0.5982 -0.1748 -0.5293
 6109SOL    HW129789   2.480   3.419   2.444  0.0932  1.1163 -3.3006
 6109SOL    HW229790   2.392   3.514   2.368  2.2263 -0.1906 -0.3804
 6110SOL     OW29791   4.246   4.230   6.516  0.3354 -0.4076  0.1318
 6110SOL    HW129792   4.216   4.155   6.465 -0.3567 -0.9899  1.4169
 6110SOL    HW229793   4.305   4.267   6.450 -1.2296  1.3084 -0.2946
 6111SOL     OW29794   2.728   0.306   5.239  0.0408  0.1244  0.4163
 6111SOL    HW129795   2.658   0.275   5.297 -0.4076 -0.4779 -0.4441
 6111SOL    HW229796   2.677   0.354   5.174 -1.3939 -1.4398  0.3782
 6112SOL     OW29797   0.147   1.555  16.029  0.0610  0.3928  0.6652
 6112SOL    HW129798   0.093   1.485  15.993 -0.6920 -0.7633  4.0533
 6112SOL    HW229799   0.079   1.622  16.021  1.4837  1.7839  0.2394
 6113SOL     OW29800   3.108   0.267   7.460  0.3940  0.9550 -0.0324
 6113SOL    HW129801   3.052   0.314   7.398  2.0231  1.5443 -1.0682
 6113SOL    HW229802   3.093   0.176   7.433 -0.7721  1.0979  0.1538
 6114SOL     OW29803   1.234   1.065  13.441  0.0708  0.3140 -0.5228
 6114SOL    HW129804   1.264   1.145  13.396 -3.6285  1.6897 -0.5000
 6114SOL    HW229805   1.185   1.112  13.508  0.2256  1.5116 -1.2422
 6115SOL     OW29806   0.487   2.650   7.975 -0.3259 -0.4744 -0.0410
 6115SOL    HW129807   0.568   2.682   7.936  0.3020 -1.2480  0.6413
 6115SOL    HW229808   0.472   2.726   8.032 -0.0355  0.2558 -0.9385
 6116SOL     OW29809   2.449   1.152   4.451 -0.1707  0.4620 -0.3680
 6116SOL    HW129810   2.419   1.087   4.514 -2.0007  0.2477 -1.4702
 6116SOL    HW229811   2.476   1.102   4.375 -0.0599  0.3234 -0.2369
 6117SOL     OW29812   0.103   2.500   3.504  0.4139 -0.3754 -0.5695
 6117SOL    HW129813   0.096   2.596   3.511  0.9844 -0.5287  2.1407
 6117SOL    HW229814   0.110   2.494   3.409 -1.2350  1.6970 -0.8310
 6118SOL     OW29815   2.058   3.796   3.113  0.1612 -0.2745  0.1974
 6118SOL    HW129816   2.031   3.724   3.055 -2.3321  0.3254  0.5969
 6118SOL    HW229817   2.011   3.870   3.074  2.8749  2.3026  1.8517
 6119SOL     OW29818   2.554   1.244   5.557  0.3199 -0.2563 -0.2382
 6119SOL    HW129819   2.643   1.276   5.568  0.6063 -0.9330 -0.6641
 6119SOL    HW229820   2.507   1.326   5.538  1.0605 -0.0271 -1.0796
 6120SOL     OW29821   0.334   0.311   1.419 -0.3977  0.0359  0.2493
 6120SOL    HW129822   0.256   0.285   1.468  0.0303 -1.2797  0.2311
 6120SOL    HW229823   0.304   0.308   1.328  0.5953 -1.0385 -0.0400
 6121SOL     OW29824   1.783   4.427   3.757  0.3045  0.3245  0.1488
 6121SOL    HW129825   1.810   4.346   3.714  0.4660 -0.1866  1.2358
 6121SOL    HW229826   1.866   4.473   3.767 -0.8157  2.3110  0.3961
 6122SOL     OW29827   4.530   1.187   9.693 -0.3312 -0.4881 -0.0967
 6122SOL    HW129828   4.441   1.170   9.722 -0.4439  0.8683  0.3406
 6122SOL    HW229829   4.509   1.205   9.601  0.0155  2.5718  0.4154
 6123SOL     OW29830   4.718   1.041   9.795 -0.0743  1.0331 -0.5553
 6123SOL    HW129831   4.657   1.054   9.868 -0.5194  4.0610 -1.4832
 6123SOL    HW229832   4.665   1.092   9.734  0.4734  0.6654 -1.3383
 6124SOL     OW29833   4.320   4.519  16.105 -0.3665  0.0869 -0.1460
 6124SOL    HW129834   4.387   4.463  16.066  2.3751  2.9724  0.4684
 6124SOL    HW229835   4.373   4.589  16.141 -0.8590  1.7081 -2.5198
 6125SOL     OW29836   3.195   0.144   4.133  0.2687  0.4938 -0.1052
 6125SOL    HW129837   3.222   0.055   4.156  0.8548  0.3385 -1.4268
 6125SOL    HW229838   3.104   0.136   4.161  0.0439  0.1710 -0.9355
 6126SOL     OW29839   2.254   1.148   4.970 -1.2526  0.1593 -0.3716
 6126SOL    HW129840   2.177   1.202   4.988 -0.5817  1.1033 -0.3654
 6126SOL    HW229841   2.300   1.147   5.054 -0.2819  0.4208 -0.9029
 6127SOL     OW29842   1.633   0.485   0.934 -0.6794 -0.2015 -0.6218
 6127SOL    HW129843   1.594   0.545   0.871 -1.2421  0.0689 -0.0184
 6127SOL    HW229844   1.567   0.416   0.930  1.0379 -1.9277  0.3216
 6128SOL     OW29845   3.501   4.146   5.051 -0.8087 -0.2107 -0.5505
 6128SOL    HW129846   3.463   4.184   5.130 -0.7240 -0.1407 -0.5432
 6128SOL    HW229847   3.584   4.108   5.077  0.5646  1.8654 -1.8927
 6129SOL     OW29848   1.056   0.562   9.274 -0.4168 -0.0517  0.5316
 6129SOL    HW129849   1.010   0.498   9.328 -1.5373  0.6685  0.4411
 6129SOL    HW229850   1.036   0.530   9.186 -1.5737  2.4089 -0.1175
 6130SOL     OW29851   0.252   1.798  12.945 -0.7226  0.5926  0.0494
 6130SOL    HW129852   0.343   1.800  12.974 -0.6153  0.2963 -0.2562
 6130SOL    HW229853   0.230   1.891  12.943  1.9737  1.2375  0.0912
 6131SOL     OW29854   4.423   2.038  11.560  0.2217  0.0360  1.0833
 6131SOL    HW129855   4.489   2.107  11.559  0.9898 -0.7616 -3.9376
 6131SOL    HW229856   4.387   2.043  11.472 -0.9975  0.3618  1.6016
 6132SOL     OW29857   3.610   3.155   2.033 -0.4116  0.3104  0.0504
 6132SOL    HW129858   3.667   3.084   2.064  0.4082  0.7086 -0.5680
 6132SOL    HW229859   3.618   3.148   1.938 -2.2676  3.8982 -0.3815
 6133SOL     OW29860   0.457   1.016  14.980 -0.1001 -0.3062 -0.0415
 6133SOL    HW129861   0.418   1.031  14.894  2.3770  0.7064 -0.9971
 6133SOL    HW229862   0.436   0.922  14.981 -2.4651  0.2004 -2.2068
 6134SOL     OW29863   3.416   2.698   2.819 -0.5035 -0.0390 -0.0385
 6134SOL    HW129864   3.508   2.674   2.808 -0.5971 -1.7192  2.9667
 6134SOL    HW229865   3.387   2.625   2.874 -0.7419 -0.6783 -0.9971
 6135SOL     OW29866   4.073   3.326   3.240 -0.4187  0.7545  0.2570
 6135SOL    HW129867   4.155   3.332   3.290  0.1526  2.2002 -0.8447
 6135SOL    HW229868   4.093   3.326   3.146 -1.4843  1.4440  0.0331
 6136SOL     OW29869   2.327   0.548   4.055 -0.4875 -0.9984  0.3936
 6136SOL    HW129870   2.377   0.609   4.109  0.6886 -1.8321  0.2619
 6136SOL    HW229871   2.391   0.531   3.985 -0.1467 -1.6762  0.8636
 6137SOL     OW29872   3.960   4.538   2.022  0.6247  0.2605 -0.0878
 6137SOL    HW129873   3.966   4.444   2.040  0.5229  0.2760  0.0270
 6137SOL    HW229874   3.992   4.575   2.104 -1.8716  2.4516 -0.1099
 6138SOL     OW29875   3.204   1.864   2.393 -0.1336 -0.5934 -0.2869
 6138SOL    HW129876   3.185   1.770   2.392 -1.4860 -0.3270 -0.1459
 6138SOL    HW229877   3.133   1.899   2.446  1.1255  0.9215  0.4055
 6139SOL     OW29878   3.042   1.625   5.260 -0.0060 -0.0785  0.5837
 6139SOL    HW129879   2.949   1.616   5.278 -0.2305  0.7441 -0.1861
 6139SOL    HW229880   3.035   1.629   5.165 -1.8037  0.0175  0.7359
 6140SOL     OW29881   2.140   2.550  17.359  0.2485  0.0517  0.7305
 6140SOL    HW129882   2.227   2.589  17.364  0.1939  0.3514 -0.7452
 6140SOL    HW229883   2.098   2.622  17.312  0.2852 -0.3672  0.0665
 6141SOL     OW29884   0.584   4.327   7.538 -0.3639  0.4526 -0.2916
 6141SOL    HW129885   0.550   4.239   7.520 -0.6658  0.5973 -0.4249
 6141SOL    HW229886   0.522   4.354   7.606 -1.1512  0.6133 -1.0802
 6142SOL     OW29887   4.190   0.795   6.536 -0.0294 -0.2121 -0.0486
 6142SOL    HW129888   4.211   0.742   6.459  0.4320  0.7674 -0.6060
 6142SOL    HW229889   4.255   0.865   6.534  0.7338 -0.9329 -0.4747
 6143SOL     OW29890   3.799   0.687  15.209  0.4192 -0.3610  0.1464
 6143SOL    HW129891   3.872   0.644  15.253  0.9899  0.3843 -0.0808
 6143SOL    HW229892   3.836   0.756  15.154 -3.1524  0.1259 -1.6367
 6144SOL     OW29893   2.119   1.971  12.231  0.3361 -0.1191  0.1609
 6144SOL    HW129894   2.091   2.053  12.190 -0.8382 -0.5481  0.1077
 6144SOL    HW229895   2.059   1.981  12.305  1.0055 -0.2156  0.7162
 6145SOL     OW29896   2.073   3.967   7.268 -0.2652  0.9607  0.0942
 6145SOL    HW129897   2.118   3.962   7.352 -0.3244 -1.4435 -0.0161
 6145SOL    HW229898   2.048   4.058   7.254  0.8138  1.2918  0.3921
 6146SOL     OW29899   2.599   0.196   4.534  0.0162 -0.3662  0.4754
 6146SOL    HW129900   2.630   0.246   4.458 -0.5905 -2.3585 -1.0765
 6146SOL    HW229901   2.609   0.102   4.521  2.9840 -0.0450  0.5350
 6147SOL     OW29902   2.760   3.607   2.244  0.1234  0.2576  0.4838
 6147SOL    HW129903   2.754   3.612   2.340  2.3784 -0.3766  0.6698
 6147SOL    HW229904   2.814   3.528   2.234  1.6423  1.2894  0.5836
 6148SOL     OW29905   0.068   3.600   9.768  0.1490 -0.0428  0.4984
 6148SOL    HW129906   0.107   3.668   9.714 -0.8089  0.0952 -0.0130
 6148SOL    HW229907   4.704   3.636   9.768 -0.0337 -0.4898 -1.0907
 6149SOL     OW29908   4.086   3.881  17.481  0.6489 -0.2404 -0.1349
 6149SOL    HW129909   4.161   3.935  17.454 -1.0584  1.1117 -2.1372
 6149SOL    HW229910   4.038   3.951  17.525 -1.2018 -0.0054 -2.5627
 6150SOL     OW29911   4.630   2.854  16.646 -0.6507  0.2391 -0.1070
 6150SOL    HW129912   4.538   2.826  16.652 -1.1519  1.7275 -0.9166
 6150SOL    HW229913   4.628   2.917  16.718  0.2174  0.7591 -0.5405
 6151SOL     OW29914   2.766   1.078   5.331  0.2240 -0.4306  0.1294
 6151SOL    HW129915   2.828   1.052   5.398 -1.0984 -2.6845  0.4479
 6151SOL    HW229916   2.701   1.008   5.333 -1.2837  0.9566 -0.0873
 6152SOL     OW29917   3.693   4.308   5.786  0.5483 -0.5173 -0.2033
 6152SOL    HW129918   3.633   4.350   5.848  1.3397  0.0409  0.1817
 6152SOL    HW229919   3.641   4.317   5.706  1.4193  0.0662 -0.6986
 6153SOL     OW29920   0.666   3.376  10.672 -0.1077  0.5678  0.2131
 6153SOL    HW129921   0.757   3.396  10.692 -0.2619  1.7558 -0.3007
 6153SOL    HW229922   0.627   3.407  10.755 -0.5581 -2.4229  1.1144
 6154SOL     OW29923   1.061   1.035  12.397 -0.6213  0.8360 -0.3043
 6154SOL    HW129924   0.988   1.006  12.343 -0.9485  0.6221  0.2563
 6154SOL    HW229925   1.124   1.070  12.334  1.6767 -1.7593  0.5629
 6155SOL     OW29926   0.862   2.061   8.039 -0.2423 -0.4960  0.3051
 6155SOL    HW129927   0.923   2.133   8.027  0.2528 -0.9029  0.3698
 6155SOL    HW229928   0.890   2.028   8.124 -0.6695 -1.1483  0.2003
 6156SOL     OW29929   1.126   2.107  15.016  0.4950 -0.0761 -0.5642
 6156SOL    HW129930   1.160   2.189  15.051  0.0234 -0.2398  0.2759
 6156SOL    HW229931   1.165   2.116  14.929  0.8264 -1.5757 -0.5673
 6157SOL     OW29932   1.507   0.917   9.413 -0.1029 -0.6069  0.0966
 6157SOL    HW129933   1.567   0.916   9.339 -1.1496 -0.8833 -0.7517
 6157SOL    HW229934   1.469   1.005   9.406 -1.5036 -1.2143  0.0226
 6158SOL     OW29935   3.360   4.443   6.872 -0.3813  0.1679 -0.3017
 6158SOL    HW129936   3.337   4.375   6.809  2.0387 -0.0198 -0.9838
 6158SOL    HW229937   3.433   4.400   6.916 -1.3724 -2.2295 -1.0004
 6159SOL     OW29938   0.520   1.368   8.448 -0.4798  0.1894  0.2140
 6159SOL    HW129939   0.471   1.420   8.384 -1.0153  1.4748  1.6774
 6159SOL    HW229940   0.451   1.314   8.486  2.5911 -2.3664  2.1704
 6160SOL     OW29941   4.168   2.134  17.566  0.3073  0.0313 -0.4823
 6160SOL    HW129942   4.093   2.192  17.580 -0.3513 -0.9184 -0.0524
 6160SOL    HW229943   4.225   2.176  17.629 -0.2069  2.8415 -1.8994
 6161SOL     OW29944   3.970   2.002  12.718 -0.5813  0.6747 -0.0999
 6161SOL    HW129945   4.028   1.946  12.768 -1.0020 -0.2509 -0.6492
 6161SOL    HW229946   4.000   2.088  12.747  0.3211  0.0523  0.7744
 6162SOL     OW29947   3.627   1.640   4.351  0.5264  0.2205  0.0508
 6162SOL    HW129948   3.669   1.561   4.317 -1.4250 -1.1824  0.9431
 6162SOL    HW229949   3.623   1.691   4.270 -2.6729 -1.2531 -0.7140
 6163SOL     OW29950   4.631   1.455   0.344 -0.1215 -0.7099 -0.3698
 6163SOL    HW129951   4.665   1.540   0.316  1.5221 -0.2863  2.9528
 6163SOL    HW229952   4.703   1.428   0.399 -0.4691 -0.5856  0.1448
 6164SOL     OW29953   1.587   3.047  13.942 -0.2878  0.1976 -0.1104
 6164SOL    HW129954   1.606   2.962  13.981  1.2610  0.3148 -0.6307
 6164SOL    HW229955   1.626   3.102  14.011 -1.9222 -1.1979  1.9308
 6165SOL     OW29956   3.222   2.633   2.185 -0.5848  0.6252 -0.1997
 6165SOL    HW129957   3.210   2.538   2.195 -1.8464  1.1517  3.2391
 6165SOL    HW229958   3.173   2.663   2.261  0.0246  1.5992 -0.1848
 6166SOL     OW29959   0.544   1.595   2.038  0.3099  0.1449  0.1648
 6166SOL    HW129960   0.608   1.609   2.107  2.4277  0.7129 -1.9059
 6166SOL    HW229961   0.494   1.516   2.061  0.5713  0.6640  2.4264
 6167SOL     OW29962   2.830   4.201   6.653 -1.1121  1.0031 -0.3033
 6167SOL    HW129963   2.854   4.109   6.665 -1.4270  0.9420 -0.1455
 6167SOL    HW229964   2.735   4.200   6.654 -1.0356 -2.8004  1.3115
 6168SOL     OW29965   1.504   4.629  10.851  0.1220  0.4541 -0.0468
 6168SOL    HW129966   1.504   4.705  10.792  1.1213 -1.3376 -2.3372
 6168SOL    HW229967   1.411   4.607  10.856  0.4238 -0.3419  2.1591
 6169SOL     OW29968   2.547   3.137  10.949 -0.4026  0.5159 -0.3723
 6169SOL    HW129969   2.524   3.152  11.040  0.1995  0.6043 -0.2357
 6169SOL    HW229970   2.565   3.227  10.920 -2.9207  1.7762  2.0189
 6170SOL     OW29971   3.338   3.356   7.542  0.6274 -0.6960 -0.4524
 6170SOL    HW129972   3.341   3.440   7.496  0.4954 -0.1120  0.6100
 6170SOL    HW229973   3.351   3.389   7.631 -0.7329  0.3642 -0.6398
 6171SOL     OW29974   4.378   2.530   7.301  0.9868 -0.0224 -0.4197
 6171SOL    HW129975   4.462   2.504   7.261 -0.0702 -3.8819 -0.0760
 6171SOL    HW229976   4.411   2.509   7.388  1.6243 -0.0965 -0.6782
 6172SOL     OW29977   0.565   4.261  14.158  0.5795  0.3258  0.2510
 6172SOL    HW129978   0.569   4.166  14.159 -0.8882  0.2625 -0.0276
 6172SOL    HW229979   0.644   4.267  14.105  0.6666 -1.2705  0.2181
 6173SOL     OW29980   2.786   2.265   2.334  0.0384  0.1755  0.3287
 6173SOL    HW129981   2.752   2.312   2.259 -0.6741 -1.7061 -0.5262
 6173SOL    HW229982   2.873   2.243   2.300 -0.2766 -0.9387  0.2291
 6174SOL     OW29983   0.809   1.928   7.323 -0.5663  0.1115  0.5125
 6174SOL    HW129984   0.762   1.952   7.403 -2.4553  0.4031 -0.6776
 6174SOL    HW229985   0.764   1.845   7.308 -0.6376 -0.3569  3.3206
 6175SOL     OW29986   1.786   2.195   1.955  0.7772 -0.3329 -0.0251
 6175SOL    HW129987   1.710   2.195   1.897  0.4544  3.1461  0.3949
 6175SOL    HW229988   1.746   2.131   2.015 -1.8225 -0.8921 -2.3505
 6176SOL     OW29989   1.419   3.928   7.670  0.6079  0.2686  0.1028
 6176SOL    HW129990   1.501   3.930   7.720  0.9346  0.8189 -0.4576
 6176SOL    HW229991   1.455   3.923   7.581  0.1477 -0.4159 -0.0463
 6177SOL     OW29992   1.450   1.219   5.054  0.0726  0.1573  0.0128
 6177SOL    HW129993   1.359   1.196   5.075  0.1444 -0.7425 -0.6638
 6177SOL    HW229994   1.457   1.285   5.122 -1.1335 -0.2968  0.5836
 6178SOL     OW29995   1.138   0.372   2.538  0.1871  0.5543 -0.0146
 6178SOL    HW129996   1.088   0.369   2.456  1.3144  1.2787 -0.7275
 6178SOL    HW229997   1.222   0.346   2.502  0.3349 -0.4673  1.0993
 6179SOL     OW29998   1.355   3.349  14.169  0.6049  0.2122 -0.1247
 6179SOL    HW129999   1.268   3.364  14.206  0.7546  0.5834  0.0828
 6179SOL    HW230000   1.410   3.409  14.219  1.8309 -0.4251 -0.7258
 6180SOL     OW30001   0.874   3.225   4.088  0.9266  0.1854  0.2122
 6180SOL    HW130002   0.866   3.269   4.173  1.5991 -0.0055  0.3657
 6180SOL    HW230003   0.937   3.158   4.113  1.4092  0.5009 -0.1671
 6181SOL     OW30004   4.111   2.700   3.309 -0.6131  0.2481 -0.5581
 6181SOL    HW130005   4.075   2.767   3.249 -1.6004  0.3487  0.1439
 6181SOL    HW230006   4.197   2.730   3.337  0.1993 -3.5250  0.9137
 6182SOL     OW30007   3.841   4.066   4.160 -0.6551 -0.0608 -0.0700
 6182SOL    HW130008   3.894   4.091   4.085 -1.0996 -0.0025 -0.3630
 6182SOL    HW230009   3.796   3.992   4.119 -0.9466  0.4046 -0.5945
 6183SOL     OW30010   0.068   0.383   3.634 -0.3608 -0.2110  0.3727
 6183SOL    HW130011   4.710   0.379   3.683  0.5129 -3.0670  1.5832
 6183SOL    HW230012   0.133   0.375   3.704  1.5328  0.3598 -1.3512
 6184SOL     OW30013   2.940   0.981   2.527  0.2734  0.3059  0.3084
 6184SOL    HW130014   2.991   0.900   2.525 -0.0576  0.0816  0.8249
 6184SOL    HW230015   2.990   1.035   2.466  2.0141 -1.9606 -0.2729
 6185SOL     OW30016   2.555   1.337  14.495 -0.2586 -0.2291 -0.4757
 6185SOL    HW130017   2.470   1.375  14.517 -1.7827 -3.2570 -1.2588
 6185SOL    HW230018   2.548   1.242  14.505  2.2894 -0.5429 -1.7154
 6186SOL     OW30019   4.160   0.469   4.760 -0.2371 -0.7050  0.2361
 6186SOL    HW130020   4.251   0.474   4.732  0.0863  0.6420  1.5010
 6186SOL    HW230021   4.154   0.374   4.758  0.8464 -0.7065 -2.7416
 6187SOL     OW30022   4.110   3.209   6.911 -0.0707  0.5683  0.1458
 6187SOL    HW130023   4.068   3.125   6.930 -1.2703  0.9729 -0.7053
 6187SOL    HW230024   4.036   3.267   6.928 -1.8098 -1.1407 -1.6063
 6188SOL     OW30025   3.868   1.028   8.523 -0.1341 -0.1882  0.9945
 6188SOL    HW130026   3.964   1.031   8.525 -0.1714  1.8449 -0.6208
 6188SOL    HW230027   3.841   1.120   8.516  1.7733  0.3499  0.5632
 6189SOL     OW30028   0.548   1.262   5.151 -0.2830  0.4162  0.4912
 6189SOL    HW130029   0.487   1.245   5.223  0.0138 -2.2767  0.1333
 6189SOL    HW230030   0.485   1.274   5.080  0.3807 -2.2778 -0.5842
 6190SOL     OW30031   0.430   3.545  16.467  0.1055 -0.3722  0.1082
 6190SOL    HW130032   0.504   3.510  16.418 -0.6076  1.4956 -2.3002
 6190SOL    HW230033   0.476   3.601  16.529  0.3189 -0.1454 -0.2506
 6191SOL     OW30034   0.347   2.079   2.367  0.2860  0.0711  0.2574
 6191SOL    HW130035   0.404   2.138   2.417 -0.2644  2.0902 -1.4792
 6191SOL    HW230036   0.331   2.142   2.297 -1.6542  0.4471  1.0308
 6192SOL     OW30037   1.233   3.883  15.379 -1.0637  0.2725 -0.2467
 6192SOL    HW130038   1.204   3.887  15.471  0.4897  0.8343  0.2177
 6192SOL    HW230039   1.235   3.787  15.372 -2.0087  0.3654 -1.7831
 6193SOL     OW30040   4.188   2.516  12.987  0.0224  0.2401 -0.1471
 6193SOL    HW130041   4.221   2.499  12.898  1.0221 -1.3438  0.5445
 6193SOL    HW230042   4.261   2.567  13.020  1.4352 -1.5892 -0.4561
 6194SOL     OW30043   0.821   2.458  15.719  0.1441  0.1327 -0.5369
 6194SOL    HW130044   0.900   2.497  15.756 -0.7434  2.2018 -0.8617
 6194SOL    HW230045   0.846   2.435  15.630  3.0390 -2.0666  0.8104
 6195SOL     OW30046   1.107   0.927   8.332  0.1472 -0.0577 -0.4767
 6195SOL    HW130047   1.102   0.975   8.415 -0.5125 -2.5688  0.9258
 6195SOL    HW230048   1.154   0.848   8.358 -1.4150  0.5091  4.1892
 6196SOL     OW30049   0.358   3.278   2.611  0.2788 -0.6046  0.9536
 6196SOL    HW130050   0.356   3.374   2.612 -1.2235 -0.6063 -0.6794
 6196SOL    HW230051   0.452   3.260   2.606  0.5872  1.0426  0.9780
 6197SOL     OW30052   1.059   1.361  12.474  0.6947  0.0013 -0.6673
 6197SOL    HW130053   1.103   1.441  12.444  2.0722 -0.2246  0.7648
 6197SOL    HW230054   1.103   1.301  12.415 -0.9381 -1.7077 -0.1352
 6198SOL     OW30055   2.186   1.975  12.591 -1.0288  0.5126  0.2419
 6198SOL    HW130056   2.110   1.968  12.534 -1.2811  1.5274  0.4404
 6198SOL    HW230057   2.144   1.974  12.677  0.2249  0.3790  0.8608
 6199SOL     OW30058   4.355   4.276   1.731  0.0878  0.3348  0.5028
 6199SOL    HW130059   4.412   4.209   1.692 -0.8482 -0.3240  0.2503
 6199SOL    HW230060   4.302   4.296   1.653  0.5517 -0.7790 -0.1077
 6200SOL     OW30061   0.982   0.299  14.745 -0.2576  0.2141  0.2141
 6200SOL    HW130062   0.960   0.357  14.818 -2.2935  1.2502 -1.2251
 6200SOL    HW230063   0.928   0.220  14.751 -1.1463  0.7384 -0.8220
 6201SOL     OW30064   2.653   0.310   6.578 -0.7814 -0.5757  0.1436
 6201SOL    HW130065   2.651   0.403   6.558 -0.0236 -0.5526  0.1807
 6201SOL    HW230066   2.738   0.294   6.617  1.5953  1.3044 -4.2250
 6202SOL     OW30067   3.881   4.186   6.895 -0.3781 -0.5608 -0.2923
 6202SOL    HW130068   3.964   4.149   6.926 -0.3224  0.5964  0.8988
 6202SOL    HW230069   3.839   4.179   6.980  0.4125  0.0103  0.1444
 6203SOL     OW30070   1.653   0.583   7.423 -0.0508  0.0154  0.0071
 6203SOL    HW130071   1.675   0.532   7.345  1.4693  0.5308  0.1101
 6203SOL    HW230072   1.741   0.596   7.456 -0.7934  2.8170  0.8580
 6204SOL     OW30073   3.794   0.573  11.349 -0.2647 -0.3756 -0.1604
 6204SOL    HW130074   3.706   0.557  11.385  0.5027 -0.1482  1.7827
 6204SOL    HW230075   3.778   0.554  11.257  1.0235  2.5361 -0.9793
 6205SOL     OW30076   1.241   3.924   1.441  0.1390 -0.5403  0.2919
 6205SOL    HW130077   1.185   3.932   1.363  0.4111  2.2645  0.3886
 6205SOL    HW230078   1.308   3.990   1.427 -0.9352  0.3742 -0.6390
 6206SOL     OW30079   4.494   0.530  10.999 -0.3928 -0.3495 -0.1853
 6206SOL    HW130080   4.517   0.499  10.911  1.2918 -0.7530  0.3941
 6206SOL    HW230081   4.404   0.497  11.005 -0.7381  0.8177  0.9916
 6207SOL     OW30082   2.196   3.209   4.127 -0.0630 -0.3952 -0.5052
 6207SOL    HW130083   2.257   3.283   4.130  0.4259 -1.0127  3.7809
 6207SOL    HW230084   2.127   3.234   4.065  0.6176 -1.7952 -1.8415
 6208SOL     OW30085   4.670   0.479   4.279  0.1882 -0.0973  0.4720
 6208SOL    HW130086   4.656   0.391   4.314 -0.4009 -1.3466 -2.8465
 6208SOL    HW230087   0.038   0.476   4.254  0.0891 -2.6689  0.3366
 6209SOL     OW30088   0.721   4.217   2.825 -0.3433  0.4876  0.1509
 6209SOL    HW130089   0.652   4.153   2.810  0.2927 -0.2410  0.3563
 6209SOL    HW230090   0.797   4.179   2.781 -0.0040 -1.1571  2.1675
 6210SOL     OW30091   0.363   4.316   7.771 -0.0227  0.4985 -0.4429
 6210SOL    HW130092   0.380   4.338   7.862 -0.4191 -1.0135  0.0017
 6210SOL    HW230093   0.352   4.221   7.767  0.0761  0.4616  0.2361
 6211SOL     OW30094   4.426   1.270   6.135  0.2051  0.3906 -1.0703
 6211SOL    HW130095   4.454   1.330   6.067 -2.3795  1.7239 -0.9640
 6211SOL    HW230096   4.331   1.280   6.125  0.0212 -1.3337 -1.1534
 6212SOL     OW30097   1.484   1.504   4.770 -0.9014  0.1427 -0.0572
 6212SOL    HW130098   1.489   1.538   4.681 -0.3863 -0.9058 -0.4204
 6212SOL    HW230099   1.390   1.501   4.788 -1.5481  1.8464 -3.2447
 6213SOL     OW30100   3.191   3.108   7.799 -0.3108  0.4031  0.1059
 6213SOL    HW130101   3.269   3.155   7.828  1.5223 -0.9870 -2.4768
 6213SOL    HW230102   3.226   3.041   7.739 -0.2336 -0.7246  1.4083
 6214SOL     OW30103   0.342   0.499   6.826 -0.1699  0.7010  0.2260
 6214SOL    HW130104   0.315   0.545   6.747 -0.8156  1.3919  0.8402
 6214SOL    HW230105   0.408   0.562   6.855  0.5167  0.2625 -0.4076
 6215SOL     OW30106   3.677   2.400   8.925 -0.5484 -0.3283  0.0740
 6215SOL    HW130107   3.604   2.399   8.863  0.8809  0.6336 -1.6225
 6215SOL    HW230108   3.746   2.373   8.864  0.6522 -0.9590  1.7220
 6216SOL     OW30109   0.193   4.285   4.397 -0.4825  0.5872  0.2740
 6216SOL    HW130110   0.141   4.227   4.451 -0.0450 -0.5756 -0.5538
 6216SOL    HW230111   0.282   4.254   4.416 -0.7392  1.8852  3.5993
 6217SOL     OW30112   4.108   4.448   6.700 -0.3153 -0.4512 -0.0166
 6217SOL    HW130113   4.065   4.499   6.632 -1.5005  0.4495  1.3822
 6217SOL    HW230114   4.111   4.357   6.671 -1.4507  0.0217 -1.6196
 6218SOL     OW30115   3.971   2.865   3.934 -0.3187 -0.5487 -0.2368
 6218SOL    HW130116   3.912   2.890   4.005  1.5273  1.5750  0.5486
 6218SOL    HW230117   4.008   2.785   3.969  1.6210 -1.3578 -4.1994
 6219SOL     OW30118   4.490   4.035   7.817 -0.0766 -0.0554 -0.1244
 6219SOL    HW130119   4.416   4.071   7.769 -0.6204  1.3772  1.7817
 6219SOL    HW230120   4.471   3.963   7.877  3.1431  0.7973  1.9650
 6220SOL     OW30121   0.355   3.764  11.320  0.3769  0.1105 -0.0561
 6220SOL    HW130122   0.265   3.742  11.297  0.3897 -1.3535  1.2474
 6220SOL    HW230123   0.410   3.687  11.307  2.5136  1.3540  1.5302
 6221SOL     OW30124   4.532   3.396   8.395 -0.0158  0.5568 -1.0637
 6221SOL    HW130125   4.512   3.475   8.346 -0.4071  1.5769  0.7243
 6221SOL    HW230126   4.441   3.367   8.404 -0.9013  3.8674  0.6226
 6222SOL     OW30127   1.453   0.358   3.390 -0.5320 -0.0754 -0.3136
 6222SOL    HW130128   1.483   0.272   3.420 -0.0483 -0.4463 -1.8669
 6222SOL    HW230129   1.531   0.413   3.395  0.5916 -1.7009  0.0164
 6223SOL     OW30130   1.976   1.973   0.144 -0.2643  0.3854  0.0299
 6223SOL    HW130131   1.912   1.902   0.148 -0.2318  0.3513 -0.0542
 6223SOL    HW230132   2.036   1.946   0.214 -0.3927 -0.7174 -0.2808
 6224SOL     OW30133   0.995   1.415   6.715 -0.0977 -0.4049  0.1514
 6224SOL    HW130134   1.003   1.408   6.620  1.1927  0.3598  0.1903
 6224SOL    HW230135   0.973   1.323   6.728 -0.1489 -0.3130  0.7244
 6225SOL     OW30136   2.012   4.027  17.106  0.2997 -0.4246  0.4555
 6225SOL    HW130137   1.983   3.951  17.056 -1.2285  0.4849 -0.0333
 6225SOL    HW230138   2.015   4.000  17.198  2.8222 -0.6849  0.3179
 6226SOL     OW30139   2.369   2.871   6.205  0.1077 -0.6252 -0.2329
 6226SOL    HW130140   2.447   2.826   6.237  0.9186  0.6535 -0.3976
 6226SOL    HW230141   2.381   2.959   6.241 -2.9408 -0.0143 -0.7415
 6227SOL     OW30142   3.856   2.102   0.888 -0.2999  0.1084  0.2738
 6227SOL    HW130143   3.800   2.159   0.942  1.1554 -0.0599  1.9775
 6227SOL    HW230144   3.814   2.016   0.892  3.2072 -1.6511 -0.7135
 6228SOL     OW30145   1.828   3.458   4.281  0.1873  0.0086  0.1657
 6228SOL    HW130146   1.754   3.444   4.223 -1.8001 -0.8321  2.9228
 6228SOL    HW230147   1.796   3.420   4.363  2.8624  1.0715  1.7017
 6229SOL     OW30148   2.951   4.158   8.204  0.2313 -0.1429 -0.2563
 6229SOL    HW130149   2.880   4.222   8.193 -0.5155 -1.1499 -1.3004
 6229SOL    HW230150   3.020   4.202   8.252  0.1200 -1.0139  0.6858
 6230SOL     OW30151   4.535   2.112   9.692 -0.0622 -0.8146 -1.2814
 6230SOL    HW130152   4.457   2.159   9.722  0.5255 -0.1635 -0.7706
 6230SOL    HW230153   4.499   2.044   9.635  0.1356 -1.4826 -0.6045
 6231SOL     OW30154   2.133   0.263   6.141 -0.4642  0.1245 -0.1971
 6231SOL    HW130155   2.211   0.272   6.196 -0.8667  1.7710  0.0919
 6231SOL    HW230156   2.127   0.352   6.106  1.7057  0.8807  1.3284
 6232SOL     OW30157   2.032   2.485   9.898  0.3558 -0.2654 -0.1895
 6232SOL    HW130158   2.051   2.514   9.809  1.7329 -0.0068  0.1900
 6232SOL    HW230159   2.108   2.530   9.935  1.6362 -2.5372 -0.1147
 6233SOL     OW30160   4.166   1.858  13.220 -0.1231  0.4339 -0.3794
 6233SOL    HW130161   4.076   1.873  13.190 -0.8087  0.3045  1.6064
 6233SOL    HW230162   4.180   1.938  13.271 -1.7844 -0.0452  0.8630
 6234SOL     OW30163   0.375   2.986  11.777 -0.3368  0.1682 -0.0635
 6234SOL    HW130164   0.410   3.017  11.861  3.3944 -2.1853 -0.7429
 6234SOL    HW230165   0.414   3.032  11.703 -0.2686 -0.1809 -0.2476
 6235SOL     OW30166   2.013   3.469   6.631 -0.8799  0.9102 -0.4080
 6235SOL    HW130167   2.020   3.407   6.558  0.4334 -0.0177  0.5224
 6235SOL    HW230168   2.029   3.552   6.585 -0.6195  0.8837 -0.3615
 6236SOL     OW30169   2.587   4.252  12.466 -0.1130 -0.3697 -0.3467
 6236SOL    HW130170   2.638   4.210  12.536  1.2683 -0.1475 -1.2099
 6236SOL    HW230171   2.507   4.260  12.516 -0.6434 -1.8097 -0.9589
 6237SOL     OW30172   3.002   0.991   7.699 -0.3006  0.3698 -0.2556
 6237SOL    HW130173   3.066   1.036   7.644  0.7774  0.8596  1.4123
 6237SOL    HW230174   2.952   1.072   7.716  0.8713  1.0339  0.0049
 6238SOL     OW30175   0.672   0.206   8.575 -0.2589  0.5246 -0.2700
 6238SOL    HW130176   0.753   0.192   8.625 -0.3916  1.0034  0.0732
 6238SOL    HW230177   0.623   0.228   8.654 -1.9026 -1.6296 -0.7093
 6239SOL     OW30178   4.412   3.512   6.229  0.0952  0.5997 -0.2243
 6239SOL    HW130179   4.377   3.425   6.250 -1.3374  1.2999  0.2968
 6239SOL    HW230180   4.408   3.521   6.134 -2.6134  1.7841 -0.0111
 6240SOL     OW30181   4.636   0.223  16.329  0.2393  0.2524 -0.8948
 6240SOL    HW130182   4.680   0.307  16.344 -0.6124  0.3220  1.1857
 6240SOL    HW230183   4.571   0.242  16.262  0.5095 -1.0259 -1.5302
 6241SOL     OW30184   0.125   2.328   7.037 -0.1500  0.3316  0.2509
 6241SOL    HW130185   0.066   2.381   6.984  0.8738  1.2728  0.0600
 6241SOL    HW230186   0.162   2.273   6.968  0.1704 -0.7261  1.2641
 6242SOL     OW30187   1.296   0.804   2.221  0.8043 -0.0471 -0.2344
 6242SOL    HW130188   1.277   0.765   2.136 -0.7266  0.9250 -0.3210
 6242SOL    HW230189   1.332   0.888   2.193 -0.6116  0.6750  0.1549
 6243SOL     OW30190   1.394   2.267   4.853  0.1590 -0.1920  0.0383
 6243SOL    HW130191   1.366   2.322   4.926 -2.7858 -0.3338 -0.9570
 6243SOL    HW230192   1.483   2.245   4.880  0.6578  0.5279 -1.0182
 6244SOL     OW30193   2.612   3.983  11.368  0.8543  0.7534  0.3751
 6244SOL    HW130194   2.647   4.011  11.283  0.4436 -2.0145 -0.7091
 6244SOL    HW230195   2.523   4.015  11.368  0.6287  0.1147 -1.3058
 6245SOL     OW30196   1.844   0.263   6.112 -0.5688  0.1954 -0.3823
 6245SOL    HW130197   1.938   0.249   6.109 -0.6758 -0.0035 -2.5057
 6245SOL    HW230198   1.833   0.269   6.207  2.0969 -0.7299 -0.0029
 6246SOL     OW30199   1.029   2.517   3.702 -0.3930 -0.6528  0.3589
 6246SOL    HW130200   1.057   2.556   3.619  0.6594  1.7203  1.8318
 6246SOL    HW230201   1.028   2.588   3.766 -2.7163 -2.0490  1.8835
 6247SOL     OW30202   1.484   2.810   0.054 -0.2825 -0.3566  0.6409
 6247SOL    HW130203   1.512   2.876   0.118  0.7069 -0.2455  0.0901
 6247SOL    HW230204   1.531   2.730   0.076 -0.9526 -0.8150  0.3894
 6248SOL     OW30205   3.554   1.290   0.519 -0.5533  0.0545 -0.4252
 6248SOL    HW130206   3.568   1.326   0.431 -0.3201 -0.4173 -0.5835
 6248SOL    HW230207   3.458   1.287   0.517 -0.6018  0.0564  2.4055
 6249SOL     OW30208   3.819   3.178   0.806 -0.6415  0.1855  0.2190
 6249SOL    HW130209   3.740   3.162   0.858 -0.5989 -0.2694  0.1433
 6249SOL    HW230210   3.840   3.090   0.774  1.1071  1.2927 -1.6943
 6250SOL     OW30211   4.436   3.692  15.247 -0.3195 -0.0205 -0.8535
 6250SOL    HW130212   4.526   3.702  15.214 -0.3162  0.4928 -0.6825
 6250SOL    HW230213   4.384   3.643  15.183  0.9280 -1.7446 -0.5643
 6251SOL     OW30214   3.194   1.790   4.713  0.8219  0.4745 -0.7189
 6251SOL    HW130215   3.235   1.854   4.655  2.1456  1.4364  1.2870
 6251SOL    HW230216   3.115   1.835   4.742  0.7532  0.2884 -0.6194
 6252SOL     OW30217   3.614   1.858   7.552 -0.1677 -0.2433 -0.0593
 6252SOL    HW130218   3.648   1.768   7.554 -0.4545 -0.3514 -0.0370
 6252SOL    HW230219   3.550   1.868   7.622 -0.1222  2.3470 -0.4016
 6253SOL     OW30220   3.391   0.526   8.357 -0.0712  0.7721  0.3960
 6253SOL    HW130221   3.298   0.539   8.379 -0.0157  1.2900  0.3335
 6253SOL    HW230222   3.420   0.556   8.443 -0.0356 -0.3625  0.7772
 6254SOL     OW30223   1.164   3.117  14.154  0.1611  0.0421 -0.0326
 6254SOL    HW130224   1.177   3.137  14.246  2.3486  0.6381 -0.4664
 6254SOL    HW230225   1.250   3.146  14.122 -0.1882  1.1016  0.0001
 6255SOL     OW30226   4.246   1.145   0.192  0.3012 -0.0943  0.0390
 6255SOL    HW130227   4.324   1.202   0.192  0.4888 -0.3533  2.4720
 6255SOL    HW230228   4.246   1.112   0.282  0.2985 -1.7655 -0.5739
 6256SOL     OW30229   0.887   2.692  11.864 -0.3687  0.0935  0.2673
 6256SOL    HW130230   0.942   2.750  11.916 -0.2362  0.4307 -0.2474
 6256SOL    HW230231   0.830   2.758  11.824 -1.5828 -1.3554 -0.4133
 6257SOL     OW30232   4.653   4.324   2.017  0.2494  0.2447  0.0880
 6257SOL    HW130233   4.709   4.317   1.940  1.2881 -0.9265  0.9484
 6257SOL    HW230234   4.709   4.266   2.068  1.6066 -0.0916 -1.8212
 6258SOL     OW30235   2.513   1.342   8.602 -0.0189  0.4973 -0.0539
 6258SOL    HW130236   2.594   1.379   8.638  0.3255 -0.3296  0.0046
 6258SOL    HW230237   2.506   1.257   8.645 -0.1474  0.0128 -1.0174
 6259SOL     OW30238   0.504   3.119   8.270  0.3770 -0.6579 -0.8369
 6259SOL    HW130239   0.470   3.094   8.356  0.3068  1.6861 -0.1858
 6259SOL    HW230240   0.573   3.180   8.297 -0.1793 -0.7871  0.9146
 6260SOL     OW30241   1.381   1.217   2.400 -0.0323  0.1496 -0.2806
 6260SOL    HW130242   1.320   1.204   2.328  0.6964 -1.0925 -0.6698
 6260SOL    HW230243   1.336   1.184   2.478  2.0032 -0.1847  0.7509
 6261SOL     OW30244   1.896   0.651   4.207  0.7665 -0.3766  0.3712
 6261SOL    HW130245   1.897   0.631   4.300 -0.0184  0.6974  0.6033
 6261SOL    HW230246   1.802   0.635   4.193 -0.1289  3.9193  1.5667
 6262SOL     OW30247   2.537   1.457   0.763 -0.0270 -0.2575  0.3181
 6262SOL    HW130248   2.550   1.549   0.740  0.9005 -0.5742 -0.4347
 6262SOL    HW230249   2.566   1.412   0.683  2.0506 -0.9017  1.4165
 6263SOL     OW30250   0.876   3.232   2.048 -0.0905 -0.4451 -0.4238
 6263SOL    HW130251   0.960   3.212   2.005 -0.8361 -0.0508 -2.0595
 6263SOL    HW230252   0.826   3.250   1.968  0.4924 -0.9782 -0.9146
 6264SOL     OW30253   2.567   4.253   6.361  0.2494  0.3023 -0.3991
 6264SOL    HW130254   2.584   4.347   6.367 -1.7653  0.6141  0.2381
 6264SOL    HW230255   2.472   4.256   6.350  0.1013 -3.0105  0.0644
 6265SOL     OW30256   1.186   4.295   2.544  0.2788  0.5402  0.5292
 6265SOL    HW130257   1.128   4.342   2.485  1.3381  1.8783  0.5727
 6265SOL    HW230258   1.158   4.205   2.526  0.8254  0.4206  0.3006
 6266SOL     OW30259   3.376   0.660   7.106  0.2359 -0.7098 -0.0695
 6266SOL    HW130260   3.380   0.750   7.072  0.3329  0.0977  2.0554
 6266SOL    HW230261   3.294   0.664   7.156 -0.4469 -1.2723 -1.1468
 6267SOL     OW30262   2.469   0.151   6.730  0.2450  0.3971  0.7057
 6267SOL    HW130263   2.537   0.194   6.678 -2.1055  1.7117 -1.2693
 6267SOL    HW230264   2.421   0.223   6.769  0.1515  0.1368  1.0721
 6268SOL     OW30265   3.068   4.661  13.035  0.0741  0.5833 -0.3613
 6268SOL    HW130266   3.083   4.628  13.124 -0.7157 -0.1345 -0.4990
 6268SOL    HW230267   3.128   4.607  12.983 -0.6702 -0.3193 -0.2791
 6269SOL     OW30268   4.216   2.775  10.384 -0.7228 -0.0414  0.2717
 6269SOL    HW130269   4.189   2.804  10.297 -1.0882  2.1672  1.1007
 6269SOL    HW230270   4.131   2.736  10.400 -0.7228  0.6185  1.8586
 6270SOL     OW30271   0.639   1.607   5.236  0.3493  0.4212 -0.3215
 6270SOL    HW130272   0.652   1.653   5.153  0.6503  1.3399  0.2372
 6270SOL    HW230273   0.693   1.528   5.228  0.0870  0.2060  0.0355
 6271SOL     OW30274   4.160   3.746   6.093  0.0456 -0.7818 -0.0188
 6271SOL    HW130275   4.087   3.792   6.052  1.1915 -0.6397 -1.8613
 6271SOL    HW230276   4.107   3.695   6.155 -0.5499 -0.2635 -0.0931
 6272SOL     OW30277   1.307   3.975   5.616 -0.3536 -0.2340  0.1647
 6272SOL    HW130278   1.324   4.036   5.687  0.0197 -0.5618  0.3585
 6272SOL    HW230279   1.371   4.011   5.555  0.5401 -0.2538  1.1049
 6273SOL     OW30280   4.663   3.414   6.863 -0.4488  0.0598 -0.8045
 6273SOL    HW130281   4.631   3.493   6.820 -0.1390  0.0102 -1.1188
 6273SOL    HW230282   4.610   3.426   6.943 -1.2379  0.8160 -1.4443
 6274SOL     OW30283   4.373   0.283   3.110  0.5111  0.0755 -0.2077
 6274SOL    HW130284   4.409   0.351   3.053  1.4892  1.7480  2.3624
 6274SOL    HW230285   4.454   0.243   3.141  0.1264 -1.2532 -0.9514
 6275SOL     OW30286   4.150   0.053   5.701  0.0506 -0.2925 -0.0896
 6275SOL    HW130287   4.239   0.057   5.666 -1.2419  0.4229 -3.2946
 6275SOL    HW230288   4.137   0.144   5.727 -0.9983 -0.4056 -0.2332
 6276SOL     OW30289   1.846   3.695   1.241  0.0502  0.2296  0.1418
 6276SOL    HW130290   1.894   3.751   1.180 -1.5013  1.5372  0.1046
 6276SOL    HW230291   1.850   3.611   1.196 -2.7158  0.5173 -0.6748
 6277SOL     OW30292   1.771   1.133   2.276 -0.9251  0.0830  0.0043
 6277SOL    HW130293   1.778   1.177   2.360  0.8572  2.0836 -1.1910
 6277SOL    HW230294   1.863   1.134   2.250 -0.8893 -0.9658  0.1039
 6278SOL     OW30295   0.348   3.368   8.266 -0.0817 -0.6090  0.6531
 6278SOL    HW130296   0.287   3.345   8.337 -1.9847  0.5802 -0.5734
 6278SOL    HW230297   0.400   3.288   8.262 -0.5258 -0.9064  0.8351
 6279SOL     OW30298   1.145   2.651   8.029 -0.6575 -0.0259 -0.1029
 6279SOL    HW130299   1.117   2.657   7.938 -0.2080  0.0953 -0.2313
 6279SOL    HW230300   1.066   2.615   8.070  1.6436 -0.1927  4.1553
 6280SOL     OW30301   1.492   4.062   1.465 -0.2236  0.2576 -0.1121
 6280SOL    HW130302   1.539   4.079   1.383 -1.6675 -0.3455 -1.0753
 6280SOL    HW230303   1.550   3.991   1.492 -1.8801 -0.5175  1.3717
 6281SOL     OW30304   1.532   1.401   6.267  0.4332  0.6000  0.1322
 6281SOL    HW130305   1.463   1.407   6.202 -0.6204 -2.8608  0.9044
 6281SOL    HW230306   1.572   1.487   6.253  0.5348  0.7183  1.1749
 6282SOL     OW30307   0.419   0.544   1.572  0.1128  0.3053 -0.4816
 6282SOL    HW130308   0.391   0.597   1.497  1.5759  0.9173 -0.5906
 6282SOL    HW230309   0.409   0.453   1.543  0.2118 -0.2931  1.3572
 6283SOL     OW30310   3.917   1.795  12.315 -0.5424  0.1204  0.2444
 6283SOL    HW130311   3.886   1.872  12.362 -0.4991 -1.3194  2.6625
 6283SOL    HW230312   3.991   1.825  12.263  0.1898  2.4597  2.6125
 6284SOL     OW30313   1.796   1.916  14.302 -0.5154  0.1742  0.3789
 6284SOL    HW130314   1.881   1.908  14.347 -0.4629 -0.2091  0.2125
 6284SOL    HW230315   1.804   1.843  14.240  0.5005  1.1224 -0.5992
 6285SOL     OW30316   1.192   0.122  12.175  0.5846 -0.0776  0.3361
 6285SOL    HW130317   1.115   0.105  12.228  2.1271 -0.6625  2.3823
 6285SOL    HW230318   1.185   0.215  12.153  0.7781 -0.0807  0.2543
 6286SOL     OW30319   3.290   3.638   1.351 -0.0074 -0.0246  0.5199
 6286SOL    HW130320   3.302   3.682   1.266 -0.5210 -0.2432  0.3319
 6286SOL    HW230321   3.282   3.546   1.326  1.9859 -0.3531  1.1347
 6287SOL     OW30322   1.413   4.261  16.056  0.4194  0.0386  0.3205
 6287SOL    HW130323   1.362   4.321  16.001 -0.4453 -0.2259  0.8196
 6287SOL    HW230324   1.350   4.190  16.071  0.2088  0.8842  3.4642
 6288SOL     OW30325   2.108   0.394  10.598  0.3144 -0.2494  0.1574
 6288SOL    HW130326   2.034   0.340  10.572 -1.1714  1.6578  0.4517
 6288SOL    HW230327   2.134   0.419  10.509 -0.1517 -1.6841 -0.3853
 6289SOL     OW30328   1.991   4.553   7.514 -0.0282 -0.0884 -0.1771
 6289SOL    HW130329   1.927   4.606   7.468 -0.5746  0.3299  1.0630
 6289SOL    HW230330   1.995   4.595   7.600 -2.1128 -1.7110  0.7243
 6290SOL     OW30331   2.929   1.234   2.988  0.0691 -0.1682 -0.0337
 6290SOL    HW130332   2.993   1.292   3.028  1.2663  0.2685 -2.5613
 6290SOL    HW230333   2.985   1.173   2.940  0.1836  1.0099 -1.3849
 6291SOL     OW30334   2.752   0.168   7.328 -0.0010 -0.2655  0.3356
 6291SOL    HW130335   2.690   0.102   7.297  1.0557 -0.1623 -2.0289
 6291SOL    HW230336   2.835   0.121   7.318  1.1746  2.3702 -2.3276
 6292SOL     OW30337   0.867   3.673  12.768  0.4439  0.2264 -0.4426
 6292SOL    HW130338   0.911   3.604  12.719  0.4102 -0.0610 -0.0668
 6292SOL    HW230339   0.775   3.649  12.758 -0.0171  2.7017 -2.1760
 6293SOL     OW30340   2.639   3.400   2.966  0.3597 -0.1919 -0.2496
 6293SOL    HW130341   2.647   3.316   3.012  1.6273 -0.5792 -1.1807
 6293SOL    HW230342   2.543   3.402   2.965  0.3688  1.0097  0.4719
 6294SOL     OW30343   2.859   2.733   5.680 -0.5079  0.4795  0.0446
 6294SOL    HW130344   2.871   2.690   5.596 -1.3676 -0.3285  0.3219
 6294SOL    HW230345   2.912   2.668   5.728 -0.5965  1.6885  1.7934
 6295SOL     OW30346   0.770   1.829  16.338  0.0982  0.1290 -0.3249
 6295SOL    HW130347   0.785   1.924  16.342  1.9940 -0.1449 -1.0560
 6295SOL    HW230348   0.753   1.812  16.430 -0.7403  2.2475 -0.0833
 6296SOL     OW30349   4.628   3.050   0.273  0.3009  0.1510 -0.0160
 6296SOL    HW130350   4.537   3.043   0.243  0.1699  2.0560 -0.0351
 6296SOL    HW230351   4.650   2.963   0.239 -1.7721 -0.5189  0.3707
 6297SOL     OW30352   3.992   3.399   5.351  0.0538 -0.4683  0.6641
 6297SOL    HW130353   4.044   3.320   5.334 -1.5573 -1.3153 -0.3855
 6297SOL    HW230354   4.040   3.466   5.303 -0.1539 -1.6936 -1.2971
 6298SOL     OW30355   2.875   0.695   1.735  0.1023 -1.0557  0.2848
 6298SOL    HW130356   2.789   0.682   1.695  0.9145 -1.3409 -1.3430
 6298SOL    HW230357   2.916   0.609   1.730  3.0012  0.3335  0.4888
 6299SOL     OW30358   3.139   4.434   7.145  0.2090  0.6234 -0.2097
 6299SOL    HW130359   3.120   4.456   7.053 -1.5715  1.1704  0.2964
 6299SOL    HW230360   3.192   4.511   7.169  2.5122 -1.2707  0.8354
 6300SOL     OW30361   0.803   4.106   5.324 -0.1573  0.7054 -0.2420
 6300SOL    HW130362   0.875   4.098   5.261 -2.1793  3.4668 -2.8488
 6300SOL    HW230363   0.772   4.192   5.298 -1.1498  0.6244  0.7051
 6301SOL     OW30364   3.808   4.259   6.117 -0.2226 -0.0406  0.2031
 6301SOL    HW130365   3.887   4.206   6.128 -0.6773 -0.3865  1.8575
 6301SOL    HW230366   3.763   4.242   6.200 -0.6400 -2.2785 -0.4882
 6302SOL     OW30367   4.267   0.696   8.135 -0.5788  0.2082  0.1724
 6302SOL    HW130368   4.267   0.688   8.040  1.7838 -0.0616  0.2071
 6302SOL    HW230369   4.259   0.604   8.160  0.9237  0.0465  0.0396
 6303SOL     OW30370   3.974   3.855   4.640 -0.1588  0.3008 -0.1619
 6303SOL    HW130371   3.929   3.842   4.724 -1.9871 -1.7674 -1.4896
 6303SOL    HW230372   3.915   3.896   4.577 -3.7392 -0.6280  2.6159
 6304SOL     OW30373   4.526   1.686   5.932 -0.3095  0.0338 -0.0152
 6304SOL    HW130374   4.443   1.669   5.977  0.5625 -0.6655  1.3207
 6304SOL    HW230375   4.583   1.618   5.966  1.7376  0.8703 -1.7842
 6305SOL     OW30376   1.341   3.010   4.761 -0.6508  0.4644  0.1303
 6305SOL    HW130377   1.260   3.060   4.773 -1.9749 -1.5345 -0.5287
 6305SOL    HW230378   1.316   2.960   4.683  0.2076  0.0382  0.1268
 6306SOL     OW30379   3.660   0.081   9.864 -0.1170 -0.4466 -0.2951
 6306SOL    HW130380   3.684   0.115   9.950 -2.5378 -2.4022  1.1439
 6306SOL    HW230381   3.740   0.099   9.814  1.0096 -2.8943  0.5814
 6307SOL     OW30382   3.789   3.211   7.696 -0.0075  0.1609  0.2455
 6307SOL    HW130383   3.845   3.142   7.661 -0.2252  0.2848 -0.3444
 6307SOL    HW230384   3.703   3.189   7.661  0.3421  0.4114 -0.7542
 6308SOL     OW30385   3.245   2.297  11.182 -0.1072  0.7088 -0.0753
 6308SOL    HW130386   3.237   2.293  11.277  0.6625 -1.8630 -0.1183
 6308SOL    HW230387   3.159   2.273  11.148 -0.1974 -1.1765  1.5445
 6309SOL     OW30388   3.675   4.560   6.360 -0.3479 -0.0992  0.5680
 6309SOL    HW130389   3.633   4.643   6.384 -0.1690  0.8579 -2.5084
 6309SOL    HW230390   3.600   4.501   6.365 -0.4390 -0.0991 -0.8997
 6310SOL     OW30391   0.853   0.281  12.576  0.4687  0.4162  0.6371
 6310SOL    HW130392   0.809   0.224  12.639 -0.4805 -0.8977 -1.2333
 6310SOL    HW230393   0.918   0.214  12.554 -0.8187 -1.1345  1.6106
 6311SOL     OW30394   1.584   3.715   4.786  0.2466 -0.0785  0.0224
 6311SOL    HW130395   1.562   3.785   4.726  0.2785  1.1427  1.4459
 6311SOL    HW230396   1.498   3.693   4.823 -0.2526  1.9633  0.0685
 6312SOL     OW30397   4.350   2.315   3.830 -0.1619 -0.4177  0.3335
 6312SOL    HW130398   4.280   2.279   3.884 -0.2445  0.3333  0.7309
 6312SOL    HW230399   4.384   2.238   3.785 -1.6393 -0.4879 -0.6432
 6313SOL     OW30400   0.696   0.445   2.116 -0.1026  0.0461 -0.1421
 6313SOL    HW130401   0.787   0.427   2.091  0.2095 -0.8745  1.6121
 6313SOL    HW230402   0.651   0.490   2.045 -2.4957 -0.6980  0.9073
 6314SOL     OW30403   0.265   1.955  15.376 -0.3981 -0.0952 -0.0415
 6314SOL    HW130404   0.227   2.012  15.442  0.3873  0.4207 -0.0374
 6314SOL    HW230405   0.244   1.875  15.425 -0.4776  0.5551  0.9879
 6315SOL     OW30406   4.034   2.438  16.123 -0.1776  0.4020 -0.3101
 6315SOL    HW130407   4.070   2.525  16.108  0.1191  0.1432 -1.0994
 6315SOL    HW230408   4.116   2.401  16.157 -1.9175 -0.9558  2.3467
 6316SOL     OW30409   0.222   3.402  13.238  0.1644 -0.0960  0.3910
 6316SOL    HW130410   0.181   3.319  13.264 -1.2272  0.6813  0.6507
 6316SOL    HW230411   0.174   3.461  13.296 -0.0458 -0.3538  0.4846
 6317SOL     OW30412   4.434   1.917   9.527  0.2908 -0.2170 -0.5132
 6317SOL    HW130413   4.378   1.937   9.453  0.8250  0.4454 -0.7308
 6317SOL    HW230414   4.492   1.846   9.497 -2.0560 -2.1644 -0.3888
 6318SOL     OW30415   3.123   2.786   9.510  0.2813  0.1992  0.1614
 6318SOL    HW130416   3.136   2.747   9.423  1.5383  1.2232 -0.1221
 6318SOL    HW230417   3.124   2.707   9.563 -2.2030 -1.2122 -1.9217
 6319SOL     OW30418   2.724   3.440   5.044 -0.2495 -0.0307 -0.0282
 6319SOL    HW130419   2.764   3.527   5.052  0.7298 -0.4572 -0.1856
 6319SOL    HW230420   2.642   3.444   5.092 -0.6932 -0.3998 -0.7574
 6320SOL     OW30421   2.387   4.247  16.794 -0.2734  0.5429 -0.0147
 6320SOL    HW130422   2.330   4.300  16.738  0.5593 -0.4988 -1.8198
 6320SOL    HW230423   2.311   4.241  16.853  0.4407  0.7013  0.9242
 6321SOL     OW30424   0.667   3.711  14.974  0.1409  0.6609  0.3629
 6321SOL    HW130425   0.750   3.703  15.020  0.5033 -0.5274 -0.5058
 6321SOL    HW230426   0.691   3.758  14.894 -0.6301 -0.1136 -0.3241
 6322SOL     OW30427   3.491   1.452  15.173 -0.0728 -0.3112 -1.3813
 6322SOL    HW130428   3.437   1.441  15.252  0.1650 -0.0042 -1.1772
 6322SOL    HW230429   3.553   1.390  15.211  0.1103  0.7910  0.1085
 6323SOL     OW30430   3.694   1.392   4.839  0.1747  0.1588 -0.0923
 6323SOL    HW130431   3.774   1.363   4.882 -0.5899 -0.1832  1.1099
 6323SOL    HW230432   3.722   1.472   4.796 -1.8569  1.4676  0.9670
 6324SOL     OW30433   0.188   2.328   6.040  0.1521 -0.5415  0.1806
 6324SOL    HW130434   0.094   2.312   6.047  0.3366 -2.5846 -2.0345
 6324SOL    HW230435   0.213   2.335   6.132  0.7487 -0.5345  0.0179
 6325SOL     OW30436   4.509   2.307   3.486  0.0539  0.3148  0.0876
 6325SOL    HW130437   4.494   2.386   3.434 -0.0110 -0.2647 -0.7788
 6325SOL    HW230438   4.579   2.266   3.435 -1.8941 -0.2680 -2.1149
 6326SOL     OW30439   0.141   1.746  11.107  0.1164 -0.0434 -0.1548
 6326SOL    HW130440   0.069   1.705  11.059 -1.6032  2.5764  0.2178
 6326SOL    HW230441   0.158   1.829  11.064  0.3447 -0.1184 -0.2110
 6327SOL     OW30442   1.794   0.480   2.544 -0.3289 -0.5982 -0.1900
 6327SOL    HW130443   1.823   0.426   2.618  2.1699  1.3417  0.2681
 6327SOL    HW230444   1.707   0.512   2.569  0.6971  1.0930  1.2499
 6328SOL     OW30445   0.946   0.588   5.839  0.0397  0.1214 -0.3280
 6328SOL    HW130446   1.013   0.589   5.771  0.9244  2.9631  0.5780
 6328SOL    HW230447   0.870   0.558   5.789 -0.9890 -0.4711  1.5584
 6329SOL     OW30448   0.914   0.154   2.100 -0.0089  0.2915  0.2585
 6329SOL    HW130449   0.821   0.145   2.083  0.2804  0.2431 -1.3128
 6329SOL    HW230450   0.946   0.138   2.011  0.2747 -2.1280  0.7802
 6330SOL     OW30451   1.781   0.451   8.549  0.1136 -0.3987  0.3772
 6330SOL    HW130452   1.779   0.546   8.540  0.9734 -0.7046 -2.8291
 6330SOL    HW230453   1.719   0.429   8.480  0.2209 -2.2001  0.8405
 6331SOL     OW30454   0.265   2.926   1.184 -0.8393  0.4589  0.1080
 6331SOL    HW130455   0.332   2.871   1.143 -1.8992 -0.6654 -0.1085
 6331SOL    HW230456   0.316   2.940   1.264 -3.5975 -2.6225  2.4206
 6332SOL     OW30457   1.243   1.556  12.312  0.2791 -0.1873 -0.4223
 6332SOL    HW130458   1.248   1.652  12.307  0.6431 -0.2125 -0.5388
 6332SOL    HW230459   1.275   1.540  12.400 -2.4750 -1.7944  0.2684
 6333SOL     OW30460   3.943   1.981   8.601  0.1817  0.3805 -0.1268
 6333SOL    HW130461   3.905   2.068   8.588 -1.3653 -0.0287  1.7600
 6333SOL    HW230462   3.890   1.923   8.548 -2.2575  0.5141  2.1886
 6334SOL     OW30463   1.223   4.163  15.441 -0.2058  0.3211 -0.1338
 6334SOL    HW130464   1.199   4.075  15.412  0.3533  0.3029 -0.5254
 6334SOL    HW230465   1.270   4.137  15.521 -1.5934  1.8246  1.1700
 6335SOL     OW30466   4.448   2.157   8.290  0.0901  0.6068 -0.6677
 6335SOL    HW130467   4.523   2.216   8.293  0.4867  0.1657 -1.5869
 6335SOL    HW230468   4.432   2.127   8.379 -0.0488  3.1769  0.1480
 6336SOL     OW30469   3.871   2.588  15.547 -0.0215  0.0868  0.2818
 6336SOL    HW130470   3.892   2.649  15.618 -1.0005  1.6758 -0.8002
 6336SOL    HW230471   3.937   2.614  15.483 -2.0693  1.7207 -1.1912
 6337SOL     OW30472   3.943   2.759  15.752 -0.6156 -0.2133 -0.0487
 6337SOL    HW130473   3.848   2.747  15.755 -0.7372  0.6807 -0.3735
 6337SOL    HW230474   3.951   2.841  15.802 -1.9787  0.1367 -0.3998
 6338SOL     OW30475   3.128   0.939  10.477  0.6281  0.0417 -0.0551
 6338SOL    HW130476   3.066   0.967  10.545 -0.3711 -1.2175 -0.4524
 6338SOL    HW230477   3.079   0.972  10.402  0.3047  2.4470  1.1888
 6339SOL     OW30478   2.448   3.073   2.990  1.0079 -0.3474  0.4254
 6339SOL    HW130479   2.516   3.127   3.031 -0.0578  0.2402  1.4234
 6339SOL    HW230480   2.474   2.981   3.001 -0.4647 -0.8602 -0.4426
 6340SOL     OW30481   2.296   1.761   4.894 -0.3972 -0.1741  0.2442
 6340SOL    HW130482   2.369   1.721   4.846 -1.1889 -0.4379 -0.7325
 6340SOL    HW230483   2.326   1.751   4.984 -0.5295 -0.7729  0.2223
 6341SOL     OW30484   2.448   2.034  12.717  0.6191  0.0290 -0.7924
 6341SOL    HW130485   2.472   2.012  12.807 -1.3799  2.6095  0.3750
 6341SOL    HW230486   2.495   2.117  12.716  1.4152 -0.3888  1.3582
 6342SOL     OW30487   1.361   1.814   1.996 -0.7895  0.1400  0.5765
 6342SOL    HW130488   1.400   1.871   1.930  2.6431 -1.9662  0.8054
 6342SOL    HW230489   1.277   1.859   2.003 -0.4150  0.8681  0.3757
 6343SOL     OW30490   2.455   2.307   5.422  0.1197 -1.3887 -0.2509
 6343SOL    HW130491   2.476   2.214   5.411  1.4557 -0.8902 -1.9361
 6343SOL    HW230492   2.522   2.355   5.373 -1.5540  0.5700 -0.6104
 6344SOL     OW30493   0.244   0.828   8.246 -0.0803  0.0375 -0.2888
 6344SOL    HW130494   0.163   0.865   8.281 -0.2028 -0.7388  0.2329
 6344SOL    HW230495   0.211   0.779   8.171 -1.7568 -0.0997  0.5555
 6345SOL     OW30496   0.432   1.354  12.283  0.2069  0.4602  0.2560
 6345SOL    HW130497   0.433   1.293  12.210 -0.6279  0.4684  0.2400
 6345SOL    HW230498   0.519   1.393  12.274 -0.0723  0.5175 -2.1948
 6346SOL     OW30499   4.321   4.479   5.904  0.5367  0.3858 -0.3464
 6346SOL    HW130500   4.290   4.472   5.814  0.0136  1.3702 -0.2481
 6346SOL    HW230501   4.238   4.467   5.950  0.8418 -0.8197 -0.1219
 6347SOL     OW30502   2.293   3.841   4.943 -0.0255 -0.4789 -0.4863
 6347SOL    HW130503   2.383   3.821   4.970  0.1727 -0.0108 -0.8048
 6347SOL    HW230504   2.274   3.758   4.899  1.4345  0.5676 -3.0435
 6348SOL     OW30505   4.674   3.762   6.531 -0.5996  0.3602  0.1664
 6348SOL    HW130506   4.646   3.679   6.493  2.0973 -0.3144 -0.3611
 6348SOL    HW230507   0.021   3.783   6.470  0.7526  0.0950  1.6349
 6349SOL     OW30508   2.063   3.285   6.395 -0.3428  0.2617  0.3628
 6349SOL    HW130509   2.048   3.192   6.414 -1.6845  0.3205 -0.4193
 6349SOL    HW230510   1.997   3.296   6.327 -1.4328  0.4450  1.4606
 6350SOL     OW30511   0.862   3.490   1.310  0.0090  0.0818  0.6477
 6350SOL    HW130512   0.828   3.516   1.225 -0.5382  1.1539  1.1907
 6350SOL    HW230513   0.824   3.553   1.371 -1.0350  1.5707 -1.5437
 6351SOL     OW30514   0.811   1.513   7.846 -0.1262  0.5220 -0.4645
 6351SOL    HW130515   0.772   1.574   7.784  1.4101  0.6885 -1.2567
 6351SOL    HW230516   0.905   1.527   7.834 -0.1532  1.1933  0.1179
 6352SOL     OW30517   2.449   3.279   4.863  0.0477 -0.4998  0.0635
 6352SOL    HW130518   2.412   3.280   4.951  0.8985  2.1351  0.3979
 6352SOL    HW230519   2.539   3.254   4.885 -0.2929 -0.2188  1.7560
 6353SOL     OW30520   0.820   4.097   2.080 -0.0490  0.4051 -0.0932
 6353SOL    HW130521   0.822   4.153   2.158 -1.0407 -0.0335  0.2467
 6353SOL    HW230522   0.740   4.125   2.036 -1.0375 -1.4849  0.5077
 6354SOL     OW30523   1.716   3.218   1.914 -0.5837  0.0761 -0.1487
 6354SOL    HW130524   1.793   3.179   1.956 -1.0151 -2.1268 -1.4452
 6354SOL    HW230525   1.679   3.144   1.868  0.1751  0.7389 -1.8096
 6355SOL     OW30526   1.479   0.516   6.618  0.6675 -0.1113  0.2847
 6355SOL    HW130527   1.532   0.531   6.540 -0.2937 -1.8900 -0.6839
 6355SOL    HW230528   1.488   0.421   6.617 -0.5687 -0.2046 -1.2068
 6356SOL     OW30529   0.362   0.438  10.094  0.0513 -0.1119 -0.3747
 6356SOL    HW130530   0.288   0.465  10.039 -0.3345 -1.3214 -0.4452
 6356SOL    HW230531   0.324   0.402  10.174 -2.4836 -0.3461 -1.7030
 6357SOL     OW30532   3.175   3.464  13.810 -0.3260  0.0069 -0.1367
 6357SOL    HW130533   3.206   3.474  13.900 -0.4915 -2.2144  0.1721
 6357SOL    HW230534   3.094   3.416  13.829  0.3838 -0.3660  2.0011
 6358SOL     OW30535   0.408   4.298  10.113  0.1814 -0.6667  0.2977
 6358SOL    HW130536   0.441   4.252  10.191  2.2989  0.4904  0.1016
 6358SOL    HW230537   0.315   4.291  10.132  0.6164  0.2269  2.8743
 6359SOL     OW30538   1.719   0.439  10.822  0.0701 -0.1096  0.1501
 6359SOL    HW130539   1.684   0.461  10.908 -1.1281 -0.1460 -0.3258
 6359SOL    HW230540   1.645   0.423  10.764 -0.2886  0.4061  0.4731
 6360SOL     OW30541   2.125   2.486   0.620  0.6582 -0.3228 -0.1256
 6360SOL    HW130542   2.093   2.486   0.529  1.2949  0.8642 -0.3435
 6360SOL    HW230543   2.096   2.401   0.653  1.5425 -0.4614  0.2733
 6361SOL     OW30544   1.701   3.655   0.302  0.2512 -0.3273 -0.1901
 6361SOL    HW130545   1.627   3.617   0.255  0.4044 -0.3052 -0.4464
 6361SOL    HW230546   1.761   3.680   0.232 -1.0354  2.6204 -0.2419
 6362SOL     OW30547   2.215   3.976  14.908 -0.2512 -0.3024  0.0451
 6362SOL    HW130548   2.230   3.952  14.999  2.9588 -1.6722 -0.8649
 6362SOL    HW230549   2.234   3.902  14.851 -1.9384 -1.5670  1.1162
 6363SOL     OW30550   2.595   1.011   2.123 -0.7528  0.0747 -0.2029
 6363SOL    HW130551   2.517   0.966   2.090  0.4337 -0.6354 -1.9623
 6363SOL    HW230552   2.591   0.991   2.217  0.4419  0.1433 -0.1391
 6364SOL     OW30553   0.630   1.990   7.535  0.1572 -0.0925  0.1702
 6364SOL    HW130554   0.561   2.024   7.478 -0.6818  2.2677  2.6372
 6364SOL    HW230555   0.669   2.069   7.573  2.1933 -0.8387 -0.3379
 6365SOL     OW30556   4.174   1.116   5.449 -0.3761  0.1918  0.5353
 6365SOL    HW130557   4.093   1.138   5.495 -1.9899 -0.9037 -1.8115
 6365SOL    HW230558   4.152   1.026   5.424 -0.8715  0.3180  0.5197
 6366SOL     OW30559   3.912   2.473   2.312  0.1119 -0.0731 -0.6049
 6366SOL    HW130560   3.867   2.554   2.287  0.5019  0.8038  1.5852
 6366SOL    HW230561   3.900   2.475   2.407  1.8760  1.2389 -0.4177
 6367SOL     OW30562   3.278   4.644   6.267 -0.2583 -0.0310  0.0926
 6367SOL    HW130563   3.279   4.556   6.305 -1.3939  1.0885  2.7148
 6367SOL    HW230564   3.359   4.674   6.309 -2.4313  1.2891  3.3175
 6368SOL     OW30565   4.502   0.798   6.685  0.3852 -0.0220  0.7304
 6368SOL    HW130566   4.579   0.843   6.720  1.0790  0.7073 -1.7089
 6368SOL    HW230567   4.463   0.868   6.633 -1.0977 -0.9684  0.5651
 6369SOL     OW30568   0.967   2.023   9.126  1.4754 -0.4890  0.1775
 6369SOL    HW130569   1.030   2.064   9.185  0.7885  2.1886 -0.9037
 6369SOL    HW230570   0.940   1.943   9.169 -0.1623  0.0557  0.1485
 6370SOL     OW30571   1.048   0.639   7.872 -0.1005 -0.6674 -0.0974
 6370SOL    HW130572   1.015   0.724   7.903 -0.6600 -0.6037 -0.8770
 6370SOL    HW230573   0.972   0.607   7.824 -1.1802 -0.0863  1.2261
 6371SOL     OW30574   2.809   2.502   7.651  0.2184 -0.1347 -0.3945
 6371SOL    HW130575   2.890   2.471   7.691 -0.2968 -1.2439 -0.2042
 6371SOL    HW230576   2.798   2.576   7.710  0.9264  1.3063 -2.0613
 6372SOL     OW30577   1.034   2.616   0.766 -0.3629 -0.4740  0.0574
 6372SOL    HW130578   1.106   2.583   0.711  0.2602  1.7135 -0.4699
 6372SOL    HW230579   1.063   2.708   0.773 -1.4163 -0.0297 -1.5100
 6373SOL     OW30580   1.139   2.157   2.386 -0.4251  0.5804 -0.3157
 6373SOL    HW130581   1.091   2.076   2.402  2.6261 -1.1114  0.3080
 6373SOL    HW230582   1.148   2.178   2.479  1.6738  0.2500 -0.4485
 6374SOL     OW30583   1.016   3.064   3.885  0.0102 -0.5889 -0.5356
 6374SOL    HW130584   1.088   3.073   3.948 -0.0835 -1.3296 -0.3186
 6374SOL    HW230585   1.064   3.086   3.805  3.3247 -1.8977  1.0822
 6375SOL     OW30586   1.721   4.475   8.646  0.2016  0.1303 -0.6428
 6375SOL    HW130587   1.639   4.507   8.684 -0.4256 -2.8743  0.5581
 6375SOL    HW230588   1.771   4.535   8.701  1.8199 -1.5139 -0.2755
 6376SOL     OW30589   1.587   3.803   0.049  0.3126 -0.1451 -0.0841
 6376SOL    HW130590   1.548   3.741  17.686 -0.1673  0.7624 -0.6842
 6376SOL    HW230591   1.516   3.863   0.073  2.0314  1.4586  0.9977
 6377SOL     OW30592   3.635   4.581   4.582 -0.3052 -0.3384 -0.9713
 6377SOL    HW130593   3.550   4.537   4.591 -0.9774  0.7112 -2.0660
 6377SOL    HW230594   3.654   4.581   4.676 -0.7802 -2.0360 -0.8765
 6378SOL     OW30595   1.262   3.517   1.601  0.2414  0.2784 -0.0751
 6378SOL    HW130596   1.327   3.537   1.533 -0.9170  1.8910 -0.7116
 6378SOL    HW230597   1.274   3.588   1.664  0.0625  0.9098 -0.7528
 6379SOL     OW30598   0.989   2.034   3.379 -0.5124 -0.3511 -0.0217
 6379SOL    HW130599   1.006   1.949   3.421 -3.9819 -0.8713  0.2816
 6379SOL    HW230600   0.983   2.096   3.451  1.8061 -0.4898  0.3149
 6380SOL     OW30601   0.383   1.890   1.162 -0.3214 -0.2460  0.2900
 6380SOL    HW130602   0.369   1.856   1.073  2.7297 -0.9094  0.0711
 6380SOL    HW230603   0.335   1.823   1.210 -0.9422 -0.1907 -0.2448
 6381SOL     OW30604   0.081   3.431   6.508  0.0870  0.3809  0.3363
 6381SOL    HW130605   4.722   3.475   6.491  0.1955  0.7936  0.8532
 6381SOL    HW230606   0.105   3.465   6.594 -0.8435  2.7945 -0.3510
 6382SOL     OW30607   2.277   2.915   1.394 -0.2182 -0.7354  0.2066
 6382SOL    HW130608   2.272   3.000   1.352  1.2622 -0.2227  1.0918
 6382SOL    HW230609   2.367   2.898   1.367  0.0373  0.3964  0.3600
 6383SOL     OW30610   3.296   1.487  11.834  0.1666 -0.3670  0.1164
 6383SOL    HW130611   3.213   1.534  11.840  0.2525 -0.3516  1.1802
 6383SOL    HW230612   3.285   1.423  11.904  0.8414  0.7364  1.2509
 6384SOL     OW30613   2.754   1.969   4.320 -0.4452  0.5352  0.3776
 6384SOL    HW130614   2.686   1.927   4.268 -0.9686  1.0568  0.6426
 6384SOL    HW230615   2.742   1.929   4.406 -2.8612  0.9768  0.2450
 6385SOL     OW30616   4.368   4.590   7.667 -0.3414  0.1553  0.1155
 6385SOL    HW130617   4.453   4.631   7.681 -0.4851  1.2610 -2.2299
 6385SOL    HW230618   4.375   4.575   7.573 -1.2431  2.4710 -0.3067
 6386SOL     OW30619   0.178   2.464   7.861  0.5989 -0.2106 -0.0916
 6386SOL    HW130620   0.116   2.497   7.926 -0.7071 -2.8685  0.0323
 6386SOL    HW230621   0.242   2.421   7.917 -1.2001 -1.4922  0.9807
 6387SOL     OW30622   3.424   3.580   1.931  0.4555 -0.1873  0.3326
 6387SOL    HW130623   3.478   3.535   1.995  0.3030 -0.9549 -0.0826
 6387SOL    HW230624   3.365   3.632   1.986  1.1599  0.8694  0.0902
 6388SOL     OW30625   4.677   2.011  10.646  0.0853 -0.6995  0.0919
 6388SOL    HW130626   4.698   2.074  10.714  1.8934  1.5847 -2.5993
 6388SOL    HW230627   0.042   1.978  10.636 -0.5903 -2.1251 -1.3670
 6389SOL     OW30628   0.004   4.327   1.768 -0.0043  0.0099  0.4176
 6389SOL    HW130629   4.704   4.402   1.715  0.3242  1.3517  2.1547
 6389SOL    HW230630   0.039   4.268   1.701  1.6729  2.8825 -1.2373
 6390SOL     OW30631   1.691   0.064   8.465  0.4229  0.5122 -0.3651
 6390SOL    HW130632   1.634   0.003   8.512 -2.5098  2.3964 -1.4867
 6390SOL    HW230633   1.621   0.121   8.434  0.5546  1.6344  1.3593
 6391SOL     OW30634   2.009   1.935  13.092 -0.5932 -0.6207  0.0784
 6391SOL    HW130635   2.036   1.846  13.070 -0.3571 -0.4838 -0.1753
 6391SOL    HW230636   1.948   1.910  13.162 -1.7633  0.8095 -0.4346
 6392SOL     OW30637   1.365   1.631   5.651 -0.4854 -0.2066  0.0592
 6392SOL    HW130638   1.352   1.575   5.575 -0.0912  0.4954 -0.5297
 6392SOL    HW230639   1.366   1.719   5.614 -2.0225  0.9014  2.6184
 6393SOL     OW30640   1.960   0.756   6.397 -0.0656  0.2387  0.3376
 6393SOL    HW130641   1.990   0.816   6.466  1.0448 -1.2330  1.1346
 6393SOL    HW230642   1.865   0.761   6.409 -0.4228 -1.6405 -1.8275
 6394SOL     OW30643   1.462   3.862   7.340  0.0366  0.2621 -0.2416
 6394SOL    HW130644   1.367   3.846   7.345  0.2329 -1.0090 -0.7703
 6394SOL    HW230645   1.489   3.822   7.258  0.4828 -0.1011  0.0913
 6395SOL     OW30646   2.039   0.615   2.906  0.5471 -0.0993  0.2342
 6395SOL    HW130647   2.092   0.634   2.828  0.3761  0.0955  0.1668
 6395SOL    HW230648   1.951   0.604   2.871  0.8575 -0.0836 -0.5574
 6396SOL     OW30649   3.072   3.440   0.578  0.3078 -0.1155 -0.3937
 6396SOL    HW130650   3.018   3.500   0.527  0.6633 -1.4658 -2.3628
 6396SOL    HW230651   3.011   3.367   0.585  0.5782 -0.2557  0.4762
 6397SOL     OW30652   2.389   4.497   6.072  0.3059 -0.5948 -0.3916
 6397SOL    HW130653   2.314   4.445   6.042 -0.3484  0.0062  0.2000
 6397SOL    HW230654   2.458   4.482   6.008 -0.1534 -2.4949 -0.4691
 6398SOL     OW30655   2.242   0.761   0.894 -0.7154 -0.0285  0.3092
 6398SOL    HW130656   2.314   0.775   0.833 -0.4587 -0.5883  0.4827
 6398SOL    HW230657   2.233   0.666   0.882  0.9910 -0.1152 -0.3433
 6399SOL     OW30658   3.576   2.247   7.875  0.0895 -0.2032 -0.1216
 6399SOL    HW130659   3.645   2.214   7.932  1.3234 -1.6025 -2.3944
 6399SOL    HW230660   3.567   2.340   7.896  0.6991  0.3994 -2.5268
 6400SOL     OW30661   1.458   0.148  10.699 -0.0202 -0.4699  0.5168
 6400SOL    HW130662   1.392   0.168  10.633  1.7112 -0.4305 -1.1724
 6400SOL    HW230663   1.492   0.236  10.714 -1.8642 -0.5051  5.0115
 6401SOL     OW30664   1.670   2.897   1.219 -0.2298  0.1125 -0.0926
 6401SOL    HW130665   1.729   2.968   1.244 -0.0750  1.1351 -3.2804
 6401SOL    HW230666   1.639   2.858   1.301  0.0634 -0.2519 -0.1518
 6402SOL     OW30667   1.106   1.763  12.963  0.2002 -0.0375  0.5170
 6402SOL    HW130668   1.016   1.737  12.941  0.8764 -0.8132 -1.2939
 6402SOL    HW230669   1.120   1.727  13.051 -2.2756  0.5278  1.1459
 6403SOL     OW30670   3.240   1.750   5.769  0.1203  0.2426 -0.5862
 6403SOL    HW130671   3.166   1.788   5.719  0.2383  0.0017 -0.9444
 6403SOL    HW230672   3.211   1.768   5.858 -2.2871  1.4738 -1.6147
 6404SOL     OW30673   0.483   4.417   7.987 -0.3135 -0.7997 -0.6494
 6404SOL    HW130674   0.539   4.381   8.056 -0.0271 -0.1373 -0.5331
 6404SOL    HW230675   0.544   4.482   7.952 -0.5092  0.0481  0.5992
 6405SOL     OW30676   4.127   2.552   8.486 -0.0471  0.1822  0.1226
 6405SOL    HW130677   4.140   2.542   8.581 -0.5704 -0.7402  0.0984
 6405SOL    HW230678   4.038   2.520   8.474  0.2154 -1.3243  2.0539
 6406SOL     OW30679   0.687   2.051   2.540 -0.2077 -0.2986 -0.1364
 6406SOL    HW130680   0.645   2.001   2.609 -1.5224  2.4801  1.0752
 6406SOL    HW230681   0.748   1.984   2.511 -1.8489 -1.7482 -0.2256
 6407SOL     OW30682   1.802   2.509   1.355 -0.0090 -0.2155 -0.0767
 6407SOL    HW130683   1.720   2.472   1.323  0.0028 -3.0405  3.1860
 6407SOL    HW230684   1.792   2.486   1.447 -0.7452 -2.2552 -0.6779
 6408SOL     OW30685   2.676   4.202   8.291  0.4147 -0.6711  0.0734
 6408SOL    HW130686   2.667   4.111   8.319 -3.4966 -0.9670 -2.2081
 6408SOL    HW230687   2.645   4.256   8.363 -1.4031 -1.6615  0.0505
 6409SOL     OW30688   2.991   3.688   2.104 -0.2154 -0.1065 -0.2516
 6409SOL    HW130689   2.913   3.657   2.150  0.2431 -0.8725  0.0020
 6409SOL    HW230690   2.963   3.713   2.016 -2.7358 -0.2065  0.5296
 6410SOL     OW30691   1.442   2.811   1.118 -0.8957  0.6137 -0.0356
 6410SOL    HW130692   1.526   2.850   1.143  0.0580 -1.1533 -0.5004
 6410SOL    HW230693   1.412   2.779   1.203  0.0265  0.1374  0.1139
 6411SOL     OW30694   4.280   2.828   1.335  0.2151 -0.5278  0.1330
 6411SOL    HW130695   4.372   2.849   1.317  0.4414 -0.7370  1.0322
 6411SOL    HW230696   4.252   2.864   1.420 -0.7931  1.0313 -0.8547
 6412SOL     OW30697   3.830   1.883   4.330  0.4306 -0.2225  0.0543
 6412SOL    HW130698   3.921   1.855   4.340 -0.3775 -2.4645  1.3900
 6412SOL    HW230699   3.789   1.802   4.298 -1.6494  1.7535 -2.2264
 6413SOL     OW30700   3.030   0.063   6.255  0.0815 -0.1003  0.2986
 6413SOL    HW130701   2.992   0.041   6.170 -0.2801  0.1642  0.3924
 6413SOL    HW230702   3.117   0.023   6.252 -0.9183 -2.1123 -1.2648
 6414SOL     OW30703   2.856   1.262   1.361  0.2100  0.3060 -0.2161
 6414SOL    HW130704   2.886   1.346   1.325 -1.3694  1.1318  0.3973
 6414SOL    HW230705   2.800   1.295   1.431 -0.0498 -1.5514  0.4294
 6415SOL     OW30706   4.492   3.952   2.005 -0.3983  0.2077 -0.1164
 6415SOL    HW130707   4.448   3.900   2.073 -0.3149 -0.1737 -0.3502
 6415SOL    HW230708   4.474   4.040   2.036 -2.3701 -0.6113  1.0898
 6416SOL     OW30709   3.732   4.437  16.340 -0.5495 -0.0260  0.0577
 6416SOL    HW130710   3.773   4.506  16.392  0.7905  0.9895 -2.3706
 6416SOL    HW230711   3.728   4.360  16.396  0.6127  1.0460  1.6209
 6417SOL     OW30712   3.003   0.115   5.295  0.3506  0.0615  0.0301
 6417SOL    HW130713   2.973   0.058   5.224  2.6044 -3.3213  1.8238
 6417SOL    HW230714   2.936   0.183   5.285  0.6047  0.2606 -0.2951
 6418SOL     OW30715   4.720   3.300  16.583 -0.2804 -0.2621  0.0385
 6418SOL    HW130716   4.664   3.284  16.659 -0.6229  0.4143 -0.0622
 6418SOL    HW230717   0.014   3.211  16.555  0.3520  0.3692 -1.6123
 6419SOL     OW30718   4.001   0.007   8.557 -0.6039 -0.2648  0.6032
 6419SOL    HW130719   4.070   0.072   8.572 -0.5320  0.4504 -2.7861
 6419SOL    HW230720   4.046   4.651   8.582 -1.6123 -0.4878  1.7327
 6420SOL     OW30721   0.082   0.093   2.530 -0.0291 -0.0808  0.0709
 6420SOL    HW130722   4.723   0.138   2.514 -0.4591 -0.7251  0.4926
 6420SOL    HW230723   0.059   0.002   2.509  0.8655  0.0428 -1.4499
 6421SOL     OW30724   3.126   1.505   1.772  0.5597  0.2135  0.6452
 6421SOL    HW130725   3.181   1.584   1.776 -0.6168  1.1243 -1.3796
 6421SOL    HW230726   3.086   1.532   1.690 -0.8697 -0.3018  1.1800
 6422SOL     OW30727   0.251   2.429   7.427 -0.2233  0.2166  0.1862
 6422SOL    HW130728   0.229   2.371   7.499  0.8515 -1.2828 -0.7002
 6422SOL    HW230729   0.288   2.364   7.367 -1.3765 -1.4624  1.2956
 6423SOL     OW30730   2.210   1.000   7.564 -0.3454 -0.1017 -0.6111
 6423SOL    HW130731   2.220   1.020   7.657 -0.8489  2.6331 -1.1407
 6423SOL    HW230732   2.121   1.029   7.545 -0.3297 -0.2084 -0.8522
 6424SOL     OW30733   0.904   3.941   8.222  0.3322 -0.1103  0.4011
 6424SOL    HW130734   0.902   4.031   8.189  0.3414 -1.4045 -3.1577
 6424SOL    HW230735   0.948   3.903   8.146  1.6400  1.6835  0.2599
 6425SOL     OW30736   4.615   0.429   5.016 -0.0971  0.3527  0.0031
 6425SOL    HW130737   4.625   0.498   5.082  2.2428  1.2253 -1.2374
 6425SOL    HW230738   4.552   0.470   4.957  0.9030 -1.1263 -2.0916
 6426SOL     OW30739   2.207   2.568  16.822 -0.4984 -0.5538  0.3088
 6426SOL    HW130740   2.169   2.652  16.795  0.8719 -0.8697 -2.5720
 6426SOL    HW230741   2.292   2.588  16.783 -0.1109  2.2928  2.6193
 6427SOL     OW30742   3.596   4.562   9.927 -0.7457 -0.2200 -0.4158
 6427SOL    HW130743   3.510   4.599   9.948  0.0498  1.9137 -1.0031
 6427SOL    HW230744   3.635   4.649   9.917 -0.8784  0.0568  1.3760
 6428SOL     OW30745   3.850   3.461   6.518 -0.3219  0.5456 -0.1477
 6428SOL    HW130746   3.898   3.378   6.514  0.5720  1.0579  0.0234
 6428SOL    HW230747   3.796   3.444   6.595  0.4517  1.5875  0.6216
 6429SOL     OW30748   4.524   3.473   4.489  0.7675 -0.1911 -0.0555
 6429SOL    HW130749   4.538   3.403   4.426 -1.5442 -1.1222  0.4617
 6429SOL    HW230750   4.429   3.487   4.492  0.7714 -0.2038  0.1313
 6430SOL     OW30751   3.257   3.700  15.911 -0.2627 -0.1911 -0.5882
 6430SOL    HW130752   3.239   3.622  15.859 -2.7467 -0.3575  0.5302
 6430SOL    HW230753   3.348   3.708  15.881 -0.3458 -0.3705 -0.8818
 6431SOL     OW30754   3.049   4.253  16.325  0.3409 -0.2427  0.1443
 6431SOL    HW130755   3.116   4.317  16.349  0.0436  0.5285 -1.1317
 6431SOL    HW230756   3.016   4.294  16.245  1.2435 -0.8452 -0.5485
 6432SOL     OW30757   1.436   0.597   3.000 -0.2010  0.0052  0.7437
 6432SOL    HW130758   1.494   0.662   3.040  2.0969 -0.9505 -0.9771
 6432SOL    HW230759   1.504   0.529   2.997  0.1268  0.3203  1.0368
 6433SOL     OW30760   3.328   2.244   2.059  0.4251  0.4643 -0.3546
 6433SOL    HW130761   3.363   2.208   2.141 -0.9671 -0.8726 -0.3583
 6433SOL    HW230762   3.263   2.177   2.038 -1.8747  2.0226  1.8677
 6434SOL     OW30763   2.634   4.586   6.281 -0.2239  0.1592  0.1691
 6434SOL    HW130764   2.637   4.649   6.209 -1.6703 -0.6961 -0.6366
 6434SOL    HW230765   2.675   4.640   6.349 -0.6340  1.5927 -0.7063
 6435SOL     OW30766   3.721   1.594   2.443  0.6730 -0.0424  0.3112
 6435SOL    HW130767   3.791   1.614   2.505 -0.6338  1.7387  1.1903
 6435SOL    HW230768   3.650   1.655   2.465  0.4767  0.0769 -0.6502
 6436SOL     OW30769   0.667   1.039  12.814  0.0675 -0.4139 -0.1388
 6436SOL    HW130770   0.622   1.051  12.898  0.1954  0.7325 -0.2234
 6436SOL    HW230771   0.759   1.033  12.841  0.9225  1.3360 -2.6297
 6437SOL     OW30772   0.293   1.191   8.443 -0.5897  0.1303  0.8423
 6437SOL    HW130773   0.233   1.176   8.516 -0.3653  1.0595  1.2161
 6437SOL    HW230774   0.266   1.280   8.420 -0.5419  0.5355  2.3405
 6438SOL     OW30775   0.599   4.154   8.783 -0.2318  0.6998  0.3008
 6438SOL    HW130776   0.513   4.127   8.815  0.5979  0.1301  2.0094
 6438SOL    HW230777   0.649   4.074   8.798 -1.6871 -0.3858 -0.5881
 6439SOL     OW30778   3.723   2.288   0.376 -0.1592 -0.1645  0.0842
 6439SOL    HW130779   3.797   2.232   0.355  0.4368  0.6301  0.0698
 6439SOL    HW230780   3.741   2.316   0.465 -0.8203 -1.7089  0.6996
 6440SOL     OW30781   3.195   0.856   4.361 -0.2352  0.3134  0.4203
 6440SOL    HW130782   3.174   0.948   4.350  0.5679  0.5357  0.8112
 6440SOL    HW230783   3.210   0.840   4.268 -1.2809  1.5356  0.0455
 6441SOL     OW30784   0.002   3.370  16.977 -0.2553 -0.1536  0.0252
 6441SOL    HW130785   0.091   3.391  16.947 -0.1227 -0.8153 -0.0495
 6441SOL    HW230786   0.019   3.286  17.019 -0.3332 -0.0645  0.2366
 6442SOL     OW30787   3.570   1.969   1.888 -0.0078  0.7122 -0.0363
 6442SOL    HW130788   3.588   2.058   1.916 -0.2606 -0.1803  2.9594
 6442SOL    HW230789   3.526   1.940   1.968 -0.0440 -1.0575 -0.6894
 6443SOL     OW30790   0.149   2.194  11.029 -1.1375 -0.2791  0.3996
 6443SOL    HW130791   0.099   2.200  11.110  1.0019  0.6562  1.6340
 6443SOL    HW230792   0.078   2.205  10.966 -1.3451  2.2951  1.0999
 6444SOL     OW30793   2.248   4.026   6.229 -0.2394 -0.0252  0.6688
 6444SOL    HW130794   2.335   3.985   6.228  0.2122  0.9291  0.8469
 6444SOL    HW230795   2.267   4.093   6.295 -2.2148  2.1606 -1.0057
 6445SOL     OW30796   3.325   1.384   5.937  0.1686 -0.0151 -0.2543
 6445SOL    HW130797   3.246   1.434   5.915  0.3353  1.0134  1.4989
 6445SOL    HW230798   3.364   1.361   5.852 -0.2752 -0.1283 -0.4279
 6446SOL     OW30799   1.444   2.513  10.348 -0.2713  0.2381  0.7268
 6446SOL    HW130800   1.392   2.450  10.298  1.3566 -0.9480  0.5397
 6446SOL    HW230801   1.404   2.598  10.333  0.7779  0.8093  1.2144
 6447SOL     OW30802   0.225   1.739   4.977  0.7613 -0.3603 -0.3337
 6447SOL    HW130803   0.238   1.688   5.057  3.8509  0.5955 -0.2286
 6447SOL    HW230804   0.130   1.730   4.969  0.7880 -0.6622 -0.3015
 6448SOL     OW30805   2.845   2.051   9.088 -1.0843 -0.3384  0.4587
 6448SOL    HW130806   2.770   2.068   9.144 -1.8732  1.4048 -1.1334
 6448SOL    HW230807   2.845   2.127   9.030  1.7518  0.2554  1.2264
 6449SOL     OW30808   2.898   1.668   3.491  0.1398 -0.3727  0.0878
 6449SOL    HW130809   2.808   1.698   3.477  0.0287  0.3895  2.5534
 6449SOL    HW230810   2.896   1.583   3.447 -1.3751 -0.3589  0.1333
 6450SOL     OW30811   1.716   3.512   2.907  0.4163  0.2165 -0.4096
 6450SOL    HW130812   1.631   3.480   2.877  0.9945 -1.5085 -0.2364
 6450SOL    HW230813   1.705   3.607   2.912 -3.0426 -0.0775 -2.2968
 6451SOL     OW30814   1.982   3.653   4.821 -0.0495  0.7600  0.0059
 6451SOL    HW130815   1.971   3.584   4.887  2.2372  1.6898  1.3444
 6451SOL    HW230816   1.970   3.722   4.887  3.8011 -0.7435  2.2618
 6452SOL     OW30817   1.677   2.971   3.502  0.7309  0.2316  0.0541
 6452SOL    HW130818   1.718   2.967   3.588  0.3282 -1.0216  0.1928
 6452SOL    HW230819   1.605   2.908   3.511 -0.6365  1.5955 -1.3498
 6453SOL     OW30820   4.166   0.632   7.433  0.8061 -0.1756  0.5510
 6453SOL    HW130821   4.118   0.705   7.472 -1.4404 -0.8711 -0.9074
 6453SOL    HW230822   4.103   0.561   7.441 -1.2776  1.6140  0.0544
 6454SOL     OW30823   3.384   1.411   7.246  0.4438 -0.3504  0.7414
 6454SOL    HW130824   3.290   1.427   7.236  0.9375  1.1886 -1.6064
 6454SOL    HW230825   3.403   1.400   7.339  1.9600 -2.0202  0.2454
 6455SOL     OW30826   2.806   0.994  12.042  0.0372 -0.0637  0.0512
 6455SOL    HW130827   2.894   0.956  12.042 -0.1560 -0.5127  1.2018
 6455SOL    HW230828   2.794   1.001  12.136  1.2244 -3.4087  0.4280
 6456SOL     OW30829   3.643   4.306   8.041  0.0156 -0.1579 -0.4107
 6456SOL    HW130830   3.696   4.370   7.993  0.8342 -0.8205 -0.3851
 6456SOL    HW230831   3.559   4.352   8.044  1.0100  1.7107 -1.7891
 6457SOL     OW30832   1.639   2.417  10.514 -0.5691 -0.1370 -0.0837
 6457SOL    HW130833   1.629   2.490  10.576  0.0793  1.3670 -1.7548
 6457SOL    HW230834   1.572   2.430  10.446  1.1858  0.3160 -1.7167
 6458SOL     OW30835   3.314   1.903  13.751 -0.1984  0.2891  0.6662
 6458SOL    HW130836   3.220   1.901  13.769 -0.1758 -0.9182  0.6387
 6458SOL    HW230837   3.298   1.859  13.668 -3.2765  1.4342  0.6288
 6459SOL     OW30838   3.810   0.500  16.262 -0.4492 -0.1571 -0.8484
 6459SOL    HW130839   3.860   0.484  16.342 -2.8875 -0.5175  0.6146
 6459SOL    HW230840   3.880   0.528  16.204  1.4238 -1.4903  0.7662
 6460SOL     OW30841   1.659   3.112  11.640 -0.1081  0.1961  0.3652
 6460SOL    HW130842   1.632   3.025  11.671 -1.4018  0.8914  1.1682
 6460SOL    HW230843   1.674   3.166  11.718  2.9754  1.2278 -0.9367
 6461SOL     OW30844   4.127   0.783   2.779 -0.5109 -0.0898  0.0124
 6461SOL    HW130845   4.112   0.843   2.852  1.3296  0.8127 -0.3574
 6461SOL    HW230846   4.079   0.713   2.823 -2.9410  0.7903 -1.2238
 6462SOL     OW30847   1.947   4.246   9.115 -0.0193  0.2871  0.1718
 6462SOL    HW130848   1.977   4.185   9.182 -1.8049 -1.6676 -0.8015
 6462SOL    HW230849   1.855   4.256   9.142  0.0554 -0.9786  0.8925
 6463SOL     OW30850   1.679   0.122  16.515  0.4913  0.1492  0.2163
 6463SOL    HW130851   1.617   0.130  16.443  0.3146  0.5633  0.4154
 6463SOL    HW230852   1.650   0.195  16.570  0.2184  1.0695 -1.1446
 6464SOL     OW30853   2.939   3.537  11.718 -0.2102 -0.3842 -0.5045
 6464SOL    HW130854   2.925   3.625  11.682  1.2942 -0.7856 -2.0523
 6464SOL    HW230855   2.993   3.488  11.656  1.6623  0.1893  0.6727
 6465SOL     OW30856   0.624   3.107   6.401  0.8858  0.9922  0.2810
 6465SOL    HW130857   0.643   3.200   6.388 -1.4078  1.2525 -1.1855
 6465SOL    HW230858   0.710   3.065   6.398  0.2030 -0.4998  1.6645
 6466SOL     OW30859   2.117   1.071   9.680 -0.2300  0.2272  0.3406
 6466SOL    HW130860   2.147   1.100   9.766  1.4084 -0.7302  0.0945
 6466SOL    HW230861   2.022   1.075   9.695 -0.4296 -0.3933 -0.8044
 6467SOL     OW30862   3.378   3.102  15.419  0.9205 -0.0923  0.6783
 6467SOL    HW130863   3.410   3.134  15.503  0.0321 -1.0751  1.3999
 6467SOL    HW230864   3.315   3.166  15.388  1.1147 -0.2722 -0.0881
 6468SOL     OW30865   2.940   4.541   7.969  0.4834  0.3096 -0.5221
 6468SOL    HW130866   2.848   4.529   7.994  1.0223 -1.9809  0.4074
 6468SOL    HW230867   2.939   4.620   7.916  2.6743  1.5369  1.3005
 6469SOL     OW30868   2.292   3.288   5.798  0.1088  0.2114 -0.1872
 6469SOL    HW130869   2.378   3.279   5.840 -0.1268  1.4452  0.5583
 6469SOL    HW230870   2.306   3.361   5.738  0.2159  1.3079  1.1708
 6470SOL     OW30871   1.831   4.293   3.498 -0.2754 -0.4619  0.4984
 6470SOL    HW130872   1.864   4.203   3.499 -5.0692 -2.2380 -0.4029
 6470SOL    HW230873   1.795   4.297   3.409 -1.5196 -1.1943  0.9704
 6471SOL     OW30874   2.599   4.501   6.809  0.3355 -0.2878  0.2645
 6471SOL    HW130875   2.689   4.503   6.778  0.7560  2.4645  1.6025
 6471SOL    HW230876   2.594   4.406   6.821  0.7187 -0.2410  0.7813
 6472SOL     OW30877   0.759   1.690   2.208  0.0289 -0.6281 -0.1064
 6472SOL    HW130878   0.692   1.731   2.263  1.8326 -1.4479  2.7288
 6472SOL    HW230879   0.765   1.601   2.242  1.8795 -0.9944 -1.3793
 6473SOL     OW30880   3.604   3.279   0.640  0.0407 -0.7881  0.3001
 6473SOL    HW130881   3.671   3.316   0.697  0.3633 -0.9141  0.0037
 6473SOL    HW230882   3.543   3.227   0.691 -1.6057  1.3227  0.4745
 6474SOL     OW30883   0.276   4.130  12.764  0.8132 -0.2849  0.5968
 6474SOL    HW130884   0.309   4.170  12.845  0.2539  0.3479  0.5153
 6474SOL    HW230885   0.207   4.072  12.795 -1.9535  1.1051 -2.9643
 6475SOL     OW30886   3.232   1.219   6.111 -0.1119 -0.1774 -0.6595
 6475SOL    HW130887   3.290   1.281   6.066  2.8716 -2.1175  0.5108
 6475SOL    HW230888   3.275   1.134   6.098  0.7042 -0.0992  1.5491
 6476SOL     OW30889   3.231   1.110   9.600  0.1772 -0.2710 -0.5483
 6476SOL    HW130890   3.187   1.119   9.684  2.2100 -1.3721  0.6386
 6476SOL    HW230891   3.162   1.137   9.539  0.0193  1.9072  0.5822
 6477SOL     OW30892   4.553   0.769   8.107  0.1598 -0.0184  0.2831
 6477SOL    HW130893   4.461   0.791   8.091  0.4380  0.7778 -0.1984
 6477SOL    HW230894   4.597   0.774   8.022 -1.5260 -0.2889 -0.6212
 6478SOL     OW30895   4.514   3.285  17.342  1.0026 -0.4909 -0.3706
 6478SOL    HW130896   4.419   3.282  17.353  1.2716 -0.4806  1.9134
 6478SOL    HW230897   4.534   3.375  17.369  1.2121 -0.3582 -0.9628
 6479SOL     OW30898   4.090   2.240   0.926 -0.3361 -0.3277 -0.6036
 6479SOL    HW130899   4.077   2.304   0.996 -1.0868 -1.4288  0.2600
 6479SOL    HW230900   4.014   2.185   0.943 -0.5136  0.6166  1.6308
 6480SOL     OW30901   4.066   0.158  15.107  0.5377 -0.1895 -0.0080
 6480SOL    HW130902   4.126   0.219  15.066 -0.0860  0.0935 -0.5019
 6480SOL    HW230903   4.000   0.221  15.137 -1.3789 -1.8343 -0.7842
 6481SOL     OW30904   3.711   2.956   2.869 -0.0602 -0.2009 -0.2632
 6481SOL    HW130905   3.779   3.002   2.918  0.2967 -1.1655  0.1419
 6481SOL    HW230906   3.649   2.923   2.933  1.8431  0.2314  1.7970
 6482SOL     OW30907   0.377   1.690  15.947  0.0730  0.3410  0.0801
 6482SOL    HW130908   0.424   1.736  16.017  0.8824  1.6269 -1.3299
 6482SOL    HW230909   0.284   1.692  15.970  0.1604 -1.9853  0.6390
 6483SOL     OW30910   0.209   2.253  14.738  0.0017 -0.0942 -0.1953
 6483SOL    HW130911   0.198   2.279  14.830 -1.0547 -3.0027  0.5059
 6483SOL    HW230912   0.126   2.276  14.698  0.1507 -1.0188 -1.0387
 6484SOL     OW30913   4.203   1.818   0.557 -0.0150  0.0902  0.0410
 6484SOL    HW130914   4.263   1.884   0.521  1.3396 -0.3088  1.5733
 6484SOL    HW230915   4.172   1.858   0.638  3.7237 -0.9086  1.9515
 6485SOL     OW30916   1.138   3.455   1.359  0.2868 -0.4811  0.2431
 6485SOL    HW130917   1.159   3.485   1.448 -0.0503 -0.9978  0.5025
 6485SOL    HW230918   1.051   3.493   1.348  1.3425  1.6507 -0.5114
 6486SOL     OW30919   3.187   0.854   5.544  0.1914  0.0591  0.0185
 6486SOL    HW130920   3.229   0.931   5.582 -0.9051  0.5367  0.2566
 6486SOL    HW230921   3.164   0.900   5.463 -0.6374  0.6534  0.5902
 6487SOL     OW30922   3.346   0.855  16.998 -0.3728  0.5441  0.3179
 6487SOL    HW130923   3.345   0.819  17.087 -1.2931  0.8490  0.4299
 6487SOL    HW230924   3.361   0.771  16.955 -1.3402  0.7328 -0.3897
 6488SOL     OW30925   1.477   2.781  10.532 -0.2193 -0.1300 -0.1199
 6488SOL    HW130926   1.464   2.874  10.548  2.1493  0.1045  0.5373
 6488SOL    HW230927   1.426   2.779  10.451 -0.0290  1.8319 -0.2956
 6489SOL     OW30928   0.985   1.763  16.158 -0.0288  0.2904 -0.1035
 6489SOL    HW130929   1.020   1.834  16.211 -2.8629  1.6610 -0.0603
 6489SOL    HW230930   0.908   1.740  16.210  0.3279  0.0388  0.3111
 6490SOL     OW30931   3.742   3.163   2.601 -0.2498 -0.0066 -0.5418
 6490SOL    HW130932   3.735   3.252   2.635  1.0267 -0.0066 -0.2835
 6490SOL    HW230933   3.743   3.106   2.678 -1.2847 -0.9615 -1.2316
 6491SOL     OW30934   0.755   3.341   4.962  0.7182 -0.4626 -0.7218
 6491SOL    HW130935   0.723   3.341   4.872  0.3303 -1.9661 -0.5810
 6491SOL    HW230936   0.725   3.256   4.996  0.7811 -0.1018  0.2190
 6492SOL     OW30937   4.079   3.203  16.598 -0.0261 -0.3136 -0.3236
 6492SOL    HW130938   4.029   3.280  16.624 -1.1419 -1.3440  0.5790
 6492SOL    HW230939   4.054   3.205  16.506  0.4474  1.0672 -0.4264
 6493SOL     OW30940   1.953   0.177  10.529  0.4557 -0.3629  0.0756
 6493SOL    HW130941   1.870   0.189  10.574  0.9260  1.3416  0.4705
 6493SOL    HW230942   1.928   0.159  10.439 -1.3153  1.0277  0.3066
 6494SOL     OW30943   1.444   3.950   1.717  0.0250 -0.0377 -0.3617
 6494SOL    HW130944   1.429   4.000   1.637 -0.8999  0.4474  0.1140
 6494SOL    HW230945   1.509   4.013   1.748 -0.1185  0.0746 -0.2879
 6495SOL     OW30946   0.499   3.925  15.480 -0.2491  0.6451  0.1026
 6495SOL    HW130947   0.426   3.922  15.418  1.4485 -0.9648 -1.8180
 6495SOL    HW230948   0.522   3.832  15.473 -1.9386  0.2796 -0.6335
 6496SOL     OW30949   4.446   0.306  11.749  0.0850  0.1696 -0.4244
 6496SOL    HW130950   4.468   0.372  11.815  0.7868  0.7475 -1.2279
 6496SOL    HW230951   4.471   0.346  11.665  1.5687  1.7618  0.7875
 6497SOL     OW30952   0.766   3.381   6.918  0.7251 -0.2307  0.3701
 6497SOL    HW130953   0.862   3.375   6.917  0.7632  0.3132  1.3086
 6497SOL    HW230954   0.757   3.437   6.995  0.8820 -0.5168  0.5945
 6498SOL     OW30955   2.631   2.327   2.945 -0.3623  0.3922 -0.0445
 6498SOL    HW130956   2.589   2.250   2.984 -1.1174  0.4494 -0.7439
 6498SOL    HW230957   2.604   2.387   3.014  1.9964  0.6439  0.6330
 6499SOL     OW30958   2.806   1.619   4.679 -0.1030  0.0697 -0.5354
 6499SOL    HW130959   2.833   1.595   4.590 -1.1059 -1.4609 -0.4320
 6499SOL    HW230960   2.819   1.535   4.723  2.5586  0.6085 -0.3032
 6500SOL     OW30961   2.909   3.216   5.908  0.0468 -0.3085  0.1928
 6500SOL    HW130962   2.844   3.239   5.975  0.9130  0.6709  0.6976
 6500SOL    HW230963   2.887   3.124   5.891  1.5176 -0.4388 -1.0166
 6501SOL     OW30964   4.097   1.781   6.492 -0.1421  0.1328 -0.6656
 6501SOL    HW130965   4.010   1.814   6.513  0.6330  1.8420 -0.1073
 6501SOL    HW230966   4.135   1.857   6.447  1.0133 -0.1182 -0.1048
 6502SOL     OW30967   0.735   2.644   7.365 -0.2164 -0.3853  0.3669
 6502SOL    HW130968   0.737   2.606   7.453 -1.0172 -1.4409 -0.0583
 6502SOL    HW230969   0.642   2.667   7.362 -0.3503 -1.1014 -1.0620
 6503SOL     OW30970   3.485   0.861   2.719 -0.1341 -0.2652 -0.4825
 6503SOL    HW130971   3.559   0.892   2.667 -0.7056  1.2137 -0.4072
 6503SOL    HW230972   3.539   0.849   2.798  1.5592 -0.6251 -1.6987
 6504SOL     OW30973   2.904   0.869   4.651  0.1740  0.7210  0.4632
 6504SOL    HW130974   2.961   0.810   4.602  0.0314  0.5075  0.5533
 6504SOL    HW230975   2.966   0.900   4.717  0.0701  0.1570  0.8264
 6505SOL     OW30976   0.166   1.303   6.944 -0.0855  0.3965  0.1329
 6505SOL    HW130977   0.184   1.277   7.034 -3.1246 -1.0753  0.3168
 6505SOL    HW230978   0.245   1.356   6.938  1.0525 -1.3892 -0.5352
 6506SOL     OW30979   0.096   4.486   3.098  0.2849  0.4842 -0.1326
 6506SOL    HW130980   0.040   4.470   3.023 -1.6474 -0.3408  1.4792
 6506SOL    HW230981   0.161   4.554   3.078  0.1081  0.7056  0.0435
 6507SOL     OW30982   1.555   0.672   5.958 -0.3756 -0.2023  0.1853
 6507SOL    HW130983   1.586   0.585   5.983 -2.8255 -0.9480  0.7292
 6507SOL    HW230984   1.490   0.667   6.029 -0.1837 -0.4835  0.3385
 6508SOL     OW30985   3.566   2.951   3.522 -0.3290 -0.1039  0.2954
 6508SOL    HW130986   3.624   2.915   3.589  0.5623  0.1396 -0.3462
 6508SOL    HW230987   3.482   2.942   3.569 -0.7414  0.7197 -0.2873
 6509SOL     OW30988   2.129   4.307   4.153 -0.4915 -0.1758  0.0184
 6509SOL    HW130989   2.155   4.371   4.219 -1.1950 -0.1343  0.2622
 6509SOL    HW230990   2.121   4.228   4.208 -2.8326 -0.6887 -1.0656
 6510SOL     OW30991   1.408   3.450  12.211 -0.3673 -0.3399 -0.5634
 6510SOL    HW130992   1.472   3.408  12.153 -1.0592  0.3183 -1.8209
 6510SOL    HW230993   1.449   3.529  12.245  0.4203 -1.0559  0.1224
 6511SOL     OW30994   1.079   1.873   2.014  0.0893 -0.4728  0.3460
 6511SOL    HW130995   1.051   1.902   1.928 -1.8035 -2.9524  0.1239
 6511SOL    HW230996   1.084   1.956   2.060  0.0200  0.0451 -0.5921
 6512SOL     OW30997   1.468   2.176   8.119 -0.2502  0.2749 -0.5930
 6512SOL    HW130998   1.440   2.087   8.097  1.1555 -0.5241  0.8870
 6512SOL    HW230999   1.561   2.172   8.098  0.2232  0.2510  1.5664
 6513SOL     OW31000   3.489   2.195   0.679  0.0045 -0.2596 -0.5265
 6513SOL    HW131001   3.523   2.120   0.630  0.0092 -0.2160 -0.5897
 6513SOL    HW231002   3.492   2.268   0.617 -0.0816  1.0289  0.9790
 6514SOL     OW31003   1.454   3.337   6.048  0.0637  0.5664 -0.0784
 6514SOL    HW131004   1.546   3.323   6.071  0.6166 -1.6479 -3.5483
 6514SOL    HW231005   1.457   3.379   5.962  0.8543  0.5265 -0.0702
 6515SOL     OW31006   1.359   2.286   3.663  0.1912 -0.9363 -0.3090
 6515SOL    HW131007   1.367   2.371   3.619 -1.3670 -0.3384  0.5483
 6515SOL    HW231008   1.424   2.293   3.733 -1.5310  1.7117  1.0610
 6516SOL     OW31009   3.528   1.731  15.191  0.4207 -0.3242  0.4871
 6516SOL    HW131010   3.515   1.638  15.169 -1.3956  0.7029 -2.8328
 6516SOL    HW231011   3.490   1.766  15.110  1.6727 -1.1799 -0.4732
 6517SOL     OW31012   4.283   0.425   6.825  0.2430  0.8953 -0.1529
 6517SOL    HW131013   4.375   0.447   6.817  0.3205  0.9099  0.7410
 6517SOL    HW231014   4.272   0.411   6.731  0.0247 -0.9110  0.1333
 6518SOL     OW31015   3.018   1.910   3.198 -0.0121  0.4211 -0.2972
 6518SOL    HW131016   3.100   1.880   3.159  1.1783  0.0513  2.4774
 6518SOL    HW231017   2.967   1.833   3.172  1.9631 -0.3909 -1.7516
 6519SOL     OW31018   1.443   0.222   6.037 -0.4907 -0.8749  0.1608
 6519SOL    HW131019   1.354   0.243   6.065 -0.6167  1.4487 -2.0615
 6519SOL    HW231020   1.434   0.128   6.051  0.4131 -0.8654  0.8739
 6520SOL     OW31021   1.752   2.068   4.139  0.6331  0.1453 -0.5102
 6520SOL    HW131022   1.786   2.129   4.205 -0.2093 -0.7739  0.7917
 6520SOL    HW231023   1.785   1.985   4.175  1.3241  0.3841 -0.5868
 6521SOL     OW31024   2.639   3.266   0.021 -0.8389  0.2472 -0.0729
 6521SOL    HW131025   2.633   3.361   0.021 -0.5828  0.2598  0.9591
 6521SOL    HW231026   2.550   3.239   0.045 -0.3417 -0.0546  1.4450
 6522SOL     OW31027   3.493   3.940  11.995  0.2781 -0.0859 -0.3098
 6522SOL    HW131028   3.569   3.988  12.028 -1.2365  0.1629  2.7808
 6522SOL    HW231029   3.432   4.008  11.967  1.8889 -0.0133 -3.7368
 6523SOL     OW31030   2.846   0.722   8.638 -0.0828 -0.3202  0.1048
 6523SOL    HW131031   2.841   0.817   8.654 -1.7263 -0.0053 -2.3356
 6523SOL    HW231032   2.893   0.702   8.719  0.9273 -0.2536 -0.4587
 6524SOL     OW31033   0.326   1.660  16.901 -0.1008  0.1599 -0.1580
 6524SOL    HW131034   0.371   1.712  16.967 -0.7528  1.1398 -0.4883
 6524SOL    HW231035   0.261   1.720  16.865  2.3660  1.1811 -2.9809
 6525SOL     OW31036   0.368   1.373   7.594 -0.0791 -0.1133 -0.1916
 6525SOL    HW131037   0.357   1.411   7.682  0.4682  0.5037 -0.3891
 6525SOL    HW231038   0.389   1.285   7.625  1.2180  0.7760  1.4827
 6526SOL     OW31039   2.383   0.401   5.264  0.0431 -0.5346 -0.1682
 6526SOL    HW131040   2.318   0.349   5.310 -1.8126  0.4432 -1.7243
 6526SOL    HW231041   2.456   0.409   5.326  0.7827  0.6818 -1.1997
 6527SOL     OW31042   4.155   2.908   2.575 -0.2868 -0.4262  0.0473
 6527SOL    HW131043   4.234   2.868   2.539  0.1918  2.8898 -2.5039
 6527SOL    HW231044   4.152   2.990   2.527 -0.8702 -1.8266 -2.2814
 6528SOL     OW31045   3.189   2.117   5.153 -0.0613 -0.4036 -0.1408
 6528SOL    HW131046   3.163   2.155   5.237 -1.2216 -2.0777  0.2642
 6528SOL    HW231047   3.188   2.022   5.166  1.7198 -0.4353 -0.2178
 6529SOL     OW31048   1.052   4.498   3.744  0.2251 -0.4249  0.4707
 6529SOL    HW131049   1.144   4.495   3.771 -0.0293  3.6933  1.7946
 6529SOL    HW231050   1.010   4.561   3.802  0.6765  0.2672  0.0549
 6530SOL     OW31051   1.650   2.279   6.406 -0.6364 -0.1191  0.4598
 6530SOL    HW131052   1.716   2.293   6.338 -1.9087  1.1007 -0.5273
 6530SOL    HW231053   1.603   2.361   6.394  0.1175  0.0672 -1.3623
 6531SOL     OW31054   0.624   0.946  13.730 -0.4152  0.1267  0.8441
 6531SOL    HW131055   0.635   0.862  13.776  1.8388 -0.1870 -0.2712
 6531SOL    HW231056   0.668   1.010  13.786  0.5010  0.4531 -0.2456
 6532SOL     OW31057   3.636   0.797  16.097 -0.0970 -0.3043 -0.0011
 6532SOL    HW131058   3.655   0.766  16.008  0.7818 -0.3090  0.1872
 6532SOL    HW231059   3.601   0.884  16.075 -0.5604  0.3843  3.4752
 6533SOL     OW31060   4.391   1.811   5.712 -0.1767  0.2535  0.0253
 6533SOL    HW131061   4.468   1.793   5.659  0.4362  0.6296  0.7960
 6533SOL    HW231062   4.423   1.773   5.794  1.2060 -0.7710 -0.9812
 6534SOL     OW31063   2.129   0.482   9.835 -0.1456  0.5097 -0.4898
 6534SOL    HW131064   2.136   0.387   9.826  1.7051  0.5326  0.6482
 6534SOL    HW231065   2.212   0.510   9.875 -0.8076  0.5035  0.9047
 6535SOL     OW31066   1.587   3.131   4.218 -0.2779 -0.2262  0.1441
 6535SOL    HW131067   1.542   3.054   4.182 -0.2577  0.1736 -0.7125
 6535SOL    HW231068   1.565   3.121   4.311  0.0346  0.8356  0.3340
 6536SOL     OW31069   0.201   2.557  15.601 -0.1782 -0.0722  1.0137
 6536SOL    HW131070   0.243   2.587  15.681 -0.0434 -1.0943  1.3317
 6536SOL    HW231071   0.224   2.621  15.534  1.6361  0.4235  2.1255
 6537SOL     OW31072   2.841   3.445   2.793 -0.3119  0.8367  0.0812
 6537SOL    HW131073   2.766   3.426   2.849  1.0750 -2.3377  0.8255
 6537SOL    HW231074   2.847   3.368   2.736 -3.6600  2.0806 -1.9684
 6538SOL     OW31075   1.089   3.777  17.016  0.7117  0.3703 -0.4830
 6538SOL    HW131076   1.001   3.803  16.990  0.9033  0.2759 -1.2405
 6538SOL    HW231077   1.076   3.740  17.103  2.0942  0.7365 -0.1266
 6539SOL     OW31078   3.960   4.178   1.606  0.4224  0.1482  0.3697
 6539SOL    HW131079   3.955   4.129   1.688  3.8191  0.8438  1.0250
 6539SOL    HW231080   3.891   4.139   1.553  1.6245 -0.6675 -0.6006
 6540SOL     OW31081   1.294   3.863   4.547 -0.0052 -0.2841 -0.9275
 6540SOL    HW131082   1.384   3.862   4.514 -0.3747 -1.1647 -1.9086
 6540SOL    HW231083   1.312   3.884   4.638  0.1256 -3.9426 -0.1436
 6541SOL     OW31084   2.293   0.674   6.229 -0.1864 -0.2504  0.0917
 6541SOL    HW131085   2.267   0.764   6.250 -1.6523 -1.0430  1.6967
 6541SOL    HW231086   2.293   0.624   6.311 -0.2600  0.6463  0.6352
 6542SOL     OW31087   1.297   4.518   4.360 -0.0274 -0.0940  0.0881
 6542SOL    HW131088   1.351   4.540   4.283 -1.4257 -0.2125 -0.9160
 6542SOL    HW231089   1.375   4.505   4.414 -1.7551 -1.4438  2.2312
 6543SOL     OW31090   4.336   4.573   7.398 -0.0422 -0.0261 -0.0716
 6543SOL    HW131091   4.378   4.543   7.317  0.5722  0.5887  0.0215
 6543SOL    HW231092   4.363   4.663   7.417 -1.0694  0.1680  0.4667
 6544SOL     OW31093   1.433   3.809   6.636  0.1685 -0.2110 -0.3634
 6544SOL    HW131094   1.363   3.753   6.604 -1.2742  2.6052 -2.0340
 6544SOL    HW231095   1.471   3.837   6.553  1.6584 -3.6351 -0.8492
 6545SOL     OW31096   1.155   1.601   5.848  0.1493  0.4302 -0.1695
 6545SOL    HW131097   1.223   1.628   5.786 -0.3268  2.1117  0.0278
 6545SOL    HW231098   1.078   1.614   5.792 -0.0246 -1.1998 -0.3144
 6546SOL     OW31099   1.238   0.327   9.525  0.4182  0.0545 -0.4204
 6546SOL    HW131100   1.320   0.288   9.496  1.0842  0.0286  1.5084
 6546SOL    HW231101   1.261   0.420   9.532 -3.1173  0.9006  0.2298
 6547SOL     OW31102   4.284   0.117   3.354 -0.1133 -0.0056  0.1417
 6547SOL    HW131103   4.314   0.140   3.266  2.6297  3.9470  2.1330
 6547SOL    HW231104   4.191   0.111   3.333 -0.5976  0.6412  2.1300
 6548SOL     OW31105   1.563   1.288   0.209  0.8227  0.1415  0.5543
 6548SOL    HW131106   1.478   1.329   0.225  0.4985 -0.5724  0.6431
 6548SOL    HW231107   1.551   1.196   0.231  0.2530 -1.1267 -4.9393
 6549SOL     OW31108   2.249   3.296   6.206  0.0305 -0.3504  0.4466
 6549SOL    HW131109   2.225   3.221   6.152 -1.3706  0.2818  0.1992
 6549SOL    HW231110   2.172   3.301   6.262 -2.0595 -0.3187 -2.4758
 6550SOL     OW31111   1.460   1.673  15.367  0.4022  0.6256 -0.4389
 6550SOL    HW131112   1.451   1.578  15.367 -1.2048  0.7719  3.2388
 6550SOL    HW231113   1.384   1.688  15.309 -1.0476 -0.8826  1.0740
 6551SOL     OW31114   0.570   3.881   6.122  0.0621  0.1309  0.1129
 6551SOL    HW131115   0.658   3.891   6.158 -0.2648 -2.6955  1.6921
 6551SOL    HW231116   0.592   3.870   6.030 -1.1689  1.5576 -0.3531
 6552SOL     OW31117   2.518   4.117   4.970 -0.9229  0.3685 -0.0095
 6552SOL    HW131118   2.574   4.059   4.917 -1.0818  1.0189 -0.8901
 6552SOL    HW231119   2.549   4.092   5.057 -1.0418 -1.0794 -0.3746
 6553SOL     OW31120   4.088   1.707   5.787 -0.6764  0.2621 -0.0238
 6553SOL    HW131121   4.117   1.788   5.744  0.1806 -1.6373 -3.0374
 6553SOL    HW231122   4.021   1.682   5.723 -2.8259  0.7849  2.0010
 6554SOL     OW31123   2.556   3.122   8.309  0.4703  0.4688 -0.0362
 6554SOL    HW131124   2.642   3.156   8.286  0.5827 -0.0716 -0.4147
 6554SOL    HW231125   2.503   3.201   8.324 -0.0276  0.2963 -0.8893
 6555SOL     OW31126   3.846   2.346   4.483 -0.1047  0.2381 -0.1837
 6555SOL    HW131127   3.834   2.274   4.420 -2.7888  0.7922 -0.2808
 6555SOL    HW231128   3.794   2.416   4.444 -1.8653 -0.4771  0.9028
 6556SOL     OW31129   0.178   4.447   7.200 -0.3119  0.1049 -0.0413
 6556SOL    HW131130   0.239   4.499   7.148  0.1905 -0.9582 -0.5072
 6556SOL    HW231131   0.163   4.508   7.272 -0.2302  1.4826 -1.2038
 6557SOL     OW31132   3.995   1.881   2.441 -0.2519  0.4026  0.0668
 6557SOL    HW131133   4.056   1.940   2.486 -0.9883  1.5903 -0.4888
 6557SOL    HW231134   3.935   1.870   2.515 -1.0498  0.0647 -0.6329
 6558SOL     OW31135   0.587   4.398   5.784 -0.1331 -0.1088  0.2617
 6558SOL    HW131136   0.661   4.353   5.825 -0.8715 -1.3949  0.1781
 6558SOL    HW231137   0.596   4.483   5.827  0.3252  0.0013 -0.0556
 6559SOL     OW31138   3.963   4.666   6.832 -0.2414  0.4037  0.2366
 6559SOL    HW131139   4.058   4.656   6.836 -0.1135  1.9030  1.1029
 6559SOL    HW231140   3.942   4.578   6.802 -0.1755  1.2234 -2.1878
 6560SOL     OW31141   0.711   2.799  16.156 -0.9558  0.0558 -0.2358
 6560SOL    HW131142   0.683   2.732  16.218 -1.5039 -1.7487 -2.4062
 6560SOL    HW231143   0.749   2.863  16.216  0.1026  0.7341 -1.6291
 6561SOL     OW31144   1.447   1.519   9.867 -0.2154 -0.4076 -0.2656
 6561SOL    HW131145   1.519   1.476   9.913 -1.9750  1.1578  3.9595
 6561SOL    HW231146   1.481   1.608   9.851  1.3404 -1.1731 -1.2084
 6562SOL     OW31147   2.674   2.274   6.795  0.1475  0.0338  0.6160
 6562SOL    HW131148   2.624   2.258   6.715  0.6978 -0.8654  0.4503
 6562SOL    HW231149   2.647   2.363   6.817  2.6033  0.1261  3.2567
 6563SOL     OW31150   3.091   4.629   4.384 -0.3319 -0.0925  0.3369
 6563SOL    HW131151   3.101   4.671   4.470 -0.1555 -0.7242  0.6234
 6563SOL    HW231152   3.013   4.574   4.393 -1.1381  1.2006  1.1600
 6564SOL     OW31153   0.642   2.182   9.937  0.1317  0.9295  0.6607
 6564SOL    HW131154   0.561   2.148   9.977 -0.2387  0.9262 -0.0994
 6564SOL    HW231155   0.697   2.201  10.013  0.3538  0.6339  0.5732
 6565SOL     OW31156   0.507   1.623  11.503  0.6359  0.5112 -0.3048
 6565SOL    HW131157   0.431   1.633  11.445  1.6634 -1.7190 -2.0084
 6565SOL    HW231158   0.544   1.712  11.506 -2.0977  1.5847  2.0260
 6566SOL     OW31159   0.158   0.685   2.342  0.4502  0.1763 -0.4107
 6566SOL    HW131160   0.219   0.757   2.357  0.4919 -0.3616  1.9473
 6566SOL    HW231161   0.207   0.625   2.287  3.2024  0.5263  1.6373
 6567SOL     OW31162   1.760   2.405   8.952  0.4378 -0.0757  0.2123
 6567SOL    HW131163   1.773   2.454   9.034 -0.2197  0.0043  0.2700
 6567SOL    HW231164   1.774   2.315   8.982  0.6491  0.2449  1.0768
 6568SOL     OW31165   3.711   3.078   6.308 -0.5353  0.3352 -0.0221
 6568SOL    HW131166   3.702   3.088   6.403 -0.1401  4.1621 -0.3850
 6568SOL    HW231167   3.628   3.121   6.288 -1.5689 -0.6663  2.0691
 6569SOL     OW31168   3.597   0.826   5.030  0.5916  0.6478 -0.1268
 6569SOL    HW131169   3.545   0.765   4.978 -0.6075  1.7129 -0.1881
 6569SOL    HW231170   3.614   0.899   4.971 -1.3978  1.7202  0.6244
 6570SOL     OW31171   0.006   4.208   2.484  0.1963  0.3619 -0.2714
 6570SOL    HW131172   4.693   4.130   2.524  1.0047  1.5666  2.7654
 6570SOL    HW231173   0.084   4.170   2.443 -0.6905  0.5535 -2.1639
 6571SOL     OW31174   3.974   4.099  17.644 -0.0533  0.2656 -0.0458
 6571SOL    HW131175   3.963   4.094   0.040  1.2881  1.8316  0.1875
 6571SOL    HW231176   4.017   4.183  17.633 -1.4260  0.9163 -0.3723
 6572SOL     OW31177   0.152   3.123   4.315  0.0785 -0.0526 -0.5397
 6572SOL    HW131178   0.171   3.097   4.225  1.6492 -1.3840  0.1837
 6572SOL    HW231179   0.172   3.037   4.352  2.1079  0.6186 -0.0618
 6573SOL     OW31180   2.287   1.791  14.505 -0.0170 -0.3984 -0.2620
 6573SOL    HW131181   2.272   1.787  14.599 -2.7196 -0.7480 -0.7127
 6573SOL    HW231182   2.323   1.879  14.492 -1.1594  0.2405  0.8875
 6574SOL     OW31183   1.647   1.062   7.279 -0.3302  0.4928 -0.1045
 6574SOL    HW131184   1.639   0.974   7.315 -0.4244 -0.0872 -1.5536
 6574SOL    HW231185   1.557   1.088   7.300 -0.4680  0.4101 -0.5797
 6575SOL     OW31186   3.111   3.554   1.676  0.1958 -0.2703 -0.6435
 6575SOL    HW131187   3.103   3.502   1.756  1.0661  0.9549  0.2449
 6575SOL    HW231188   3.066   3.488   1.622  0.7126  0.4805 -1.9911
 6576SOL     OW31189   1.107   3.129   4.805 -0.0093  0.0234  0.0854
 6576SOL    HW131190   1.059   3.199   4.762  2.1578  0.0972 -2.2211
 6576SOL    HW231191   1.046   3.095   4.871 -1.9404 -1.6075 -2.5209
 6577SOL     OW31192   1.539   4.680   2.597  0.3293  0.2775  0.0049
 6577SOL    HW131193   1.514   4.588   2.591 -2.8212  1.3048 -2.2049
 6577SOL    HW231194   1.460   4.717   2.559 -0.3361 -1.4523 -0.3108
 6578SOL     OW31195   2.364   3.582   3.363  0.3121 -0.0057 -0.0835
 6578SOL    HW131196   2.403   3.622   3.441 -0.4139 -2.4509  1.5164
 6578SOL    HW231197   2.359   3.491   3.391 -0.0892 -0.3240 -1.2012
 6579SOL     OW31198   2.068   2.833   4.758  0.0032 -0.2598 -0.1969
 6579SOL    HW131199   2.011   2.909   4.746 -1.7634 -1.1597  2.7104
 6579SOL    HW231200   2.068   2.794   4.670  1.8313 -4.9921  1.9329
 6580SOL     OW31201   4.528   4.398  17.333 -0.0218 -0.1718  0.0211
 6580SOL    HW131202   4.589   4.399  17.260 -2.3080 -2.0241 -1.8873
 6580SOL    HW231203   4.553   4.482  17.373 -2.3415  1.6646 -2.4286
 6581SOL     OW31204   1.507   4.077   8.872  0.0655 -0.2151 -0.0777
 6581SOL    HW131205   1.530   3.986   8.857  1.4261  0.2929 -1.0556
 6581SOL    HW231206   1.586   4.121   8.841 -0.0513  0.9341  1.2579
 6582SOL     OW31207   3.814   0.319  14.088  0.3118  0.0561 -0.5786
 6582SOL    HW131208   3.826   0.320  13.993 -0.2708  0.9255 -0.6432
 6582SOL    HW231209   3.870   0.393  14.112  0.2742 -0.4495  1.0690
 6583SOL     OW31210   3.141   0.083  15.035  0.0227 -0.0444  0.5620
 6583SOL    HW131211   3.138   0.092  14.939  0.8011 -3.8534  0.1550
 6583SOL    HW231212   3.051   0.051  15.048 -0.1633  0.6022  0.8504
 6584SOL     OW31213   4.216   1.849  11.624 -0.0845  0.2904 -0.9397
 6584SOL    HW131214   4.264   1.795  11.562 -1.7303 -0.2478 -1.7323
 6584SOL    HW231215   4.284   1.916  11.636  0.3988  0.1317 -2.8597
 6585SOL     OW31216   0.110   0.934   6.993 -0.2841  0.2406 -0.1116
 6585SOL    HW131217   0.163   0.961   7.067  1.4363  0.0997 -1.2954
 6585SOL    HW231218   0.181   0.955   6.932  0.1481 -0.7416  0.0545
 6586SOL     OW31219   2.647   4.482   5.016 -0.2337  1.0576 -0.3626
 6586SOL    HW131220   2.645   4.577   5.008  1.5047  1.2462  1.2007
 6586SOL    HW231221   2.560   4.463   4.981 -0.1549  3.4197 -1.8020
 6587SOL     OW31222   0.400   0.061   7.689 -0.1053  0.1689  0.0197
 6587SOL    HW131223   0.478   0.105   7.722 -1.5996  1.8735  1.2859
 6587SOL    HW231224   0.367   0.014   7.766 -2.0954  1.5323  0.0191
 6588SOL     OW31225   2.398   1.774   1.899 -0.1986 -0.5658 -0.4579
 6588SOL    HW131226   2.455   1.810   1.967  0.8228  0.0792 -1.6549
 6588SOL    HW231227   2.469   1.747   1.840  0.6486 -0.7005  0.6138
 6589SOL     OW31228   1.798   3.684   2.332  0.8080  0.1743 -0.1685
 6589SOL    HW131229   1.750   3.757   2.292  0.7407  1.0753  1.5399
 6589SOL    HW231230   1.756   3.670   2.417 -0.4727  0.1497 -0.8069
 6590SOL     OW31231   3.242   0.799   1.379 -0.6696  0.0345 -0.2544
 6590SOL    HW131232   3.277   0.725   1.428  0.0928  0.7178  0.2381
 6590SOL    HW231233   3.318   0.835   1.333 -0.8223  0.0904 -0.4678
 6591SOL     OW31234   2.916   4.710  16.251  0.0731  0.0518  0.7455
 6591SOL    HW131235   2.870   4.637  16.292  1.3623 -0.5138  1.1805
 6591SOL    HW231236   2.899   4.703  16.157 -0.2866  0.2128  0.7991
 6592SOL     OW31237   2.185   3.601   8.523 -0.0942  0.0898  0.2037
 6592SOL    HW131238   2.148   3.676   8.570  0.3438 -0.5823  1.5983
 6592SOL    HW231239   2.277   3.617   8.543  0.6045 -0.4123 -2.6119
 6593SOL     OW31240   2.622   4.014   5.231 -0.0587 -0.3764  0.2585
 6593SOL    HW131241   2.698   3.987   5.180 -0.4941  0.8262 -1.0084
 6593SOL    HW231242   2.616   3.953   5.305 -1.1550  1.0731  1.3674
 6594SOL     OW31243   3.552   3.105   7.573 -0.1688  0.7007 -0.4315
 6594SOL    HW131244   3.540   3.036   7.507 -0.7291  0.2371  0.1497
 6594SOL    HW231245   3.478   3.165   7.560 -2.4214 -1.4797  2.1899
 6595SOL     OW31246   2.928   1.434   0.448  0.5853  0.1965 -0.1598
 6595SOL    HW131247   2.963   1.469   0.366 -2.6765  1.0443 -1.1825
 6595SOL    HW231248   2.976   1.355   0.472  2.3691  1.3188  0.0612
 6596SOL     OW31249   1.807   1.486   3.066  0.0768  0.1435 -0.0022
 6596SOL    HW131250   1.814   1.509   3.158 -1.3624  0.4873  0.0158
 6596SOL    HW231251   1.774   1.396   3.068 -0.8377  0.5049  1.3039
 6597SOL     OW31252   4.355   3.498   5.415 -0.3099  0.5842  0.2009
 6597SOL    HW131253   4.448   3.521   5.418  0.3568 -1.7824 -1.7759
 6597SOL    HW231254   4.352   3.404   5.435  1.3857 -0.0250 -2.4412
 6598SOL     OW31255   1.204   4.380   0.836 -0.6541  0.0413 -0.2230
 6598SOL    HW131256   1.261   4.338   0.900 -2.5048 -2.8010 -0.4314
 6598SOL    HW231257   1.119   4.375   0.880 -0.0610 -0.5575  0.8359
 6599SOL     OW31258   0.028   3.807   4.958  0.0025  0.6235  0.1253
 6599SOL    HW131259   4.672   3.818   5.009  0.3622  2.4603  0.3148
 6599SOL    HW231260   0.048   3.714   4.966 -1.6286  0.1131 -1.9485
 6600SOL     OW31261   0.725   0.874   7.391 -0.1356 -0.5079 -0.1884
 6600SOL    HW131262   0.808   0.922   7.386  0.2596 -1.1368  0.2367
 6600SOL    HW231263   0.689   0.913   7.471 -1.5162 -0.5612 -0.7822
 6601SOL     OW31264   2.052   2.425  17.581 -0.2243 -0.9305 -0.0856
 6601SOL    HW131265   2.072   2.490  17.514  0.6363 -1.9278 -0.8014
 6601SOL    HW231266   2.039   2.345  17.531  1.5618 -0.8002 -0.7505
 6602SOL     OW31267   4.551   4.216   0.684 -0.2643  0.2197 -0.1191
 6602SOL    HW131268   4.638   4.189   0.713 -0.2386  1.7900  1.2357
 6602SOL    HW231269   4.587   4.286   0.629  0.1303  0.8558  0.9565
 6603SOL     OW31270   0.935   1.406   8.364 -0.1619 -0.4980 -0.4718
 6603SOL    HW131271   0.894   1.366   8.287  0.9436 -1.6029 -0.4856
 6603SOL    HW231272   1.014   1.440   8.323  0.4382  1.6036  2.4436
 6604SOL     OW31273   0.309   3.971   1.970  0.2901 -0.1011 -0.1459
 6604SOL    HW131274   0.265   3.891   1.941 -0.1862 -0.3521  1.2664
 6604SOL    HW231275   0.391   3.933   2.003  0.0151  0.0576  0.7431
 6605SOL     OW31276   3.756   3.557  14.923  0.1788  0.3866 -0.2548
 6605SOL    HW131277   3.775   3.525  14.835 -0.0264  2.1184 -0.9347
 6605SOL    HW231278   3.844   3.557  14.960  0.0559 -0.8863  0.0362
 6606SOL     OW31279   3.402   1.586   5.634  0.1182  0.5795  0.0675
 6606SOL    HW131280   3.331   1.525   5.614 -0.3821  1.2221 -0.1588
 6606SOL    HW231281   3.344   1.645   5.684  0.1514  0.2431  0.5025
 6607SOL     OW31282   3.728   4.573  16.813 -0.2319  0.4657 -0.3356
 6607SOL    HW131283   3.792   4.622  16.865 -1.7827  0.5400  1.5111
 6607SOL    HW231284   3.759   4.483  16.826 -1.9966 -0.0686  0.1986
 6608SOL     OW31285   3.806   4.199   5.443  0.7108  0.7964  0.3365
 6608SOL    HW131286   3.776   4.284   5.477  0.0539  1.0249 -0.8057
 6608SOL    HW231287   3.721   4.164   5.418  1.2106 -1.2381  1.5086
 6609SOL     OW31288   0.962   2.913   3.014 -0.4714  0.0730 -0.0412
 6609SOL    HW131289   0.992   2.851   2.948 -0.5796 -1.8959  1.7702
 6609SOL    HW231290   0.935   2.986   2.958  1.3716  0.4212 -0.5018
 6610SOL     OW31291   4.363   0.194  17.158 -0.2185  0.5391 -0.4370
 6610SOL    HW131292   4.392   0.272  17.113  0.5093  0.4270 -0.1617
 6610SOL    HW231293   4.410   0.127  17.109 -0.1020 -0.6786  1.3047
 6611SOL     OW31294   2.834   4.702   3.284  0.3366 -0.0101  0.0953
 6611SOL    HW131295   2.877   4.631   3.235  0.0452 -1.3012  1.7093
 6611SOL    HW231296   2.787   0.027   3.216 -3.0156 -2.0624  0.9066
 6612SOL     OW31297   2.021   2.430   3.153  0.4912 -0.2521  0.2215
 6612SOL    HW131298   1.982   2.489   3.217  0.1378 -0.5040  0.2370
 6612SOL    HW231299   2.114   2.436   3.173  0.8610 -0.3576 -1.4127
 6613SOL     OW31300   0.306   4.267   3.484  0.0312  0.1706 -0.3999
 6613SOL    HW131301   0.325   4.214   3.562 -2.7327  2.5578  1.8710
 6613SOL    HW231302   0.393   4.274   3.444  0.3176 -1.4980 -0.0814
 6614SOL     OW31303   2.046   0.117  11.779 -0.4079  0.4718 -0.3807
 6614SOL    HW131304   2.035   0.120  11.874  1.2146  0.7077 -0.2154
 6614SOL    HW231305   1.957   0.142  11.753  0.0548  2.2848 -0.2186
 6615SOL     OW31306   1.099   3.862   1.677  0.2117  0.3181  0.2697
 6615SOL    HW131307   1.164   3.799   1.709 -0.5366 -0.8161 -0.4405
 6615SOL    HW231308   1.143   3.889   1.596 -0.4282 -1.6472 -0.7210
 6616SOL     OW31309   2.800   1.033  12.316 -0.7936 -0.3038  0.5732
 6616SOL    HW131310   2.841   0.969  12.376 -0.7704  0.1841  1.0770
 6616SOL    HW231311   2.755   1.084  12.383  0.7349 -0.8112  2.0300
 6617SOL     OW31312   1.657   1.208   4.277  0.3815  0.6664 -0.4932
 6617SOL    HW131313   1.573   1.254   4.279 -0.6826 -1.3801  1.9189
 6617SOL    HW231314   1.636   1.137   4.338 -1.2743  1.0778 -0.5844
 6618SOL     OW31315   1.255   0.876   5.663  0.0459 -0.1836  0.4008
 6618SOL    HW131316   1.308   0.796   5.664 -0.2481 -0.3692  1.0900
 6618SOL    HW231317   1.209   0.872   5.578  0.6353 -0.1550  0.0809
 6619SOL     OW31318   3.978   3.659  11.839  0.6130  0.1307 -0.7889
 6619SOL    HW131319   3.925   3.729  11.875  2.7016  1.3338 -0.0422
 6619SOL    HW231320   4.065   3.699  11.844 -0.2691  1.9369  0.1443
 6620SOL     OW31321   3.327   3.898   7.178 -0.5490 -0.0454  0.4441
 6620SOL    HW131322   3.419   3.884   7.199  0.3508  1.6967 -2.3095
 6620SOL    HW231323   3.320   3.992   7.160  0.6750 -0.0103  0.1774
 6621SOL     OW31324   1.683   1.980  10.039 -0.5281 -0.0891  0.0277
 6621SOL    HW131325   1.760   1.929  10.066 -0.1359  0.1070 -0.7215
 6621SOL    HW231326   1.636   1.982  10.122  0.0131 -0.7193  0.3460
 6622SOL     OW31327   3.575   2.685   3.984  0.2386 -0.4234 -0.1353
 6622SOL    HW131328   3.543   2.768   4.019  0.3064 -0.0800 -0.8954
 6622SOL    HW231329   3.510   2.630   4.029  0.7914 -1.6336 -0.7966
 6623SOL     OW31330   0.010   2.832   8.582 -0.1818  0.0773 -0.3469
 6623SOL    HW131331   0.035   2.771   8.651  0.3199  1.0829  0.3516
 6623SOL    HW231332   0.080   2.895   8.598 -1.1598  0.7810  1.2192
 6624SOL     OW31333   4.590   2.798   3.214 -0.2978  0.1402 -0.2566
 6624SOL    HW131334   4.588   2.877   3.269  2.6652  0.4186 -0.5783
 6624SOL    HW231335   4.654   2.812   3.144  0.7580 -0.8193  0.5281
 6625SOL     OW31336   2.257   0.325   5.508  0.5314  0.2407  0.2167
 6625SOL    HW131337   2.269   0.230   5.499  0.3938  0.2402  0.0360
 6625SOL    HW231338   2.169   0.327   5.545  0.7544 -1.0856  0.8353
 6626SOL     OW31339   2.405   0.993   9.898  0.3306 -0.5555  0.0695
 6626SOL    HW131340   2.322   1.041   9.898  0.3339 -0.5500  0.1764
 6626SOL    HW231341   2.432   1.031   9.981  2.2533  1.7228 -1.6217
 6627SOL     OW31342   0.132   2.589   3.256 -0.3608  0.3963 -0.1319
 6627SOL    HW131343   0.125   2.502   3.217 -0.3297 -0.4910  1.8734
 6627SOL    HW231344   0.159   2.640   3.179  1.6063  0.4546  0.6212
 6628SOL     OW31345   1.778   0.652  12.417 -0.6721 -0.2130  0.0652
 6628SOL    HW131346   1.851   0.682  12.470 -0.3805  0.7280 -0.8603
 6628SOL    HW231347   1.702   0.687  12.463  1.3735  2.8056  1.1618
 6629SOL     OW31348   4.670   2.298  11.582 -0.6860 -0.3685 -0.7569
 6629SOL    HW131349   0.031   2.340  11.579 -0.8578  0.0419  0.2841
 6629SOL    HW231350   4.699   2.212  11.552 -1.4640 -1.1539  0.7624
 6630SOL     OW31351   1.339   0.105   5.321 -0.1248 -0.4103 -0.6960
 6630SOL    HW131352   1.308   0.109   5.412 -0.3389  2.2710 -0.8816
 6630SOL    HW231353   1.295   0.184   5.288 -0.4440 -1.0944 -1.9012
 6631SOL     OW31354   1.517   2.993   2.510 -0.4999  0.9072 -0.1006
 6631SOL    HW131355   1.578   3.060   2.541 -0.0330 -0.5311  2.0907
 6631SOL    HW231356   1.586   2.938   2.473 -0.1474  0.7328  0.8136
 6632SOL     OW31357   1.192   2.585  14.844  0.0786 -0.4845  0.4504
 6632SOL    HW131358   1.169   2.647  14.913  2.3627  1.1413 -0.2758
 6632SOL    HW231359   1.116   2.526  14.841  0.8144 -1.3504 -1.2124
 6633SOL     OW31360   0.243   0.256   9.555  0.1854 -0.0066  0.0661
 6633SOL    HW131361   0.281   0.289   9.473  0.0944  0.5748  0.2550
 6633SOL    HW231362   0.326   0.232   9.597  0.3350  0.0052 -0.2247
 6634SOL     OW31363   0.540   1.216   6.608 -0.2224  0.0586 -0.0665
 6634SOL    HW131364   0.514   1.134   6.566  1.9361 -1.4415  1.4839
 6634SOL    HW231365   0.633   1.222   6.587 -0.1470 -0.5892  0.0845
 6635SOL     OW31366   2.289   4.436  13.422  0.1919 -0.3939 -0.1650
 6635SOL    HW131367   2.316   4.527  13.426  0.4678 -0.5915  2.5917
 6635SOL    HW231368   2.295   4.403  13.512 -1.2366 -1.1597 -0.3450
 6636SOL     OW31369   1.414   3.802   2.534  0.1344 -0.1035 -0.2002
 6636SOL    HW131370   1.389   3.756   2.614  1.0419 -1.2625 -0.5861
 6636SOL    HW231371   1.435   3.889   2.570 -2.2353  0.4459 -0.1747
 6637SOL     OW31372   1.397   3.048  10.500 -0.2199 -0.5848 -0.0539
 6637SOL    HW131373   1.442   3.129  10.475  0.7134 -0.9023  0.6061
 6637SOL    HW231374   1.349   3.041  10.417  2.2203  1.0214 -1.6392
 6638SOL     OW31375   0.114   1.172   9.385 -0.3907  0.7170  0.2997
 6638SOL    HW131376   0.127   1.199   9.476  1.3879  0.9557 -0.0219
 6638SOL    HW231377   0.042   1.231   9.364 -1.0333 -0.9563 -2.2485
 6639SOL     OW31378   2.919   1.400  12.846  0.0438  0.1909 -0.3927
 6639SOL    HW131379   2.893   1.370  12.759  0.0773  0.1156 -0.3767
 6639SOL    HW231380   3.011   1.415  12.826  0.0613 -0.7710 -1.0713
 6640SOL     OW31381   3.335   3.428   0.147  0.1089 -0.4049 -0.0752
 6640SOL    HW131382   3.281   3.349   0.151  0.3176 -0.6019 -1.0826
 6640SOL    HW231383   3.334   3.456   0.238 -0.4315 -0.4038 -0.0848
 6641SOL     OW31384   1.520   0.570   1.982 -0.1830  0.5067 -0.0598
 6641SOL    HW131385   1.577   0.635   1.940 -1.6199  3.1221  2.0708
 6641SOL    HW231386   1.540   0.576   2.075  0.4737  2.0349 -0.2945
 6642SOL     OW31387   0.937   4.551   2.032  0.5845  0.3485 -0.4515
 6642SOL    HW131388   0.915   4.637   1.995  2.5411  0.0371 -2.2838
 6642SOL    HW231389   1.025   4.535   2.001 -0.1149 -2.6523 -0.8465
 6643SOL     OW31390   1.733   0.693   7.820  0.0954 -0.4868 -0.1501
 6643SOL    HW131391   1.701   0.661   7.904  0.2711 -1.3532 -0.4055
 6643SOL    HW231392   1.793   0.758   7.857 -1.0029 -0.7286  2.0213
 6644SOL     OW31393   3.073   4.684   1.208 -0.2759  0.1372  0.0374
 6644SOL    HW131394   3.017   4.616   1.245  1.2554 -0.8715  0.5367
 6644SOL    HW231395   3.111   4.628   1.140 -0.7145  1.2042 -1.0785
 6645SOL     OW31396   0.368   3.628   7.729 -0.1319 -0.4033 -0.4477
 6645SOL    HW131397   0.334   3.549   7.772  2.0657 -0.4478  1.1942
 6645SOL    HW231398   0.291   3.652   7.677  0.8437  1.2558 -1.0937
 6646SOL     OW31399   1.293   2.989   1.502 -0.5704  0.0728 -0.0409
 6646SOL    HW131400   1.247   3.065   1.537  0.2184  0.6127 -0.1791
 6646SOL    HW231401   1.241   2.975   1.422  0.5911 -0.9676 -0.6220
 6647SOL     OW31402   3.261   4.542  12.083 -0.7572 -0.1644 -0.2479
 6647SOL    HW131403   3.194   4.493  12.131 -1.8241  0.8142 -0.7209
 6647SOL    HW231404   3.220   4.628  12.080  1.1319  0.7408  0.1788
 6648SOL     OW31405   1.385   0.502  15.390 -0.7681  0.0907  0.0120
 6648SOL    HW131406   1.428   0.419  15.370  4.4432  2.5696  1.0750
 6648SOL    HW231407   1.346   0.473  15.473  2.4464 -3.9639  0.1040
 6649SOL     OW31408   3.020   2.832  15.020  0.2671  0.1553  0.1312
 6649SOL    HW131409   3.060   2.806  14.937 -0.4227 -0.6922  0.0674
 6649SOL    HW231410   3.093   2.849  15.080 -0.6303  1.9907  0.7167
 6650SOL     OW31411   3.952   0.944  10.495 -0.2524  0.4997 -0.0277
 6650SOL    HW131412   4.042   0.933  10.467  0.1934  1.4909  1.0250
 6650SOL    HW231413   3.915   0.859  10.470 -1.6048  0.2824  2.6235
 6651SOL     OW31414   3.123   2.658   8.263 -0.4431  0.5752 -0.2176
 6651SOL    HW131415   3.190   2.670   8.196  2.1492  0.4719  2.3331
 6651SOL    HW231416   3.186   2.621   8.324  3.2632  2.2759 -3.0328
 6652SOL     OW31417   4.283   3.090  14.571  0.3502 -0.3640  0.1664
 6652SOL    HW131418   4.204   3.037  14.578 -1.5203  2.1404 -2.4102
 6652SOL    HW231419   4.241   3.175  14.583  0.3568 -0.3075 -0.2355
 6653SOL     OW31420   4.434   0.670  12.881 -0.1661  0.1890 -0.2095
 6653SOL    HW131421   4.528   0.677  12.863 -0.4778  1.5390 -1.2820
 6653SOL    HW231422   4.431   0.648  12.974 -0.5611 -0.9867 -0.5089
 6654SOL     OW31423   0.584   3.528   6.109  0.1277 -0.2216  0.2322
 6654SOL    HW131424   0.564   3.597   6.172 -0.6131 -1.3229  1.2000
 6654SOL    HW231425   0.505   3.525   6.054 -1.1112 -2.5317  2.1275
 6655SOL     OW31426   3.095   2.114   4.897  0.0914  0.2463 -0.0288
 6655SOL    HW131427   3.140   2.124   4.981 -2.0692  0.4414  1.0952
 6655SOL    HW231428   3.166   2.126   4.833  0.8705  0.7195  0.9342
 6656SOL     OW31429   3.937   2.453  11.597 -0.3613 -0.2097  0.1269
 6656SOL    HW131430   3.916   2.544  11.616 -1.0298 -0.7914  2.2273
 6656SOL    HW231431   3.934   2.418  11.686 -1.3883 -0.8634 -0.1590
 6657SOL     OW31432   4.377   3.857   5.455  0.1947 -0.8565 -0.2921
 6657SOL    HW131433   4.378   3.879   5.548  1.7624  0.9362 -0.7486
 6657SOL    HW231434   4.299   3.801   5.450  0.3453 -1.1927  1.0633
 6658SOL     OW31435   2.579   2.373   1.255 -0.4515 -0.3603  0.2058
 6658SOL    HW131436   2.501   2.418   1.289 -0.2323 -0.1977  0.4930
 6658SOL    HW231437   2.636   2.444   1.283  0.5678 -0.6679 -1.0916
 6659SOL     OW31438   1.071   3.330  14.344 -0.3285 -0.6377  0.2041
 6659SOL    HW131439   1.072   3.409  14.397  2.9222 -1.8918  2.0347
 6659SOL    HW231440   1.025   3.366  14.268  3.2076  3.2218 -0.1289
 6660SOL     OW31441   1.273   4.290   2.152  0.4536  0.2392 -0.1130
 6660SOL    HW131442   1.273   4.246   2.067 -1.0856 -2.3969  1.2471
 6660SOL    HW231443   1.337   4.361   2.148  0.7420 -0.1360 -2.5099
 6661SOL     OW31444   4.013   3.494   7.794 -0.0071 -0.4501 -0.8619
 6661SOL    HW131445   4.012   3.475   7.888 -1.7050 -2.3993 -1.2613
 6661SOL    HW231446   4.024   3.406   7.759 -2.7723 -0.6649 -1.2116
 6662SOL     OW31447   2.058   3.006   7.031  0.3061  0.0035 -0.0043
 6662SOL    HW131448   2.139   2.975   7.072 -1.2556 -2.7155  1.0221
 6662SOL    HW231449   2.095   3.015   6.943  0.1100 -1.5403 -0.2601
 6663SOL     OW31450   2.631   3.416   6.648 -0.2622 -0.0247 -0.8780
 6663SOL    HW131451   2.545   3.454   6.666 -0.2939  0.3349 -1.7967
 6663SOL    HW231452   2.694   3.447   6.713  0.0391 -1.5550 -0.4358
 6664SOL     OW31453   1.725   3.052   1.521 -0.2788 -0.3219  0.1192
 6664SOL    HW131454   1.747   3.106   1.445  1.0533  1.7887  1.9982
 6664SOL    HW231455   1.817   3.039   1.541 -0.5025 -0.1254  1.2445
 6665SOL     OW31456   1.250   1.119   6.169 -0.6205 -0.4933  0.2215
 6665SOL    HW131457   1.242   1.201   6.218  2.9849  0.1458 -0.3102
 6665SOL    HW231458   1.319   1.144   6.107  0.0988 -1.8123  0.4989
 6666SOL     OW31459   0.457   3.173   1.265 -0.4727 -0.0735  0.0999
 6666SOL    HW131460   0.400   3.171   1.188  1.6654 -0.3485 -1.5033
 6666SOL    HW231461   0.441   3.098   1.322  0.7731 -0.0639  0.4660
 6667SOL     OW31462   3.210   3.364   2.200 -0.2321 -0.5012 -0.4445
 6667SOL    HW131463   3.258   3.282   2.192  1.5613  0.6212 -1.3419
 6667SOL    HW231464   3.270   3.427   2.242  0.0014  0.5919 -2.4151
 6668SOL     OW31465   3.731   2.959   4.842  0.6488 -0.2233 -0.0417
 6668SOL    HW131466   3.654   3.000   4.880 -1.2047 -1.1546 -2.7804
 6668SOL    HW231467   3.721   2.864   4.856  3.0316 -0.9599 -3.2866
 6669SOL     OW31468   1.054   4.170   6.276  0.4622  0.5280  0.1908
 6669SOL    HW131469   1.111   4.230   6.228  0.5673  0.6078  0.4126
 6669SOL    HW231470   1.120   4.120   6.324  1.0310 -0.1494 -1.2897
 6670SOL     OW31471   0.440   3.052   6.968 -0.0313  0.2443  0.7993
 6670SOL    HW131472   0.372   3.102   7.015  0.4970  0.6378  1.1378
 6670SOL    HW231473   0.392   2.971   6.947 -1.6565  1.2113  0.8021
 6671SOL     OW31474   2.006   3.084  10.199  0.0146  0.1068 -0.3579
 6671SOL    HW131475   2.021   2.998  10.158  0.8618 -0.0390  0.2511
 6671SOL    HW231476   2.028   3.060  10.289 -0.3532 -1.9292 -0.8090
 6672SOL     OW31477   1.342   2.853  12.969 -0.8408 -0.0396 -0.1799
 6672SOL    HW131478   1.321   2.820  13.056 -0.7661  0.7792  0.1546
 6672SOL    HW231479   1.346   2.772  12.918 -1.5326 -1.0380  1.3888
 6673SOL     OW31480   1.014   1.503   9.853  0.4658 -0.2422 -0.4869
 6673SOL    HW131481   1.014   1.597   9.869  1.4476 -0.2669 -0.3318
 6673SOL    HW231482   0.938   1.494   9.796  0.3331  0.2258 -0.3779
 6674SOL     OW31483   1.043   3.677   8.883 -0.3209 -0.2682  0.1550
 6674SOL    HW131484   1.084   3.602   8.926  0.4253 -0.7287 -1.3249
 6674SOL    HW231485   1.117   3.688   8.823 -0.5528  0.3256 -0.0266
 6675SOL     OW31486   0.455   2.667   3.907 -0.0595  0.5709 -0.3687
 6675SOL    HW131487   0.432   2.749   3.952 -2.6461 -2.2029  3.3593
 6675SOL    HW231488   0.400   2.599   3.948 -0.3867  1.9158  1.4467
 6676SOL     OW31489   4.239   4.376   2.936  0.3941  0.3718 -0.1692
 6676SOL    HW131490   4.315   4.407   2.985 -0.3692 -1.4130  2.1643
 6676SOL    HW231491   4.247   4.416   2.849  0.1230  3.6230  1.2852
 6677SOL     OW31492   1.786   2.945   4.181  0.4560  0.0135  0.5741
 6677SOL    HW131493   1.731   2.867   4.181  0.1994  0.1892 -0.6597
 6677SOL    HW231494   1.714   3.007   4.168  1.6814  1.0193 -1.3540
 6678SOL     OW31495   0.528   4.527  11.628  0.3808 -0.2123  0.5254
 6678SOL    HW131496   0.581   4.477  11.565 -1.4723  0.0337 -1.2320
 6678SOL    HW231497   0.572   4.509  11.711  0.4349 -1.4176  0.2433
 6679SOL     OW31498   3.766   3.544   0.156 -0.0063 -0.1166 -0.4117
 6679SOL    HW131499   3.699   3.568   0.219  0.4763 -1.5265  0.6182
 6679SOL    HW231500   3.821   3.622   0.147 -0.9745  0.4685 -1.2951
 6680SOL     OW31501   2.558   1.547  11.483  0.3124 -0.4740  0.0470
 6680SOL    HW131502   2.616   1.515  11.553  1.7159  2.5756  0.2701
 6680SOL    HW231503   2.539   1.633  11.520 -0.7079 -1.1494  1.1205
 6681SOL     OW31504   1.888   1.954   5.617 -0.6686 -0.7799  0.4527
 6681SOL    HW131505   1.896   1.983   5.526 -0.2772  0.2984  0.8290
 6681SOL    HW231506   1.949   1.881   5.605 -2.2384 -2.0177 -0.0029
 6682SOL     OW31507   3.652   2.158  15.423 -0.0685 -0.6446 -0.4157
 6682SOL    HW131508   3.706   2.215  15.368 -1.0247 -0.0125 -0.7061
 6682SOL    HW231509   3.596   2.114  15.359  0.2112 -0.2968 -0.9065
 6683SOL     OW31510   1.458   1.379  15.377 -0.5336  0.3164  0.4647
 6683SOL    HW131511   1.528   1.340  15.324  1.0816 -0.2090  3.0245
 6683SOL    HW231512   1.468   1.332  15.460  1.4462  1.4892  0.8810
 6684SOL     OW31513   3.026   0.494   7.049 -0.3731  0.5367  0.3232
 6684SOL    HW131514   2.953   0.555   7.060 -2.0409 -1.2618 -0.8283
 6684SOL    HW231515   3.015   0.432   7.121 -0.3335  3.2192  2.6410
 6685SOL     OW31516   3.829   4.128   2.597  0.2193  0.4778  0.1182
 6685SOL    HW131517   3.739   4.143   2.569  0.5019 -2.1007 -2.1362
 6685SOL    HW231518   3.867   4.196   2.541  1.2870 -0.8590 -0.7784
 6686SOL     OW31519   2.701   2.240   4.333 -0.2090  0.0834 -0.7742
 6686SOL    HW131520   2.613   2.229   4.296 -0.3417 -0.7414 -0.2044
 6686SOL    HW231521   2.740   2.157   4.309  0.0125 -0.5308  1.6756
 6687SOL     OW31522   2.448   1.155  13.655  0.1768 -0.0447 -0.9284
 6687SOL    HW131523   2.488   1.240  13.637  0.5043 -0.4529 -2.0932
 6687SOL    HW231524   2.509   1.098  13.607 -0.5033 -0.0951 -1.7237
 6688SOL     OW31525   1.603   2.525   8.486  0.5811  0.0455  0.3358
 6688SOL    HW131526   1.543   2.574   8.429  2.4802  2.1342  0.1069
 6688SOL    HW231527   1.662   2.596   8.512 -1.2595  1.6597  0.0964
 6689SOL     OW31528   1.660   4.111   1.822  0.2374 -0.2719 -0.0402
 6689SOL    HW131529   1.721   4.184   1.823 -0.2264  0.1376 -2.0700
 6689SOL    HW231530   1.662   4.107   1.726  0.9958  2.7228 -0.1214
 6690SOL     OW31531   2.380   4.700   6.307  0.3701  0.1845 -0.2140
 6690SOL    HW131532   2.407   4.648   6.231  0.9753  0.1312  0.0363
 6690SOL    HW231533   2.398   4.646   6.384  1.7612  0.0673 -0.6364
 6691SOL     OW31534   1.170   4.105   2.902  0.3606 -0.3362  0.2361
 6691SOL    HW131535   1.167   4.199   2.920  2.2817 -0.1802 -0.3112
 6691SOL    HW231536   1.139   4.110   2.812 -0.4894  0.4508  0.5689
 6692SOL     OW31537   0.000   4.049   4.855  0.6023 -0.1488 -0.0760
 6692SOL    HW131538   4.632   4.071   4.863  1.2111  3.6872 -3.3753
 6692SOL    HW231539   0.022   3.970   4.904 -0.2736 -0.8985 -0.9065
 6693SOL     OW31540   2.720   0.326  15.028 -0.0962  0.4783 -0.3503
 6693SOL    HW131541   2.696   0.236  15.051  1.7571 -0.1082 -0.7441
 6693SOL    HW231542   2.815   0.322  15.033 -0.0660  0.8222 -0.6920
 6694SOL     OW31543   1.953   0.265   0.266 -0.5267  0.7589  0.5571
 6694SOL    HW131544   2.003   0.343   0.246 -0.6100  0.7414  0.2851
 6694SOL    HW231545   2.017   0.207   0.308  0.7676  0.1941 -2.2266
 6695SOL     OW31546   4.221   0.046   4.233 -0.5823 -0.3131  0.0066
 6695SOL    HW131547   4.195   4.717   4.309 -1.9966  1.2052  0.6062
 6695SOL    HW231548   4.134   0.067   4.197  0.1378  0.2770 -1.3962
 6696SOL     OW31549   3.234   1.370   5.617  0.3812  0.5075 -0.7833
 6696SOL    HW131550   3.143   1.372   5.646  0.6105  0.3949 -0.0439
 6696SOL    HW231551   3.229   1.400   5.526  0.5059 -2.3814 -1.7334
 6697SOL     OW31552   1.588   1.073   0.364 -0.3495  0.4912  0.1323
 6697SOL    HW131553   1.634   1.143   0.411 -1.2203 -0.3621  2.2492
 6697SOL    HW231554   1.566   1.015   0.437 -0.4063 -1.1840 -1.2142
 6698SOL     OW31555   1.253   2.339  11.035  0.0644  0.2071  0.6803
 6698SOL    HW131556   1.307   2.391  11.094  1.5923  1.0422 -1.4656
 6698SOL    HW231557   1.205   2.273  11.086 -0.4198 -1.9390 -2.5499
 6699SOL     OW31558   1.358   1.974  15.598  0.3457  0.4281  0.1882
 6699SOL    HW131559   1.283   1.919  15.620  2.9324 -2.7476  1.1514
 6699SOL    HW231560   1.362   2.050  15.657 -1.2372 -1.1895  2.3597
 6700SOL     OW31561   1.216   1.891  15.267 -0.0304  0.4154  0.4276
 6700SOL    HW131562   1.168   1.921  15.190 -2.5601  1.4759  2.4097
 6700SOL    HW231563   1.145   1.840  15.306  1.1854 -1.3078  0.3983
 6701SOL     OW31564   2.186   1.662   6.438 -0.2791  0.3785  0.1281
 6701SOL    HW131565   2.197   1.571   6.410 -0.5474  0.1186  0.8702
 6701SOL    HW231566   2.261   1.704   6.396 -0.8001 -0.1278 -1.3088
 6702SOL     OW31567   1.299   0.972   4.324 -0.2962  1.2366 -0.3784
 6702SOL    HW131568   1.353   0.971   4.244 -0.1726 -0.7569 -0.2753
 6702SOL    HW231569   1.223   1.021   4.293  0.2878  3.1826  1.2218
 6703SOL     OW31570   2.847   4.690  12.514  0.1653  0.4991 -0.2561
 6703SOL    HW131571   2.785   4.627  12.550  2.3015 -1.7541 -0.5622
 6703SOL    HW231572   2.903   4.693  12.592  0.0435  0.4261 -0.1665
 6704SOL     OW31573   2.612   4.656   4.472  0.3690 -0.0838  0.6524
 6704SOL    HW131574   2.631   4.581   4.414 -0.3159  0.2568 -0.0150
 6704SOL    HW231575   2.532   4.684   4.428 -0.2698 -2.4288  0.2804
 6705SOL     OW31576   4.025   1.661   6.215  0.7369 -0.3393 -0.2905
 6705SOL    HW131577   3.948   1.717   6.207  0.1502 -0.7755  2.2613
 6705SOL    HW231578   4.066   1.696   6.294  2.1887  0.4332 -1.3810
 6706SOL     OW31579   2.336   1.597  15.637  0.0002 -0.2745 -0.1932
 6706SOL    HW131580   2.275   1.635  15.700 -0.1427  0.1235 -0.5759
 6706SOL    HW231581   2.364   1.519  15.685  2.5847  0.0916 -1.1014
 6707SOL     OW31582   2.646   2.101  16.849  0.2877 -0.1142 -0.1769
 6707SOL    HW131583   2.597   2.180  16.872  0.5227  0.2772 -1.0050
 6707SOL    HW231584   2.571   2.045  16.828 -1.3162  1.7842  0.5178
 6708SOL     OW31585   4.259   1.540   4.723  0.2929 -0.2595  0.4742
 6708SOL    HW131586   4.217   1.491   4.653 -0.6428 -1.2190  1.7102
 6708SOL    HW231587   4.354   1.532   4.712  0.4943  1.5582  0.7863
 6709SOL     OW31588   4.215   2.946   1.580  0.0831  0.1351  0.2020
 6709SOL    HW131589   4.223   2.918   1.672 -3.3856 -0.9385  0.1663
 6709SOL    HW231590   4.149   3.015   1.587  0.9764  1.1726 -1.5809
 6710SOL     OW31591   3.019   2.790  16.985  0.4805  0.2420 -0.1467
 6710SOL    HW131592   2.997   2.698  16.999 -0.2115  0.4296  0.0079
 6710SOL    HW231593   3.009   2.827  17.073  0.0771 -0.6930  0.1927
 6711SOL     OW31594   2.546   2.844  17.448  0.1008 -0.0505 -0.1362
 6711SOL    HW131595   2.548   2.822  17.541 -1.2924 -1.9522 -0.5723
 6711SOL    HW231596   2.608   2.917  17.448 -0.9322  0.8344 -0.7503
 6712SOL     OW31597   1.773   2.884   6.718  0.8491  0.7069 -0.2188
 6712SOL    HW131598   1.736   2.929   6.793 -0.9951  0.5463 -1.0073
 6712SOL    HW231599   1.727   2.929   6.647 -0.9438 -0.4817  0.1858
 6713SOL     OW31600   3.868   1.621  12.031 -0.4953  0.3992 -0.2550
 6713SOL    HW131601   3.921   1.694  11.998 -2.0062 -0.2291 -4.0230
 6713SOL    HW231602   3.851   1.567  11.954 -1.5641 -1.4706  1.3054
 6714SOL     OW31603   4.438   3.635   8.280  0.9118  0.2032  0.6352
 6714SOL    HW131604   4.462   3.726   8.296 -3.8915  1.5589  0.2500
 6714SOL    HW231605   4.356   3.647   8.232  0.2309 -0.3315  1.6676
 6715SOL     OW31606   2.859   0.902  10.209 -0.1141  0.4411  0.6546
 6715SOL    HW131607   2.830   0.909  10.118 -0.3977  1.0241  0.7876
 6715SOL    HW231608   2.889   0.993  10.219 -2.8694  1.4309  0.1090
 6716SOL     OW31609   3.223   0.775  15.914  0.1230 -0.4376  0.2602
 6716SOL    HW131610   3.250   0.709  15.978 -2.5695 -2.3410 -0.5225
 6716SOL    HW231611   3.299   0.833  15.909 -0.4116  0.3380  1.1975
 6717SOL     OW31612   3.651   1.877   7.255  0.1315 -0.3716  0.8347
 6717SOL    HW131613   3.626   1.853   7.345  2.1193 -0.7167  1.3038
 6717SOL    HW231614   3.736   1.835   7.240  1.3791  2.2784  0.3829
 6718SOL     OW31615   4.214   1.210   8.790 -0.0853  0.5559  0.2131
 6718SOL    HW131616   4.229   1.168   8.874 -0.8443 -0.1972 -0.0292
 6718SOL    HW231617   4.296   1.256   8.771 -0.4365  0.8522 -0.5822
 6719SOL     OW31618   1.485   1.877   6.118  0.0060  0.8329  0.1290
 6719SOL    HW131619   1.524   1.929   6.188 -1.0248  1.2547  0.3845
 6719SOL    HW231620   1.454   1.807   6.176 -1.5834  2.0766  0.7413
 6720SOL     OW31621   0.115   0.017   9.486  0.2374  0.3132 -0.2912
 6720SOL    HW131622   0.168   0.095   9.500 -0.9411  0.9944  0.3765
 6720SOL    HW231623   0.096   0.024   9.392 -0.8209 -0.2328 -0.1195
 6721SOL     OW31624   1.294   4.390   4.744  0.2360 -0.0322 -0.6169
 6721SOL    HW131625   1.244   4.468   4.721 -1.0352 -0.4802  0.6154
 6721SOL    HW231626   1.357   4.385   4.672  2.5610  0.4968  1.4168
 6722SOL     OW31627   4.464   3.261  17.695  0.2094 -0.2875 -0.0797
 6722SOL    HW131628   4.501   3.333  17.644  3.2386 -3.1966 -2.0688
 6722SOL    HW231629   4.545   3.219   0.027  0.0627 -0.7356 -0.3076
 6723SOL     OW31630   3.742   4.222   2.907  0.0617 -0.0497  0.1044
 6723SOL    HW131631   3.794   4.257   2.835 -2.8715  2.4680 -0.7961
 6723SOL    HW231632   3.770   4.130   2.902 -1.4634 -0.6192  2.0133
 6724SOL     OW31633   3.577   1.313   1.848  0.0451 -0.5195  0.0490
 6724SOL    HW131634   3.565   1.329   1.941 -0.6576  1.5775 -0.3956
 6724SOL    HW231635   3.515   1.377   1.811 -0.2496 -1.4624 -1.0888
 6725SOL     OW31636   2.948   0.275  12.567  0.2067  0.4057 -0.4872
 6725SOL    HW131637   2.964   0.342  12.633  2.6958  0.0354 -0.7109
 6725SOL    HW231638   2.872   0.227  12.601 -0.3296  0.5743 -1.4621
 6726SOL     OW31639   1.610   3.957   3.810  0.0737  0.2523  0.1754
 6726SOL    HW131640   1.696   3.978   3.847  0.6406 -2.1083  0.2089
 6726SOL    HW231641   1.623   3.971   3.716  1.5649  0.4242  0.4139
 6727SOL     OW31642   4.453   0.280  16.139  0.0468  0.1058 -0.0405
 6727SOL    HW131643   4.362   0.253  16.151  0.0076  0.3733  0.2740
 6727SOL    HW231644   4.440   0.374  16.125  0.4796  0.3621  1.3187
 6728SOL     OW31645   1.507   1.330   8.742  0.0716 -0.1422 -0.0116
 6728SOL    HW131646   1.507   1.293   8.654  0.4612 -1.4663  0.5357
 6728SOL    HW231647   1.419   1.367   8.751 -0.1148 -0.4991 -0.3667
 6729SOL     OW31648   3.518   1.493   1.029 -0.1154  0.4580 -0.0716
 6729SOL    HW131649   3.590   1.556   1.029  0.1289  0.1799  0.1200
 6729SOL    HW231650   3.494   1.482   0.937  2.4463  1.8279 -0.8839
 6730SOL     OW31651   2.250   4.645   7.428  0.3283 -0.4495  0.4285
 6730SOL    HW131652   2.166   4.603   7.443  0.5102 -0.6311  0.9149
 6730SOL    HW231653   2.244   0.004   7.474  0.2649 -0.5575  0.6124
 6731SOL     OW31654   0.285   2.275  16.019 -0.1163 -0.1283  0.1672
 6731SOL    HW131655   0.338   2.211  15.971  0.7125  1.5619 -1.1322
 6731SOL    HW231656   0.344   2.350  16.011 -1.5547  1.0893  1.1321
 6732SOL     OW31657   4.219   2.796  10.098 -0.4345  0.7774  0.8677
 6732SOL    HW131658   4.188   2.887  10.103 -0.3738  0.8561 -0.1518
 6732SOL    HW231659   4.284   2.805  10.028 -1.5345 -0.4548 -0.2953
 6733SOL     OW31660   0.916   0.859   7.979  0.4918 -0.4301  0.2478
 6733SOL    HW131661   0.948   0.849   8.069 -0.8331  1.4096  0.9093
 6733SOL    HW231662   0.852   0.929   7.977  2.2006  1.1094 -0.3144
 6734SOL     OW31663   2.263   2.654   3.379 -0.2388 -0.7644  0.0142
 6734SOL    HW131664   2.234   2.655   3.470  0.6913  0.1170  0.3136
 6734SOL    HW231665   2.331   2.722   3.382 -0.9135 -0.0578 -0.7991
 6735SOL     OW31666   2.821   2.548   1.264  0.6244  0.5465  0.0330
 6735SOL    HW131667   2.911   2.515   1.262  0.4259  0.0380 -0.6233
 6735SOL    HW231668   2.829   2.633   1.306 -0.2128  0.0832  1.1387
 6736SOL     OW31669   0.270   0.187   4.010  0.5461 -0.2273 -0.7930
 6736SOL    HW131670   0.202   0.203   4.075  0.7963 -1.5300 -0.2010
 6736SOL    HW231671   0.350   0.187   4.064 -0.3502  1.4812  0.5129
 6737SOL     OW31672   3.827   1.056   8.144  0.3082  0.0173  0.4325
 6737SOL    HW131673   3.874   1.086   8.222  0.4289 -0.6137  0.6092
 6737SOL    HW231674   3.894   0.992   8.120  0.9420  0.3412  1.3065
 6738SOL     OW31675   2.615   1.497   1.101 -0.5060  0.3501  0.5427
 6738SOL    HW131676   2.558   1.574   1.104  0.4021  1.0115  0.7082
 6738SOL    HW231677   2.581   1.449   1.025 -1.8356  0.1461  1.2545
 6739SOL     OW31678   0.897   4.253   0.625  0.3250  0.0062 -0.1619
 6739SOL    HW131679   0.896   4.220   0.535 -2.1665 -0.6668  0.1140
 6739SOL    HW231680   0.951   4.183   0.661  2.6942  1.3709 -1.0527
 6740SOL     OW31681   0.749   3.236  12.169 -0.1231 -0.2578  0.0713
 6740SOL    HW131682   0.686   3.249  12.098  0.0698  1.2488  0.1573
 6740SOL    HW231683   0.834   3.273  12.144 -0.1543  0.1623  0.5828
 6741SOL     OW31684   2.124   3.868   3.430  0.0043  0.4671  0.1409
 6741SOL    HW131685   2.071   3.802   3.473  2.0949 -0.7282  0.8925
 6741SOL    HW231686   2.184   3.880   3.504 -0.0432 -3.6116  0.8223
 6742SOL     OW31687   3.326   3.539   3.866 -0.1952  0.0641 -0.5421
 6742SOL    HW131688   3.400   3.481   3.884 -0.7582 -0.3051  0.6381
 6742SOL    HW231689   3.367   3.612   3.820  0.5069 -0.8896 -1.4469
 6743SOL     OW31690   2.982   0.531  12.435  0.4398  0.1485 -0.6695
 6743SOL    HW131691   2.990   0.439  12.462  2.1589  0.5723  0.2647
 6743SOL    HW231692   3.041   0.530  12.360  1.3559  0.2810  0.0470
 6744SOL     OW31693   3.271   2.032   3.940  0.8620  0.1273 -0.4493
 6744SOL    HW131694   3.236   1.971   3.874 -2.0052  1.4606 -0.1733
 6744SOL    HW231695   3.302   1.975   4.010 -2.3519 -0.0289  0.8647
 6745SOL     OW31696   0.196   0.505   5.000  0.4285  0.2539 -0.4572
 6745SOL    HW131697   0.136   0.574   5.027 -0.6857 -0.6064 -0.6887
 6745SOL    HW231698   0.204   0.521   4.906 -2.4442  0.1931 -0.7106
 6746SOL     OW31699   2.302   2.282   7.743  0.6311  0.0839 -0.0320
 6746SOL    HW131700   2.393   2.290   7.772  0.6205 -3.6409  1.0495
 6746SOL    HW231701   2.276   2.366   7.706  0.9609 -0.2114 -0.9338
 6747SOL     OW31702   2.579   4.090   4.351 -0.5002  0.1855 -0.0985
 6747SOL    HW131703   2.533   4.012   4.320 -0.9195  0.3642  0.0806
 6747SOL    HW231704   2.524   4.123   4.422  2.5621  2.1550  1.3610
 6748SOL     OW31705   4.445   0.367   3.458 -0.5287 -0.2134 -0.0664
 6748SOL    HW131706   4.467   0.296   3.519  1.2547 -0.6946 -1.2441
 6748SOL    HW231707   4.383   0.423   3.504 -0.0347  0.9026 -0.7680
 6749SOL     OW31708   1.543   1.849  12.986  0.2523  0.4411  0.8723
 6749SOL    HW131709   1.531   1.787  13.057  1.1332  1.4919  1.9353
 6749SOL    HW231710   1.624   1.817  12.946 -1.9793 -2.0926 -1.6960
 6750SOL     OW31711   0.756   0.346   6.993  0.1630 -0.1375 -0.0996
 6750SOL    HW131712   0.849   0.360   7.007 -0.3345  2.9328  0.2342
 6750SOL    HW231713   0.751   0.377   6.903 -0.2258  0.5696  0.1598
 6751SOL     OW31714   0.707   4.575   1.819 -0.1501  0.5681 -0.4357
 6751SOL    HW131715   0.787   4.532   1.788  0.6858  2.1722 -0.4566
 6751SOL    HW231716   0.676   4.601   1.732  0.7524  0.9499 -0.6405
 6752SOL     OW31717   0.942   2.780  14.133  0.3915 -0.0956  0.4874
 6752SOL    HW131718   0.942   2.875  14.134 -0.4641 -0.0718 -2.2457
 6752SOL    HW231719   0.968   2.768  14.224  2.8329  1.1018 -0.0444
 6753SOL     OW31720   0.543   3.842  15.182  0.4169 -0.1156 -0.2482
 6753SOL    HW131721   0.472   3.791  15.220  0.3862  1.0126  1.2039
 6753SOL    HW231722   0.589   3.773  15.135 -0.8488 -1.1823  0.0747
 6754SOL     OW31723   0.446   2.804   5.817 -0.4122 -0.7743  0.2512
 6754SOL    HW131724   0.437   2.798   5.912  0.7388  0.8293  0.4654
 6754SOL    HW231725   0.512   2.735   5.807 -0.4240 -0.4578 -2.0133
 6755SOL     OW31726   4.445   1.012   8.560 -0.1599  0.0528  0.3501
 6755SOL    HW131727   4.437   0.983   8.470  5.1170  1.7676 -0.6771
 6755SOL    HW231728   4.536   0.995   8.586 -0.5477 -2.3480  0.1452
 6756SOL     OW31729   1.086   0.262   6.565  0.2872 -0.3827 -0.3709
 6756SOL    HW131730   1.079   0.176   6.524  2.8526 -0.0027 -1.6091
 6756SOL    HW231731   1.010   0.309   6.530  0.7957  0.9877  0.3540
 6757SOL     OW31732   1.189   1.317  17.306  0.0380  0.2505 -0.2285
 6757SOL    HW131733   1.128   1.387  17.286 -1.0646 -1.3215 -2.3280
 6757SOL    HW231734   1.185   1.302  17.401  1.5525 -1.1236 -0.3680
 6758SOL     OW31735   0.642   1.599   2.718  0.3273  0.3395  0.6698
 6758SOL    HW131736   0.673   1.514   2.749 -1.0267 -0.6079 -0.5711
 6758SOL    HW231737   0.559   1.595   2.765  0.3943 -1.4184  0.6355
 6759SOL     OW31738   0.232   1.579   5.456 -0.6810 -0.0306  0.2430
 6759SOL    HW131739   0.191   1.493   5.444  1.2355 -1.3141  2.8431
 6759SOL    HW231740   0.253   1.583   5.549 -0.4497  2.7279  0.0474
 6760SOL     OW31741   4.153   0.097  13.062  0.2222  0.7353  0.3538
 6760SOL    HW131742   4.099   0.021  13.086  0.6507  1.8012  4.7188
 6760SOL    HW231743   4.094   0.172  13.068  0.5152  1.0286 -0.4319
 6761SOL     OW31744   1.507   2.224  16.139  0.7697 -0.0257  0.6158
 6761SOL    HW131745   1.598   2.252  16.129  0.2617  1.2041 -0.4941
 6761SOL    HW231746   1.465   2.308  16.121  0.2214 -0.5481 -0.5128
 6762SOL     OW31747   0.914   4.596   5.393 -0.3919  0.3612 -0.1950
 6762SOL    HW131748   0.832   4.614   5.346  0.5821  1.3972 -1.4888
 6762SOL    HW231749   0.974   4.638   5.331  0.5327  2.9264  2.4699
 6763SOL     OW31750   3.080   2.758   1.496  0.1749  0.6392  0.0789
 6763SOL    HW131751   3.138   2.799   1.431 -1.4027 -0.2896 -1.9119
 6763SOL    HW231752   2.990   2.780   1.473  0.4362  0.8826 -0.7372
 6764SOL     OW31753   0.886   0.443  10.131  0.7230  0.1520 -0.1690
 6764SOL    HW131754   0.808   0.472  10.177  1.7084  3.3437 -0.4687
 6764SOL    HW231755   0.949   0.428  10.202  2.7967  0.9042 -1.8273
 6765SOL     OW31756   0.033   3.210  17.460 -0.4970  0.5282  0.4261
 6765SOL    HW131757   4.669   3.234  17.431  0.1286  1.3804 -0.7609
 6765SOL    HW231758   0.042   3.136  17.399 -2.1793 -0.6076  1.5544
 6766SOL     OW31759   0.204   0.681   8.025 -0.0197 -0.0310 -0.1442
 6766SOL    HW131760   0.205   0.742   7.950 -1.0812 -0.1417 -0.2550
 6766SOL    HW231761   0.265   0.619   7.986 -0.0747  0.5473 -1.1528
 6767SOL     OW31762   2.088   1.002   8.872  0.2907 -0.1609 -0.0224
 6767SOL    HW131763   2.071   0.923   8.923 -1.7967  0.1107 -0.2851
 6767SOL    HW231764   2.022   1.064   8.904  1.7899  1.5660 -0.2963
 6768SOL     OW31765   2.785   0.270   7.576 -0.0666  0.2258  0.1170
 6768SOL    HW131766   2.810   0.339   7.515  3.1768 -1.3072 -0.2737
 6768SOL    HW231767   2.760   0.202   7.514  0.4259 -3.7704  4.2928
 6769SOL     OW31768   4.382   1.689  11.466  0.5278 -0.6687 -0.2360
 6769SOL    HW131769   4.384   1.598  11.435  0.9104 -0.3224 -1.2100
 6769SOL    HW231770   4.464   1.688  11.516  0.2663  0.0458  0.2035
 6770SOL     OW31771   4.299   3.101   7.304  0.0925 -0.4806  0.1750
 6770SOL    HW131772   4.317   3.143   7.220 -0.5026 -0.8343 -0.1299
 6770SOL    HW231773   4.356   3.146   7.366  0.2543 -1.9424  1.0979
 6771SOL     OW31774   1.034   3.789  10.321 -0.4180 -0.5170  0.7267
 6771SOL    HW131775   1.071   3.740  10.247 -1.3428 -0.5460  0.2831
 6771SOL    HW231776   1.116   3.795  10.369  0.8850  3.3889 -2.0359
 6772SOL     OW31777   2.257   0.466   3.108 -0.1599  0.2006  0.3263
 6772SOL    HW131778   2.211   0.424   3.180 -3.3702 -0.1329 -1.9203
 6772SOL    HW231779   2.254   0.401   3.038  4.2962  0.1716  0.1340
 6773SOL     OW31780   1.278   3.716   8.747 -0.1907 -0.2497 -0.1071
 6773SOL    HW131781   1.359   3.719   8.797  0.5262  0.6102 -1.3282
 6773SOL    HW231782   1.285   3.628   8.711  2.1581 -0.0764 -0.0545
 6774SOL     OW31783   4.620   2.265   5.366 -0.1865 -0.5854 -0.2290
 6774SOL    HW131784   4.558   2.293   5.433 -1.1045 -0.0847 -1.3013
 6774SOL    HW231785   4.666   2.195   5.413 -2.0355 -0.0783  2.3174
 6775SOL     OW31786   3.024   4.437   2.431  0.2326  0.5404 -0.4276
 6775SOL    HW131787   3.015   4.395   2.516  0.7793  1.1181 -0.0855
 6775SOL    HW231788   2.986   4.363   2.383 -0.4035  0.2771  0.4893
 6776SOL     OW31789   3.273   0.620   5.833  0.0144  0.4700 -0.2695
 6776SOL    HW131790   3.325   0.543   5.812 -1.6382 -0.3066 -1.5270
 6776SOL    HW231791   3.230   0.641   5.750 -2.1710  0.8071  0.9482
 6777SOL     OW31792   2.131   1.931   9.695 -0.6426 -0.4139  0.5065
 6777SOL    HW131793   2.077   2.004   9.662 -0.7271  0.0861  1.7331
 6777SOL    HW231794   2.109   1.930   9.788  0.3798 -1.0118  0.7383
 6778SOL     OW31795   1.034   2.233  10.897 -0.0412  0.0073 -0.3787
 6778SOL    HW131796   1.104   2.273  10.949 -1.2150 -0.2799  1.4275
 6778SOL    HW231797   1.077   2.159  10.855  0.3612  0.1726 -0.2626
 6779SOL     OW31798   4.134   2.343   5.337  0.1827  0.2209  0.2170
 6779SOL    HW131799   4.208   2.320   5.281 -0.8195  0.5079 -1.2254
 6779SOL    HW231800   4.108   2.427   5.298  0.7484  1.1963  1.9096
 6780SOL     OW31801   0.011   1.180   8.257 -0.5536  0.6560 -0.0920
 6780SOL    HW131802   0.000   1.088   8.281  0.4034  1.1640  2.2630
 6780SOL    HW231803   4.697   1.186   8.170  1.7840 -0.8633 -1.2098
 6781SOL     OW31804   0.031   4.465  12.830  0.4889 -0.6064  0.3481
 6781SOL    HW131805   0.059   4.374  12.824  2.3564  0.0572 -0.8932
 6781SOL    HW231806   0.051   4.492  12.741  1.4568  0.8452  1.0008
 6782SOL     OW31807   1.625   1.856   5.355 -0.0160 -0.2356 -0.1267
 6782SOL    HW131808   1.705   1.821   5.316  0.8963  1.1846  0.4581
 6782SOL    HW231809   1.571   1.858   5.276  1.1694  1.2119 -0.9008
 6783SOL     OW31810   3.077   1.108   8.753 -1.1285  0.0387  0.0186
 6783SOL    HW131811   3.009   1.133   8.816  0.4206  1.6436  1.0608
 6783SOL    HW231812   3.028   1.079   8.676 -0.5249 -0.6533 -0.0985
 6784SOL     OW31813   1.384   3.195   8.673  0.0611  0.6494  0.2715
 6784SOL    HW131814   1.306   3.191   8.617  0.3963 -0.8117 -0.0673
 6784SOL    HW231815   1.446   3.134   8.633  0.1187  1.0114 -0.1927
 6785SOL     OW31816   1.124   1.118   4.183  0.3584  0.3168  0.2448
 6785SOL    HW131817   1.154   1.197   4.140  1.1837 -0.6087 -0.8806
 6785SOL    HW231818   1.043   1.146   4.227  0.2004 -1.0559  0.8333
 6786SOL     OW31819   1.502   2.905   7.544 -0.2162  0.1773 -0.6742
 6786SOL    HW131820   1.423   2.882   7.595  0.1999 -0.3716 -0.2703
 6786SOL    HW231821   1.542   2.818   7.546 -0.4943  0.0144 -2.2834
 6787SOL     OW31822   0.594   4.570  13.282  0.2453  0.1270  0.1453
 6787SOL    HW131823   0.548   4.653  13.268  1.0604  0.5554 -0.0381
 6787SOL    HW231824   0.674   4.597  13.236  1.3214  1.7862  3.0115
 6788SOL     OW31825   2.266   1.306   8.765 -0.5405 -0.1024  0.2213
 6788SOL    HW131826   2.338   1.333   8.708 -2.3132  0.1143 -1.9444
 6788SOL    HW231827   2.310   1.247   8.826 -0.1381  0.4662  0.4770
 6789SOL     OW31828   0.397   2.703   2.153  0.1039  0.3575 -0.0230
 6789SOL    HW131829   0.465   2.750   2.104 -1.2080  0.6294 -1.5815
 6789SOL    HW231830   0.418   2.729   2.242  0.1121  1.3664 -0.3228
 6790SOL     OW31831   2.412   3.235   5.152 -0.4001 -0.2138  0.7237
 6790SOL    HW131832   2.486   3.177   5.133 -0.8131 -0.7528  0.7350
 6790SOL    HW231833   2.426   3.262   5.242  0.9684  2.1947 -0.2366
 6791SOL     OW31834   0.768   3.829   8.015  0.3655  0.3873  0.0970
 6791SOL    HW131835   0.684   3.795   7.983  1.4684  0.4296 -2.8587
 6791SOL    HW231836   0.802   3.755   8.065 -0.1561 -2.0438 -3.1284
 6792SOL     OW31837   0.481   1.708   3.149  0.3185  0.2518  0.1830
 6792SOL    HW131838   0.449   1.627   3.189 -0.7263  0.1529 -0.8322
 6792SOL    HW231839   0.412   1.712   3.082 -0.4444 -2.3396  0.7900
 6793SOL     OW31840   2.157   3.927   7.018  0.1348  0.0734 -0.3687
 6793SOL    HW131841   2.070   3.923   6.977 -0.0651 -0.8619  0.1490
 6793SOL    HW231842   2.140   3.922   7.112 -0.0165 -0.5438 -0.4312
 6794SOL     OW31843   1.633   1.143   3.486  0.2039 -0.3184 -0.6557
 6794SOL    HW131844   1.679   1.226   3.499  0.5782 -0.5773 -0.3162
 6794SOL    HW231845   1.713   1.089   3.490  2.0115  2.3356 -1.1492
 6795SOL     OW31846   4.134   1.104   1.216 -0.1375  0.0077 -0.0891
 6795SOL    HW131847   4.051   1.144   1.244 -1.2819 -1.0812 -1.9253
 6795SOL    HW231848   4.128   1.010   1.233 -0.2683 -0.9402 -5.5845
 6796SOL     OW31849   3.539   2.297   2.286 -0.7849 -0.6741  0.0010
 6796SOL    HW131850   3.576   2.212   2.312 -0.3039 -0.5126 -0.1460
 6796SOL    HW231851   3.541   2.345   2.369 -0.9999 -0.9370  0.1581
 6797SOL     OW31852   3.959   1.260   0.911 -0.4091  0.2300  0.5179
 6797SOL    HW131853   3.875   1.221   0.885 -0.0766 -0.9385  1.1965
 6797SOL    HW231854   3.936   1.337   0.963 -1.8635 -0.4144  0.8350
 6798SOL     OW31855   4.413   3.042   4.352  0.1485 -0.1018 -0.7646
 6798SOL    HW131856   4.474   3.113   4.333  1.9429 -1.3272  0.4139
 6798SOL    HW231857   4.381   3.079   4.434  0.6011  1.4138 -1.2585
 6799SOL     OW31858   0.111   3.446   9.513  0.3839  0.0549 -0.1362
 6799SOL    HW131859   0.170   3.493   9.572 -0.2438  1.6716 -0.8165
 6799SOL    HW231860   0.048   3.409   9.576  1.3079  1.1153  1.4142
 6800SOL     OW31861   1.886   0.187   8.817  0.0546 -0.5697 -0.2377
 6800SOL    HW131862   1.846   0.160   8.899  0.1935 -0.7046 -0.2125
 6800SOL    HW231863   1.891   0.281   8.835 -2.9362 -0.5355  0.3603
 6801SOL     OW31864   2.408   2.755   2.990  0.2933  0.6970 -0.2484
 6801SOL    HW131865   2.342   2.795   2.934  1.6805  1.7797 -1.0939
 6801SOL    HW231866   2.436   2.672   2.950  0.1182 -0.2632  1.6045
 6802SOL     OW31867   4.656   1.348   8.470 -0.0163 -0.0694 -0.2507
 6802SOL    HW131868   4.673   1.293   8.393  1.2863  0.9643 -0.7122
 6802SOL    HW231869   4.669   1.434   8.431  2.2642  0.1072  0.9133
 6803SOL     OW31870   3.797   1.521   7.221 -0.3772  0.0189  0.0841
 6803SOL    HW131871   3.715   1.514   7.171 -0.8198 -1.5147  1.0122
 6803SOL    HW231872   3.781   1.452   7.286 -1.5879  0.3050  0.0910
 6804SOL     OW31873   2.466   3.401   9.397 -0.2832 -0.5851  0.7658
 6804SOL    HW131874   2.476   3.311   9.367 -3.0180 -0.8393  0.5648
 6804SOL    HW231875   2.388   3.400   9.341  0.6231 -1.2796 -0.4992
 6805SOL     OW31876   2.013   1.095   2.139 -0.1333 -0.0324 -0.4002
 6805SOL    HW131877   2.037   1.015   2.094  1.2115 -0.5339  1.2327
 6805SOL    HW231878   2.073   1.159   2.099 -1.5445  1.2754 -0.4528
 6806SOL     OW31879   2.313   1.335   5.249  0.5372  0.0409 -0.2727
 6806SOL    HW131880   2.219   1.319   5.258  0.1609  0.9925 -2.6759
 6806SOL    HW231881   2.342   1.245   5.268 -1.3178 -0.6904 -0.9052
 6807SOL     OW31882   4.005   4.657   2.292 -0.2858  0.0565  0.2370
 6807SOL    HW131883   3.961   4.634   2.374  0.4762 -2.5553 -0.0997
 6807SOL    HW231884   3.973   0.023   2.288 -1.7741 -0.4018  1.6068
 6808SOL     OW31885   3.850   3.536   2.326  0.3750  0.3082 -0.3369
 6808SOL    HW131886   3.897   3.553   2.408 -1.1502  1.1978  0.3553
 6808SOL    HW231887   3.831   3.442   2.327 -0.8868  0.5512 -0.7450
 6809SOL     OW31888   1.114   4.328   5.167 -0.5471  0.1671  0.1092
 6809SOL    HW131889   1.076   4.391   5.228  1.2070  0.8459  0.4953
 6809SOL    HW231890   1.125   4.383   5.089 -0.6192  2.1508  1.5042
 6810SOL     OW31891   0.594   0.661   9.696  0.1524 -0.7499  0.1482
 6810SOL    HW131892   0.546   0.742   9.677 -1.3604 -1.9980 -1.2814
 6810SOL    HW231893   0.658   0.692   9.760  1.0368 -1.8035 -0.2239
 6811SOL     OW31894   1.120   3.351   2.887 -0.3950  0.2271  0.3090
 6811SOL    HW131895   1.177   3.280   2.918  0.5052  1.2387  0.9303
 6811SOL    HW231896   1.086   3.310   2.807  2.9072 -1.2782 -0.3218
 6812SOL     OW31897   0.024   2.067   6.453  0.8924  0.1939  0.2027
 6812SOL    HW131898   0.068   2.144   6.488 -1.3055  0.3858  2.5619
 6812SOL    HW231899   0.020   2.002   6.523 -2.4488 -1.9450 -1.9561
 6813SOL     OW31900   4.328   3.143   3.995  0.0384 -0.3588  0.3426
 6813SOL    HW131901   4.376   3.215   4.037 -0.2964  0.4672 -0.6858
 6813SOL    HW231902   4.397   3.092   3.952 -0.3089 -1.1246  0.6918
 6814SOL     OW31903   4.278   4.206   4.148 -0.0265  0.5648 -0.0251
 6814SOL    HW131904   4.333   4.234   4.075  1.6605  1.5631  1.6224
 6814SOL    HW231905   4.232   4.131   4.110  0.3790 -1.0511  2.7115
 6815SOL     OW31906   1.693   4.517   9.011  0.0853 -0.1809 -0.3679
 6815SOL    HW131907   1.749   4.563   8.948 -1.0908 -0.1707 -1.3985
 6815SOL    HW231908   1.619   4.497   8.954 -1.0239 -1.7037  1.6063
 6816SOL     OW31909   1.444   2.250  17.227  0.5905 -0.0461 -0.5049
 6816SOL    HW131910   1.508   2.179  17.218 -0.5098 -1.3088  1.7658
 6816SOL    HW231911   1.446   2.291  17.140  0.2811  1.7416  0.3334
 6817SOL     OW31912   2.375   3.402   0.025  0.1128 -0.7052 -0.3688
 6817SOL    HW131913   2.345   3.320   0.063  2.1628 -0.2811  2.1317
 6817SOL    HW231914   2.290   3.448   0.028  1.5930  1.9724  1.0256
 6818SOL     OW31915   1.887   1.797   3.058 -0.0944  0.2800  0.6102
 6818SOL    HW131916   1.810   1.740   3.058  0.1270 -0.0046  3.6742
 6818SOL    HW231917   1.954   1.731   3.072 -2.2294 -1.3817  2.9552
 6819SOL     OW31918   2.392   3.732   4.032  0.1215  0.0588  0.4330
 6819SOL    HW131919   2.483   3.746   4.005 -0.6441  1.8318 -1.2273
 6819SOL    HW231920   2.350   3.703   3.952  1.5280  0.0675 -0.3007
 6820SOL     OW31921   4.495   0.306  13.185 -0.5992 -0.1228  0.1893
 6820SOL    HW131922   4.549   0.358  13.125 -0.4655 -0.2784  0.1711
 6820SOL    HW231923   4.422   0.287  13.126  0.7081  1.9929 -2.0950
 6821SOL     OW31924   2.268   1.799   0.218 -0.0146  0.2973  0.0828
 6821SOL    HW131925   2.322   1.728   0.185 -0.0853  0.3443 -0.1359
 6821SOL    HW231926   2.284   1.794   0.312 -2.6450 -1.8492  0.4123
 6822SOL     OW31927   1.376   2.185  15.752 -0.2988  0.1827  0.5434
 6822SOL    HW131928   1.378   2.240  15.674 -0.1510  1.3374  1.3693
 6822SOL    HW231929   1.397   2.250  15.818 -1.0864  1.4524 -0.4465
 6823SOL     OW31930   1.510   2.848   4.182  0.1804  0.5390  0.1931
 6823SOL    HW131931   1.422   2.843   4.146  0.7101  0.1822 -1.0738
 6823SOL    HW231932   1.508   2.771   4.239 -1.9309  1.1952  0.9658
 6824SOL     OW31933   3.158   1.797   8.251 -0.0709 -0.0270  0.7101
 6824SOL    HW131934   3.081   1.851   8.234 -0.6835 -1.6072 -1.5563
 6824SOL    HW231935   3.188   1.766   8.165 -0.8984 -0.9553  0.7535
 6825SOL     OW31936   2.731   2.899   3.026 -0.6598  0.2208 -0.1375
 6825SOL    HW131937   2.718   2.861   2.940 -2.2761  0.1115  0.1605
 6825SOL    HW231938   2.772   2.826   3.073 -2.3139  0.4568  1.6748
 6826SOL     OW31939   3.838   3.514  12.758 -0.4283 -0.0341  0.2286
 6826SOL    HW131940   3.788   3.457  12.699 -0.2530 -0.9775  0.9965
 6826SOL    HW231941   3.912   3.460  12.787 -0.8885 -0.3618  0.7833
 6827SOL     OW31942   2.265   0.984  12.442  0.3242  0.2439  0.0078
 6827SOL    HW131943   2.356   0.955  12.429 -0.1761 -0.6703 -1.4892
 6827SOL    HW231944   2.259   0.979  12.537 -0.1903 -0.5983 -0.0680
 6828SOL     OW31945   4.431   4.241   8.056  0.4114 -0.7907 -0.2317
 6828SOL    HW131946   4.392   4.221   8.141  1.8190  1.7341  1.0163
 6828SOL    HW231947   4.426   4.157   8.010  1.0217  1.3630 -4.2471
 6829SOL     OW31948   0.309   0.883   5.525 -0.2278  0.0994  0.2162
 6829SOL    HW131949   0.378   0.874   5.459  0.4290  0.8946  0.8009
 6829SOL    HW231950   0.330   0.811   5.585 -1.1924  0.1502  0.6181
 6830SOL     OW31951   4.636   1.628   6.705 -0.0642 -0.0637  0.9443
 6830SOL    HW131952   4.593   1.551   6.667  2.2139 -0.5231 -0.7318
 6830SOL    HW231953   4.564   1.652   6.762 -0.5312 -0.0342  0.3362
 6831SOL     OW31954   3.452   0.229   4.085  0.3356 -0.3416  0.7682
 6831SOL    HW131955   3.473   0.292   4.154 -1.9964  0.8773  0.3861
 6831SOL    HW231956   3.364   0.202   4.111  0.9488  0.4225  3.6357
 6832SOL     OW31957   1.867   4.486  11.038  0.0922  0.0809  0.0478
 6832SOL    HW131958   1.911   4.489  10.952  3.0496  0.7672  1.5827
 6832SOL    HW231959   1.860   4.393  11.058 -1.3189  0.2677  0.3643
 6833SOL     OW31960   1.053   0.175   5.073  0.5579  0.1118 -0.6618
 6833SOL    HW131961   1.127   0.214   5.119  0.3450  0.5139 -0.6586
 6833SOL    HW231962   1.023   0.246   5.016  0.2279  1.3563  1.0701
 6834SOL     OW31963   2.313   1.450   3.142 -0.0549 -0.1040  0.0250
 6834SOL    HW131964   2.245   1.390   3.174  0.8813 -1.3022 -0.2122
 6834SOL    HW231965   2.270   1.481   3.062  0.6834 -1.8721 -1.0620
 6835SOL     OW31966   4.225   3.219   1.885 -0.3510 -0.2629  0.0896
 6835SOL    HW131967   4.170   3.258   1.953  0.3068 -0.2049  0.5903
 6835SOL    HW231968   4.168   3.201   1.810 -0.6586  0.7761  0.0693
 6836SOL     OW31969   3.569   3.590   6.548  0.1309  0.0810  0.3041
 6836SOL    HW131970   3.477   3.574   6.528  0.6052 -2.2829 -0.0115
 6836SOL    HW231971   3.617   3.521   6.502  2.1536  1.6022  0.1439
 6837SOL     OW31972   2.819   3.156   8.402 -0.8513  0.0936 -0.1983
 6837SOL    HW131973   2.878   3.120   8.336 -0.7758 -1.5654  0.7582
 6837SOL    HW231974   2.819   3.081   8.462 -1.2601  0.5190  0.3345
 6838SOL     OW31975   3.092   4.608   4.937  0.6524 -0.1273  0.1551
 6838SOL    HW131976   3.147   4.679   4.969  2.7588 -1.8175  0.3446
 6838SOL    HW231977   3.038   4.592   5.015 -0.8640  4.9980  0.1303
 6839SOL     OW31978   4.066   2.070  15.235 -0.9081 -0.2193 -0.1009
 6839SOL    HW131979   4.123   2.027  15.172  0.8921 -0.4574  1.6890
 6839SOL    HW231980   3.986   2.020  15.217 -2.1592  1.5284  0.6726
 6840SOL     OW31981   3.003   2.880   2.566 -0.2231 -0.4053 -0.2123
 6840SOL    HW131982   3.069   2.842   2.625 -0.4759  0.0146  0.3485
 6840SOL    HW231983   3.057   2.935   2.509 -0.6275  1.5535  1.2868
 6841SOL     OW31984   3.239   0.105   4.993 -0.2252 -0.2953 -0.2286
 6841SOL    HW131985   3.162   0.162   4.994  1.0912  1.4943 -1.0186
 6841SOL    HW231986   3.296   0.169   4.950  0.7862  0.2160  1.8872
 6842SOL     OW31987   2.439   2.431   0.885  0.0210  0.4716 -0.3957
 6842SOL    HW131988   2.532   2.437   0.906 -0.2630 -1.3348  1.3534
 6842SOL    HW231989   2.415   2.507   0.831 -0.3942  1.3788  1.0793
 6843SOL     OW31990   3.320   0.630   2.771  0.4322 -0.6976  0.1766
 6843SOL    HW131991   3.323   0.717   2.732 -0.0350 -1.7010 -2.1192
 6843SOL    HW231992   3.343   0.648   2.862 -0.0693 -0.7137  0.3064
 6844SOL     OW31993   2.860   2.595   0.284 -0.1982 -0.0190 -0.3300
 6844SOL    HW131994   2.890   2.683   0.308  0.1960 -0.6690  1.5167
 6844SOL    HW231995   2.937   2.553   0.245  0.6723  1.1169  0.1543
 6845SOL     OW31996   1.983   0.221   5.180  0.8271 -0.5613 -0.2340
 6845SOL    HW131997   1.965   0.192   5.091  0.4911  0.5037 -0.5037
 6845SOL    HW231998   1.983   0.133   5.219 -1.3911 -1.0180 -1.2816
 6846SOL     OW31999   0.620   0.721   2.622  0.0241  0.4092  0.0443
 6846SOL    HW132000   0.626   0.735   2.717  2.2147  0.9303 -0.1534
 6846SOL    HW232001   0.655   0.631   2.623  0.0532  0.3876 -3.4824
 6847SOL     OW32002   3.278   0.082  13.388 -0.2299  0.0456  0.5747
 6847SOL    HW132003   3.202   0.036  13.352  0.3916 -0.5034 -0.0196
 6847SOL    HW232004   3.297   0.156  13.331 -3.7735 -0.2937 -1.0515
 6848SOL     OW32005   3.162   4.415   4.777 -0.1589 -0.3982 -0.3530
 6848SOL    HW132006   3.139   4.470   4.851  2.1738 -0.1068  0.1601
 6848SOL    HW232007   3.083   4.360   4.773  0.8653 -1.9046  0.0289
 6849SOL     OW32008   0.920   1.085   3.616  0.3608 -0.0065 -0.1919
 6849SOL    HW132009   0.830   1.110   3.598 -0.0271 -1.2820 -0.0650
 6849SOL    HW232010   0.964   1.146   3.557  1.0525 -1.4244 -1.1616
 6850SOL     OW32011   0.826   2.990   2.534 -0.0689 -0.5179  0.0455
 6850SOL    HW132012   0.881   2.917   2.506  0.8466 -0.0177  0.4975
 6850SOL    HW232013   0.829   3.046   2.456 -1.9046 -1.3350 -0.5927
 6851SOL     OW32014   3.880   0.713  12.927  0.2704  0.2325 -0.1721
 6851SOL    HW132015   3.971   0.742  12.938  1.0785 -2.6123  0.7212
 6851SOL    HW232016   3.873   0.698  12.833  0.0363 -1.1650  0.0685
 6852SOL     OW32017   4.632   2.106   4.447  0.2103 -0.2494 -0.1913
 6852SOL    HW132018   4.603   2.111   4.538 -0.7277  1.5685 -0.5842
 6852SOL    HW232019   4.703   2.169   4.458 -0.1675  0.2346 -0.5306
 6853SOL     OW32020   2.764   2.963   4.769  0.1103 -0.5322 -0.3156
 6853SOL    HW132021   2.726   2.985   4.684  1.0568 -0.5006 -0.7201
 6853SOL    HW232022   2.755   3.048   4.811 -0.3529 -0.7341  0.0029
 6854SOL     OW32023   0.531   1.021   8.736  0.0627 -0.3759  0.3286
 6854SOL    HW132024   0.512   1.026   8.830 -1.5337 -0.0197 -0.0026
 6854SOL    HW232025   0.456   0.973   8.700 -0.4202 -0.1873  1.0766
 6855SOL     OW32026   2.165   1.871   7.972 -0.3636 -0.1824 -0.1495
 6855SOL    HW132027   2.178   1.932   7.899  0.2188 -1.3800 -1.0320
 6855SOL    HW232028   2.205   1.921   8.044 -1.6107 -0.8263  0.9869
 6856SOL     OW32029   2.004   2.211   1.557 -0.3541  0.4070  0.2101
 6856SOL    HW132030   2.007   2.122   1.593  0.8161 -0.6308 -2.4539
 6856SOL    HW232031   1.977   2.188   1.468  0.4337  0.5310 -0.0581
 6857SOL     OW32032   2.503   2.887  11.657 -0.1493  0.2426 -0.5146
 6857SOL    HW132033   2.444   2.832  11.607 -1.3677  2.0394 -1.0665
 6857SOL    HW232034   2.443   2.957  11.684 -0.9440  0.1283 -1.9994
 6858SOL     OW32035   2.628   3.551   5.425  0.3310  0.0604 -0.0079
 6858SOL    HW132036   2.567   3.481   5.400 -0.3661  0.8847 -0.6200
 6858SOL    HW232037   2.692   3.496   5.472  1.9482  1.1805 -0.8967
 6859SOL     OW32038   3.540   0.650   6.887  0.4359  0.1391 -0.2318
 6859SOL    HW132039   3.501   0.634   6.973  0.5208 -0.2824 -0.2685
 6859SOL    HW232040   3.596   0.572   6.881 -2.8808 -2.0385 -3.2769
 6860SOL     OW32041   3.853   4.161   8.786 -0.6919 -0.3590  0.3802
 6860SOL    HW132042   3.887   4.147   8.874  1.7170 -2.3699 -0.8717
 6860SOL    HW232043   3.867   4.252   8.759 -1.8422 -0.1932  0.3009
 6861SOL     OW32044   4.052   3.695   7.187 -0.1669  0.5318 -0.4769
 6861SOL    HW132045   3.972   3.657   7.152 -0.4377  0.3253  0.3561
 6861SOL    HW232046   4.077   3.628   7.251 -2.0375 -0.9179 -1.2567
 6862SOL     OW32047   2.409   2.554   7.335  0.5241 -0.1372  0.5376
 6862SOL    HW132048   2.502   2.535   7.320  0.0631 -2.5612  0.6807
 6862SOL    HW232049   2.422   2.606   7.415  0.0958 -1.2507  1.3412
 6863SOL     OW32050   1.869   3.509  16.151  0.1193 -0.6060  0.4039
 6863SOL    HW132051   1.895   3.536  16.239  0.5949  0.4299 -0.0540
 6863SOL    HW232052   1.774   3.515  16.161  0.0946  0.5800 -0.5574
 6864SOL     OW32053   2.253   1.519   4.687 -0.3387  0.3588 -0.0797
 6864SOL    HW132054   2.214   1.465   4.755 -2.2434 -1.4099 -2.5567
 6864SOL    HW232055   2.341   1.532   4.721 -0.5288  0.1332  0.4968
 6865SOL     OW32056   3.770   2.711   5.545 -0.0539  0.2822 -0.1216
 6865SOL    HW132057   3.698   2.709   5.608  1.4608  0.0584  1.6124
 6865SOL    HW232058   3.722   2.688   5.466  0.3802  0.1683 -0.3555
 6866SOL     OW32059   2.416   4.472  13.704 -0.9078 -0.3959 -0.1076
 6866SOL    HW132060   2.379   4.553  13.669  1.3437  1.6273  2.1324
 6866SOL    HW232061   2.368   4.464  13.786 -0.7601 -0.2046 -0.0020
 6867SOL     OW32062   3.141   3.253   9.660  0.1223 -0.5295  0.3708
 6867SOL    HW132063   3.183   3.253   9.747 -1.2943 -1.0088  1.0469
 6867SOL    HW232064   3.149   3.343   9.628 -0.7079 -0.7738 -0.4979
 6868SOL     OW32065   3.916   4.232   8.123 -0.5741 -0.7880  0.5643
 6868SOL    HW132066   3.966   4.288   8.063 -0.5623 -1.3676  0.0285
 6868SOL    HW232067   3.827   4.257   8.098 -0.1183 -0.7831 -1.0850
 6869SOL     OW32068   3.734   2.599  11.925 -0.0244 -0.5921  0.3151
 6869SOL    HW132069   3.717   2.693  11.913  0.9071 -0.3153  1.2555
 6869SOL    HW232070   3.662   2.568  11.870 -0.0342  0.1899 -0.1102
 6870SOL     OW32071   1.155   3.474   3.802 -0.3204  0.7583 -0.1911
 6870SOL    HW132072   1.067   3.439   3.791 -0.1767  0.2090  0.4269
 6870SOL    HW232073   1.143   3.529   3.880  4.3430  0.1420  0.9354
 6871SOL     OW32074   1.347   1.777   8.745 -0.3553 -0.7405  0.1030
 6871SOL    HW132075   1.346   1.747   8.835  1.2443 -0.4114  0.2278
 6871SOL    HW232076   1.282   1.847   8.753  0.1488 -0.4300  1.3153
 6872SOL     OW32077   0.748   0.001   4.448 -0.1739  0.1298  0.3539
 6872SOL    HW132078   0.820   0.063   4.454  0.4098 -0.5603  0.5385
 6872SOL    HW232079   0.771   4.681   4.367  0.7537  1.1439  0.0750
 6873SOL     OW32080   0.723   1.834  15.341 -0.2598  0.7787  0.2009
 6873SOL    HW132081   0.652   1.796  15.393 -1.7796  2.4785 -0.6360
 6873SOL    HW232082   0.719   1.762  15.279 -0.0022  1.7214 -0.8986
 6874SOL     OW32083   4.441   3.730   1.549  0.0685 -0.1032 -0.3371
 6874SOL    HW132084   4.347   3.746   1.540 -0.1632 -0.0387  2.2614
 6874SOL    HW232085   4.448   3.731   1.645 -1.2727  1.3700 -0.2543
 6875SOL     OW32086   1.639   2.837   5.247  0.1621  0.1105 -0.0563
 6875SOL    HW132087   1.598   2.795   5.323  1.4502  1.9334  1.6421
 6875SOL    HW232088   1.589   2.918   5.240 -0.7744 -0.5988 -1.6716
 6876SOL     OW32089   3.701   1.947  14.698 -0.6386 -0.5704 -0.1104
 6876SOL    HW132090   3.725   1.954  14.790 -1.3858  0.5804  0.0009
 6876SOL    HW232091   3.785   1.930  14.656 -1.4789  1.5805 -2.6786
 6877SOL     OW32092   0.860   4.686   2.773 -0.8451 -0.1752 -0.4284
 6877SOL    HW132093   0.820   4.605   2.741  0.1357 -1.8339  2.5184
 6877SOL    HW232094   0.891   0.011   2.697  0.2442 -1.5740 -0.8815
 6878SOL     OW32095   2.542   1.587   1.501 -0.2102  0.6580  0.3595
 6878SOL    HW132096   2.543   1.624   1.413  0.5729 -0.2337 -0.0015
 6878SOL    HW232097   2.447   1.586   1.510 -0.2478  1.5892  0.0992
 6879SOL     OW32098   4.327   2.252  12.959 -0.4465  0.8030 -0.2516
 6879SOL    HW132099   4.232   2.263  12.956 -0.5373  1.0094  3.1067
 6879SOL    HW232100   4.343   2.264  12.865  0.6606  2.1623  0.1110
 6880SOL     OW32101   0.546   4.181  15.409  0.0280 -0.5627 -0.1752
 6880SOL    HW132102   0.545   4.241  15.484 -1.0154 -1.7828  0.7921
 6880SOL    HW232103   0.533   4.098  15.456  0.6060 -0.9481 -0.6984
 6881SOL     OW32104   0.880   3.521  10.450 -0.1098 -0.0737  0.3480
 6881SOL    HW132105   0.952   3.478  10.497  0.0981  0.5002  0.5579
 6881SOL    HW232106   0.803   3.503  10.504 -0.4644 -3.4208 -1.2911
 6882SOL     OW32107   3.072   2.324   2.257 -0.5043 -0.8113 -0.2877
 6882SOL    HW132108   3.094   2.233   2.238 -2.6814 -1.6590  1.3536
 6882SOL    HW232109   3.109   2.328   2.345 -1.0505 -0.9532 -0.0492
 6883SOL     OW32110   2.130   2.955   5.012 -0.3470 -0.2092 -0.8705
 6883SOL    HW132111   2.102   2.928   4.924  1.5016 -1.5318 -1.0567
 6883SOL    HW232112   2.064   2.921   5.072  0.5507 -0.3156  0.0600
 6884SOL     OW32113   4.707   0.502   2.529  0.8496 -0.4247  0.2806
 6884SOL    HW132114   4.641   0.466   2.588 -0.7468  2.5573  0.3288
 6884SOL    HW232115   4.651   0.567   2.485  0.2527 -0.4483  1.0086
 6885SOL     OW32116   4.374   2.403   4.311  0.3579 -0.1078 -0.2725
 6885SOL    HW132117   4.358   2.371   4.400  1.4809 -0.3481 -0.1567
 6885SOL    HW232118   4.286   2.393   4.273  1.0285 -2.8430 -1.0971
 6886SOL     OW32119   0.633   0.733   6.417  0.0799 -0.0619 -0.6164
 6886SOL    HW132120   0.701   0.788   6.378 -0.4716 -0.6283 -2.3891
 6886SOL    HW232121   0.558   0.766   6.367  0.8687  1.6923 -0.6378
 6887SOL     OW32122   1.213   1.591  11.280 -0.7609  0.8681  0.2801
 6887SOL    HW132123   1.302   1.558  11.272 -0.8247  0.6536  0.4523
 6887SOL    HW232124   1.231   1.680  11.310  0.7324  0.4238  0.7202
 6888SOL     OW32125   2.048   3.655   7.561  0.1124  0.5526  0.4442
 6888SOL    HW132126   1.981   3.723   7.563 -0.0595  0.3877  0.2370
 6888SOL    HW232127   2.100   3.657   7.642 -1.2113 -2.4412  1.3821
 6889SOL     OW32128   1.988   2.376   2.003  0.4889 -0.0457  0.0484
 6889SOL    HW132129   2.052   2.315   2.040 -2.0380 -1.9876  1.2613
 6889SOL    HW232130   1.918   2.314   1.980 -0.6844  2.0695 -2.0261
 6890SOL     OW32131   0.581   3.434  10.917  0.2407  0.0738 -0.0415
 6890SOL    HW132132   0.591   3.340  10.927 -0.3461  0.1267  1.1011
 6890SOL    HW232133   0.597   3.464  11.007 -1.3802 -0.8565  0.5665
 6891SOL     OW32134   0.615   1.054   7.593  0.3824  0.3231 -0.0603
 6891SOL    HW132135   0.668   1.129   7.620  1.3201 -0.1533 -0.5649
 6891SOL    HW232136   0.566   1.036   7.673 -1.1938  0.8661 -0.9144
 6892SOL     OW32137   0.689   4.337   4.015  0.4361  0.3617  0.4658
 6892SOL    HW132138   0.662   4.397   4.084 -0.4577  0.9441 -0.3915
 6892SOL    HW232139   0.611   4.283   4.003  0.1918  1.1571 -1.5551
 6893SOL     OW32140   4.154   2.176  11.588 -0.1921  0.3492 -0.6757
 6893SOL    HW132141   4.089   2.152  11.522 -1.1442 -0.0035  0.3710
 6893SOL    HW232142   4.232   2.155  11.538 -1.3473  0.6804 -2.6206
 6894SOL     OW32143   1.055   1.341   1.595 -0.2376  0.1121  0.3063
 6894SOL    HW132144   1.051   1.293   1.512 -3.4291  0.0600  0.4655
 6894SOL    HW232145   1.002   1.419   1.583 -1.3659 -0.8440 -0.9449
 6895SOL     OW32146   2.224   0.587  15.674 -0.1649  0.1033  0.1169
 6895SOL    HW132147   2.298   0.635  15.636 -0.1918 -1.2224 -1.6073
 6895SOL    HW232148   2.174   0.657  15.715  0.8192  0.8105  0.1208
 6896SOL     OW32149   0.011   1.260  11.693  0.2481  0.1472  0.0745
 6896SOL    HW132150   4.657   1.209  11.714  0.0924  0.0532 -0.7350
 6896SOL    HW232151   0.079   1.228  11.752  0.4933 -0.3765 -0.4990
 6897SOL     OW32152   3.888   3.840  15.130 -0.5852  0.4295 -0.2394
 6897SOL    HW132153   3.958   3.792  15.084 -0.5371 -1.3652  1.6869
 6897SOL    HW232154   3.845   3.763  15.167  0.3766  0.3408  0.7073
 6898SOL     OW32155   1.053   1.461   6.964  0.1786  0.1116  0.3275
 6898SOL    HW132156   1.112   1.534   6.950 -0.6659  0.6722 -0.2906
 6898SOL    HW232157   1.005   1.467   6.881 -1.2296 -0.3980  1.0877
 6899SOL     OW32158   2.327   0.173   2.294  0.4764  1.0416  0.0277
 6899SOL    HW132159   2.303   0.170   2.201 -1.2453  2.2483  0.4275
 6899SOL    HW232160   2.300   0.263   2.312  0.2602  1.1920 -1.0384
 6900SOL     OW32161   2.639   4.134  16.891  0.0685 -0.3252 -0.4149
 6900SOL    HW132162   2.562   4.182  16.860  0.4027 -0.5167 -1.5200
 6900SOL    HW232163   2.699   4.203  16.922  0.6984 -0.3634 -1.5795
 6901SOL     OW32164   1.520   3.123   3.870  0.0175 -0.0161 -0.3238
 6901SOL    HW132165   1.605   3.096   3.836 -0.0423 -0.8283  0.1583
 6901SOL    HW232166   1.534   3.216   3.882  0.5956 -0.0130 -1.0064
 6902SOL     OW32167   0.552   0.296   8.325  0.0364 -0.2312  0.0501
 6902SOL    HW132168   0.482   0.360   8.311 -0.3357  0.3464  4.5539
 6902SOL    HW232169   0.618   0.358   8.358 -0.8098  1.0395 -0.6788
 6903SOL     OW32170   0.395   2.288  15.642  0.2034 -0.3600 -0.3595
 6903SOL    HW132171   0.399   2.378  15.612  0.7632 -0.6037 -1.0067
 6903SOL    HW232172   0.322   2.253  15.591  1.2864 -0.0745 -2.0720
 6904SOL     OW32173   0.653   0.656   6.066  0.3628 -0.1238  0.4392
 6904SOL    HW132174   0.709   0.675   6.142  0.2178 -1.3226  0.8346
 6904SOL    HW232175   0.702   0.705   6.000  0.5701 -2.6215 -1.2252
 6905SOL     OW32176   2.912   1.254  13.574 -0.0583 -0.3581 -0.0328
 6905SOL    HW132177   2.825   1.267  13.611  0.4198 -2.4514  1.7730
 6905SOL    HW232178   2.970   1.292  13.640  0.5152 -0.5654 -0.4142
 6906SOL     OW32179   3.208   3.040  14.476  0.2040 -0.4201 -0.4539
 6906SOL    HW132180   3.298   3.029  14.507  0.1568 -0.2970 -0.2713
 6906SOL    HW232181   3.167   3.032  14.562  0.3885 -0.9537 -0.4132
 6907SOL     OW32182   2.739   3.843   7.369  0.0359 -0.2326 -0.2943
 6907SOL    HW132183   2.755   3.883   7.455  1.0766  2.4793 -1.7314
 6907SOL    HW232184   2.662   3.891   7.339  0.9502  1.6438  0.2996
 6908SOL     OW32185   1.639   0.858   3.689  0.8125  0.2512  0.3409
 6908SOL    HW132186   1.671   0.791   3.749  1.6098  0.2153 -0.1273
 6908SOL    HW232187   1.724   0.895   3.665  0.7699  0.0054 -0.1977
 6909SOL     OW32188   1.949   1.700   8.019  0.0287 -0.3093 -0.7278
 6909SOL    HW132189   1.932   1.703   8.113  1.2814 -2.5180 -0.4188
 6909SOL    HW232190   2.032   1.743   8.002 -1.0778  1.6008 -1.3316
 6910SOL     OW32191   1.626   3.139   7.457  0.3093 -0.3804  0.5877
 6910SOL    HW132192   1.544   3.186   7.443 -0.0855 -0.3596  2.8943
 6910SOL    HW232193   1.600   3.081   7.528 -1.4135  1.6238  1.6032
 6911SOL     OW32194   2.821   1.226   0.259 -0.2020 -0.6013  0.3896
 6911SOL    HW132195   2.905   1.215   0.304  0.1006  1.4524  0.3211
 6911SOL    HW232196   2.838   1.297   0.197  0.1922 -1.2619 -0.2702
 6912SOL     OW32197   4.607   3.033  13.594 -0.3015 -0.4230 -0.0306
 6912SOL    HW132198   4.655   2.956  13.566 -1.4036 -0.2833 -2.2826
 6912SOL    HW232199   4.676   3.085  13.635  2.0258 -0.8915 -3.3609
 6913SOL     OW32200   3.080   3.967   6.240  0.5347 -0.2837 -0.0006
 6913SOL    HW132201   3.053   3.913   6.314  2.5450  1.0273  1.6826
 6913SOL    HW232202   3.000   3.961   6.188 -0.6705 -0.9182  1.9116
 6914SOL     OW32203   0.159   0.431  11.999  0.6287  0.1549 -0.1366
 6914SOL    HW132204   0.120   0.478  12.073 -1.4478 -1.0910 -0.4520
 6914SOL    HW232205   0.202   0.364  12.052  1.2339  1.1257  0.6120
 6915SOL     OW32206   0.125   2.894   1.449 -0.5534 -0.6977  0.5166
 6915SOL    HW132207   0.168   2.980   1.454  1.4940 -1.7789  1.8361
 6915SOL    HW232208   0.201   2.835   1.451 -0.4709 -0.6117 -0.0708
 6916SOL     OW32209   4.666   3.778   7.788  0.0644 -0.0487 -0.2023
 6916SOL    HW132210   4.681   3.717   7.860 -0.3176  0.4650  0.3185
 6916SOL    HW232211   4.571   3.785   7.783  0.1337  0.3885 -0.9697
 6917SOL     OW32212   3.526   0.043   2.913 -0.5583  0.8182  0.2110
 6917SOL    HW132213   3.447   0.069   2.960 -1.3255 -0.8519 -0.1588
 6917SOL    HW232214   3.592   0.106   2.944 -0.2934 -0.1979  1.7331
 6918SOL     OW32215   3.422   2.859   2.163  0.0189  0.3421  0.3409
 6918SOL    HW132216   3.443   2.847   2.256  0.1609  0.4406  0.3204
 6918SOL    HW232217   3.382   2.772   2.157  2.8204 -1.0652  1.8207
 6919SOL     OW32218   4.309   2.062   6.723 -0.4541  0.1440  0.4954
 6919SOL    HW132219   4.219   2.079   6.696 -0.6341  1.3096  1.8285
 6919SOL    HW232220   4.352   2.039   6.641  0.9418  1.2713  0.9027
 6920SOL     OW32221   1.189   4.034  16.086 -0.5074 -0.2967 -0.1174
 6920SOL    HW132222   1.165   3.959  16.140 -0.8511 -0.6642 -0.7797
 6920SOL    HW232223   1.240   3.990  16.017  1.3669  0.0898  1.0302
 6921SOL     OW32224   3.636   3.567   6.259 -0.8529 -0.3349 -0.2163
 6921SOL    HW132225   3.720   3.540   6.221  0.0870 -0.2168  1.7854
 6921SOL    HW232226   3.575   3.519   6.204 -0.3538 -2.4216  1.0673
 6922SOL     OW32227   0.632   3.692  17.488 -0.1109 -0.0159 -0.3864
 6922SOL    HW132228   0.721   3.679  17.453 -1.0213 -1.9728 -2.0363
 6922SOL    HW232229   0.612   3.601  17.511  1.5996  0.0147  1.1902
 6923SOL     OW32230   3.966   2.232   6.024 -0.0319 -0.4220 -0.1733
 6923SOL    HW132231   3.907   2.157   6.016 -0.8557  0.1542  0.4976
 6923SOL    HW232232   4.052   2.191   6.019  0.5352  0.9342 -1.7250
 6924SOL     OW32233   3.897   3.854  12.762  0.0839  0.0748 -0.5496
 6924SOL    HW132234   3.921   3.852  12.855 -1.6816 -1.7771 -0.1192
 6924SOL    HW232235   3.965   3.910  12.725 -2.2367  2.9825 -0.4533
 6925SOL     OW32236   2.805   1.654  14.744 -0.3515  0.1174  0.3071
 6925SOL    HW132237   2.866   1.613  14.683 -1.2089  1.0541 -1.1739
 6925SOL    HW232238   2.866   1.720  14.778  0.9680 -1.3259  0.7263
 6926SOL     OW32239   3.704   4.437   3.987 -0.1304 -0.0431 -0.2714
 6926SOL    HW132240   3.648   4.500   4.032 -0.3406 -1.5621  1.5853
 6926SOL    HW232241   3.663   4.354   4.012  1.2104 -1.2722 -2.1429
 6927SOL     OW32242   4.667   1.243   2.678  0.4396  0.1400 -0.2848
 6927SOL    HW132243   4.668   1.169   2.617 -0.9928  0.1655 -0.3476
 6927SOL    HW232244   4.718   1.307   2.629  0.6355  0.4774  0.3618
 6928SOL     OW32245   3.875   2.349  15.925 -0.2640  0.2778  0.0844
 6928SOL    HW132246   3.942   2.296  15.882  0.3261  0.6192  0.5608
 6928SOL    HW232247   3.929   2.387  15.995 -1.3734  0.6720  0.7227
 6929SOL     OW32248   1.582   4.444   8.317  0.1642  0.5158  0.3575
 6929SOL    HW132249   1.665   4.492   8.318  0.3081  0.3157 -2.1481
 6929SOL    HW232250   1.525   4.479   8.386 -0.3162  0.0280  0.2104
 6930SOL     OW32251   1.706   4.301   5.310  0.4925 -0.0787 -0.1057
 6930SOL    HW132252   1.717   4.352   5.390  0.7514  2.8447 -1.9993
 6930SOL    HW232253   1.617   4.269   5.318  1.2385 -1.6798  1.8933
 6931SOL     OW32254   2.142   4.659   5.414  0.7375  0.1240 -0.1657
 6931SOL    HW132255   2.141   4.661   5.510  0.1016  0.0220 -0.1741
 6931SOL    HW232256   2.230   4.696   5.405  1.2107 -1.1128 -0.5277
 6932SOL     OW32257   3.069   0.849   6.108 -0.5037  0.2887 -0.0880
 6932SOL    HW132258   3.010   0.821   6.039 -1.9618 -0.0983  1.3138
 6932SOL    HW232259   3.008   0.912   6.147  1.8421  1.0940  2.3377
 6933SOL     OW32260   1.521   1.146   0.919  0.5090  0.2661 -0.1851
 6933SOL    HW132261   1.547   1.198   0.995 -0.3396 -1.7499  1.4795
 6933SOL    HW232262   1.493   1.061   0.952  0.5811 -0.2553 -1.4953
 6934SOL     OW32263   3.164   3.000  17.495  0.0671 -0.0279 -0.6687
 6934SOL    HW132264   3.242   3.021  17.443 -0.6839  0.1498 -1.7126
 6934SOL    HW232265   3.149   3.080  17.546 -0.0498  0.2062 -1.0764
 6935SOL     OW32266   2.299   3.310   7.712 -0.4438 -0.3952  0.0738
 6935SOL    HW132267   2.343   3.358   7.641  0.9641 -0.1978  1.0963
 6935SOL    HW232268   2.223   3.314   7.653  0.8452 -0.4377 -1.5889
 6936SOL     OW32269   0.269   3.283   5.656  0.8700  0.0331  0.4379
 6936SOL    HW132270   0.220   3.215   5.609  1.5015 -0.5926  0.6881
 6936SOL    HW232271   0.303   3.227   5.726 -0.3555  3.4623  3.7687
 6937SOL     OW32272   3.262   3.240   3.259  0.2400 -0.3209 -0.3146
 6937SOL    HW132273   3.336   3.182   3.241 -1.1007 -1.8067 -1.0013
 6937SOL    HW232274   3.278   3.306   3.192 -1.4701 -0.1956 -0.5870
 6938SOL     OW32275   2.906   2.041  16.272  0.7930 -0.0157  0.4838
 6938SOL    HW132276   2.894   2.135  16.259 -1.2956 -0.3884 -0.3019
 6938SOL    HW232277   2.975   2.035  16.337  0.1009  0.2091  1.2395
 6939SOL     OW32278   3.578   4.061   9.024  0.6161 -0.0605 -0.4464
 6939SOL    HW132279   3.608   4.070   8.934  0.8217 -0.9360 -0.4692
 6939SOL    HW232280   3.492   4.020   9.015  0.4466  0.4694 -1.1896
 6940SOL     OW32281   1.537   1.902  10.522  0.1708  0.2171  0.5372
 6940SOL    HW132282   1.508   1.872  10.608 -2.0206 -1.4602 -0.7808
 6940SOL    HW232283   1.552   1.995  10.536 -0.4839  0.4496 -0.2773
 6941SOL     OW32284   2.690   0.223   8.898 -1.0018 -0.3259  0.1888
 6941SOL    HW132285   2.653   0.188   8.817 -1.0457 -0.1709  0.1427
 6941SOL    HW232286   2.708   0.315   8.881 -0.7325 -0.4250 -0.0701
 6942SOL     OW32287   2.352   0.256  14.067 -0.4821 -0.1969 -0.1347
 6942SOL    HW132288   2.393   0.170  14.054  1.7667  0.7476  0.7888
 6942SOL    HW232289   2.288   0.237  14.136 -0.2334 -0.3010  0.0682
 6943SOL     OW32290   3.429   2.031   3.581  0.5619 -0.3460 -0.2457
 6943SOL    HW132291   3.520   2.050   3.559 -0.3718  1.1404 -2.8535
 6943SOL    HW232292   3.383   2.067   3.505  0.6196  0.0778 -0.0804
 6944SOL     OW32293   3.514   3.625  11.441 -0.1547  0.0465 -0.3074
 6944SOL    HW132294   3.423   3.650  11.422  0.0759  1.9930  1.1463
 6944SOL    HW232295   3.523   3.536  11.407  1.2103 -0.2565  0.8667
 6945SOL     OW32296   0.070   2.356   0.189 -0.6371 -0.3818  0.1543
 6945SOL    HW132297   0.158   2.375   0.221 -1.4563  1.0805  1.5633
 6945SOL    HW232298   0.081   2.263   0.209  0.0199 -0.2107  0.5695
 6946SOL     OW32299   2.961   2.334   6.440  0.2822  0.3949  0.9377
 6946SOL    HW132300   3.000   2.315   6.526  1.2730 -0.3101  0.3394
 6946SOL    HW232301   3.041   2.354   6.392  1.0650 -4.5386  0.1956
 6947SOL     OW32302   0.786   0.266  10.865  0.1820 -0.1169  0.2326
 6947SOL    HW132303   0.715   0.234  10.921 -0.2458 -0.5436 -0.5688
 6947SOL    HW232304   0.791   0.358  10.889  0.9771 -0.4186  1.2136
 6948SOL     OW32305   4.064   1.386  13.353 -0.0955 -0.5803  0.2989
 6948SOL    HW132306   4.149   1.429  13.345 -0.8102  0.6682 -0.5685
 6948SOL    HW232307   4.096   1.307  13.396  1.4724  0.0357  0.2483
 6949SOL     OW32308   4.578   3.271   0.693 -0.4468 -0.3469  0.2150
 6949SOL    HW132309   4.488   3.263   0.662 -0.1046 -0.5919 -0.7146
 6949SOL    HW232310   4.620   3.222   0.622  1.5968  0.8969  0.5486
 6950SOL     OW32311   4.185   0.143   5.257  0.2938  0.3002  0.2424
 6950SOL    HW132312   4.162   0.093   5.335 -2.3663  0.1833 -0.6182
 6950SOL    HW232313   4.094   0.140   5.225  0.4794  1.8968 -0.4345
 6951SOL     OW32314   0.416   4.539   8.394  0.0159  0.0971 -0.8287
 6951SOL    HW132315   0.434   4.625   8.433  0.9430  0.1562 -1.3881
 6951SOL    HW232316   0.503   4.525   8.356  0.4411 -4.5998  1.9022
 6952SOL     OW32317   3.640   3.529   4.208 -0.4181 -0.2822  0.4770
 6952SOL    HW132318   3.548   3.507   4.196 -0.8688  0.9076  1.7703
 6952SOL    HW232319   3.635   3.605   4.150 -1.0069  0.1345  1.0846
 6953SOL     OW32320   3.419   4.083   8.273  0.2506 -0.1662  0.2619
 6953SOL    HW132321   3.507   4.119   8.263  0.5928 -1.2592 -0.5801
 6953SOL    HW232322   3.403   4.111   8.363  0.3283  3.1581 -0.7526
 6954SOL     OW32323   4.128   4.452   3.179 -0.2316  0.4004  0.3665
 6954SOL    HW132324   4.177   4.436   3.099  2.0214 -2.6932  2.3274
 6954SOL    HW232325   4.039   4.459   3.146 -0.2857  0.1869  0.4702
 6955SOL     OW32326   2.642   3.465   4.285  0.0932 -0.3263  0.1363
 6955SOL    HW132327   2.680   3.488   4.200 -2.3342  0.3931 -0.7503
 6955SOL    HW232328   2.719   3.457   4.341  0.7647  0.2966 -0.6871
 6956SOL     OW32329   4.242   4.400   0.281  0.0890  0.0870 -0.3397
 6956SOL    HW132330   4.244   4.474   0.342  0.2679  1.0620 -1.5191
 6956SOL    HW232331   4.173   4.350   0.324 -0.5659  1.1943 -0.1037
 6957SOL     OW32332   4.292   0.225   7.864 -0.0808 -0.5168 -0.0697
 6957SOL    HW132333   4.372   0.216   7.915 -0.6693  0.0493  0.9615
 6957SOL    HW232334   4.248   0.301   7.903  0.8581 -0.4295  0.8190
 6958SOL     OW32335   4.200   1.263   4.403  0.1063  0.3615  0.5543
 6958SOL    HW132336   4.207   1.326   4.332  1.7155 -0.8059 -0.3148
 6958SOL    HW232337   4.248   1.189   4.367 -0.0431  0.9282 -0.8213
 6959SOL     OW32338   2.391   0.983   1.135 -0.0224  0.0376 -0.5582
 6959SOL    HW132339   2.482   0.987   1.165 -1.0298  0.9828  2.4323
 6959SOL    HW232340   2.411   0.919   1.067  0.0524 -0.4806 -0.0579
 6960SOL     OW32341   4.015   0.262   9.893  0.3410 -0.1738  0.0147
 6960SOL    HW132342   3.953   0.312   9.947  1.3479  1.1670 -0.0945
 6960SOL    HW232343   3.954   0.208   9.842  0.1256  0.5106 -0.4518
 6961SOL     OW32344   3.200   2.700   5.599  0.3304 -0.7253 -0.8886
 6961SOL    HW132345   3.129   2.693   5.535  1.8316  0.4074 -2.6854
 6961SOL    HW232346   3.267   2.653   5.549 -0.7200 -1.6586 -1.4184
 6962SOL     OW32347   4.453   4.135   1.334  0.7320 -0.3524 -0.1626
 6962SOL    HW132348   4.446   4.202   1.266  0.0274  0.1941  0.4476
 6962SOL    HW232349   4.412   4.057   1.296  1.7498 -0.0883 -1.7980
 6963SOL     OW32350   4.655   2.951  11.765  0.0746 -0.2568 -0.0398
 6963SOL    HW132351   4.716   2.979  11.833 -2.1096  1.7996  1.0715
 6963SOL    HW232352   4.571   2.977  11.803 -0.9446  0.8956 -3.0289
 6964SOL     OW32353   1.578   3.263   8.075  0.3115 -0.0635 -0.5224
 6964SOL    HW132354   1.553   3.198   8.009  1.8818  0.4146 -1.5824
 6964SOL    HW232355   1.514   3.244   8.144 -0.1110  1.9335 -0.3606
 6965SOL     OW32356   3.839   0.400   3.436  0.1981  0.6846 -0.0483
 6965SOL    HW132357   3.769   0.435   3.380 -0.8093 -1.3279 -0.0253
 6965SOL    HW232358   3.797   0.326   3.480  0.2959  0.4997 -0.2688
 6966SOL     OW32359   0.236   0.943  16.781  0.2377  0.8859  0.5882
 6966SOL    HW132360   0.190   0.899  16.852 -0.3247  0.4599 -0.0350
 6966SOL    HW232361   0.300   0.874  16.765 -1.2559 -0.1166 -1.0924
 6967SOL     OW32362   3.618   4.508   5.207 -0.9848  0.1936 -0.3585
 6967SOL    HW132363   3.650   4.576   5.147  1.5296 -0.0183  0.7833
 6967SOL    HW232364   3.687   4.447   5.182 -1.4737 -0.0868 -1.0200
 6968SOL     OW32365   0.827   3.991   6.213  0.1948 -0.1871 -0.0741
 6968SOL    HW132366   0.902   4.048   6.228  0.0382  0.2850 -1.0971
 6968SOL    HW232367   0.764   4.063   6.216 -1.5756 -1.6619 -1.2391
 6969SOL     OW32368   0.236   1.221   6.490  0.5821  0.0524  0.3948
 6969SOL    HW132369   0.286   1.142   6.473  1.1584  0.6186 -0.5767
 6969SOL    HW232370   0.206   1.196   6.577 -0.1673  1.0351  0.4290
 6970SOL     OW32371   0.306   1.738  15.597 -0.0671 -0.1608  0.2360
 6970SOL    HW132372   0.390   1.773  15.566 -0.4653 -0.0072 -0.6755
 6970SOL    HW232373   0.330   1.653  15.635 -0.5278  0.2515  1.4389
 6971SOL     OW32374   2.580   2.071   0.133  0.0288 -0.4020  0.2842
 6971SOL    HW132375   2.672   2.095   0.137  0.0407 -0.9583  3.1683
 6971SOL    HW232376   2.542   2.155   0.158  0.7195 -0.0487  0.1291
 6972SOL     OW32377   2.948   1.491   4.436  0.4765 -0.5166  0.0774
 6972SOL    HW132378   2.914   1.402   4.442 -1.4198  0.3013  1.3870
 6972SOL    HW232379   2.994   1.470   4.355 -1.5578 -2.0501 -0.6750
 6973SOL     OW32380   0.543   1.772  16.162  0.4711 -0.0068  0.7634
 6973SOL    HW132381   0.582   1.687  16.181 -1.2042 -1.0464 -0.4615
 6973SOL    HW232382   0.616   1.824  16.196  0.7663 -0.2185  0.4507
 6974SOL     OW32383   1.934   0.750   7.387 -0.0074  0.0812  0.3593
 6974SOL    HW132384   1.911   0.843   7.392 -1.5142 -0.3377  1.4845
 6974SOL    HW232385   1.930   0.713   7.475 -0.7552 -0.3807  0.1352
 6975SOL     OW32386   3.810   1.829   2.650  0.1569  0.0149 -0.6798
 6975SOL    HW132387   3.717   1.840   2.669 -0.1001 -2.1575 -0.7128
 6975SOL    HW232388   3.841   1.749   2.693  0.3900 -0.5024 -1.8312
 6976SOL     OW32389   2.867   1.488  14.099  0.4097  0.1169 -0.0740
 6976SOL    HW132390   2.821   1.496  14.183 -0.7967 -0.4108 -0.6781
 6976SOL    HW232391   2.803   1.435  14.051 -0.1681  0.0474  0.7719
 6977SOL     OW32392   0.038   3.624  15.841  0.3571  0.1458 -0.2972
 6977SOL    HW132393   0.128   3.594  15.829  0.0806 -1.0159  0.5557
 6977SOL    HW232394   0.000   3.537  15.851 -0.7695  0.5511 -1.1359
 6978SOL     OW32395   3.086   2.230   6.661  0.2108 -0.1076 -0.0716
 6978SOL    HW132396   3.020   2.213   6.728 -0.9527 -0.1051 -1.2062
 6978SOL    HW232397   3.153   2.268   6.717 -0.1618  0.9186 -0.3257
 6979SOL     OW32398   3.021   0.128   3.790  0.1759  0.4188  0.2674
 6979SOL    HW132399   3.103   0.176   3.778  1.4138 -2.1240 -1.6473
 6979SOL    HW232400   3.007   0.116   3.696  0.7923 -3.9987  0.7428
 6980SOL     OW32401   3.326   2.646  15.322 -0.3398  0.0909  0.2954
 6980SOL    HW132402   3.322   2.566  15.374  0.6315  0.3220  0.7242
 6980SOL    HW232403   3.366   2.702  15.388  2.2903  0.0864 -1.2773
 6981SOL     OW32404   3.755   3.728   0.538 -0.2535  0.3108  0.3743
 6981SOL    HW132405   3.664   3.701   0.527 -0.0234 -0.6987  1.0498
 6981SOL    HW232406   3.801   3.691   0.463  1.9032 -0.9910  2.3614
 6982SOL     OW32407   3.561   2.478  11.739  0.0693 -0.3139 -0.4773
 6982SOL    HW132408   3.470   2.462  11.714  0.2698 -3.4646  0.8735
 6982SOL    HW232409   3.604   2.425  11.673 -0.2131  0.2040 -1.0780
 6983SOL     OW32410   1.493   0.228   9.459 -0.1739 -0.2246  0.2173
 6983SOL    HW132411   1.487   0.305   9.403  0.4727  0.2041  0.7235
 6983SOL    HW232412   1.557   0.167   9.424 -0.7552  0.2222 -1.6116
 6984SOL     OW32413   3.788   1.540  12.267  0.4782 -0.0133 -0.1080
 6984SOL    HW132414   3.825   1.555  12.181 -0.7495  0.3310 -0.5790
 6984SOL    HW232415   3.824   1.624  12.296 -1.3142  0.5803  0.4258
 6985SOL     OW32416   1.865   2.569   8.698 -0.4187 -0.2542 -0.0394
 6985SOL    HW132417   1.779   2.596   8.727  0.2728  0.5198  1.2651
 6985SOL    HW232418   1.914   2.650   8.710 -1.1063  0.5009 -2.3861
 6986SOL     OW32419   3.349   3.969   1.270  0.3055  0.5786 -0.6602
 6986SOL    HW132420   3.277   3.927   1.223 -0.4991  0.5158  0.6170
 6986SOL    HW232421   3.319   4.055   1.299 -2.2750 -0.8439  0.8819
 6987SOL     OW32422   2.878   2.961  13.965  0.2201 -0.4584 -0.0437
 6987SOL    HW132423   2.821   2.886  13.978 -1.2992  1.0703  2.1407
 6987SOL    HW232424   2.821   3.008  13.904  0.6399  0.7391  0.4757
 6988SOL     OW32425   1.487   4.471   5.102  0.3521 -0.4629  0.1412
 6988SOL    HW132426   1.448   4.446   5.186 -0.1987 -0.4714 -0.1148
 6988SOL    HW232427   1.422   4.538   5.081  0.7706 -0.0348  0.2228
 6989SOL     OW32428   1.109   1.010   2.869  0.3251 -0.4169 -0.3399
 6989SOL    HW132429   1.186   1.021   2.924 -0.2703 -1.2157  0.6607
 6989SOL    HW232430   1.069   0.930   2.903  0.4352 -0.2219  0.2460
 6990SOL     OW32431   3.449   2.823   2.457 -0.2437 -0.9044  0.2112
 6990SOL    HW132432   3.401   2.763   2.513  0.1238 -0.6477  0.7978
 6990SOL    HW232433   3.434   2.909   2.496  2.1100  0.0347 -0.9433
 6991SOL     OW32434   4.099   0.308   5.784  0.1024  0.3061 -0.6601
 6991SOL    HW132435   4.073   0.374   5.849  1.2546 -0.3127  0.4268
 6991SOL    HW232436   4.149   0.361   5.722 -0.3707  0.9120 -0.5279
 6992SOL     OW32437   4.680   0.100  16.591  0.6170 -0.2055  0.3127
 6992SOL    HW132438   0.050   0.115  16.598  0.3750  2.1153 -1.4357
 6992SOL    HW232439   4.666   0.161  16.518 -1.3718 -0.6103  0.3454
 6993SOL     OW32440   4.675   2.440   6.819  0.9061  0.1405  0.8645
 6993SOL    HW132441   4.666   2.349   6.792 -3.5804  1.2078 -1.2553
 6993SOL    HW232442   0.011   2.477   6.754  1.0890  0.9702  1.5064
 6994SOL     OW32443   2.436   4.403   0.834  0.2304  0.0232  0.1028
 6994SOL    HW132444   2.517   4.428   0.789  1.2085 -0.5464  1.5576
 6994SOL    HW232445   2.461   4.364   0.918 -2.6974 -1.0456  0.4682
 6995SOL     OW32446   2.711   1.693  16.849 -0.3355  0.3305  0.9322
 6995SOL    HW132447   2.725   1.782  16.816 -0.1446 -0.1426 -0.2331
 6995SOL    HW232448   2.674   1.651  16.772  1.3245  0.9508 -0.2172
 6996SOL     OW32449   1.937   0.224   1.518 -0.0520  0.3997  0.0937
 6996SOL    HW132450   1.868   0.207   1.582  0.8006  1.9222  1.4204
 6996SOL    HW232451   1.955   0.315   1.542 -0.9885  0.1842  1.6499
 6997SOL     OW32452   1.244   4.211   4.464  0.7101  0.5708 -0.3494
 6997SOL    HW132453   1.331   4.183   4.491  1.2381  1.2852 -1.3178
 6997SOL    HW232454   1.262   4.304   4.454  1.4169  0.2287 -2.2954
 6998SOL     OW32455   0.153   2.787   1.982 -0.2820  0.0196 -0.3580
 6998SOL    HW132456   0.159   2.698   1.947  0.6115  0.4800 -1.3733
 6998SOL    HW232457   0.234   2.819   1.941 -0.9399  0.8589 -0.9986
 6999SOL     OW32458   3.615   1.172   4.570  0.0436 -0.2126 -0.2728
 6999SOL    HW132459   3.614   1.077   4.564 -0.5325 -0.3302  1.8132
 6999SOL    HW232460   3.562   1.187   4.492 -1.5552  0.1659  0.9082
 7000SOL     OW32461   3.616   3.597   6.923 -0.6042  0.3412  0.2172
 7000SOL    HW132462   3.574   3.657   6.861 -2.1983 -1.5600 -0.5755
 7000SOL    HW232463   3.550   3.595   6.992 -0.0828  0.9559  0.7344
 7001SOL     OW32464   2.208   4.292   6.047 -0.0293 -0.3831 -0.7398
 7001SOL    HW132465   2.149   4.239   5.994  0.3216 -1.6416  0.1500
 7001SOL    HW232466   2.264   4.220   6.075  0.4648 -0.6108 -2.3088
 7002SOL     OW32467   2.285   1.512   1.541  0.6543 -0.3964  0.6121
 7002SOL    HW132468   2.296   1.438   1.601 -2.8871 -0.5488  1.1102
 7002SOL    HW232469   2.233   1.468   1.474  1.4590 -1.4565  0.6955
 7003SOL     OW32470   3.026   1.655   5.015 -0.6978  0.2119  0.0288
 7003SOL    HW132471   3.053   1.570   4.981  0.3926  0.8841 -0.7776
 7003SOL    HW232472   2.937   1.671   4.985  0.0282 -0.9539 -2.7263
 7004SOL     OW32473   1.294   0.479   7.480 -0.1297 -0.1324  0.0659
 7004SOL    HW132474   1.297   0.478   7.384  1.3161  1.1700  0.0923
 7004SOL    HW232475   1.208   0.520   7.485  0.9400  2.0044  0.9267
 7005SOL     OW32476   1.111   1.088   7.165  0.6677 -0.9800  0.0866
 7005SOL    HW132477   1.169   1.023   7.206 -0.6083 -1.6435  0.8356
 7005SOL    HW232478   1.148   1.173   7.188 -0.1045 -0.9482  1.1996
 7006SOL     OW32479   2.452   0.071   7.288 -0.0631  0.1107  0.4747
 7006SOL    HW132480   2.388   0.039   7.351  0.0287  0.3704  0.6988
 7006SOL    HW232481   2.502   4.715   7.276  1.1692  0.8325  0.7887
 7007SOL     OW32482   2.702   2.151   0.787  0.5586  0.3682  0.1145
 7007SOL    HW132483   2.727   2.222   0.728 -0.4409  1.8643  1.4850
 7007SOL    HW232484   2.693   2.189   0.874  1.2663  2.6760 -0.8045
 7008SOL     OW32485   1.077   1.512  13.491 -0.0386 -0.2969 -0.4808
 7008SOL    HW132486   1.130   1.542  13.565  0.3059  0.6094 -1.0866
 7008SOL    HW232487   0.997   1.562  13.509  0.4326  0.3101 -0.0397
 7009SOL     OW32488   3.866   4.147  17.388  0.3704  0.6747 -0.1577
 7009SOL    HW132489   3.773   4.158  17.407  0.5867  1.5242  0.4284
 7009SOL    HW232490   3.897   4.115  17.473 -2.1679 -0.6565  0.2766
 7010SOL     OW32491   1.784   0.409   9.922  0.2050  0.2875 -0.3664
 7010SOL    HW132492   1.783   0.443   9.832  1.3602  0.6698 -0.2404
 7010SOL    HW232493   1.793   0.477   9.989  0.6871 -2.2198  2.0793
 7011SOL     OW32494   1.413   2.601  14.676  0.1545  0.3929  0.1297
 7011SOL    HW132495   1.335   2.584  14.730 -0.3394  1.6472 -0.2049
 7011SOL    HW232496   1.418   2.695  14.687  1.4848  0.1524  1.5634
 7012SOL     OW32497   4.709   0.168   4.974 -0.6752  0.1643 -1.0059
 7012SOL    HW132498   4.702   0.261   4.994  2.1716  0.2607 -0.4715
 7012SOL    HW232499   0.074   0.164   4.938 -0.5239  0.5878 -0.6840
 7013SOL     OW32500   2.038   2.840   4.132  0.1428  0.4001  0.0725
 7013SOL    HW132501   1.952   2.863   4.169 -0.4781 -2.5201  0.4476
 7013SOL    HW232502   1.996   2.787   4.064  3.0211  0.5650 -1.8450
 7014SOL     OW32503   0.128   1.151   6.749  0.2553  0.1708  0.0251
 7014SOL    HW132504   0.126   1.230   6.804 -1.9070 -0.6639  1.1933
 7014SOL    HW232505   0.176   1.094   6.809 -1.5889 -1.3282  0.0866
 7015SOL     OW32506   0.492   2.752   8.244 -0.0556  0.3330 -0.0520
 7015SOL    HW132507   0.550   2.788   8.311  0.3559 -0.0035 -0.2292
 7015SOL    HW232508   0.500   2.658   8.261  1.4878  0.2672 -1.1482
 7016SOL     OW32509   0.975   0.118  17.692 -0.1846 -0.1608  0.2505
 7016SOL    HW132510   0.933   0.192  17.648  0.6094  1.1914  1.7625
 7016SOL    HW232511   0.897   0.063   0.004 -0.2419 -0.0835  0.2261
 7017SOL     OW32512   4.691   0.533   5.608  0.5062  0.1815 -0.1462
 7017SOL    HW132513   4.608   0.571   5.639  0.2428 -0.9697  0.5843
 7017SOL    HW232514   0.010   0.505   5.689 -1.2148 -0.6947  0.4841
 7018SOL     OW32515   3.447   0.373   7.407 -0.2812  0.4595  0.3028
 7018SOL    HW132516   3.403   0.305   7.357  0.0186  1.3100 -1.1258
 7018SOL    HW232517   3.477   0.325   7.484 -0.9521  2.2505  1.6802
 7019SOL     OW32518   0.532   4.362   8.631  0.0340  0.0702 -0.0037
 7019SOL    HW132519   0.555   4.300   8.700 -0.7906 -0.1027  0.1174
 7019SOL    HW232520   0.618   4.400   8.611 -1.0576  1.5407 -1.9018
 7020SOL     OW32521   1.765   1.517   7.926  0.0565 -0.1075  0.0209
 7020SOL    HW132522   1.754   1.456   7.999 -0.5875  0.3433  0.3010
 7020SOL    HW232523   1.825   1.582   7.962 -1.0570  1.2179 -0.5030
 7021SOL     OW32524   0.291   4.244   5.328  0.3651  0.4832 -0.2198
 7021SOL    HW132525   0.326   4.156   5.336  2.8968  1.4028 -0.9096
 7021SOL    HW232526   0.199   4.237   5.354  0.0422 -0.6758 -1.6927
 7022SOL     OW32527   4.358   2.710   8.433  0.5404  0.1289  0.3278
 7022SOL    HW132528   4.402   2.681   8.354 -0.4146 -0.0766 -0.1261
 7022SOL    HW232529   4.272   2.670   8.422  0.7306 -1.1619  3.2943
 7023SOL     OW32530   1.711   2.641   4.170  0.0700 -0.7795  0.3582
 7023SOL    HW132531   1.678   2.657   4.082  1.0883  0.8115  0.2818
 7023SOL    HW232532   1.793   2.599   4.144 -1.9199 -2.3285 -3.4327
 7024SOL     OW32533   2.896   1.564  11.382  0.8647  0.2712 -0.2946
 7024SOL    HW132534   2.855   1.614  11.311  0.1993  0.6102  0.3282
 7024SOL    HW232535   2.986   1.595  11.388  0.8104  0.1612  1.0469
 7025SOL     OW32536   3.554   2.971  17.004 -0.3364  0.3682  0.3035
 7025SOL    HW132537   3.497   2.937  16.936 -1.3142 -0.4609  1.5367
 7025SOL    HW232538   3.579   3.058  16.972 -1.7638 -0.2501 -2.4676
 7026SOL     OW32539   2.770   0.756  12.412 -0.1289  0.2862  0.3535
 7026SOL    HW132540   2.771   0.757  12.508 -1.3505 -0.4124  0.3735
 7026SOL    HW232541   2.795   0.665  12.397  1.3260  1.0118 -1.6037
 7027SOL     OW32542   0.186   0.078   6.896  0.2984  0.2861  0.1141
 7027SOL    HW132543   0.094   0.086   6.920 -0.2664  1.9217 -2.7266
 7027SOL    HW232544   0.210   0.169   6.915 -0.1879  0.7059 -1.3220
 7028SOL     OW32545   3.355   0.938   1.615 -0.3929  0.1611  0.2563
 7028SOL    HW132546   3.393   0.851   1.612 -1.1254 -0.1492 -0.0725
 7028SOL    HW232547   3.309   0.936   1.531  0.6624  1.9999 -0.3778
 7029SOL     OW32548   3.026   4.058  12.615 -0.1800  0.1438 -0.5580
 7029SOL    HW132549   3.007   3.988  12.678  1.1819 -0.8000 -1.1891
 7029SOL    HW232550   3.025   3.998  12.540  0.2937  0.4819 -0.8289
 7030SOL     OW32551   2.060   2.893   6.206  0.4874  0.3054 -0.0187
 7030SOL    HW132552   2.033   2.954   6.275 -0.5069 -0.4188  0.2356
 7030SOL    HW232553   2.121   2.840   6.258 -0.2349 -1.0299 -0.5299
 7031SOL     OW32554   2.960   0.057  14.115 -0.7295  0.3647 -0.5580
 7031SOL    HW132555   3.044   0.025  14.149 -1.5436 -0.0796  0.9882
 7031SOL    HW232556   2.979   0.089  14.026  3.3327  1.8350  0.8359
 7032SOL     OW32557   3.373   0.300   4.535 -0.1530  0.2133  0.0593
 7032SOL    HW132558   3.356   0.242   4.461  0.2682  0.1681 -0.0022
 7032SOL    HW232559   3.467   0.317   4.525  0.1206 -2.1416 -1.2752
 7033SOL     OW32560   2.912   4.297   4.881 -0.2285  0.0715  0.0221
 7033SOL    HW132561   2.820   4.319   4.867  0.1913  0.0490 -2.8385
 7033SOL    HW232562   2.932   4.310   4.974 -0.6164  3.5363 -0.3959
 7034SOL     OW32563   2.143   1.381   7.936  0.3527 -0.1492 -0.4568
 7034SOL    HW132564   2.098   1.422   8.010  1.1166 -0.4998  0.2090
 7034SOL    HW232565   2.109   1.422   7.856  0.5499  1.8837  0.5054
 7035SOL     OW32566   2.068   0.061   2.951 -0.4416  0.2310 -0.1106
 7035SOL    HW132567   2.117   0.021   2.879  2.3203  0.8081  1.4652
 7035SOL    HW232568   2.020   4.708   2.979 -1.7986  1.2556  0.3794
 7036SOL     OW32569   3.048   1.084   5.681 -0.1251  0.0025  0.2915
 7036SOL    HW132570   3.031   1.167   5.726  0.6293 -0.2495  1.0277
 7036SOL    HW232571   2.996   1.022   5.731  1.5020 -0.9381  0.8174
 7037SOL     OW32572   1.457   4.708   8.549 -0.1164  0.5816 -0.2472
 7037SOL    HW132573   1.396   4.696   8.476 -0.4232  4.1023 -0.5701
 7037SOL    HW232574   1.430   0.067   8.587 -1.1820  0.5017 -0.8325
 7038SOL     OW32575   0.577   3.285   8.647 -0.3165  0.3145  0.7422
 7038SOL    HW132576   0.622   3.295   8.564  0.6983  1.2408  1.4006
 7038SOL    HW232577   0.554   3.378   8.643  0.3676  0.4760  0.6971
 7039SOL     OW32578   0.594   3.524   4.652 -0.2558 -0.0531 -0.3342
 7039SOL    HW132579   0.665   3.579   4.685 -0.7901  1.2010 -1.3109
 7039SOL    HW232580   0.632   3.438   4.669  1.2025  0.9022  1.1990
 7040SOL     OW32581   0.263   0.382   7.570 -0.2988  0.6821  0.3859
 7040SOL    HW132582   0.211   0.423   7.640  0.9554 -0.0125  1.7093
 7040SOL    HW232583   0.209   0.304   7.558  0.9201  0.1235 -1.3084
 7041SOL     OW32584   3.069   1.319   6.601 -0.8523 -0.2237 -0.0694
 7041SOL    HW132585   3.147   1.288   6.646 -1.1035 -0.5437  0.1446
 7041SOL    HW232586   3.098   1.320   6.510  1.2409 -1.9899  0.5753
 7042SOL     OW32587   2.321   3.075   3.296  0.2540 -0.3813 -0.4861
 7042SOL    HW132588   2.401   3.037   3.331  0.2570 -0.9730 -1.1405
 7042SOL    HW232589   2.350   3.084   3.205  0.4502  1.0213 -0.2862
 7043SOL     OW32590   0.920   3.763   4.098 -0.2966 -0.0193 -0.2135
 7043SOL    HW132591   0.972   3.686   4.077  0.3651  0.2420  0.4610
 7043SOL    HW232592   0.916   3.812   4.016  0.4537  0.1153 -0.1750
 7044SOL     OW32593   0.505   2.229   3.257  0.2912  0.1485 -0.1715
 7044SOL    HW132594   0.506   2.324   3.249 -2.4505  0.4020  2.6229
 7044SOL    HW232595   0.595   2.202   3.237 -0.7617 -3.2424 -0.3638
 7045SOL     OW32596   3.585   1.752   0.727  0.6073  0.3996 -0.0289
 7045SOL    HW132597   3.615   1.825   0.673 -0.3620  3.0678  3.0807
 7045SOL    HW232598   3.494   1.744   0.699  0.8026  0.9177 -0.8208
 7046SOL     OW32599   0.369   0.549   1.847  0.2042  0.2679  0.4192
 7046SOL    HW132600   0.456   0.558   1.886  0.6600 -1.4338 -0.1904
 7046SOL    HW232601   0.382   0.533   1.753 -3.3218 -0.6477  0.0760
 7047SOL     OW32602   2.673   3.925   4.813  0.6260 -0.3713 -0.1927
 7047SOL    HW132603   2.637   3.856   4.870 -2.0202  0.6527 -0.6152
 7047SOL    HW232604   2.642   3.903   4.725  0.4105  1.3024 -0.5321
 7048SOL     OW32605   2.808   2.518   6.294 -0.1486  0.0223 -0.9177
 7048SOL    HW132606   2.868   2.454   6.332  0.3414  0.9596 -0.1392
 7048SOL    HW232607   2.827   2.504   6.201 -1.9710  0.5890 -1.3739
 7049SOL     OW32608   1.690   3.527   8.742 -0.2833  0.5238 -0.2614
 7049SOL    HW132609   1.758   3.469   8.777 -0.1877  0.0924 -1.1743
 7049SOL    HW232610   1.720   3.527   8.651 -0.9290  1.8563 -0.4622
 7050SOL     OW32611   3.551   2.149   2.736 -0.1262  0.4422  0.2050
 7050SOL    HW132612   3.464   2.112   2.749 -0.0281  0.6182  1.3973
 7050SOL    HW232613   3.602   2.079   2.694 -0.6040 -0.2379  0.7545
 7051SOL     OW32614   4.463   0.202   2.050  0.0574  0.0053  0.4665
 7051SOL    HW132615   4.385   0.252   2.074 -2.3843 -3.7058  0.3758
 7051SOL    HW232616   4.470   0.154   2.133  2.1275 -1.2038 -0.4200
 7052SOL     OW32617   1.141   4.084   4.214  0.1810 -0.3010  0.0401
 7052SOL    HW132618   1.162   3.992   4.231  0.4232 -0.3935 -0.7838
 7052SOL    HW232619   1.168   4.130   4.294  1.5174  1.8195 -1.6526
 7053SOL     OW32620   3.409   2.223   9.991 -0.1477 -0.3940  0.2824
 7053SOL    HW132621   3.404   2.298   9.933  0.2462  0.6156  1.5416
 7053SOL    HW232622   3.393   2.144   9.939  1.1553 -1.1676  1.0399
 7054SOL     OW32623   0.445   0.885   6.217  0.5067  0.8834 -0.3984
 7054SOL    HW132624   0.403   0.966   6.187 -2.2700  0.4475  2.2756
 7054SOL    HW232625   0.369   0.829   6.202  1.3975 -0.8980  1.7550
 7055SOL     OW32626   1.517   0.069   9.788  0.0165  0.5782 -0.0936
 7055SOL    HW132627   1.442   0.125   9.765 -0.0281  0.9126  0.8667
 7055SOL    HW232628   1.504   0.004   9.719 -1.7280  1.5921 -0.7157
 7056SOL     OW32629   0.839   4.589   9.749 -0.2955 -0.8866 -0.5008
 7056SOL    HW132630   0.755   4.544   9.739 -0.5074 -0.2345 -1.6164
 7056SOL    HW232631   0.903   4.520   9.768 -0.0992 -0.8336 -0.9714
 7057SOL     OW32632   4.509   0.040   0.936 -0.4118 -0.1743 -0.5929
 7057SOL    HW132633   4.441   0.100   0.966  0.9731  0.1797  1.8027
 7057SOL    HW232634   4.453   4.712   0.879  1.2284 -3.4863  0.8169
 7058SOL     OW32635   0.488   1.877   6.784  0.3379 -0.5078  1.0343
 7058SOL    HW132636   0.532   1.800   6.746  0.3254  1.0842 -2.2537
 7058SOL    HW232637   0.491   1.945   6.716  0.5132 -0.5899  0.9604
 7059SOL     OW32638   1.590   3.118   8.510 -0.6539 -0.2930  0.3302
 7059SOL    HW132639   1.639   3.139   8.589 -1.6305  0.9291  0.6022
 7059SOL    HW232640   1.609   3.197   8.460  3.5228 -1.2026  0.4637
 7060SOL     OW32641   3.201   1.666   7.942 -0.3348  0.1533 -0.3172
 7060SOL    HW132642   3.232   1.755   7.958 -0.1712 -0.1501  1.1156
 7060SOL    HW232643   3.284   1.626   7.917 -0.8426 -0.4866 -0.9839
 7061SOL     OW32644   0.058   2.052   2.231 -0.3645  0.2176  0.3905
 7061SOL    HW132645   0.102   2.136   2.223 -0.5022  0.1460 -1.2685
 7061SOL    HW232646   4.699   2.068   2.275  0.0471  2.0043  0.5000
 7062SOL     OW32647   2.920   2.735   2.292  0.1227 -0.1079  0.4652
 7062SOL    HW132648   2.846   2.736   2.352 -0.7907  1.1395 -0.6750
 7062SOL    HW232649   2.983   2.717   2.362  0.8060 -0.8789 -0.3482
 7063SOL     OW32650   4.277   4.269   6.786  1.2653  0.3497  0.1382
 7063SOL    HW132651   4.295   4.248   6.694 -1.1260 -2.5031  0.3043
 7063SOL    HW232652   4.232   4.354   6.787  1.0399  0.2762 -2.3304
 7064SOL     OW32653   0.963   0.988  13.787  0.1842  0.0508  0.5417
 7064SOL    HW132654   0.890   0.964  13.845 -0.1253 -0.8458 -0.2163
 7064SOL    HW232655   1.028   1.019  13.850  0.7382  0.1010 -0.0578
 7065SOL     OW32656   2.646   1.561   6.586  0.1392 -0.0484 -0.2457
 7065SOL    HW132657   2.740   1.565   6.602  0.3322  0.6238 -1.6065
 7065SOL    HW232658   2.629   1.477   6.543 -1.8175 -0.3603  1.1133
 7066SOL     OW32659   0.041   3.576   7.380 -0.5615  0.2460  0.5555
 7066SOL    HW132660   0.121   3.528   7.401 -0.2730  0.1019 -0.8617
 7066SOL    HW232661   4.723   3.525   7.311 -0.0105  0.8423 -0.2193
 7067SOL     OW32662   3.830   3.333  11.409 -0.4015 -0.1621  0.2696
 7067SOL    HW132663   3.820   3.332  11.505 -2.0415 -0.3894  0.0985
 7067SOL    HW232664   3.918   3.371  11.407 -0.7685  0.7178  0.6778
 7068SOL     OW32665   1.195   3.664   0.586 -0.0115  0.2168  0.3422
 7068SOL    HW132666   1.260   3.606   0.545 -2.6773 -1.2294 -1.8237
 7068SOL    HW232667   1.249   3.741   0.603  1.3158 -0.8891  1.0923
 7069SOL     OW32668   1.229   0.969   1.427  0.1859  0.1026 -0.1630
 7069SOL    HW132669   1.166   0.917   1.377 -1.6493  2.2440 -0.1134
 7069SOL    HW232670   1.227   1.055   1.385  2.3704  0.4735  0.5193
 7070SOL     OW32671   1.568   4.372  10.876 -0.0903 -0.5050  0.5415
 7070SOL    HW132672   1.488   4.343  10.833  1.4810 -2.4387 -1.0459
 7070SOL    HW232673   1.553   4.466  10.886 -0.0806 -0.2143 -2.4702
 7071SOL     OW32674   2.777   0.763   2.876  0.2731  0.1173 -0.0514
 7071SOL    HW132675   2.859   0.745   2.921 -0.5356 -0.8722  1.0259
 7071SOL    HW232676   2.794   0.716   2.795 -1.5339  1.9507 -1.5261
 7072SOL     OW32677   2.035   2.082   7.542  0.6051  0.1146 -0.1522
 7072SOL    HW132678   1.966   2.141   7.511 -0.9760 -1.6379  0.0433
 7072SOL    HW232679   2.034   2.010   7.480 -0.8819 -0.7979  0.9136
 7073SOL     OW32680   1.144   1.748   5.214  0.3602  0.6234  0.4169
 7073SOL    HW132681   1.146   1.749   5.118 -0.0242  0.2958  0.4025
 7073SOL    HW232682   1.086   1.673   5.228 -0.8689  1.2418 -1.2878
 7074SOL     OW32683   2.613   0.495   8.817  0.4129 -0.1021  0.0374
 7074SOL    HW132684   2.627   0.529   8.905  0.3090 -2.0922  0.8195
 7074SOL    HW232685   2.699   0.482   8.776  0.7506  2.3370 -0.0170
 7075SOL     OW32686   4.656   4.647  15.777 -0.1169 -0.4616  0.3874
 7075SOL    HW132687   4.569   4.628  15.743  0.1189 -0.0102 -0.4871
 7075SOL    HW232688   4.660   0.018  15.786 -1.3615 -0.3749 -0.0375
 7076SOL     OW32689   1.322   1.871   4.749  0.3107 -0.1780  0.7514
 7076SOL    HW132690   1.266   1.935   4.793 -1.1615 -1.8267  1.2264
 7076SOL    HW232691   1.298   1.793   4.798 -2.7558 -0.8565 -1.8653
 7077SOL     OW32692   1.922   2.485   6.086 -0.0398 -0.2804  0.0890
 7077SOL    HW132693   1.952   2.455   6.001  2.5497 -0.1948  0.9615
 7077SOL    HW232694   1.899   2.573   6.056  0.3342 -0.3528 -0.4095
 7078SOL     OW32695   0.511   1.470  15.216  0.3427  0.0786  0.0832
 7078SOL    HW132696   0.569   1.403  15.181  1.4819 -0.4490  2.9832
 7078SOL    HW232697   0.540   1.542  15.159  1.1691 -0.4620 -0.1719
 7079SOL     OW32698   2.604   1.759   8.444  0.5360  0.1327  0.4879
 7079SOL    HW132699   2.582   1.745   8.536 -1.2161  0.9747  0.1965
 7079SOL    HW232700   2.528   1.725   8.397  1.0649  1.0913 -1.0335
 7080SOL     OW32701   4.015   3.601   6.814  0.2749  0.1907  0.1521
 7080SOL    HW132702   3.960   3.610   6.736  1.4781  1.2896 -0.5591
 7080SOL    HW232703   4.081   3.664   6.788 -1.3455  1.6507 -0.4729
 7081SOL     OW32704   0.920   1.111   2.503 -0.3691  0.3939 -0.1070
 7081SOL    HW132705   0.866   1.050   2.553 -0.5403  1.0149  0.4585
 7081SOL    HW232706   0.939   1.059   2.424  1.6169  0.2490  0.4698
 7082SOL     OW32707   1.832   4.064   1.007 -0.0071 -0.2694  0.3517
 7082SOL    HW132708   1.885   4.007   1.062 -0.2521  0.9849  1.8736
 7082SOL    HW232709   1.781   3.997   0.962  1.1374  0.0115 -1.3583
 7083SOL     OW32710   4.133   3.121   4.207  0.1359  0.2417 -0.5299
 7083SOL    HW132711   4.218   3.114   4.163 -0.2562 -0.3879 -1.2050
 7083SOL    HW232712   4.122   3.028   4.228 -1.6266  0.6085  0.2119
 7084SOL     OW32713   0.663   0.915   7.046  0.2910  0.1745 -1.0513
 7084SOL    HW132714   0.706   1.001   7.049 -0.7992  0.6715  0.2870
 7084SOL    HW232715   0.741   0.880   7.089 -0.6746 -0.1696  0.4186
 7085SOL     OW32716   4.220   4.445  11.199 -0.5837  0.2666 -0.5474
 7085SOL    HW132717   4.167   4.508  11.150 -2.3032 -0.4803  0.3591
 7085SOL    HW232718   4.298   4.434  11.145 -0.5507  2.7553 -1.0349
 7086SOL     OW32719   1.125   1.303  16.445 -0.2255 -0.5744  0.1050
 7086SOL    HW132720   1.057   1.244  16.475  0.3826 -1.8900 -1.0802
 7086SOL    HW232721   1.075   1.385  16.440  2.8136  1.3713  1.8008
 7087SOL     OW32722   0.436   4.177   4.454 -0.3190  0.0346  0.1030
 7087SOL    HW132723   0.502   4.243   4.473 -1.2540  0.8176  0.6281
 7087SOL    HW232724   0.470   4.137   4.374 -0.7848  1.7795 -0.9411
 7088SOL     OW32725   0.974   3.742   7.070  0.4871  0.0682 -0.5835
 7088SOL    HW132726   1.040   3.786   7.124 -1.3086 -1.4043  2.8383
 7088SOL    HW232727   0.894   3.766   7.116 -0.0224 -1.2111 -0.7773
 7089SOL     OW32728   0.148   2.253   4.489  0.4069  0.5733  0.1544
 7089SOL    HW132729   0.150   2.232   4.582  1.4249  0.1666  0.0454
 7089SOL    HW232730   0.134   2.348   4.484  2.4154  0.7741 -1.8511
 7090SOL     OW32731   1.126   0.084  13.744  0.4052  0.0248  0.0443
 7090SOL    HW132732   1.072   0.090  13.822  0.7673  0.6839  0.2431
 7090SOL    HW232733   1.065   0.079  13.670  1.5050  0.8553 -0.9081
 7091SOL     OW32734   1.083   0.272   7.324  0.1437 -0.0500  0.0999
 7091SOL    HW132735   1.006   0.222   7.295  0.5405 -1.1181  0.9011
 7091SOL    HW232736   1.136   0.298   7.249 -0.4724  1.2623  0.1169
 7092SOL     OW32737   2.437   2.295  11.698 -0.0365  0.0823 -0.2059
 7092SOL    HW132738   2.487   2.216  11.677 -0.9890 -0.3925 -0.6746
 7092SOL    HW232739   2.387   2.256  11.770 -1.3408 -0.0536 -1.1978
 7093SOL     OW32740   4.513   3.779   9.018 -0.2483  0.1446 -0.0934
 7093SOL    HW132741   4.585   3.812   8.964 -0.2861 -0.7282 -0.6715
 7093SOL    HW232742   4.532   3.685   9.022  1.4545  0.4755 -0.5349
 7094SOL     OW32743   0.028   0.676   3.626  0.6495  0.5052  0.3138
 7094SOL    HW132744   4.718   0.662   3.714 -2.1794 -0.4381 -0.9332
 7094SOL    HW232745   0.062   0.587   3.616 -0.5358  0.0625  0.3308
 7095SOL     OW32746   0.644   4.643   8.016  0.2202 -0.4238  0.0197
 7095SOL    HW132747   0.631   4.652   7.922 -2.8845 -0.9779  0.4049
 7095SOL    HW232748   0.659   0.012   8.034 -2.1919 -0.4789  2.3117
 7096SOL     OW32749   0.759   4.333   8.354  0.0086  0.5164 -0.3732
 7096SOL    HW132750   0.704   4.410   8.340  1.1523  2.0450  3.6061
 7096SOL    HW232751   0.703   4.263   8.320  0.3776  0.0256  0.0332
 7097SOL     OW32752   3.805   0.301  16.780 -0.0677 -0.3622  0.4965
 7097SOL    HW132753   3.867   0.234  16.750  1.1336  1.0166 -0.0919
 7097SOL    HW232754   3.866   0.372  16.800  1.6514 -2.2982  2.0715
 7098SOL     OW32755   0.942   4.254  14.549  0.3463 -0.2334 -0.0845
 7098SOL    HW132756   0.849   4.236  14.536  0.6419 -1.5007 -0.4014
 7098SOL    HW232757   0.947   4.328  14.490  3.4165 -0.5389 -0.1926
 7099SOL     OW32758   0.709   0.745   4.991 -0.0655  0.2801 -0.0891
 7099SOL    HW132759   0.732   0.830   4.952 -0.2386  0.9938  1.3747
 7099SOL    HW232760   0.787   0.692   4.976 -0.4914 -0.2918 -0.2532
 7100SOL     OW32761   0.614   0.099   7.017 -0.0590  0.0823 -0.4993
 7100SOL    HW132762   0.705   0.127   7.004  0.2990 -0.4917  0.7729
 7100SOL    HW232763   0.588   0.089   6.925 -0.0706 -1.1451 -0.3642
 7101SOL     OW32764   2.144   3.187   8.061 -0.1916 -0.5397  0.0718
 7101SOL    HW132765   2.089   3.112   8.036 -1.4534  0.6249 -0.6470
 7101SOL    HW232766   2.122   3.201   8.153  0.4836  0.3470  0.0975
 7102SOL     OW32767   4.417   2.507   6.386  0.4805 -0.2952 -0.4657
 7102SOL    HW132768   4.458   2.434   6.431  1.4220  0.0607 -0.7557
 7102SOL    HW232769   4.352   2.467   6.328  1.4102 -0.1771 -1.5784
 7103SOL     OW32770   1.296   2.454   7.806 -0.3424 -0.5208 -0.4942
 7103SOL    HW132771   1.312   2.369   7.765 -1.3564  0.1365 -2.2678
 7103SOL    HW232772   1.310   2.436   7.899 -0.4560  1.8705 -0.0208
 7104SOL     OW32773   3.779   0.295   4.833 -0.4232 -0.0924 -0.2870
 7104SOL    HW132774   3.799   0.277   4.925 -3.0245 -0.7294  0.1542
 7104SOL    HW232775   3.867   0.283   4.798  0.0763  2.6662  0.0405
 7105SOL     OW32776   0.501   0.600   4.582 -0.3697  0.4465  0.4124
 7105SOL    HW132777   0.499   0.535   4.652 -1.2402 -0.7484 -0.7261
 7105SOL    HW232778   0.415   0.588   4.542 -0.9157 -0.0544  1.7235
 7106SOL     OW32779   2.724   3.218   6.131  0.2006  0.0755  0.0647
 7106SOL    HW132780   2.687   3.296   6.170 -0.5005 -0.2099 -0.0363
 7106SOL    HW232781   2.774   3.175   6.201  0.5652  0.7983  0.2419
 7107SOL     OW32782   4.066   2.347   1.686  0.5103 -0.1196  0.2485
 7107SOL    HW132783   4.094   2.325   1.597 -0.5854 -0.5824  0.0284
 7107SOL    HW232784   4.009   2.420   1.663  1.3351  0.1149 -1.0453
 7108SOL     OW32785   1.566   3.139  16.892 -0.0847  0.2179  0.9465
 7108SOL    HW132786   1.638   3.079  16.878 -0.5731 -0.1005 -0.2190
 7108SOL    HW232787   1.600   3.210  16.947 -1.1804  0.5195  1.2491
 7109SOL     OW32788   1.680   0.108   6.498  0.5344 -0.3681  0.1488
 7109SOL    HW132789   1.666   0.042   6.431 -0.4411  1.4392 -1.4170
 7109SOL    HW232790   1.668   0.061   6.581  0.8803 -0.2239  0.2822
 7110SOL     OW32791   4.083   0.997   0.038 -0.5457  0.1764 -0.7242
 7110SOL    HW132792   4.160   1.030   0.084 -1.2187  0.3743  0.2806
 7110SOL    HW232793   4.029   0.998   0.118  0.9868 -0.2007  0.3142
 7111SOL     OW32794   3.367   3.180   2.135 -0.0351 -0.8927 -0.2918
 7111SOL    HW132795   3.404   3.179   2.224 -2.2620 -0.4045  0.6398
 7111SOL    HW232796   3.452   3.187   2.091  1.0971 -1.3080  1.8231
 7112SOL     OW32797   0.264   0.883   3.710 -0.0976 -0.3531 -0.3304
 7112SOL    HW132798   0.262   0.942   3.635 -0.2721 -1.7808 -1.4379
 7112SOL    HW232799   0.180   0.917   3.742  0.2682  0.0060  0.2649
 7113SOL     OW32800   4.021   1.505   6.988  0.1080  0.2779  0.6915
 7113SOL    HW132801   3.966   1.472   7.060 -0.0912  1.0133  0.8737
 7113SOL    HW232802   4.039   1.420   6.948  2.2542  0.4104  1.3685
 7114SOL     OW32803   3.384   0.883   2.147 -0.8199 -0.8781  0.4171
 7114SOL    HW132804   3.326   0.893   2.071 -0.7138  3.1242  0.8690
 7114SOL    HW232805   3.473   0.908   2.121 -0.3340  0.0968  3.0241
 7115SOL     OW32806   3.805   0.534   7.759 -0.1044  0.2031 -0.4747
 7115SOL    HW132807   3.750   0.561   7.833  0.2069 -1.6663  0.4337
 7115SOL    HW232808   3.755   0.565   7.684 -0.2530  0.7466 -0.1541
 7116SOL     OW32809   1.094   1.367  10.064 -0.1394 -0.0260  0.3886
 7116SOL    HW132810   1.067   1.422   9.990 -0.7425  0.8903  1.2780
 7116SOL    HW232811   1.081   1.283  10.021  0.9084 -0.4354  0.8863
 7117SOL     OW32812   1.102   3.038   5.859 -0.0667 -0.0187  0.1969
 7117SOL    HW132813   1.105   3.134   5.861  1.6083 -0.0881  0.6721
 7117SOL    HW232814   1.130   3.010   5.772 -1.7559 -0.0689 -0.3327
 7118SOL     OW32815   2.305   4.134   0.173  0.3965  0.9561  0.2068
 7118SOL    HW132816   2.310   4.196   0.100 -0.2883  1.6330  0.7300
 7118SOL    HW232817   2.390   4.154   0.212  1.5057 -1.9979 -0.6673
 7119SOL     OW32818   4.651   1.897   4.259 -0.5028  0.0803  0.3044
 7119SOL    HW132819   4.604   1.829   4.306 -0.0495 -0.7136 -0.3722
 7119SOL    HW232820   4.665   1.966   4.324  3.4008  1.4168 -1.9051
 7120SOL     OW32821   4.430   1.946   2.565 -0.4890 -0.4460  0.2877
 7120SOL    HW132822   4.454   1.857   2.592  0.2563 -0.7838 -1.4766
 7120SOL    HW232823   4.506   1.984   2.521 -1.4902 -2.6287 -3.2857
 7121SOL     OW32824   2.313   1.132   5.503 -0.2115 -0.4736  0.1760
 7121SOL    HW132825   2.275   1.214   5.535 -1.3397 -0.9678  0.0890
 7121SOL    HW232826   2.406   1.152   5.517 -0.0556 -0.8936 -0.2778
 7122SOL     OW32827   1.187   1.532   8.368  0.1870 -0.2804  0.5127
 7122SOL    HW132828   1.178   1.626   8.351 -1.7627 -0.7885 -1.2745
 7122SOL    HW232829   1.215   1.529   8.459  3.5227 -0.1080 -0.5246
 7123SOL     OW32830   1.758   0.512   9.650 -0.0602  0.0755  0.0169
 7123SOL    HW132831   1.747   0.512   9.555  2.0032 -0.9117 -0.2270
 7123SOL    HW232832   1.808   0.593   9.664 -2.3791  1.5655 -0.2556
 7124SOL     OW32833   1.269   0.023   2.794 -0.1419 -0.4655 -0.0103
 7124SOL    HW132834   1.259   0.118   2.803  1.3711 -0.2828 -0.3863
 7124SOL    HW232835   1.361   0.023   2.770  0.3787  0.0153  2.0102
 7125SOL     OW32836   2.483   2.831   3.630 -0.0453 -0.0904  0.0362
 7125SOL    HW132837   2.483   2.748   3.678 -0.3398  0.1339  0.4162
 7125SOL    HW232838   2.507   2.890   3.701  1.2162 -2.4297  1.5701
 7126SOL     OW32839   2.533   3.153   7.640 -0.1695  0.9269 -0.7977
 7126SOL    HW132840   2.492   3.095   7.575 -2.4891  2.4165 -0.6628
 7126SOL    HW232841   2.453   3.184   7.681  0.1393 -0.7037  1.0297
 7127SOL     OW32842   1.694   4.614   2.009  0.5210  0.0237 -0.4187
 7127SOL    HW132843   1.747   4.536   2.024  0.4903  0.2039  0.6111
 7127SOL    HW232844   1.688   4.637   2.101 -0.4663 -0.2191 -0.4225
 7128SOL     OW32845   2.032   4.176  15.136  0.2433 -0.5091 -0.1467
 7128SOL    HW132846   1.943   4.211  15.136  0.7950  0.9053  0.6239
 7128SOL    HW232847   2.020   4.114  15.208 -0.4855  0.0454  0.2128
 7129SOL     OW32848   2.954   0.894  16.116 -0.4284  0.5473 -0.3788
 7129SOL    HW132849   2.902   0.973  16.103 -1.3009 -0.4221 -2.8065
 7129SOL    HW232850   2.882   0.832  16.130  0.7945 -0.1920  2.6332
 7130SOL     OW32851   0.667   4.336   4.462  0.0082  0.6158  0.5215
 7130SOL    HW132852   0.705   4.399   4.524  3.1179 -0.3987 -0.3639
 7130SOL    HW232853   0.722   4.259   4.473 -1.1019 -0.1787  0.4910
 7131SOL     OW32854   2.267   1.098   1.856  0.3472 -0.1364 -0.1964
 7131SOL    HW132855   2.251   1.168   1.919  0.3793 -0.0840 -0.2462
 7131SOL    HW232856   2.305   1.029   1.911 -1.3079 -1.9282 -1.2873
 7132SOL     OW32857   2.209   3.339   4.724  0.3565 -0.2616  0.0957
 7132SOL    HW132858   2.287   3.333   4.780  0.7470 -2.3414 -0.6765
 7132SOL    HW232859   2.151   3.275   4.765  0.3818 -0.3518 -0.0098
 7133SOL     OW32860   1.077   3.855   5.182 -0.5334  0.0865  0.8060
 7133SOL    HW132861   1.065   3.890   5.270  2.4122 -0.7370  1.5310
 7133SOL    HW232862   1.055   3.937   5.139  1.2735  0.5614  0.7675
 7134SOL     OW32863   3.539   3.787   6.016 -0.0999 -0.0783 -0.2028
 7134SOL    HW132864   3.477   3.789   6.088  0.1651  1.8483 -0.0195
 7134SOL    HW232865   3.534   3.881   5.996 -0.1386  0.0194  0.2639
 7135SOL     OW32866   2.599   4.550  16.847 -0.0558  0.6353 -0.2101
 7135SOL    HW132867   2.597   4.520  16.756 -0.2024  1.9689 -0.6506
 7135SOL    HW232868   2.676   4.507  16.885 -0.4482  0.2274  0.1213
 7136SOL     OW32869   1.604   4.506   9.742  0.0188  0.1735 -0.7074
 7136SOL    HW132870   1.571   4.548   9.822  1.3209  0.7799 -0.4940
 7136SOL    HW232871   1.683   4.460   9.768 -0.7402 -1.9823 -2.2315
 7137SOL     OW32872   0.722   3.635  13.081 -0.0416  0.1574  0.3021
 7137SOL    HW132873   0.713   3.660  12.989  0.7153  0.9518  0.4447
 7137SOL    HW232874   0.680   3.711  13.121 -0.6056 -0.4870  0.9689
 7138SOL     OW32875   2.063   2.239   0.778  0.6215  0.3264 -0.5788
 7138SOL    HW132876   2.018   2.263   0.859  1.9153  1.7700 -0.2959
 7138SOL    HW232877   2.141   2.207   0.823  1.0148  0.6069 -1.0618
 7139SOL     OW32878   4.036   4.564   7.165 -0.7623 -0.6096  0.9166
 7139SOL    HW132879   4.118   4.525   7.137 -1.4153 -1.6948  0.5234
 7139SOL    HW232880   4.064   4.655   7.173 -1.2908 -0.4481  0.9677
 7140SOL     OW32881   0.581   0.116   5.740  0.4794 -0.1729 -0.2106
 7140SOL    HW132882   0.667   0.110   5.782 -0.4139  0.4096  1.6866
 7140SOL    HW232883   0.597   0.155   5.654 -0.1646 -1.9350 -1.1240
 7141SOL     OW32884   3.169   3.986  15.764  0.2026 -0.1347  0.2078
 7141SOL    HW132885   3.249   3.995  15.816  0.9683  0.0399 -0.9948
 7141SOL    HW232886   3.098   3.959  15.823  0.7783  1.0144  1.4297
 7142SOL     OW32887   2.456   4.687   6.955 -0.0696  0.7549  0.2261
 7142SOL    HW132888   2.501   4.629   6.894  1.7089  1.1791  1.1470
 7142SOL    HW232889   2.447   0.040   6.900 -2.6728  2.1560  2.5923
 7143SOL     OW32890   1.808   1.809  13.281  0.2709  0.1101 -0.3761
 7143SOL    HW132891   1.747   1.815  13.355 -0.1678 -3.2513 -0.4702
 7143SOL    HW232892   1.885   1.820  13.337  1.6936  0.7204 -2.4428
 7144SOL     OW32893   0.005   1.927  15.149 -0.2154  0.3669 -0.1667
 7144SOL    HW132894   0.074   1.957  15.090  0.8794  0.0344  0.9484
 7144SOL    HW232895   0.044   1.852  15.194 -0.3815  1.3558  1.5968
 7145SOL     OW32896   0.567   0.175   5.469  0.5371 -0.1965 -0.0061
 7145SOL    HW132897   0.477   0.169   5.437  0.8381 -0.7029 -0.7577
 7145SOL    HW232898   0.593   0.084   5.455  1.8477 -0.3453  3.5846
 7146SOL     OW32899   1.718   0.405   3.865 -0.2089  0.7255  0.3422
 7146SOL    HW132900   1.686   0.316   3.879 -0.3056  0.7816  0.4787
 7146SOL    HW232901   1.785   0.385   3.800  0.8279 -2.8083  2.4585
 7147SOL     OW32902   2.651   0.027  14.819 -0.1346  0.1097 -0.0396
 7147SOL    HW132903   2.570   0.063  14.856 -0.9916 -1.2415 -0.6047
 7147SOL    HW232904   2.669   0.082  14.743 -2.1229  0.4041 -0.2889
 7148SOL     OW32905   0.160   4.013   4.189 -0.7592  0.2442 -0.3788
 7148SOL    HW132906   0.175   3.919   4.190  0.7568  0.4876  1.7422
 7148SOL    HW232907   0.166   4.033   4.283  0.0136 -0.9637 -0.1762
 7149SOL     OW32908   3.439   0.019  12.970  0.4091 -0.0695 -0.6096
 7149SOL    HW132909   3.431   0.114  12.980  0.9340 -0.1748  0.7324
 7149SOL    HW232910   3.497   4.722  12.896  1.0373  1.0889 -0.4601
 7150SOL     OW32911   2.116   0.843   7.077  0.4379  0.6100 -0.0915
 7150SOL    HW132912   2.128   0.782   7.149 -1.6912 -0.2859 -0.4822
 7150SOL    HW232913   2.136   0.927   7.119 -0.4860  0.1090  1.3521
 7151SOL     OW32914   2.275   2.336  12.239  0.2538 -0.3198  0.4004
 7151SOL    HW132915   2.263   2.314  12.331  1.7169 -4.0309 -0.3201
 7151SOL    HW232916   2.186   2.318  12.208 -0.3883 -0.3558  2.2852
 7152SOL     OW32917   1.359   3.525   4.666  0.3769 -0.6666  0.0845
 7152SOL    HW132918   1.349   3.448   4.722 -3.1174 -1.4757 -1.6591
 7152SOL    HW232919   1.363   3.598   4.728  2.3967  0.5826 -1.5100
 7153SOL     OW32920   2.251   0.984  16.670 -0.2481  0.4414  0.4652
 7153SOL    HW132921   2.233   0.927  16.744 -2.5149  1.7173  0.8946
 7153SOL    HW232922   2.167   0.969  16.627 -1.1611  1.0360  2.0336
 7154SOL     OW32923   1.463   4.513  16.252  0.0497  0.4784 -0.0220
 7154SOL    HW132924   1.509   4.590  16.220  0.5633  0.3600  0.4317
 7154SOL    HW232925   1.424   4.485  16.169  0.6514  1.7784 -0.7382
 7155SOL     OW32926   2.495   0.708   5.601  0.3654 -0.4736 -0.2729
 7155SOL    HW132927   2.564   0.670   5.655  1.4958  1.9378 -0.0373
 7155SOL    HW232928   2.519   0.800   5.609  0.1595 -0.3068 -1.6538
 7156SOL     OW32929   0.913   1.219   3.201 -0.0780  0.2064  0.5863
 7156SOL    HW132930   0.830   1.194   3.242 -0.3804  1.0078  0.4639
 7156SOL    HW232931   0.947   1.131   3.183 -0.9624  0.0938 -0.5527
 7157SOL     OW32932   1.819   2.357   7.505  0.6305  0.0948  0.4314
 7157SOL    HW132933   1.907   2.394   7.501  0.2338  0.7579 -1.8649
 7157SOL    HW232934   1.788   2.376   7.417  1.7302  2.9252  0.6543
 7158SOL     OW32935   2.042   3.829   6.267 -1.1580 -0.2940  0.0292
 7158SOL    HW132936   2.097   3.898   6.232  0.3796 -0.5379  1.9201
 7158SOL    HW232937   2.006   3.873   6.344 -1.4206 -0.9298  0.2748
 7159SOL     OW32938   2.405   0.819   8.384  0.8061 -0.0168 -0.2880
 7159SOL    HW132939   2.440   0.907   8.367  1.1418 -0.7540 -3.3446
 7159SOL    HW232940   2.365   0.828   8.471  1.3535 -0.4416  0.0088
 7160SOL     OW32941   1.050   2.289   6.957  0.4965  0.7753 -0.2467
 7160SOL    HW132942   1.080   2.208   6.996  0.6047 -0.0738 -2.0836
 7160SOL    HW232943   1.118   2.354   6.977  0.4968 -0.0997  2.5271
 7161SOL     OW32944   3.018   2.671   3.823 -0.3009  0.5344  0.3201
 7161SOL    HW132945   2.992   2.705   3.738  1.5469  0.6559 -0.2045
 7161SOL    HW232946   3.070   2.603   3.779 -0.8715 -0.2945  0.9296
 7162SOL     OW32947   3.004   2.965   4.297  0.0560  0.1527 -0.0085
 7162SOL    HW132948   3.044   2.975   4.211  0.1289  5.4139  0.6559
 7162SOL    HW232949   2.919   2.929   4.273  1.5734 -2.5338 -1.4442
 7163SOL     OW32950   4.428   4.489   8.447 -0.7551  0.3901  0.1381
 7163SOL    HW132951   4.455   4.463   8.535  0.4344  1.7535  0.1621
 7163SOL    HW232952   4.460   4.579   8.446 -1.8096  0.7678  0.1154
 7164SOL     OW32953   4.508   1.934   0.698 -0.4767  0.1257  0.3855
 7164SOL    HW132954   4.418   1.954   0.672 -0.2415 -1.5202 -1.6809
 7164SOL    HW232955   4.557   2.009   0.663  3.8256 -2.4562  0.8006
 7165SOL     OW32956   2.021   0.385   6.884 -0.2617  0.1707  0.3736
 7165SOL    HW132957   2.086   0.435   6.934 -0.7539 -0.7231  1.9257
 7165SOL    HW232958   2.039   0.292   6.897  0.9941  0.3980  0.2322
 7166SOL     OW32959   1.780   1.414   3.633 -0.4501  0.1844  0.3813
 7166SOL    HW132960   1.868   1.416   3.670  0.5136  1.6792 -2.0116
 7166SOL    HW232961   1.779   1.500   3.591 -1.1595 -1.4511 -2.9456
 7167SOL     OW32962   0.563   2.901   1.959  0.3778  0.4293  0.0654
 7167SOL    HW132963   0.529   2.924   1.872 -0.8341 -0.7739  0.2208
 7167SOL    HW232964   0.511   2.952   2.020 -1.6399  0.0268 -1.3271
 7168SOL     OW32965   3.231   4.172   7.813 -0.4692 -0.1133 -0.4419
 7168SOL    HW132966   3.205   4.082   7.795  3.1769 -1.5528  1.3087
 7168SOL    HW232967   3.230   4.161   7.908  1.3147  1.2270 -0.2676
 7169SOL     OW32968   3.713   3.406   2.716 -0.2729 -0.1080  0.3936
 7169SOL    HW132969   3.774   3.471   2.681  1.5953 -1.2377  1.5304
 7169SOL    HW232970   3.694   3.449   2.800  0.9042  2.0957 -0.4604
 7170SOL     OW32971   1.850   1.772   0.612  0.7283 -0.2155 -0.4769
 7170SOL    HW132972   1.801   1.853   0.625 -0.9744 -0.9998 -1.9608
 7170SOL    HW232973   1.822   1.768   0.520  1.7200  2.4129 -0.9024
 7171SOL     OW32974   1.233   4.133   8.948 -0.2578 -0.1696  0.3541
 7171SOL    HW132975   1.324   4.114   8.926 -0.6343 -1.1048 -0.4456
 7171SOL    HW232976   1.194   4.165   8.867 -0.0836  2.2779  1.2466
 7172SOL     OW32977   2.892   1.306   8.153 -0.5895  0.3312  0.0351
 7172SOL    HW132978   2.826   1.323   8.221 -1.5391 -2.5205 -0.1884
 7172SOL    HW232979   2.974   1.289   8.199  0.1721  3.2793 -0.2221
 7173SOL     OW32980   2.631   3.289  17.144 -0.2574 -0.6301  0.1460
 7173SOL    HW132981   2.646   3.377  17.179 -2.5385 -0.1047 -0.2111
 7173SOL    HW232982   2.724   3.268  17.132 -0.0671  0.7443 -0.7102
 7174SOL     OW32983   2.647   3.052   1.101  0.1583  0.1264  0.2086
 7174SOL    HW132984   2.663   3.030   1.193  2.2230 -2.4610 -0.7612
 7174SOL    HW232985   2.680   2.972   1.060 -1.8636 -1.7860  2.2943
 7175SOL     OW32986   2.366   1.101  14.594 -0.1992 -0.0255  0.2603
 7175SOL    HW132987   2.429   1.039  14.631  0.9132  1.7573  1.3213
 7175SOL    HW232988   2.376   1.182  14.643  0.9135 -0.2640  0.4134
 7176SOL     OW32989   0.275   1.013  11.394 -0.7500 -0.2723  0.3104
 7176SOL    HW132990   0.300   1.084  11.335 -1.8165 -0.3710 -0.2648
 7176SOL    HW232991   0.234   0.947  11.337 -0.2790 -0.8725  0.6700
 7177SOL     OW32992   1.127   2.671  13.956  0.7292  0.6835 -0.2587
 7177SOL    HW132993   1.115   2.725  13.878 -2.4814  3.4552  2.2162
 7177SOL    HW232994   1.057   2.703  14.012 -1.2152 -1.3945 -1.4963
 7178SOL     OW32995   1.877   0.248   4.128  0.2490  0.3690 -0.1029
 7178SOL    HW132996   1.927   0.328   4.109  1.2850 -0.4643 -0.8440
 7178SOL    HW232997   1.824   0.277   4.202  0.6255  1.0101 -0.0837
 7179SOL     OW32998   4.389   2.087   5.545 -0.4925  0.1233  0.1068
 7179SOL    HW132999   4.475   2.102   5.584 -0.6703  2.7846 -0.5114
 7179SOL    HW233000   4.376   2.170   5.499 -2.4218  0.1289  0.6467
 7180SOL     OW33001   4.541   4.573   2.016 -0.0806 -0.4540  0.0203
 7180SOL    HW133002   4.586   4.649   2.052  0.4960 -1.4515  1.4445
 7180SOL    HW233003   4.609   4.512   1.987  0.0233  0.3934 -1.4713
 7181SOL     OW33004   2.221   3.509   1.950 -0.2056 -0.6719  0.2811
 7181SOL    HW133005   2.206   3.483   2.040 -2.6629 -0.8080 -0.1679
 7181SOL    HW233006   2.165   3.586   1.944  1.0809  0.1849 -0.9103
 7182SOL     OW33007   2.561   2.561  17.204  0.5329 -0.2865 -0.0300
 7182SOL    HW133008   2.563   2.476  17.246  0.5603 -0.7455 -0.9629
 7182SOL    HW233009   2.617   2.549  17.126  0.5927 -1.6724  0.2440
 7183SOL     OW33010   0.793   3.654   4.942 -0.0330  0.5920  0.1293
 7183SOL    HW133011   0.773   3.741   4.978 -6.8373 -0.1014 -2.1576
 7183SOL    HW233012   0.778   3.659   4.848 -0.7726 -0.8530  0.1642
 7184SOL     OW33013   2.217   4.670   2.768 -0.4018 -0.1089 -0.6952
 7184SOL    HW133014   2.227   4.696   2.677 -2.9868 -0.6944 -1.1503
 7184SOL    HW233015   2.209   4.575   2.754 -1.1833 -0.0053 -0.9347
 7185SOL     OW33016   3.467   3.748  15.756  0.5067  0.1552  0.4613
 7185SOL    HW133017   3.465   3.841  15.780 -1.8791  0.5448 -1.2609
 7185SOL    HW233018   3.538   3.747  15.692 -1.8945 -0.0079 -2.1861
 7186SOL     OW33019   3.508   4.386  15.047  0.0493 -0.5758 -0.0756
 7186SOL    HW133020   3.466   4.416  14.966  0.5915  0.4982  0.0312
 7186SOL    HW233021   3.592   4.429  15.031 -0.4480  0.1312 -0.8427
 7187SOL     OW33022   2.149   3.215  16.884 -0.2004  0.1497 -0.6548
 7187SOL    HW133023   2.136   3.227  16.790  1.3591 -1.5630 -1.0773
 7187SOL    HW233024   2.235   3.174  16.886  1.0389  2.6957 -1.5189
 7188SOL     OW33025   0.804   4.373   3.055  0.0010  0.0420 -0.1746
 7188SOL    HW133026   0.756   4.453   3.078  1.2857  1.0524 -1.0247
 7188SOL    HW233027   0.757   4.330   2.984  2.1914  1.6548 -2.5577
 7189SOL     OW33028   3.342   3.238   0.975  0.6155 -0.6014  0.0748
 7189SOL    HW133029   3.433   3.211   0.980  0.4171 -1.6819 -1.9879
 7189SOL    HW233030   3.317   3.178   0.904  0.2694  0.8509 -1.0284
 7190SOL     OW33031   0.607   3.880   7.414 -0.1824 -0.5019 -0.0835
 7190SOL    HW133032   0.679   3.921   7.461 -0.1156 -0.5632 -0.1343
 7190SOL    HW233033   0.542   3.947   7.435 -0.0509 -0.4362  0.1115
 7191SOL     OW33034   2.073   4.298   5.718  0.0368  0.3521 -0.2854
 7191SOL    HW133035   2.039   4.368   5.774 -2.4015 -2.9197  2.3268
 7191SOL    HW233036   2.071   4.218   5.770  0.2608 -1.5234 -3.1577
 7192SOL     OW33037   3.914   1.736   0.698  0.2385  0.2650  0.3471
 7192SOL    HW133038   3.980   1.672   0.725 -1.2800 -2.1724 -1.6659
 7192SOL    HW233039   3.846   1.677   0.665  0.9137 -1.1826  1.5533
 7193SOL     OW33040   0.819   4.589   6.550 -0.2729  0.0732 -0.2075
 7193SOL    HW133041   0.844   4.572   6.641  1.1752  1.3163 -0.3789
 7193SOL    HW233042   0.723   4.595   6.542 -0.3517 -0.5445  0.2476
 7194SOL     OW33043   3.040   1.285   5.936  0.1849  0.3237 -0.2891
 7194SOL    HW133044   3.100   1.232   5.989  0.7276 -1.7193 -2.9710
 7194SOL    HW233045   2.968   1.306   5.995 -0.1088 -0.1658 -0.4757
 7195SOL     OW33046   1.637   2.915   7.837  0.1575  0.2309 -0.1863
 7195SOL    HW133047   1.692   2.993   7.828 -0.0705  0.3935 -0.1981
 7195SOL    HW233048   1.617   2.906   7.743  1.3746  0.4881 -0.4734
 7196SOL     OW33049   3.926   1.515   2.953  0.0372 -0.3450  0.0243
 7196SOL    HW133050   3.893   1.509   3.042 -0.0003 -1.1461 -0.0480
 7196SOL    HW233051   4.003   1.459   2.958  2.3853  2.7190 -2.1043
 7197SOL     OW33052   1.525   1.686   8.482 -0.5067  0.0801  0.6877
 7197SOL    HW133053   1.568   1.765   8.514  2.7770 -2.0254  1.4846
 7197SOL    HW233054   1.499   1.725   8.398  1.6695  1.5549  0.7206
 7198SOL     OW33055   3.613   4.181  10.054  0.1298 -0.0759 -0.8654
 7198SOL    HW133056   3.657   4.137   9.982  2.4760 -1.3548  1.3293
 7198SOL    HW233057   3.686   4.179  10.117  0.1431  0.5707 -0.8624
 7199SOL     OW33058   1.003   3.434   7.162 -0.2203  0.2511 -0.6511
 7199SOL    HW133059   0.962   3.520   7.165  0.6556  0.6259  0.4904
 7199SOL    HW233060   0.943   3.383   7.217  0.5215  0.3130  0.2219
 7200SOL     OW33061   0.818   3.571   1.769 -0.1830  0.2787  0.1316
 7200SOL    HW133062   0.910   3.554   1.752  0.0644  0.8373  0.8892
 7200SOL    HW233063   0.777   3.488   1.793  1.0335 -0.2350  0.3765
 7201SOL     OW33064   2.310   3.849  17.603 -0.3620 -0.2949  0.1196
 7201SOL    HW133065   2.251   3.870  17.676  1.8850  0.4725  1.7010
 7201SOL    HW233066   2.317   3.938  17.570 -1.0408 -0.8825 -1.5748
 7202SOL     OW33067   0.301   2.956   3.077 -0.0457 -0.2800  0.2680
 7202SOL    HW133068   0.256   2.871   3.081 -0.3530 -0.0878  0.8660
 7202SOL    HW233069   0.324   2.958   2.984 -0.6510  2.2673  0.1901
 7203SOL     OW33070   0.457   0.109  14.557  0.1382  0.1277  0.0080
 7203SOL    HW133071   0.472   0.073  14.470 -0.8123 -0.3158  0.0319
 7203SOL    HW233072   0.361   0.113  14.562  0.0143 -2.9905  0.5353
 7204SOL     OW33073   3.531   4.285   7.729 -0.4469 -0.1693  0.3095
 7204SOL    HW133074   3.522   4.190   7.726  2.2422 -0.5109  3.0494
 7204SOL    HW233075   3.615   4.297   7.687 -1.1460  4.2590  0.1349
 7205SOL     OW33076   4.130   3.862   1.911  0.2308  0.2016 -0.0490
 7205SOL    HW133077   4.129   3.832   2.002  0.7627 -1.5613 -0.6378
 7205SOL    HW233078   4.212   3.823   1.880  0.9761  1.4964  0.2757
 7206SOL     OW33079   0.315   2.957   8.977 -0.4308 -0.2918 -0.5745
 7206SOL    HW133080   0.360   2.945   9.061  0.6177  0.7746 -0.9776
 7206SOL    HW233081   0.371   3.018   8.929 -0.9926  1.1191  0.5545
 7207SOL     OW33082   3.497   3.892   1.496  0.0374  0.0650  0.2221
 7207SOL    HW133083   3.434   3.855   1.558  1.7681 -0.4449  1.6630
 7207SOL    HW233084   3.434   3.922   1.430  0.8923  3.1910  0.8205
 7208SOL     OW33085   3.662   2.374  16.770  0.1422 -0.5060 -0.4784
 7208SOL    HW133086   3.723   2.395  16.699 -0.7286  3.1241 -0.1542
 7208SOL    HW233087   3.659   2.463  16.805  3.6794 -0.5015 -0.1287
 7209SOL     OW33088   1.054   3.231   2.649 -0.3964 -0.2625  0.0269
 7209SOL    HW133089   1.013   3.262   2.568 -0.0298 -2.4112 -0.9845
 7209SOL    HW233090   1.142   3.244   2.612 -0.4347 -0.9158 -0.2974
 7210SOL     OW33091   3.362   0.888  14.495 -0.5874  0.4462 -0.1730
 7210SOL    HW133092   3.300   0.872  14.566 -3.7583  1.4042 -2.7398
 7210SOL    HW233093   3.385   0.797  14.476  1.4759  0.9649 -0.1850
 7211SOL     OW33094   3.924   0.718   3.089  0.3128  0.3220 -0.2702
 7211SOL    HW133095   3.965   0.804   3.091 -1.5895  1.1780  1.7262
 7211SOL    HW233096   3.968   0.683   3.167  0.8136 -0.0826 -0.7286
 7212SOL     OW33097   2.501   3.091  16.797 -0.3162  0.0476  0.7561
 7212SOL    HW133098   2.494   3.169  16.851 -0.1411  0.0390  0.7925
 7212SOL    HW233099   2.596   3.097  16.783 -0.5035 -1.1902 -1.1370
 7213SOL     OW33100   4.609   0.066   4.076 -0.1638  0.3327 -0.2715
 7213SOL    HW133101   4.640   0.056   3.986 -1.7207  0.6533 -0.8442
 7213SOL    HW233102   4.580   4.702   4.099  2.2847 -0.2584  0.5908
 7214SOL     OW33103   2.053   3.044   3.333  0.3926 -0.3526 -0.1624
 7214SOL    HW133104   2.121   3.057   3.267  0.3110  2.1216  0.2441
 7214SOL    HW233105   2.108   3.010   3.404  1.6493 -1.0091 -1.4376
 7215SOL     OW33106   2.540   3.731  17.109  0.3539  0.2344 -0.1519
 7215SOL    HW133107   2.598   3.784  17.055  0.0743 -0.4075 -1.0806
 7215SOL    HW233108   2.482   3.698  17.040 -0.4294 -0.9368  1.0659
 7216SOL     OW33109   3.807   1.266   5.197 -0.3536  0.0228  0.4080
 7216SOL    HW133110   3.824   1.290   5.106  1.6955  0.2629  0.8346
 7216SOL    HW233111   3.873   1.324   5.236 -0.7908 -0.0504  1.2585
 7217SOL     OW33112   4.483   1.069   7.449  0.1609  0.6826  0.1865
 7217SOL    HW133113   4.426   1.017   7.392  1.9303 -0.2888 -0.7154
 7217SOL    HW233114   4.483   1.151   7.401  0.5332  1.2062  1.0853
 7218SOL     OW33115   3.651   0.362   8.616 -0.0169  0.2964 -0.1700
 7218SOL    HW133116   3.596   0.435   8.644  0.8210  0.9583 -0.2483
 7218SOL    HW233117   3.706   0.410   8.555 -1.1368  0.2575 -1.2102
 7219SOL     OW33118   3.176   4.284   5.091 -0.1797  0.0415  0.1364
 7219SOL    HW133119   3.246   4.248   5.145  1.1832  1.3838 -0.7329
 7219SOL    HW233120   3.216   4.371   5.085 -1.0415  0.6707  3.6315
 7220SOL     OW33121   1.985   3.373   9.056  0.3734 -0.2526 -0.3475
 7220SOL    HW133122   1.957   3.392   8.967 -2.8511  2.5432  1.2691
 7220SOL    HW233123   2.067   3.423   9.057  0.3960 -0.3700  2.3198
 7221SOL     OW33124   3.148   2.894   4.544 -0.8637 -0.1609 -0.2262
 7221SOL    HW133125   3.168   2.804   4.519  1.1223  0.0494  0.6227
 7221SOL    HW233126   3.066   2.903   4.495  0.2962  0.6967 -2.0038
 7222SOL     OW33127   3.356   2.531   8.323 -0.4271 -0.3967 -0.1271
 7222SOL    HW133128   3.403   2.609   8.351  2.8578 -1.9185 -1.3767
 7222SOL    HW233129   3.423   2.466   8.341  0.6641  0.6312 -0.4889
 7223SOL     OW33130   0.600   4.579   3.561  0.2883  0.5651 -0.1182
 7223SOL    HW133131   0.540   4.616   3.498  1.1270  0.1069 -1.1824
 7223SOL    HW233132   0.566   4.490   3.568  1.4391  0.0485 -1.0274
 7224SOL     OW33133   1.347   1.667  12.551 -0.4516  0.1607  0.0195
 7224SOL    HW133134   1.436   1.695  12.528 -0.6511  0.8287  0.0588
 7224SOL    HW233135   1.341   1.673  12.647  0.2583  3.4285 -0.1507
 7225SOL     OW33136   0.940   1.740   8.036 -0.6760  0.0304 -0.1487
 7225SOL    HW133137   0.970   1.804   8.102 -2.3073 -0.5113  1.1250
 7225SOL    HW233138   0.879   1.795   7.988 -1.5200  0.2174  1.1347
 7226SOL     OW33139   4.171   2.117  13.684 -0.1073 -0.0222  0.0331
 7226SOL    HW133140   4.094   2.068  13.712  0.0899  0.5004  1.4700
 7226SOL    HW233141   4.227   2.141  13.758  0.9691  0.1757 -0.8379
 7227SOL     OW33142   1.432   3.638  10.131  0.8183 -0.1088  0.5310
 7227SOL    HW133143   1.428   3.650  10.226  0.7141 -2.3320  0.8193
 7227SOL    HW233144   1.341   3.614  10.112  0.0787  0.3351  3.4003
 7228SOL     OW33145   2.025   3.200   8.308  0.2708 -0.1965  0.0813
 7228SOL    HW133146   1.946   3.208   8.254 -0.1650 -1.1556  0.5849
 7228SOL    HW233147   2.024   3.284   8.352  0.0967 -0.5846  0.8187
 7229SOL     OW33148   3.494   2.379   6.253 -0.5822 -0.0582  0.6149
 7229SOL    HW133149   3.509   2.440   6.180 -1.6247 -1.4162 -0.7355
 7229SOL    HW233150   3.574   2.327   6.242 -1.5666 -1.2024 -1.2671
 7230SOL     OW33151   0.598   4.253   9.604  0.1487  0.5584  0.2988
 7230SOL    HW133152   0.677   4.209   9.572 -0.2039  0.3220 -0.2506
 7230SOL    HW233153   0.625   4.345   9.605 -0.6312  0.7888  0.7098
 7231SOL     OW33154   1.684   2.773   7.109 -0.0674  0.7757  0.0706
 7231SOL    HW133155   1.672   2.868   7.117 -3.3776  0.4490 -1.4744
 7231SOL    HW233156   1.779   2.757   7.109 -0.4457 -1.5283  3.4640
 7232SOL     OW33157   2.991   1.914   9.821  0.4169  0.1212 -0.2083
 7232SOL    HW133158   3.067   1.899   9.878 -0.8705 -0.9460  1.2165
 7232SOL    HW233159   3.010   2.003   9.791  0.7189 -0.3629 -1.4185
 7233SOL     OW33160   4.447   1.793   6.264 -1.1925  0.1658 -0.5090
 7233SOL    HW133161   4.354   1.779   6.279 -1.3433  0.6475 -1.0434
 7233SOL    HW233162   4.449   1.798   6.169 -0.2156  0.3855 -0.4789
 7234SOL     OW33163   1.639   4.607   2.318  0.5903 -0.6889 -0.3983
 7234SOL    HW133164   1.670   4.554   2.392  1.0852 -0.5636 -0.5173
 7234SOL    HW233165   1.666   4.697   2.337  1.8875 -1.3974  1.1866
 7235SOL     OW33166   2.432   4.614   6.606 -0.2760 -0.3898  0.1711
 7235SOL    HW133167   2.494   4.586   6.674  1.3113 -0.8247 -1.4456
 7235SOL    HW233168   2.440   4.707   6.627 -0.3956 -0.5272  0.8219
 7236SOL     OW33169   1.024   0.725   6.296  0.0058  0.3271  0.4452
 7236SOL    HW133170   1.072   0.664   6.351  1.9222  1.3718 -0.0731
 7236SOL    HW233171   1.103   0.770   6.267 -0.0072 -0.1458 -0.3056
 7237SOL     OW33172   1.217   3.285  10.748  0.4305 -0.2489  0.0236
 7237SOL    HW133173   1.257   3.243  10.825  0.3705 -2.1421 -0.9943
 7237SOL    HW233174   1.223   3.224  10.675 -0.6266  0.0452 -0.2951
 7238SOL     OW33175   0.089   3.182  13.323  0.1418 -0.7666  0.5380
 7238SOL    HW133176   0.047   3.114  13.269 -0.3093  1.5848 -2.0395
 7238SOL    HW233177   0.129   3.118  13.382  0.1722  1.8819  3.3862
 7239SOL     OW33178   2.612   1.382   3.171 -0.4137  0.4043  0.3359
 7239SOL    HW133179   2.599   1.288   3.161  2.5906  0.0820 -0.6901
 7239SOL    HW233180   2.527   1.426   3.163  0.4134  1.7171 -1.2733
 7240SOL     OW33181   2.677   0.821   4.973  0.1982 -0.2966  0.4199
 7240SOL    HW133182   2.607   0.884   4.959  2.1030  2.0154  1.2694
 7240SOL    HW233183   2.745   0.886   4.994  1.3801 -1.2746 -0.3303
 7241SOL     OW33184   2.055   1.285   5.267  0.3624  0.1553  0.0802
 7241SOL    HW133185   2.004   1.362   5.242 -0.6099 -0.3412  0.5463
 7241SOL    HW233186   1.995   1.232   5.319 -0.5522  2.6106  1.5316
 7242SOL     OW33187   4.061   1.560  17.495  0.5784 -0.0435  0.3293
 7242SOL    HW133188   4.056   1.609  17.413  0.3184 -0.7635 -0.0805
 7242SOL    HW233189   4.014   1.481  17.469  1.3859  0.0817 -1.4781
 7243SOL     OW33190   4.683   3.704   2.541 -0.6921 -0.0022  0.2098
 7243SOL    HW133191   0.021   3.704   2.468 -1.5191 -2.8501 -0.4857
 7243SOL    HW233192   4.667   3.610   2.530 -0.9618  0.1549 -0.7694
 7244SOL     OW33193   1.294   0.452  17.437  0.2101  0.8079  0.1316
 7244SOL    HW133194   1.323   0.360  17.444 -0.9937  0.3895 -0.3918
 7244SOL    HW233195   1.374   0.503  17.447  2.3909 -2.3577 -0.7980
 7245SOL     OW33196   4.034   0.723   3.835 -0.4377  0.2523 -0.0162
 7245SOL    HW133197   4.045   0.681   3.749 -1.6851  0.9345 -0.5146
 7245SOL    HW233198   3.942   0.749   3.826  0.0122  1.6970 -0.2833
 7246SOL     OW33199   3.305   1.109   5.602  0.2415  0.5461 -0.1174
 7246SOL    HW133200   3.220   1.092   5.643  1.1354  0.1650  1.5762
 7246SOL    HW233201   3.313   1.202   5.619  0.1442  0.1804  1.9876
 7247SOL     OW33202   3.655   3.051  15.790  0.1115 -0.1569 -0.9043
 7247SOL    HW133203   3.589   3.089  15.733 -2.2189  1.4094  2.8644
 7247SOL    HW233204   3.649   2.958  15.766  1.5209 -0.4220 -0.2720
 7248SOL     OW33205   2.396   3.396   7.460 -0.0493  0.1599  0.3225
 7248SOL    HW133206   2.438   3.357   7.383  0.4832  0.8193  0.2810
 7248SOL    HW233207   2.473   3.442   7.494 -0.0570  0.4882 -0.0981
 7249SOL     OW33208   1.898   3.872   1.908  0.1582 -0.5423 -0.0427
 7249SOL    HW133209   1.957   3.941   1.879 -2.3587  1.8187  0.4108
 7249SOL    HW233210   1.822   3.904   1.859 -0.9262  0.5457  2.3693
 7250SOL     OW33211   0.048   3.790   3.360 -0.2728 -0.5571 -0.2914
 7250SOL    HW133212   0.132   3.805   3.403 -1.7961 -0.3493  2.6115
 7250SOL    HW233213   0.008   3.876   3.354  1.2368  0.0912 -1.0638
 7251SOL     OW33214   3.713   4.586   2.977 -0.1238  0.3073  0.0039
 7251SOL    HW133215   3.660   4.644   2.924  0.5577  0.6154 -0.3418
 7251SOL    HW233216   3.758   4.536   2.908  1.1279  0.6084  0.5983
 7252SOL     OW33217   0.756   3.181  11.836 -0.7089 -0.1800  0.2431
 7252SOL    HW133218   0.664   3.207  11.826 -1.0924 -0.8481  2.0196
 7252SOL    HW233219   0.796   3.228  11.762  1.3102  0.0984  1.5234
 7253SOL     OW33220   2.488   2.190   4.793  0.1497  0.0524 -0.3709
 7253SOL    HW133221   2.517   2.265   4.742 -0.9069 -0.9544 -2.4650
 7253SOL    HW233222   2.423   2.232   4.850 -0.7811 -0.5918 -0.9586
 7254SOL     OW33223   0.551   1.904   3.484  0.3584 -0.3227  0.0726
 7254SOL    HW133224   0.467   1.887   3.528  0.9912 -4.6379 -0.4192
 7254SOL    HW233225   0.559   1.822   3.435 -0.7846  0.0303 -0.7103
 7255SOL     OW33226   2.843   2.358   5.972 -0.0488 -1.0873 -0.2061
 7255SOL    HW133227   2.894   2.276   5.973  0.7559 -0.5829  0.1604
 7255SOL    HW233228   2.886   2.393   5.895 -2.3104 -0.1402 -1.0372
 7256SOL     OW33229   2.503   1.167  10.595  0.1294 -0.2783 -0.0569
 7256SOL    HW133230   2.492   1.122  10.679 -0.5219 -0.4519 -0.2401
 7256SOL    HW233231   2.471   1.256  10.610 -2.7347 -1.3659  0.2518
 7257SOL     OW33232   1.795   1.667  12.898 -0.6973 -0.1262  0.1397
 7257SOL    HW133233   1.830   1.636  12.981 -1.7380 -3.1915 -0.5704
 7257SOL    HW233234   1.740   1.591  12.877 -0.0907  0.2511 -2.7830
 7258SOL     OW33235   1.706   4.236   7.259 -0.0330  0.5694  0.6953
 7258SOL    HW133236   1.686   4.328   7.244 -2.0768 -0.0711 -0.5296
 7258SOL    HW233237   1.701   4.227   7.354  1.3902 -1.2052  0.6162
 7259SOL     OW33238   3.372   4.542  13.141 -0.5053  0.5423 -0.2310
 7259SOL    HW133239   3.414   4.619  13.105  0.1037  0.5615  0.5034
 7259SOL    HW233240   3.344   4.505  13.057 -2.1304  0.9856  0.1273
 7260SOL     OW33241   1.889   2.189   1.270  0.1370  0.2706  0.0497
 7260SOL    HW133242   1.909   2.239   1.191 -2.6951  1.3400 -0.0036
 7260SOL    HW233243   1.947   2.113   1.270 -1.1089 -0.6727  0.3914
 7261SOL     OW33244   0.694   0.252  15.627  0.6513 -0.5453  0.1599
 7261SOL    HW133245   0.643   0.332  15.611  2.0205  0.6510  1.8595
 7261SOL    HW233246   0.728   0.230  15.541  0.0931  0.2968 -0.2821
 7262SOL     OW33247   2.014   0.686   8.329 -0.4003 -0.0149 -0.0666
 7262SOL    HW133248   2.086   0.685   8.266  0.7851 -2.2295  1.3264
 7262SOL    HW233249   2.066   0.689   8.409 -0.3810  0.9719 -0.1215
 7263SOL     OW33250   3.800   3.786  14.000  0.6049 -0.1186 -0.0264
 7263SOL    HW133251   3.758   3.789  13.914 -0.4091  1.7686  0.5425
 7263SOL    HW233252   3.891   3.809  13.982  1.0547  0.9979  3.6137
 7264SOL     OW33253   3.602   2.414   7.106 -0.3822 -0.2834 -0.0390
 7264SOL    HW133254   3.596   2.322   7.134  1.7685  0.1596  1.9172
 7264SOL    HW233255   3.637   2.451   7.187 -0.7522  0.0934 -0.0534
 7265SOL     OW33256   1.603   0.500   6.379 -0.2955 -0.3858  0.0943
 7265SOL    HW133257   1.675   0.437   6.385  1.1262  0.9238 -3.4949
 7265SOL    HW233258   1.582   0.489   6.287 -0.0219 -0.5412  0.0479
 7266SOL     OW33259   1.991   0.671   9.722  0.2757  0.5722  0.3236
 7266SOL    HW133260   1.978   0.731   9.796 -1.2889  2.1596 -1.2375
 7266SOL    HW233261   2.035   0.596   9.761 -1.9443 -1.2145 -0.6252
 7267SOL     OW33262   2.845   3.666   6.311 -0.6138 -0.3608  0.5219
 7267SOL    HW133263   2.843   3.717   6.392 -0.3571  1.2092 -0.4737
 7267SOL    HW233264   2.934   3.632   6.317 -0.7450 -0.5451  1.4983
 7268SOL     OW33265   4.085   3.141   8.699 -0.1548 -0.5294  0.7018
 7268SOL    HW133266   4.179   3.124   8.707  0.3896  1.4674 -1.3806
 7268SOL    HW233267   4.046   3.062   8.663 -1.1254  0.5250 -0.5828
 7269SOL     OW33268   3.113   4.071   2.841  0.3179  0.0773 -0.5939
 7269SOL    HW133269   3.150   4.011   2.906  0.2398  0.3412 -0.3033
 7269SOL    HW233270   3.020   4.051   2.830 -0.2589  1.1645  2.3455
 7270SOL     OW33271   0.641   3.015  15.570  0.2499  0.0677  0.1434
 7270SOL    HW133272   0.596   2.942  15.527  0.2207 -1.8641  3.4706
 7270SOL    HW233273   0.574   3.081  15.581 -0.4048 -1.1830  3.5942
 7271SOL     OW33274   2.721   3.691   8.010  1.1205  0.0151 -0.0054
 7271SOL    HW133275   2.782   3.723   7.943  1.4890  0.2604  0.4462
 7271SOL    HW233276   2.653   3.656   7.952  1.6269 -1.1205  0.0869
 7272SOL     OW33277   1.625   2.652   4.656 -0.2807  0.2242 -0.1338
 7272SOL    HW133278   1.631   2.669   4.750  2.3390 -1.2347 -0.0243
 7272SOL    HW233279   1.611   2.558   4.645 -0.2279  0.3127 -0.9200
 7273SOL     OW33280   0.809   1.298   7.566 -0.1516 -0.0273 -0.5567
 7273SOL    HW133281   0.827   1.391   7.553 -1.5082  0.2727 -0.3069
 7273SOL    HW233282   0.787   1.274   7.476 -1.0971 -0.4174 -0.2197
 7274SOL     OW33283   3.092   1.892   3.471  0.4156 -0.1635  0.2025
 7274SOL    HW133284   3.085   1.914   3.378  0.0742  0.6111  0.4110
 7274SOL    HW233285   3.021   1.830   3.485 -1.0608  1.5799  0.4028
 7275SOL     OW33286   1.872   0.390   9.134 -0.4129 -0.0091 -0.5635
 7275SOL    HW133287   1.895   0.397   9.041  1.2887  1.4750 -0.0428
 7275SOL    HW233288   1.869   0.295   9.142  1.2199  0.0528  0.9469
 7276SOL     OW33289   3.686   1.210   3.880  0.3243  0.2128  0.3745
 7276SOL    HW133290   3.743   1.221   3.804 -1.6007  0.3932 -1.0271
 7276SOL    HW233291   3.637   1.292   3.876  1.5492  0.9868  1.0329
 7277SOL     OW33292   1.235   3.580   5.738  0.2747 -0.1636 -0.0612
 7277SOL    HW133293   1.288   3.630   5.800  0.4532 -0.1921 -0.1907
 7277SOL    HW233294   1.175   3.649   5.709  0.9187  0.6583  0.5382
 7278SOL     OW33295   0.781   3.055   7.406  0.3575  0.3909 -0.1014
 7278SOL    HW133296   0.743   3.031   7.321 -1.5647  0.9850  0.6040
 7278SOL    HW233297   0.846   2.985   7.411 -0.7011 -0.5368  0.7415
 7279SOL     OW33298   0.455   1.975   2.758 -0.1232  0.1102  0.1729
 7279SOL    HW133299   0.486   1.927   2.835  1.3750 -0.3584 -0.7206
 7279SOL    HW233300   0.389   2.029   2.802  1.4366  2.8598 -0.9032
 7280SOL     OW33301   4.330   3.551   9.850  0.7367 -0.1503  0.6523
 7280SOL    HW133302   4.412   3.521   9.891  0.3068 -3.0078 -0.5288
 7280SOL    HW233303   4.331   3.505   9.766 -2.2751 -1.6963  1.4733
 7281SOL     OW33304   4.034   4.304  17.244  0.1670  0.4982 -0.3360
 7281SOL    HW133305   3.978   4.247  17.297 -0.0785  0.4958 -0.5964
 7281SOL    HW233306   3.958   4.351  17.208 -0.2985  1.1808  1.5103
 7282SOL     OW33307   2.902   0.108   2.970  0.2526 -0.0574  1.0095
 7282SOL    HW133308   2.827   0.059   2.936  0.5696  2.0738 -2.8154
 7282SOL    HW233309   2.893   0.190   2.921 -1.6745 -0.7595  0.1820
 7283SOL     OW33310   3.513   4.702   5.574 -0.4074  0.0526 -0.4035
 7283SOL    HW133311   3.522   0.068   5.606 -2.0238 -0.6564  2.0057
 7283SOL    HW233312   3.506   4.721   5.481  1.0851  1.1701 -0.2814
 7284SOL     OW33313   3.740   0.923   6.271 -0.4095 -0.0525 -0.3590
 7284SOL    HW133314   3.797   0.950   6.199  0.6787 -0.1161  0.4689
 7284SOL    HW233315   3.671   0.876   6.224  0.2520 -0.9919 -0.3987
 7285SOL     OW33316   0.756   3.572   9.078  0.4180 -0.3193  0.4611
 7285SOL    HW133317   0.812   3.559   9.002 -0.8254 -1.4141 -0.2723
 7285SOL    HW233318   0.737   3.481   9.103 -0.7578 -0.0546  0.5593
 7286SOL     OW33319   1.197   0.908   9.899 -0.4391  0.1509 -0.6839
 7286SOL    HW133320   1.190   0.859   9.818  1.8245  1.3117 -1.5779
 7286SOL    HW233321   1.134   0.877   9.964  0.0784  1.2529  0.3452
 7287SOL     OW33322   4.083   2.589   7.024  0.2715  0.6342  0.2819
 7287SOL    HW133323   4.060   2.576   7.117  0.1473  1.7463  0.4024
 7287SOL    HW233324   4.053   2.511   6.977  1.5631  0.2663  0.0817
 7288SOL     OW33325   0.358   1.202   9.209  0.3556  0.2234 -0.3388
 7288SOL    HW133326   0.329   1.246   9.129  0.1808  2.5265  0.9801
 7288SOL    HW233327   0.276   1.195   9.259  0.1767  2.3748 -0.3231
 7289SOL     OW33328   0.685   0.209   4.779 -0.1881  0.4755  0.4853
 7289SOL    HW133329   0.735   0.177   4.704  0.1912  1.0852  0.4787
 7289SOL    HW233330   0.598   0.230   4.744  0.7105  1.3611 -1.2740
 7290SOL     OW33331   3.465   1.777  14.912 -0.1075  0.5348  0.0018
 7290SOL    HW133332   3.401   1.825  14.859  0.3806  1.0150 -0.1475
 7290SOL    HW233333   3.507   1.709  14.859 -0.7646 -1.1967  1.7061
 7291SOL     OW33334   3.254   4.107   6.432  0.0325  0.0842 -0.1294
 7291SOL    HW133335   3.208   4.093   6.350 -1.4453 -1.5744  0.9761
 7291SOL    HW233336   3.212   4.053   6.499 -0.3893  1.8072  1.0071
 7292SOL     OW33337   4.180   1.367  11.458  0.0805 -0.2112  0.6139
 7292SOL    HW133338   4.094   1.409  11.464 -0.8564 -2.1398  0.5499
 7292SOL    HW233339   4.185   1.328  11.545 -1.0184 -1.3498  0.1654
 7293SOL     OW33340   3.727   0.769  11.786  0.0016  0.0959  0.2468
 7293SOL    HW133341   3.774   0.752  11.705 -0.3480  0.1895  0.0209
 7293SOL    HW233342   3.695   0.856  11.762  1.7554  1.2786  2.2021
 7294SOL     OW33343   1.621   2.064   3.146 -0.1513  0.4789 -0.4460
 7294SOL    HW133344   1.693   2.087   3.086 -2.8646  1.7984 -3.2325
 7294SOL    HW233345   1.674   2.032   3.219 -0.9083  1.5649  0.5733
 7295SOL     OW33346   2.246   0.951   2.351  0.3552 -0.7775 -0.2845
 7295SOL    HW133347   2.210   0.986   2.270 -1.0259  1.0652  1.1162
 7295SOL    HW233348   2.261   1.032   2.399  0.7665 -1.7316  1.1878
 7296SOL     OW33349   3.239   4.217   3.091  0.0001 -0.1307  0.4714
 7296SOL    HW133350   3.314   4.269   3.120 -1.9730  3.5966 -1.2161
 7296SOL    HW233351   3.200   4.280   3.030  0.0704 -1.1452 -0.6235
 7297SOL     OW33352   2.282   1.016   9.460  0.2655  0.7214 -0.0876
 7297SOL    HW133353   2.207   1.034   9.403  0.1111  2.7374  0.7526
 7297SOL    HW233354   2.243   1.058   9.537 -0.0871  1.3041 -0.5883
 7298SOL     OW33355   3.636   3.682   3.975  0.1297 -0.1767  0.1977
 7298SOL    HW133356   3.607   3.771   3.995  2.7519  0.8630 -0.6423
 7298SOL    HW233357   3.633   3.683   3.879  1.5339 -0.0082  0.1577
 7299SOL     OW33358   1.928   3.462  15.672 -0.4410  0.1712 -0.3224
 7299SOL    HW133359   1.916   3.550  15.635  1.3540  0.6959  0.3460
 7299SOL    HW233360   1.941   3.493  15.762  1.8480 -1.8334  0.0296
 7300SOL     OW33361   3.195   4.610   3.564 -0.0729  0.3180 -0.6781
 7300SOL    HW133362   3.283   4.571   3.569 -0.0405  0.3462 -1.0806
 7300SOL    HW233363   3.197   4.640   3.473 -0.5983  1.0338 -0.4530
 7301SOL     OW33364   0.386   0.039   8.849  0.0555  0.2203 -0.0225
 7301SOL    HW133365   0.382   0.047   8.944 -2.9504 -1.7558  0.0205
 7301SOL    HW233366   0.392   4.669   8.838  0.7246  0.1492  0.9588
 7302SOL     OW33367   2.886   4.591  12.205  0.6512 -0.3501  0.4014
 7302SOL    HW133368   2.960   4.652  12.209 -1.9793  2.7057  2.8827
 7302SOL    HW233369   2.934   4.509  12.211 -2.1641 -2.1149 -1.5130
 7303SOL     OW33370   2.426   0.637  10.728 -0.1393  0.5574  0.7003
 7303SOL    HW133371   2.474   0.635  10.811 -0.0156 -0.1942  0.6078
 7303SOL    HW233372   2.360   0.571  10.749  0.3079  0.0019  0.3619
 7304SOL     OW33373   2.026   2.501   6.621  0.2516  0.4602  0.0420
 7304SOL    HW133374   2.120   2.493   6.606  0.4898  0.4889  1.4812
 7304SOL    HW233375   2.001   2.542   6.539  2.4081  0.6402 -0.5416
 7305SOL     OW33376   1.691   1.000   9.969  0.5582 -0.1560 -0.2671
 7305SOL    HW133377   1.604   0.960   9.980  1.1851 -1.5843 -0.5402
 7305SOL    HW233378   1.680   1.079   9.915  1.7228 -1.5498 -2.5187
 7306SOL     OW33379   0.896   2.043   8.540  0.3474  0.3700 -0.2008
 7306SOL    HW133380   0.875   2.121   8.592 -0.2708 -0.7798  1.2745
 7306SOL    HW233381   0.987   2.028   8.564 -0.3780 -0.4353  2.0832
 7307SOL     OW33382   1.649   2.677  11.603 -0.4261 -0.0770 -0.2341
 7307SOL    HW133383   1.701   2.746  11.562 -0.7465  1.1949  1.5635
 7307SOL    HW233384   1.598   2.725  11.667 -0.2474  0.1490 -0.2618
 7308SOL     OW33385   1.728   1.212   3.820  0.1874  0.0548  0.0724
 7308SOL    HW133386   1.759   1.289   3.773  1.0339  0.3019  1.0328
 7308SOL    HW233387   1.677   1.165   3.753 -0.1523  0.5989 -0.0487
 7309SOL     OW33388   1.082   0.030   8.918 -0.3662  0.0227 -0.4295
 7309SOL    HW133389   1.052   0.009   9.007 -0.9988  0.9208 -0.4266
 7309SOL    HW233390   1.120   4.668   8.899 -0.7160 -0.6137  1.7808
 7310SOL     OW33391   3.654   2.827  16.685 -0.2924 -0.2722  0.4062
 7310SOL    HW133392   3.731   2.883  16.675  0.4770 -1.8412 -2.5209
 7310SOL    HW233393   3.663   2.772  16.607  1.3226 -0.4700  0.7379
 7311SOL     OW33394   0.790   2.029   4.548  0.5025 -0.4024  0.1321
 7311SOL    HW133395   0.793   2.117   4.509  2.0992 -0.7782 -0.6100
 7311SOL    HW233396   0.800   2.060   4.638  0.1433 -0.0642  0.0566
 7312SOL     OW33397   3.896   4.551  12.113 -0.3132  0.9821  0.3249
 7312SOL    HW133398   3.953   4.530  12.039 -2.9228  1.1894 -1.7771
 7312SOL    HW233399   3.962   4.538  12.181  1.7184 -1.3257 -2.0900
 7313SOL     OW33400   1.978   2.474   7.932  0.7108  0.3104 -0.4596
 7313SOL    HW133401   2.058   2.422   7.934 -0.1044 -1.0608 -2.9823
 7313SOL    HW233402   1.906   2.411   7.939 -0.5441  1.8705  0.7479
 7314SOL     OW33403   1.359   4.692   6.119  0.1351  0.0035 -0.3245
 7314SOL    HW133404   1.357   0.008   6.206  2.1819 -0.7077  0.0738
 7314SOL    HW233405   1.301   4.619   6.140  2.0236 -2.7000 -4.3714
 7315SOL     OW33406   1.775   2.343   7.239 -0.6021 -0.3218  0.1434
 7315SOL    HW133407   1.731   2.274   7.189 -0.1672 -0.8794  0.5293
 7315SOL    HW233408   1.856   2.357   7.190 -1.1886 -0.2265 -0.8032
 7316SOL     OW33409   3.127   0.049  12.105  0.4690 -0.4720 -0.0292
 7316SOL    HW133410   3.160   0.126  12.059 -1.5041 -1.6520 -3.4346
 7316SOL    HW233411   3.099   0.092  12.185  0.0667  0.3270 -0.5944
 7317SOL     OW33412   1.598   0.040   8.065 -0.3693 -0.5619 -0.8805
 7317SOL    HW133413   1.601   0.132   8.040  1.9615 -1.2919 -3.2960
 7317SOL    HW233414   1.540   0.036   8.142 -0.9672  2.3294 -1.1705
 7318SOL     OW33415   0.963   3.318   4.687  0.2645  0.4175  0.1624
 7318SOL    HW133416   0.869   3.332   4.676 -0.2184 -1.6804  1.6040
 7318SOL    HW233417   0.999   3.382   4.626 -2.9641  0.6366 -1.5514
 7319SOL     OW33418   3.890   4.343   0.360  0.1077  0.7452 -0.3872
 7319SOL    HW133419   3.952   4.380   0.423 -3.2859  1.4419  2.5493
 7319SOL    HW233420   3.859   4.426   0.322  1.6116  1.6908  0.4364
 7320SOL     OW33421   3.061   4.183   4.176 -1.0502  0.3388  0.1102
 7320SOL    HW133422   3.062   4.267   4.131  0.4314 -0.2630 -0.9813
 7320SOL    HW233423   2.986   4.201   4.232 -0.1857 -1.7422  1.9451
 7321SOL     OW33424   3.720   4.655  17.331  0.5700 -0.7721  0.1079
 7321SOL    HW133425   3.797   4.705  17.300  1.7224 -2.0526  0.9149
 7321SOL    HW233426   3.655   4.678  17.264 -2.1798 -0.6318  2.8464
 7322SOL     OW33427   2.141   4.635   4.894  0.0540  0.0991 -0.1770
 7322SOL    HW133428   2.100   4.549   4.893 -0.8147  0.5263 -1.2853
 7322SOL    HW233429   2.148   4.650   4.988 -3.1381  0.4787  0.0099
 7323SOL     OW33430   0.704   1.291   8.251  0.1805 -0.3643 -0.4220
 7323SOL    HW133431   0.653   1.316   8.328  1.0724 -2.1905  0.7568
 7323SOL    HW233432   0.769   1.228   8.281 -0.1592 -0.1135  0.8297
 7324SOL     OW33433   2.167   3.815   0.516  0.0806 -0.0006  0.6357
 7324SOL    HW133434   2.153   3.815   0.422 -0.4545 -3.1456  0.7170
 7324SOL    HW233435   2.205   3.902   0.525  0.7837 -0.0824 -1.7682
 7325SOL     OW33436   0.231   2.655   7.282  0.2756  0.1660  0.1709
 7325SOL    HW133437   0.261   2.634   7.194  0.2784 -0.4618  0.3190
 7325SOL    HW233438   0.230   2.573   7.332 -1.9639  1.4282  2.2124
 7326SOL     OW33439   4.093   4.693   7.969 -0.1166  0.2658 -0.1685
 7326SOL    HW133440   4.092   4.598   7.959  1.8458 -0.0706  2.7164
 7326SOL    HW233441   4.120   0.003   7.884 -0.3095  2.0983  0.4987
 7327SOL     OW33442   2.316   0.522   6.459 -0.0616  0.2672  0.2101
 7327SOL    HW133443   2.287   0.527   6.551  1.8233 -1.8662  0.9080
 7327SOL    HW233444   2.329   0.428   6.447  1.5298  0.6497 -0.8574
 7328SOL     OW33445   1.615   0.070   7.761  0.6375  0.3118 -0.4358
 7328SOL    HW133446   1.542   0.078   7.822 -0.2737 -1.9123 -1.2105
 7328SOL    HW233447   1.575   0.002   7.707  2.2860  1.0207 -2.5380
 7329SOL     OW33448   1.644   1.530   5.764  0.5071 -0.0222 -0.3239
 7329SOL    HW133449   1.635   1.603   5.703  0.0349  1.5726  1.6557
 7329SOL    HW233450   1.556   1.495   5.750  1.0268 -1.6032  0.3529
 7330SOL     OW33451   3.960   1.214   7.694  0.1895 -0.6597  0.2434
 7330SOL    HW133452   4.035   1.193   7.640  1.1111  0.2875  1.1441
 7330SOL    HW233453   3.958   1.149   7.764  1.3223  0.0675  0.9606
 7331SOL     OW33454   3.816   2.831   8.491 -0.0218 -0.0295  0.6327
 7331SOL    HW133455   3.804   2.736   8.487  2.3018 -0.2840 -0.0137
 7331SOL    HW233456   3.736   2.859   8.537  0.6281 -0.1128  1.8042
 7332SOL     OW33457   3.429   3.807   3.489 -0.0683 -0.3054 -0.2471
 7332SOL    HW133458   3.396   3.740   3.430 -0.6205 -0.3862  0.1576
 7332SOL    HW233459   3.353   3.855   3.521  0.7542  0.1563  1.0146
 7333SOL     OW33460   3.665   1.675   6.481  0.4154  0.0033 -0.3378
 7333SOL    HW133461   3.639   1.658   6.391 -0.0523 -2.9212  0.3584
 7333SOL    HW233462   3.655   1.585   6.513  0.4172  0.1775  0.1632
 7334SOL     OW33463   1.292   3.737   2.020 -0.5953 -0.2823  0.5254
 7334SOL    HW133464   1.351   3.726   2.094  0.9766 -0.1038 -0.6839
 7334SOL    HW233465   1.274   3.831   2.025  0.3532  0.0214 -1.7288
 7335SOL     OW33466   0.892   1.815   6.077  0.5931 -0.3744 -0.1407
 7335SOL    HW133467   0.940   1.875   6.135 -1.6777  0.2346  1.1345
 7335SOL    HW233468   0.800   1.831   6.098  0.2208  2.3103 -3.8300
 7336SOL     OW33469   1.896   2.890  15.239  0.2954 -0.0212  0.0042
 7336SOL    HW133470   1.837   2.815  15.239  0.2463  0.0126  1.0916
 7336SOL    HW233471   1.858   2.950  15.304 -0.9519  0.7614 -1.4335
 7337SOL     OW33472   3.156   4.281   8.326 -0.7080  0.1775  0.3520
 7337SOL    HW133473   3.183   4.345   8.260 -2.5117  0.4646 -0.1031
 7337SOL    HW233474   3.233   4.290   8.382 -0.3703 -0.4528 -0.0139
 7338SOL     OW33475   3.146   0.492  10.409  0.0394  0.0381  0.6336
 7338SOL    HW133476   3.215   0.536  10.459 -0.7968  1.4751  0.5254
 7338SOL    HW233477   3.141   0.419  10.471  1.5700 -0.5118  0.1012
 7339SOL     OW33478   0.412   0.799   7.539 -0.0098  0.5449  0.8144
 7339SOL    HW133479   0.322   0.770   7.523  0.0650  0.6255  0.2325
 7339SOL    HW233480   0.422   0.783   7.633  0.1648  0.0862  0.7200
 7340SOL     OW33481   1.477   1.436   3.656  0.0940  0.0966  0.2237
 7340SOL    HW133482   1.572   1.437   3.666  0.2658 -1.4705 -1.3380
 7340SOL    HW233483   1.461   1.462   3.566  1.4743 -1.1475 -0.3792
 7341SOL     OW33484   2.422   1.702  12.743  0.5766 -0.5935  0.0467
 7341SOL    HW133485   2.442   1.711  12.836  0.0785 -2.1134  0.3106
 7341SOL    HW233486   2.458   1.613  12.738  0.7277 -0.4092 -1.9932
 7342SOL     OW33487   0.403   3.537   9.330 -0.2787 -0.3735  0.1753
 7342SOL    HW133488   0.483   3.563   9.374  0.4695 -0.4758 -1.1172
 7342SOL    HW233489   0.367   3.474   9.392  1.3641 -1.2251  0.2554
 7343SOL     OW33490   0.503   1.428   7.361  0.3904  0.2441  0.1256
 7343SOL    HW133491   0.471   1.511   7.327  0.8317  0.8411  1.2021
 7343SOL    HW233492   0.460   1.422   7.446 -1.4225 -0.4219 -0.8266
 7344SOL     OW33493   1.798   2.713   4.433 -0.2616  0.2489 -0.2898
 7344SOL    HW133494   1.748   2.694   4.353 -0.6303 -1.3984  0.3301
 7344SOL    HW233495   1.734   2.709   4.504 -0.4401  0.6555 -0.4274
 7345SOL     OW33496   3.180   4.310   2.717 -0.2428 -0.2668 -0.1757
 7345SOL    HW133497   3.160   4.225   2.755  2.2052 -1.2611 -1.1337
 7345SOL    HW233498   3.205   4.270   2.634  0.0472 -0.8804  0.2112
 7346SOL     OW33499   3.167   1.102  11.393  0.0588  0.3592 -0.5789
 7346SOL    HW133500   3.104   1.038  11.428  0.7113  0.1847  0.2686
 7346SOL    HW233501   3.246   1.068  11.435  0.3730  2.3004  0.4061
 7347SOL     OW33502   3.881   3.935   2.888 -0.1031 -0.2190  0.1711
 7347SOL    HW133503   3.889   3.918   2.982  0.1742  1.4576  0.4512
 7347SOL    HW233504   3.952   3.995   2.864 -1.3375  0.6008 -1.4340
 7348SOL     OW33505   2.681   3.040   2.514  0.0291  0.5373 -0.0812
 7348SOL    HW133506   2.639   2.954   2.505 -1.2629  1.3194 -1.4955
 7348SOL    HW233507   2.749   3.034   2.447  1.0639 -0.5823  1.0740
 7349SOL     OW33508   2.151   1.304  17.410  0.0399  0.3593  0.0395
 7349SOL    HW133509   2.124   1.283  17.500 -0.7700  2.8463  0.3787
 7349SOL    HW233510   2.205   1.227  17.393 -1.6719 -1.0803  1.1911
 7350SOL     OW33511   2.795   0.875   6.899  0.5892  0.5519  0.2408
 7350SOL    HW133512   2.703   0.898   6.914  0.9085  1.9581  0.0534
 7350SOL    HW233513   2.830   0.964   6.905  1.8062 -0.0390  1.8088
 7351SOL     OW33514   3.398   2.351  17.447 -0.1789 -0.1862 -0.3714
 7351SOL    HW133515   3.339   2.282  17.479  0.5504  0.3973  2.2348
 7351SOL    HW233516   3.367   2.427  17.498 -2.4981 -1.3169 -0.0636
 7352SOL     OW33517   2.248   1.628  14.080  0.7562 -0.2727  0.1721
 7352SOL    HW133518   2.288   1.613  13.994 -2.7459 -1.1950 -1.3029
 7352SOL    HW233519   2.157   1.632  14.051  0.3337  0.4476  1.6384
 7353SOL     OW33520   2.191   4.414   1.130 -0.3465  0.4121  0.5347
 7353SOL    HW133521   2.209   4.485   1.192  0.2827  0.7105  0.0118
 7353SOL    HW233522   2.131   4.359   1.180 -0.5010  0.2332  0.1517
 7354SOL     OW33523   4.722   3.092   6.015  0.4689  0.1427  0.2215
 7354SOL    HW133524   0.033   3.077   6.102 -0.9401 -0.4226  0.7005
 7354SOL    HW233525   0.067   3.057   5.960  0.6464 -0.4286  0.8131
 7355SOL     OW33526   3.476   3.419   8.132 -0.0074  0.2270  0.0504
 7355SOL    HW133527   3.440   3.331   8.141 -2.8213  1.4166  0.1464
 7355SOL    HW233528   3.546   3.415   8.066  0.5296  0.1163  0.6226
 7356SOL     OW33529   2.393   0.498  15.872  0.7685 -0.1866 -0.1527
 7356SOL    HW133530   2.346   0.494  15.789 -1.1091 -0.3148  0.9346
 7356SOL    HW233531   2.361   0.582  15.905  0.5748  0.6670 -2.5169
 7357SOL     OW33532   4.455   2.606  17.353 -0.1313  0.1221  0.2401
 7357SOL    HW133533   4.411   2.678  17.309 -0.2819  0.6716  1.2933
 7357SOL    HW233534   4.376   2.553  17.366  0.6490 -0.8134  1.1759
 7358SOL     OW33535   1.819   0.335   0.527 -0.5018 -0.3734 -0.4627
 7358SOL    HW133536   1.845   0.426   0.513  3.8274 -1.7005 -1.0903
 7358SOL    HW233537   1.852   0.296   0.446  1.5915 -0.6673  0.5154
 7359SOL     OW33538   0.798   2.492   1.769 -0.1708  0.0315  0.1428
 7359SOL    HW133539   0.741   2.564   1.794  0.7260  0.2652  1.4982
 7359SOL    HW233540   0.780   2.485   1.675 -2.1407  0.5969  0.4801
 7360SOL     OW33541   3.343   0.184   2.166  0.0075 -0.2975 -0.1993
 7360SOL    HW133542   3.332   0.259   2.107  0.0652 -0.2162 -0.1071
 7360SOL    HW233543   3.251   0.173   2.188  0.4441 -0.6549  1.4388
 7361SOL     OW33544   2.517   1.977   6.300 -0.3582 -0.1730  0.0934
 7361SOL    HW133545   2.571   1.936   6.368  1.6236  0.9712 -0.7857
 7361SOL    HW233546   2.519   1.905   6.236  3.8875  1.3905 -1.5318
 7362SOL     OW33547   2.472   3.279   4.187 -0.0712  0.1973 -0.1481
 7362SOL    HW133548   2.442   3.335   4.115  1.0423  1.8080  0.6456
 7362SOL    HW233549   2.530   3.335   4.237  0.6332 -0.6526 -0.0050
 7363SOL     OW33550   4.181   0.004   6.414 -0.0107 -0.7395 -0.1081
 7363SOL    HW133551   4.156   4.636   6.411 -0.6882 -0.5385 -0.6931
 7363SOL    HW233552   4.265   0.008   6.369  0.4409 -1.3021  0.6774
 7364SOL     OW33553   1.081   0.403   6.828 -0.1735 -0.3218  0.5805
 7364SOL    HW133554   1.012   0.458   6.792  0.0858  1.1345  2.2736
 7364SOL    HW233555   1.081   0.345   6.753 -1.2187 -3.2356  2.8474
 7365SOL     OW33556   3.717   0.740   8.828 -0.6681 -0.2993  0.4385
 7365SOL    HW133557   3.797   0.792   8.830 -1.5807  1.2779 -3.1422
 7365SOL    HW233558   3.753   0.652   8.818  0.4167  0.1271  0.5555
 7366SOL     OW33559   1.916   2.360   4.579  0.4663  0.0554 -0.1402
 7366SOL    HW133560   1.972   2.303   4.631 -1.9115 -1.7727  0.4186
 7366SOL    HW233561   1.881   2.413   4.651 -0.1303  1.3164 -1.3603
 7367SOL     OW33562   2.689   0.355   3.425  0.3499 -0.0898 -0.4209
 7367SOL    HW133563   2.604   0.378   3.385 -0.1900 -0.0344  0.7545
 7367SOL    HW233564   2.725   0.304   3.353 -0.8622  1.8557 -2.3964
 7368SOL     OW33565   3.873   0.553   7.128 -0.2654 -0.0460 -0.9874
 7368SOL    HW133566   3.865   0.527   7.220  1.4257  1.3393 -0.4365
 7368SOL    HW233567   3.964   0.535   7.102  0.0854  0.4764 -0.1103
 7369SOL     OW33568   4.486   0.291   4.157 -0.4763 -0.2984  0.7428
 7369SOL    HW133569   4.530   0.215   4.118  1.4715  0.4336  1.5342
 7369SOL    HW233570   4.532   0.279   4.240 -0.1172 -1.5845  0.3675
 7370SOL     OW33571   0.930   1.510  15.314 -0.2469 -0.4841  0.1379
 7370SOL    HW133572   1.002   1.467  15.268 -0.2121 -0.4794  0.1887
 7370SOL    HW233573   0.876   1.543  15.242 -1.3162 -2.1588  0.1577
 7371SOL     OW33574   4.172   0.535   4.035 -0.4153 -0.2150 -0.0536
 7371SOL    HW133575   4.261   0.557   4.011 -0.5145  2.1961  1.8510
 7371SOL    HW233576   4.123   0.598   3.983 -0.3440 -0.1952 -0.0969
 7372SOL     OW33577   3.036   3.026   4.024  0.2577 -0.0658  0.6127
 7372SOL    HW133578   2.950   3.047   3.987 -0.0633 -1.3442  0.6584
 7372SOL    HW233579   3.067   2.958   3.964 -1.4062 -0.2831 -0.0109
 7373SOL     OW33580   2.817   1.364  10.088 -1.0404 -0.0026 -0.4106
 7373SOL    HW133581   2.813   1.447  10.040  1.5176  0.2449 -0.1435
 7373SOL    HW233582   2.730   1.365  10.128  0.1197 -0.1570  2.1043
 7374SOL     OW33583   2.643   0.944   3.530 -0.0828  0.0459 -0.4280
 7374SOL    HW133584   2.602   0.913   3.449  2.6630 -0.8858 -1.4604
 7374SOL    HW233585   2.588   0.910   3.600  1.4857  0.7925  1.1618
 7375SOL     OW33586   1.290   1.779   7.306 -0.0749 -0.3420 -0.3336
 7375SOL    HW133587   1.318   1.818   7.223  0.4465 -1.0956 -0.5159
 7375SOL    HW233588   1.289   1.690   7.270  1.8886 -0.6041  0.2450
 7376SOL     OW33589   0.474   3.863   6.511 -0.1130  0.0719  0.3754
 7376SOL    HW133590   0.405   3.894   6.452 -1.3288 -0.4735  1.4916
 7376SOL    HW233591   0.432   3.848   6.595 -3.8580  0.2933 -1.4369
 7377SOL     OW33592   3.520   1.328   2.758 -0.0082  0.7116  0.1285
 7377SOL    HW133593   3.599   1.326   2.705 -1.4828 -0.2726 -2.0186
 7377SOL    HW233594   3.549   1.266   2.824 -0.6208 -0.8027 -1.0197
 7378SOL     OW33595   1.379   1.089   2.964 -0.3067  1.0998  0.2049
 7378SOL    HW133596   1.432   1.169   2.960  1.1737  0.1775  1.2024
 7378SOL    HW233597   1.426   1.038   2.897 -2.9221 -1.7024  0.5345
 7379SOL     OW33598   4.101   3.744   1.612 -0.3796  0.4268 -0.2920
 7379SOL    HW133599   4.094   3.687   1.689  2.8402 -1.0371 -1.0900
 7379SOL    HW233600   4.015   3.744   1.570 -0.5570  1.8136  0.0790
 7380SOL     OW33601   3.672   3.971  11.515 -0.4294  0.9769 -0.1412
 7380SOL    HW133602   3.751   4.017  11.541  0.4674 -0.6036 -0.0387
 7380SOL    HW233603   3.626   4.041  11.468 -1.0910 -0.6161 -1.8828
 7381SOL     OW33604   0.885   1.602   5.719  0.4933 -0.4687 -0.0670
 7381SOL    HW133605   0.865   1.611   5.812 -0.1538  0.8121 -0.3272
 7381SOL    HW233606   0.912   1.511   5.719 -1.2702 -0.9878 -0.4459
 7382SOL     OW33607   1.304   2.559   2.554  0.7239 -0.0238 -0.5025
 7382SOL    HW133608   1.221   2.520   2.582  0.3771  1.1704  0.1284
 7382SOL    HW233609   1.326   2.495   2.486 -1.0612  0.4002 -1.4669
 7383SOL     OW33610   1.262   2.085  10.001  0.2924  0.3957  0.0253
 7383SOL    HW133611   1.169   2.090   9.976 -0.2585 -0.7579  1.7830
 7383SOL    HW233612   1.315   2.103   9.924  2.2654 -0.6187  1.1423
 7384SOL     OW33613   3.884   2.329  15.517  0.2501 -0.4894  0.4679
 7384SOL    HW133614   3.838   2.328  15.433  1.2012  0.4853 -0.0621
 7384SOL    HW233615   3.895   2.423  15.530  0.0758 -0.3137 -0.6724
 7385SOL     OW33616   4.339   3.735   6.406  0.3603  0.1595 -0.2878
 7385SOL    HW133617   4.332   3.640   6.397  2.6023  0.2036 -2.3240
 7385SOL    HW233618   4.372   3.753   6.319 -1.0709  2.6416 -0.3271
 7386SOL     OW33619   4.081   4.159   4.602  0.0634 -0.2096  0.7920
 7386SOL    HW133620   4.074   4.100   4.527 -1.5199  3.3447 -1.8846
 7386SOL    HW233621   4.024   4.106   4.658 -1.5606 -0.6904 -1.2892
 7387SOL     OW33622   1.180   4.376   8.295 -0.2968 -0.3238 -0.6726
 7387SOL    HW133623   1.137   4.440   8.351 -0.7909  0.9885 -2.5587
 7387SOL    HW233624   1.158   4.410   8.208 -0.8289  2.1985  0.4596
 7388SOL     OW33625   1.511   0.431   9.289 -0.3692  0.0592  0.0923
 7388SOL    HW133626   1.573   0.500   9.268  0.8248 -0.8122  0.7728
 7388SOL    HW233627   1.540   0.366   9.225 -0.8115  0.5631 -0.6170
 7389SOL     OW33628   1.463   4.498   2.135  0.3208 -0.8730 -0.5309
 7389SOL    HW133629   1.524   4.506   2.062  0.8575 -1.4626 -0.1527
 7389SOL    HW233630   1.513   4.525   2.212  0.3287  0.1492 -0.8996
 7390SOL     OW33631   3.588   3.793  11.752  0.2341 -0.0684  0.6608
 7390SOL    HW133632   3.623   3.832  11.832 -0.9499 -0.1176  1.2055
 7390SOL    HW233633   3.626   3.855  11.690 -3.7234  0.2696 -1.4762
 7391SOL     OW33634   4.490   2.913  17.212  0.4254  0.0880  0.0311
 7391SOL    HW133635   4.488   2.913  17.307 -0.4872  0.5313  0.0085
 7391SOL    HW233636   4.396   2.911  17.200  0.1078 -3.7205  3.3056
 7392SOL     OW33637   0.027   2.036   4.950  0.3172  0.5127 -0.3353
 7392SOL    HW133638   0.028   1.990   5.034 -0.2112  1.3103  0.1036
 7392SOL    HW233639   0.118   2.065   4.954  0.1496  0.8766  0.8945
 7393SOL     OW33640   3.819   0.365  10.037 -0.3432  0.2225 -0.2847
 7393SOL    HW133641   3.729   0.384  10.063 -0.4914  0.9855 -1.3788
 7393SOL    HW233642   3.829   0.283  10.087 -2.4708  0.7754  1.0603
 7394SOL     OW33643   0.573   2.705   7.660  0.2615  0.0858 -0.2837
 7394SOL    HW133644   0.482   2.675   7.665  1.1339 -2.3841  1.0808
 7394SOL    HW233645   0.580   2.793   7.697  0.6985 -0.2805  0.5086
 7395SOL     OW33646   3.396   3.001   3.247 -0.7351 -0.8322 -0.8562
 7395SOL    HW133647   3.479   3.012   3.293 -0.5802  2.3590 -1.9157
 7395SOL    HW233648   3.430   2.928   3.195  2.0887 -0.4623  0.4992
 7396SOL     OW33649   3.634   0.410   5.849 -0.6671 -0.3386 -0.0358
 7396SOL    HW133650   3.548   0.413   5.807 -0.4258 -0.4675 -0.5374
 7396SOL    HW233651   3.685   0.442   5.774 -0.8280 -1.9774 -0.8552
 7397SOL     OW33652   0.055   1.687   8.084 -0.1871 -0.4180 -0.7501
 7397SOL    HW133653   0.061   1.623   8.013  0.4624  0.5638 -1.5826
 7397SOL    HW233654   0.060   1.767   8.033 -1.0359  0.7306  0.9688
 7398SOL     OW33655   1.441   1.110  13.667  0.3050 -0.2412 -0.2520
 7398SOL    HW133656   1.498   1.034  13.653  2.1699  1.0702  0.1950
 7398SOL    HW233657   1.479   1.174  13.607  1.1422  1.9403  2.6594
 7399SOL     OW33658   3.270   4.380   3.317 -0.4338 -0.3187  0.2461
 7399SOL    HW133659   3.356   4.392   3.359 -0.9365 -1.9828  1.7401
 7399SOL    HW233660   3.270   4.452   3.255 -0.8530  0.0494  0.6760
 7400SOL     OW33661   0.853   0.480   1.703  0.0151 -0.1768 -0.2595
 7400SOL    HW133662   0.913   0.529   1.647 -0.1249 -0.3366 -0.5436
 7400SOL    HW233663   0.810   0.418   1.645 -0.0602  0.7263 -1.1665
 7401SOL     OW33664   1.598   2.219   0.931  0.1232 -0.3962  0.9841
 7401SOL    HW133665   1.670   2.242   0.873  0.2699  1.3666  1.8581
 7401SOL    HW233666   1.528   2.250   0.873  0.3620 -1.3354  0.1891
 7402SOL     OW33667   2.361   0.330   4.996 -0.2690  0.7294 -0.3030
 7402SOL    HW133668   2.406   0.333   5.080 -0.9064  0.1526  0.0527
 7402SOL    HW233669   2.395   0.249   4.959 -0.9634 -0.0941  0.8839
 7403SOL     OW33670   4.368   4.335   4.624 -0.2056 -0.4385  0.1087
 7403SOL    HW133671   4.323   4.400   4.678 -2.1193 -0.0889 -1.9221
 7403SOL    HW233672   4.318   4.352   4.545 -0.8207 -0.8127  0.4186
 7404SOL     OW33673   2.664   4.075   7.811 -0.4622 -0.0969  0.1858
 7404SOL    HW133674   2.605   4.132   7.763  1.5966 -1.1321 -3.6002
 7404SOL    HW233675   2.640   4.097   7.901 -0.4412 -1.9396  0.6588
 7405SOL     OW33676   1.095   2.621  12.232 -0.0867  0.0364 -0.3087
 7405SOL    HW133677   1.160   2.681  12.269  0.1610  0.4578 -1.4174
 7405SOL    HW233678   1.048   2.602  12.313 -1.5226 -0.2066 -1.2058
 7406SOL     OW33679   3.010   2.837   4.809 -0.1733  0.4865 -0.5166
 7406SOL    HW133680   2.924   2.877   4.796  0.1998  0.0728 -4.4273
 7406SOL    HW233681   3.059   2.918   4.820 -0.6523  0.9468 -1.7635
 7407SOL     OW33682   4.281   0.288   6.553  0.0793  0.1265 -0.5434
 7407SOL    HW133683   4.196   0.310   6.514 -0.0398  0.7305  0.0733
 7407SOL    HW233684   4.334   0.322   6.481 -1.2502  1.4682 -0.8805
 7408SOL     OW33685   0.540   4.667   8.631 -0.2271 -0.3732 -0.0961
 7408SOL    HW133686   0.615   4.615   8.599  0.4827  0.6285 -0.0561
 7408SOL    HW233687   0.583   0.022   8.662 -0.9675 -0.3922  0.9918
 7409SOL     OW33688   0.679   3.593   1.504 -0.4093  0.0143 -0.3797
 7409SOL    HW133689   0.727   3.560   1.580 -2.1412  1.2721  1.2678
 7409SOL    HW233690   0.591   3.576   1.537 -0.7165  1.5598 -0.4162
 7410SOL     OW33691   4.492   3.161  17.096 -0.0749 -0.1252  0.1383
 7410SOL    HW133692   4.503   3.221  17.169 -0.3577 -1.2636  1.1053
 7410SOL    HW233693   4.515   3.074  17.127 -1.1413 -0.4790 -0.0618
 7411SOL     OW33694   1.344   1.208  13.899 -0.4539  0.5795 -0.3353
 7411SOL    HW133695   1.298   1.125  13.908  1.2700 -0.4843 -1.3759
 7411SOL    HW233696   1.381   1.190  13.812 -2.5017 -2.9657 -0.4655
 7412SOL     OW33697   1.113   1.544   3.608  0.0611  0.2822 -0.1887
 7412SOL    HW133698   1.164   1.616   3.644 -1.9916  2.0450 -0.7889
 7412SOL    HW233699   1.119   1.468   3.666 -0.0828 -0.6149 -1.3231
 7413SOL     OW33700   1.581   0.754   3.191 -0.0254  0.4019 -0.3574
 7413SOL    HW133701   1.629   0.689   3.242  1.3569  1.4977 -0.2738
 7413SOL    HW233702   1.500   0.758   3.242  0.0261 -1.0926 -0.1796
 7414SOL     OW33703   3.418   3.438   6.135 -0.0815  0.2641  0.0138
 7414SOL    HW133704   3.379   3.409   6.052  1.8605 -0.1706 -0.7523
 7414SOL    HW233705   3.359   3.510   6.155  0.1120  0.7202 -1.0523
 7415SOL     OW33706   3.231   2.779   8.023  0.4303 -0.7069 -0.3026
 7415SOL    HW133707   3.284   2.840   8.074  1.5085  0.8494 -3.2874
 7415SOL    HW233708   3.153   2.830   8.004  0.5208 -0.9989 -1.4515
 7416SOL     OW33709   2.927   3.111  16.971 -0.3107 -0.1553  0.0993
 7416SOL    HW133710   2.896   3.024  16.943 -2.0995  0.5246 -0.0217
 7416SOL    HW233711   2.877   3.117  17.053 -0.1859 -1.1319  0.2542
 7417SOL     OW33712   3.334   2.161  13.593  0.0456  0.6886 -0.6040
 7417SOL    HW133713   3.329   2.239  13.650  0.4192  0.3678 -0.1305
 7417SOL    HW233714   3.326   2.099  13.666 -0.8064 -1.9424 -2.9765
 7418SOL     OW33715   2.527   0.463   1.889  0.5716 -0.0529  0.6827
 7418SOL    HW133716   2.563   0.494   1.806 -1.3882 -1.4593 -0.6937
 7418SOL    HW233717   2.590   0.397   1.919  0.1169 -1.2731 -1.0467
 7419SOL     OW33718   4.416   2.943   0.131  0.8145 -0.0280  0.0513
 7419SOL    HW133719   4.393   2.850   0.134 -0.2023  0.2282  0.2012
 7419SOL    HW233720   4.344   2.975   0.076  0.4969 -1.8319 -0.5861
 7420SOL     OW33721   3.122   2.992   8.464 -0.3556  0.3636 -0.4975
 7420SOL    HW133722   3.188   2.959   8.525 -1.7414 -0.1646  0.7210
 7420SOL    HW233723   3.171   3.066   8.429  0.5581 -1.6536 -3.4366
 7421SOL     OW33724   2.502   4.544   7.593  0.3476 -0.1697 -0.2776
 7421SOL    HW133725   2.484   4.603   7.666  1.8681  0.9748 -0.8294
 7421SOL    HW233726   2.420   4.539   7.544  0.7545  0.5828 -1.0141
 7422SOL     OW33727   2.588   3.092   1.804 -0.4446  0.2917 -0.0976
 7422SOL    HW133728   2.523   3.161   1.814 -2.1642 -1.7072  2.2468
 7422SOL    HW233729   2.543   3.023   1.852  0.7641 -0.9439 -0.7516
 7423SOL     OW33730   4.598   3.898   8.237  0.1638 -0.2663  0.2203
 7423SOL    HW133731   4.687   3.933   8.242  0.4899 -0.9244 -1.0193
 7423SOL    HW233732   4.577   3.883   8.145  2.1078 -1.4151 -0.0216
 7424SOL     OW33733   0.126   1.011   4.670  0.2720  0.4087 -0.5053
 7424SOL    HW133734   0.092   1.083   4.722 -2.5368  0.0264 -1.7678
 7424SOL    HW233735   0.116   1.052   4.585 -0.1264  2.2110  0.4158
 7425SOL     OW33736   4.421   0.472  14.922  0.2115 -0.0081 -0.2458
 7425SOL    HW133737   4.405   0.551  14.871  1.8255 -0.5828 -1.6395
 7425SOL    HW233738   4.482   0.503  14.989 -0.8217  3.4594 -0.9128
 7426SOL     OW33739   0.024   1.742   6.322 -0.4228  0.0852  0.5671
 7426SOL    HW133740   0.006   1.821   6.272  2.0754 -1.1361 -2.3360
 7426SOL    HW233741   4.658   1.711   6.320 -0.2769 -0.3142 -0.1330
 7427SOL     OW33742   3.520   4.085   6.327 -0.7084 -0.0655 -1.2715
 7427SOL    HW133743   3.523   3.994   6.358 -2.4554  0.2214 -0.2148
 7427SOL    HW233744   3.439   4.098   6.377 -0.8739  0.2317 -1.6182
 7428SOL     OW33745   0.864   1.506  16.404 -0.2750  0.3391 -0.0776
 7428SOL    HW133746   0.846   1.452  16.481 -0.3721  1.4781  0.7156
 7428SOL    HW233747   0.916   1.575  16.446  1.8170  0.1754 -2.3876
 7429SOL     OW33748   4.319   0.639   3.320 -0.1118  0.6622 -0.3746
 7429SOL    HW133749   4.252   0.571   3.304  0.0947  0.7273 -1.5296
 7429SOL    HW233750   4.272   0.714   3.357 -0.3609  0.6787 -0.7181
 7430SOL     OW33751   1.298   2.688   2.793  0.5038 -0.2041  0.1952
 7430SOL    HW133752   1.279   2.654   2.705  2.1595 -2.8916  0.8802
 7430SOL    HW233753   1.390   2.714   2.782  0.3332  0.0458 -0.6593
 7431SOL     OW33754   4.089   1.814   4.462 -0.0221 -0.4709  0.0914
 7431SOL    HW133755   4.133   1.787   4.543  0.3864 -1.3728 -0.4312
 7431SOL    HW233756   4.015   1.753   4.460 -0.3255 -0.0456 -1.2184
 7432SOL     OW33757   3.727   2.473   6.882  0.3587  0.2461 -0.3042
 7432SOL    HW133758   3.702   2.452   6.972 -0.5097  1.1977 -0.3221
 7432SOL    HW233759   3.816   2.440   6.877  0.4599  0.3150  1.1190
 7433SOL     OW33760   1.173   4.674   0.104  0.3851  0.0434  0.3632
 7433SOL    HW133761   1.100   0.007   0.080  0.2284  0.9571  3.0550
 7433SOL    HW233762   1.243   0.013   0.116  0.7303 -0.3358  0.3189
 7434SOL     OW33763   0.974   2.247   9.918 -0.2209  0.0278  0.0885
 7434SOL    HW133764   0.987   2.298   9.999  0.3771 -2.0268  1.2724
 7434SOL    HW233765   0.900   2.294   9.879  0.5159  1.4603  0.3912
 7435SOL     OW33766   2.168   3.724   4.323 -0.0964  0.4139  0.2555
 7435SOL    HW133767   2.250   3.677   4.310  1.1266  2.3577  1.0115
 7435SOL    HW233768   2.109   3.649   4.337 -0.5707  0.7210 -0.1024
 7436SOL     OW33769   3.084   3.407   6.185  0.2169 -0.0674 -0.2316
 7436SOL    HW133770   3.113   3.320   6.161 -0.6882 -0.7341  1.1044
 7436SOL    HW233771   3.077   3.389   6.279 -0.7276 -0.4622 -0.3811
 7437SOL     OW33772   1.972   3.818   5.964  0.3410 -0.0323 -0.0722
 7437SOL    HW133773   1.916   3.761   5.912 -1.0784  1.2651  0.0318
 7437SOL    HW233774   2.046   3.759   5.981 -1.6730 -3.0384 -1.7689
 7438SOL     OW33775   0.969   3.647   3.233  0.0322 -0.4638  0.5626
 7438SOL    HW133776   0.948   3.563   3.190  0.1268 -0.5167  0.6218
 7438SOL    HW233777   0.884   3.692   3.231  0.4871  0.4395  2.4245
 7439SOL     OW33778   2.457   0.842   0.146  0.6096  0.2223  0.4594
 7439SOL    HW133779   2.541   0.829   0.102  2.1300  0.2646  3.3483
 7439SOL    HW233780   2.449   0.937   0.131 -2.0640 -0.4901 -2.8680
 7440SOL     OW33781   4.078   2.622  15.370 -0.0379  0.2352  0.2859
 7440SOL    HW133782   4.157   2.675  15.379  0.4831 -0.4481 -0.2718
 7440SOL    HW233783   4.109   2.533  15.352 -0.1880  0.6023 -1.8055
 7441SOL     OW33784   1.000   4.609   5.133  0.0784 -0.3286 -0.2914
 7441SOL    HW133785   1.025   4.697   5.105  2.1068 -0.7834  0.1199
 7441SOL    HW233786   0.952   4.579   5.055 -0.1230 -0.2836 -0.1852
 7442SOL     OW33787   2.650   2.831   5.015 -0.2093 -0.4157 -0.2402
 7442SOL    HW133788   2.666   2.784   4.933 -1.4564 -1.6279  0.2076
 7442SOL    HW233789   2.558   2.859   5.015  0.0786  0.5634 -1.8900
 7443SOL     OW33790   4.345   1.840  15.933 -0.0609  0.1858  0.0694
 7443SOL    HW133791   4.271   1.873  15.881  0.0238  0.2528 -0.0086
 7443SOL    HW233792   4.375   1.774  15.871 -1.9438 -0.3471 -0.2801
 7444SOL     OW33793   1.418   0.233   8.605 -0.4448 -0.4622  0.0988
 7444SOL    HW133794   1.323   0.243   8.605 -0.5352 -1.2058 -1.5858
 7444SOL    HW233795   1.453   0.308   8.654 -0.1084 -1.4356  1.3504
 7445SOL     OW33796   1.488   1.020   5.930  0.6084 -0.9151 -0.4890
 7445SOL    HW133797   1.485   0.924   5.926 -0.6145 -0.8721 -0.3226
 7445SOL    HW233798   1.544   1.019   6.009 -0.5415  2.9667  0.3662
 7446SOL     OW33799   3.333   1.367  11.584 -0.3307  0.2324  0.1368
 7446SOL    HW133800   3.290   1.423  11.519  0.8081 -2.8217 -3.2885
 7446SOL    HW233801   3.335   1.430  11.656 -1.5528  2.3707 -1.7106
 7447SOL     OW33802   0.759   1.758   5.021 -0.6469  0.7156 -0.0478
 7447SOL    HW133803   0.755   1.848   5.052 -0.7915 -0.5140  3.4881
 7447SOL    HW233804   0.760   1.770   4.926  0.2007 -0.0879 -0.1372
 7448SOL     OW33805   1.471   2.867  17.480 -0.0776  0.3344 -0.1433
 7448SOL    HW133806   1.491   2.869  17.574 -1.0112  0.3179  0.0633
 7448SOL    HW233807   1.396   2.807  17.483 -0.1930  0.5462  1.6446
 7449SOL     OW33808   3.085   4.372   1.634  0.1554  0.0272  0.1904
 7449SOL    HW133809   3.113   4.373   1.725  0.4708 -1.3165  0.1107
 7449SOL    HW233810   3.150   4.309   1.603  0.0335 -0.0969  0.1878
 7450SOL     OW33811   2.800   0.935  13.228  0.2038  0.1840  0.6224
 7450SOL    HW133812   2.798   1.017  13.278 -2.7812  0.7364 -0.4080
 7450SOL    HW233813   2.852   0.871  13.276  1.5562  1.2301  0.5555
 7451SOL     OW33814   2.665   3.103  17.483  0.0804  0.2383  0.3692
 7451SOL    HW133815   2.740   3.147  17.444  1.0344  0.1877  2.1621
 7451SOL    HW233816   2.667   3.145  17.569 -0.1688  0.1273  0.4286
 7452SOL     OW33817   2.965   1.630   8.683  0.2633  0.5058 -0.5926
 7452SOL    HW133818   2.903   1.641   8.611 -1.4117  3.1321  1.2421
 7452SOL    HW233819   2.906   1.646   8.757  0.8533  0.3050 -0.0807
 7453SOL     OW33820   0.850   4.491   9.369 -0.7907  0.2556 -0.1353
 7453SOL    HW133821   0.827   4.455   9.283 -0.7384 -0.7292  0.2636
 7453SOL    HW233822   0.922   4.433   9.393 -0.1882  1.4418  0.8849
 7454SOL     OW33823   1.830   3.504  17.670 -0.0234  0.0712 -0.2635
 7454SOL    HW133824   1.839   3.596  17.693 -0.5633  0.0729 -0.0562
 7454SOL    HW233825   1.848   3.469   0.059  0.4279  0.0260 -0.3756
 7455SOL     OW33826   3.782   0.446   8.335  0.2810 -0.1857  0.6285
 7455SOL    HW133827   3.807   0.473   8.247  0.4634 -0.5045  0.5833
 7455SOL    HW233828   3.697   0.410   8.312  1.5640 -1.4541 -2.1062
 7456SOL     OW33829   0.659   0.151   2.013 -0.1882 -0.3230  0.4633
 7456SOL    HW133830   0.610   0.072   1.992 -1.0605  0.7961 -1.7401
 7456SOL    HW233831   0.603   0.209   2.065  0.8986  2.4252 -1.3921
 7457SOL     OW33832   1.424   3.481   8.679 -0.0447  0.1405 -0.2671
 7457SOL    HW133833   1.508   3.503   8.720 -0.1800  1.1474 -0.5436
 7457SOL    HW233834   1.429   3.386   8.671  0.3134  0.2124 -0.8767
 7458SOL     OW33835   0.321   4.671   9.269  0.0546  0.3407  0.5264
 7458SOL    HW133836   0.378   4.719   9.208  0.4075 -1.4274 -0.5624
 7458SOL    HW233837   0.371   4.660   9.350 -0.5740  1.1865  1.0211
 7459SOL     OW33838   1.911   3.935   6.880  0.4385  0.0282 -0.3573
 7459SOL    HW133839   1.843   3.962   6.819 -2.3245 -0.7630  2.3856
 7459SOL    HW233840   1.878   3.976   6.960  0.1045  0.8610 -0.9314
 7460SOL     OW33841   1.502   3.068   5.217  0.6510  0.8142 -0.2078
 7460SOL    HW133842   1.534   3.158   5.214  1.8848  0.3943  0.2885
 7460SOL    HW233843   1.477   3.050   5.126 -0.5053 -1.6870  0.5930
 7461SOL     OW33844   0.565   4.359   7.266 -0.8953  0.2854  0.4893
 7461SOL    HW133845   0.550   4.450   7.237  1.1432  0.7019  0.7469
 7461SOL    HW233846   0.577   4.372   7.360 -2.1813  3.4821  0.2258
 7462SOL     OW33847   4.603   0.227   5.713  0.4705  0.3449 -0.3146
 7462SOL    HW133848   4.542   0.297   5.691 -2.5040 -1.5792  1.8076
 7462SOL    HW233849   4.635   0.203   5.626 -1.6891  0.0738 -1.0238
 7463SOL     OW33850   3.147   1.133   5.138 -0.1105 -0.0256  0.3833
 7463SOL    HW133851   3.220   1.114   5.078 -0.9284 -0.4559 -0.4756
 7463SOL    HW233852   3.196   1.131   5.220  0.9820 -0.1635 -0.2731
 7464SOL     OW33853   2.987   0.822  15.193  0.2089 -0.3034  0.8740
 7464SOL    HW133854   2.897   0.810  15.162  0.0891  1.8309  0.4395
 7464SOL    HW233855   2.973   0.905  15.238  0.4878  0.4538 -0.4783
 7465SOL     OW33856   2.690   2.080   3.683  0.5701  0.4526 -0.4794
 7465SOL    HW133857   2.607   2.128   3.689  1.1363  1.3861 -0.1606
 7465SOL    HW233858   2.737   2.140   3.625  2.2643 -1.3199 -0.9285
 7466SOL     OW33859   2.392   4.028  11.642 -0.1731  0.3366  0.5663
 7466SOL    HW133860   2.447   3.949  11.650 -1.4714 -0.5025  1.1096
 7466SOL    HW233861   2.358   4.002  11.556 -0.4696 -0.3290  0.8844
 7467SOL     OW33862   0.562   0.324  10.703 -0.3518  0.1215 -0.6288
 7467SOL    HW133863   0.520   0.245  10.737 -1.2976  1.3178  0.9899
 7467SOL    HW233864   0.648   0.292  10.730  0.5548  0.9623 -2.5032
 7468SOL     OW33865   3.682   0.575  11.981  0.3528  0.3154  0.3130
 7468SOL    HW133866   3.690   0.641  11.912  0.1646 -0.0751 -0.0813
 7468SOL    HW233867   3.775   0.555  11.989  0.5201  0.3123 -1.6449
 7469SOL     OW33868   0.286   1.093   1.056 -0.2123  0.0750 -0.0185
 7469SOL    HW133869   0.337   1.012   1.055  1.7624  1.3139 -0.3511
 7469SOL    HW233870   0.196   1.064   1.067 -0.3818  0.6909  0.2441
 7470SOL     OW33871   1.595   4.184   8.299  0.4715 -0.2500 -0.0765
 7470SOL    HW133872   1.550   4.266   8.279  1.0545  0.6957  2.4203
 7470SOL    HW233873   1.686   4.212   8.291  0.6364 -0.7209  0.1471
 7471SOL     OW33874   0.065   0.122  14.873 -0.3522  0.6246 -0.1777
 7471SOL    HW133875   0.032   0.036  14.847 -0.6660  0.5715  0.4170
 7471SOL    HW233876   0.160   0.109  14.866 -0.6146 -0.5797 -1.5670
 7472SOL     OW33877   0.506   4.203  10.371  0.1570  0.9085 -0.4276
 7472SOL    HW133878   0.521   4.168  10.459 -1.8588 -3.3319 -1.7838
 7472SOL    HW233879   0.411   4.208  10.381  0.2029 -1.4777  1.1437
 7473SOL     OW33880   2.257   2.028   0.018 -0.7481 -0.0674  0.0277
 7473SOL    HW133881   2.171   1.985   0.024 -1.8782  2.0261 -1.0865
 7473SOL    HW233882   2.300   1.974   0.084  0.9136  1.0315 -0.1477
 7474SOL     OW33883   0.806   0.092   8.350 -0.3759 -0.2452  0.2154
 7474SOL    HW133884   0.769   0.129   8.430  1.5020 -1.0952  1.4653
 7474SOL    HW233885   0.781   0.172   8.303  1.5279  0.9864  1.3026
 7475SOL     OW33886   1.850   0.477   2.095 -0.3501 -0.8244 -0.3856
 7475SOL    HW133887   1.818   0.408   2.037  0.1920 -0.2712 -1.3609
 7475SOL    HW233888   1.822   0.450   2.182  1.7237 -0.5670  0.3644
 7476SOL     OW33889   1.757   0.380   4.332  0.2336  0.2216  0.1376
 7476SOL    HW133890   1.802   0.432   4.398 -0.2746  0.2795  0.4402
 7476SOL    HW233891   1.705   0.450   4.291  0.5753  0.0621 -0.5663
 7477SOL     OW33892   0.013   4.279  13.447 -0.3813 -0.0580 -0.1135
 7477SOL    HW133893   4.701   4.292  13.535  3.0082 -0.5335  1.3426
 7477SOL    HW233894   0.071   4.354  13.430 -0.5257  0.2172  0.6014
 7478SOL     OW33895   2.355   4.425   2.734 -0.0358  0.1022  0.0142
 7478SOL    HW133896   2.267   4.387   2.733  0.6168 -1.4361  0.9888
 7478SOL    HW233897   2.369   4.434   2.828  1.8592 -1.8637 -0.0669
 7479SOL     OW33898   4.569   2.186  14.918  0.0098  0.0762 -0.3060
 7479SOL    HW133899   4.635   2.236  14.966  1.1688 -0.3663 -1.4297
 7479SOL    HW233900   4.620   2.172  14.838  1.2818  2.7038  0.0729
 7480SOL     OW33901   1.997   1.692   9.072  0.0575  0.1950  0.4111
 7480SOL    HW133902   1.950   1.615   9.041  0.4197  0.4252 -0.7098
 7480SOL    HW233903   2.047   1.643   9.136  0.2851  0.5838  0.5333
 7481SOL     OW33904   2.896   1.937  10.901  0.2276  0.0996 -0.3063
 7481SOL    HW133905   2.859   1.875  10.839  1.7894 -0.7054 -0.4370
 7481SOL    HW233906   2.917   2.001  10.833 -2.4054 -0.5030 -1.6649
 7482SOL     OW33907   1.708   4.260   5.609 -0.1638 -0.8142 -0.0445
 7482SOL    HW133908   1.653   4.338   5.618  0.4027 -0.5722  1.2957
 7482SOL    HW233909   1.654   4.188   5.643  0.0251 -1.3110 -0.7957
 7483SOL     OW33910   4.568   1.489   2.337  0.5890 -0.1161 -0.3157
 7483SOL    HW133911   4.497   1.435   2.303 -0.3624  1.0707 -0.2098
 7483SOL    HW233912   4.649   1.456   2.298  0.0211 -1.8273 -0.0236
 7484SOL     OW33913   4.404   0.885   6.956 -0.2227  0.0073  0.6340
 7484SOL    HW133914   4.387   0.845   6.871 -1.2940  3.1827 -0.6534
 7484SOL    HW233915   4.321   0.881   7.003 -1.4242 -4.6310 -2.0049
 7485SOL     OW33916   4.074   3.810   3.524  0.9942 -0.0241 -0.3396
 7485SOL    HW133917   4.139   3.759   3.475  1.8735 -0.2966  1.0956
 7485SOL    HW233918   4.105   3.899   3.508  0.8566  0.1195  0.1757
 7486SOL     OW33919   0.872   2.366  14.163 -0.6441  0.0802 -0.1178
 7486SOL    HW133920   0.841   2.439  14.109 -0.8139  0.9156  1.1240
 7486SOL    HW233921   0.792   2.333  14.205 -0.4483 -0.6058 -0.2800
 7487SOL     OW33922   0.020   3.106   0.551 -0.4930 -0.1927 -0.1208
 7487SOL    HW133923   4.699   3.080   0.471 -2.7142  2.6780  0.2412
 7487SOL    HW233924   0.054   3.020   0.576 -1.2929 -0.2571  0.7109
 7488SOL     OW33925   4.516   0.781   2.942 -0.4307  0.5980 -0.1868
 7488SOL    HW133926   4.539   0.753   2.854 -2.0017  3.1915 -1.4298
 7488SOL    HW233927   4.559   0.711   2.991 -0.4995  0.9675  0.4031
 7489SOL     OW33928   0.384   1.057   2.026 -0.4294  0.3498 -0.2400
 7489SOL    HW133929   0.397   1.102   1.943 -1.3951  1.0366 -0.0200
 7489SOL    HW233930   0.310   1.103   2.066 -1.4020 -1.3292 -0.1278
 7490SOL     OW33931   1.716   1.455  13.901  0.2596  0.0485 -0.7886
 7490SOL    HW133932   1.746   1.432  13.989  1.7819 -1.7399 -1.7616
 7490SOL    HW233933   1.776   1.520  13.863  0.7907  0.7165  1.2095
 7491SOL     OW33934   2.314   0.757   4.968 -0.0981 -0.0504  0.6413
 7491SOL    HW133935   2.258   0.822   4.926  1.2294  1.6503  1.4897
 7491SOL    HW233936   2.320   0.692   4.898 -1.5442  0.5901 -0.0693
 7492SOL     OW33937   4.178   2.336   4.120  0.1539 -0.1670  0.2534
 7492SOL    HW133938   4.142   2.409   4.170  0.3786  1.2822 -1.7075
 7492SOL    HW233939   4.112   2.339   4.050  0.6941 -1.7490 -0.3257
 7493SOL     OW33940   3.518   2.325   8.708 -0.9087  0.8904 -0.4605
 7493SOL    HW133941   3.438   2.275   8.724 -0.0869 -0.2336  0.1165
 7493SOL    HW233942   3.478   2.411   8.704  0.8962  1.8954  3.0656
 7494SOL     OW33943   3.169   2.559  11.460 -0.0171  0.5813  0.1831
 7494SOL    HW133944   3.187   2.579  11.368  0.6486  3.6329  0.9885
 7494SOL    HW233945   3.137   2.642  11.495  2.6803  2.2363 -1.3094
 7495SOL     OW33946   2.279   1.352   9.837  0.2874  0.2748  0.6523
 7495SOL    HW133947   2.345   1.371   9.903  1.1458  0.3157 -0.2272
 7495SOL    HW233948   2.240   1.273   9.876  2.3836 -0.8790  0.4001
 7496SOL     OW33949   2.430   3.192   1.056  0.1378  0.5306 -0.1836
 7496SOL    HW133950   2.500   3.128   1.046  1.3383  1.8024  0.1184
 7496SOL    HW233951   2.397   3.171   1.143  0.3034 -0.1421 -0.2852
 7497SOL     OW33952   2.223   0.185   2.017 -0.5400  0.2912 -0.1686
 7497SOL    HW133953   2.133   0.156   2.005 -0.3430 -0.0444 -0.8381
 7497SOL    HW233954   2.225   0.268   1.970 -0.0926  1.2454  1.4991
 7498SOL     OW33955   1.111   3.344   5.081 -0.1175 -0.0237  0.4724
 7498SOL    HW133956   1.036   3.285   5.069  1.6076 -1.7413 -1.7767
 7498SOL    HW233957   1.063   3.422   5.110  1.9104  1.2025  0.5477
 7499SOL     OW33958   4.030   0.529  15.211 -0.1009  0.1829  0.0586
 7499SOL    HW133959   4.093   0.532  15.139 -0.4319  0.8769 -0.2053
 7499SOL    HW233960   3.980   0.455  15.175 -3.3541  1.9389  0.9396
 7500SOL     OW33961   3.658   2.639  16.877 -0.0985 -0.5729 -0.2734
 7500SOL    HW133962   3.649   2.711  16.814  1.8914 -1.2010 -1.2854
 7500SOL    HW233963   3.714   2.685  16.941  1.4690 -0.9356 -1.3760
 7501SOL     OW33964   3.215   0.025   2.801  0.1058 -0.4095 -0.2871
 7501SOL    HW133965   3.264   4.669   2.814 -0.7115 -0.9044 -0.2680
 7501SOL    HW233966   3.136   4.715   2.759  1.3328  1.5952 -4.1671
 7502SOL     OW33967   3.743   0.208   3.593 -0.7027 -0.3812  0.9625
 7502SOL    HW133968   3.728   0.125   3.638 -1.5033  0.1380  1.6470
 7502SOL    HW233969   3.762   0.267   3.665  2.0694 -0.6549  0.4613
 7503SOL     OW33970   2.601   3.835   4.539 -0.6594 -0.1198  0.2375
 7503SOL    HW133971   2.665   3.763   4.536 -0.7514 -0.0696 -2.6587
 7503SOL    HW233972   2.634   3.894   4.472  0.3387 -0.5151  0.3765
 7504SOL     OW33973   1.083   1.351  13.873  0.1848 -0.1489 -0.5520
 7504SOL    HW133974   1.031   1.303  13.938  1.2266 -0.4623  0.0389
 7504SOL    HW233975   1.170   1.314  13.887 -0.1427 -0.3384  1.0305
 7505SOL     OW33976   3.667   2.068   2.340  0.5738  0.6368  0.0252
 7505SOL    HW133977   3.736   2.065   2.407  0.6596  0.0867 -0.0882
 7505SOL    HW233978   3.714   2.074   2.257  0.3325 -0.3902 -0.1761
 7506SOL     OW33979   0.075   0.453  12.789 -0.2442 -0.3926  0.5318
 7506SOL    HW133980   4.709   0.422  12.778  0.6087 -3.0488  0.9195
 7506SOL    HW233981   0.055   0.539  12.824  0.9721 -0.2408  0.8481
 7507SOL     OW33982   4.384   3.018  11.260 -0.0019  0.1010  0.1709
 7507SOL    HW133983   4.379   2.926  11.284  1.1722  0.6709  2.6556
 7507SOL    HW233984   4.413   3.016  11.169 -3.6252  0.7609 -1.0384
 7508SOL     OW33985   0.164   4.548   6.791 -0.1260 -0.7728  0.6202
 7508SOL    HW133986   0.183   4.626   6.843 -2.4760  0.2314 -0.0522
 7508SOL    HW233987   0.206   4.583   6.713 -0.2193 -0.4135  0.7329
 7509SOL     OW33988   0.850   1.304   6.119 -0.0439  0.4716  0.3712
 7509SOL    HW133989   0.942   1.311   6.093  0.5079 -0.6478  1.9698
 7509SOL    HW233990   0.835   1.217   6.082  1.1433  0.2511  0.3981
 7510SOL     OW33991   2.178   2.196   6.589  0.4082  0.0818  0.1593
 7510SOL    HW133992   2.166   2.170   6.680  0.0200  2.0340  0.6723
 7510SOL    HW233993   2.231   2.130   6.545  0.0636 -1.8244  2.5728
 7511SOL     OW33994   2.548   3.507   7.905  0.5339 -0.1684  0.0903
 7511SOL    HW133995   2.489   3.493   7.831  0.3647  1.5563 -0.0966
 7511SOL    HW233996   2.606   3.432   7.889 -0.3978 -1.2273  1.6157
 7512SOL     OW33997   1.047   1.038   8.573 -0.2013 -0.3904 -0.6763
 7512SOL    HW133998   0.970   1.020   8.628 -0.2216  0.8723 -0.3010
 7512SOL    HW233999   1.073   1.127   8.594 -3.4250  0.2144  0.8381
 7513SOL     OW34000   3.668   0.587   3.921  0.2058  0.0392 -0.4789
 7513SOL    HW134001   3.698   0.498   3.901  0.2962  0.3417 -1.6391
 7513SOL    HW234002   3.723   0.616   3.994  1.1182 -1.7426 -0.4644
 7514SOL     OW34003   1.663   4.611  16.650  0.0708 -0.5568  0.4273
 7514SOL    HW134004   1.665   4.649  16.738 -0.2468 -0.2672  0.3100
 7514SOL    HW234005   1.661   4.686  16.591  0.0222 -1.6818 -1.0034
 7515SOL     OW34006   0.502   3.480   4.990 -0.1441 -0.1542  0.1649
 7515SOL    HW134007   0.469   3.394   5.018 -2.1936  0.8855  0.9391
 7515SOL    HW234008   0.471   3.499   4.902 -0.7534 -1.4328  0.0905
 7516SOL     OW34009   2.655   2.249  12.746  0.0113  0.3718  0.6445
 7516SOL    HW134010   2.600   2.319  12.710 -0.3768 -0.1380  0.2496
 7516SOL    HW234011   2.740   2.289  12.763 -0.7280  2.1620  0.1564
 7517SOL     OW34012   1.599   1.743   6.836 -0.0492 -0.2352  0.0557
 7517SOL    HW134013   1.663   1.688   6.880 -0.3377  1.3480  2.4830
 7517SOL    HW234014   1.566   1.689   6.764  0.7350  2.2634 -2.1548
 7518SOL     OW34015   3.041   2.303   3.043 -0.1324  0.4807 -0.6438
 7518SOL    HW134016   2.975   2.296   2.974 -2.3164  1.4432  1.3817
 7518SOL    HW234017   2.984   2.310   3.119  1.4578 -0.6683  0.6562
 7519SOL     OW34018   2.097   1.356   9.469 -0.0350  0.1297 -0.6050
 7519SOL    HW134019   2.163   1.402   9.521  1.6678 -0.7697 -1.9996
 7519SOL    HW234020   2.037   1.340   9.542  1.2493  2.0933  0.8896
 7520SOL     OW34021   2.135   1.867   9.280  0.0203 -0.0205  0.2031
 7520SOL    HW134022   2.108   1.778   9.256  1.8350 -0.4039 -0.4971
 7520SOL    HW234023   2.215   1.842   9.328  0.4375 -1.2049 -1.0989
 7521SOL     OW34024   3.332   2.582   7.825  0.1669  0.1268  0.5586
 7521SOL    HW134025   3.412   2.570   7.877  0.5332 -1.0310 -0.2599
 7521SOL    HW234026   3.268   2.611   7.890 -1.4218  1.0773 -1.4413
 7522SOL     OW34027   3.487   4.036   2.888 -0.1576  0.3718  0.0767
 7522SOL    HW134028   3.507   3.971   2.822 -1.1271  0.5537 -0.3956
 7522SOL    HW234029   3.463   3.998   2.972  2.4590  0.4972  0.8936
 7523SOL     OW34030   1.339   4.334  12.765  0.0932  0.0235 -0.4798
 7523SOL    HW134031   1.338   4.385  12.847  1.1315 -1.8353  0.6887
 7523SOL    HW234032   1.429   4.348  12.737 -0.5122  2.4788 -1.2137
 7524SOL     OW34033   0.693   4.646   5.204 -0.4567 -0.6540  0.6364
 7524SOL    HW134034   0.623   4.612   5.149 -0.4262  1.4190 -0.6541
 7524SOL    HW234035   0.711   0.007   5.166 -1.0678 -2.0703 -2.7856
 7525SOL     OW34036   1.985   4.243   7.267 -0.4555  0.2666 -0.5129
 7525SOL    HW134037   1.895   4.236   7.235 -0.9399 -0.6093  1.0326
 7525SOL    HW234038   1.977   4.297   7.346  3.3997  0.1928 -0.0793
 7526SOL     OW34039   2.241   0.703   3.305  0.5583 -0.4375  0.6308
 7526SOL    HW134040   2.282   0.789   3.301 -1.0797  0.3010 -0.4662
 7526SOL    HW234041   2.266   0.676   3.394 -0.3221  1.4178  1.4402
 7527SOL     OW34042   2.902   4.207   2.295  0.3659  0.1927  0.5791
 7527SOL    HW134043   2.828   4.245   2.249  2.0904  1.7238 -0.9363
 7527SOL    HW234044   2.909   4.128   2.240  0.4072  0.2896  0.4435
 7528SOL     OW34045   1.730   2.450   5.582  0.1588 -0.0717  0.3795
 7528SOL    HW134046   1.664   2.510   5.617  0.7465  0.4971  0.5099
 7528SOL    HW234047   1.812   2.493   5.607 -0.3036  0.8282  0.3332
 7529SOL     OW34048   3.284   4.386   5.544  0.6626 -0.2193  0.3227
 7529SOL    HW134049   3.226   4.419   5.476  1.0194 -1.9975 -0.8562
 7529SOL    HW234050   3.235   4.312   5.582 -0.0639  0.7803  1.3354
 7530SOL     OW34051   0.305   1.340   8.973 -0.1323  0.5905  0.2872
 7530SOL    HW134052   0.395   1.308   8.967 -0.1087  0.7473 -0.2540
 7530SOL    HW234053   0.319   1.435   8.973  0.5346  0.4941  0.2603
 7531SOL     OW34054   1.004   0.907   7.678  0.3872 -0.0214  0.0259
 7531SOL    HW134055   0.971   0.872   7.761 -1.5166  1.6686  0.0110
 7531SOL    HW234056   0.977   0.997   7.696  2.1935  0.7179 -0.9799
 7532SOL     OW34057   2.544   3.007   3.427  0.7655 -0.1328  0.2076
 7532SOL    HW134058   2.528   2.976   3.517  0.2517  0.7572  0.4220
 7532SOL    HW234059   2.600   3.084   3.433  1.3888 -0.6471  1.0396
 7533SOL     OW34060   0.468   0.078   4.374 -0.1795  0.1284  0.4595
 7533SOL    HW134061   0.559   0.061   4.398 -0.9893 -2.4629  1.6722
 7533SOL    HW234062   0.477   0.138   4.299 -2.6904 -1.7914 -1.4025
 7534SOL     OW34063   1.615   0.317   1.414  0.3381  0.1255  0.5825
 7534SOL    HW134064   1.644   0.371   1.340 -1.3885 -0.6942 -0.6909
 7534SOL    HW234065   1.636   0.234   1.372 -0.7068  0.3562 -0.3846
 7535SOL     OW34066   1.738   0.820   5.827  0.0891  0.6048  0.3053
 7535SOL    HW134067   1.664   0.777   5.869 -0.3997 -0.7433 -1.9432
 7535SOL    HW234068   1.785   0.743   5.796  1.4509  1.2963  0.6486
 7536SOL     OW34069   1.715   2.330   7.972 -0.1624  0.4269  0.4724
 7536SOL    HW134070   1.700   2.300   7.882  0.0443  0.1837  0.5207
 7536SOL    HW234071   1.721   2.249   8.021  0.5824  0.2667  0.1179
 7537SOL     OW34072   0.329   1.216   2.357 -0.1455 -0.2472  0.0894
 7537SOL    HW134073   0.425   1.209   2.358 -0.0266  1.0699 -2.1497
 7537SOL    HW234074   0.309   1.258   2.273  2.0195 -3.2955 -1.9484
 7538SOL     OW34075   3.505   4.214  11.412 -0.0085 -0.3884  0.1908
 7538SOL    HW134076   3.427   4.259  11.380  1.3868  0.6724 -1.7299
 7538SOL    HW234077   3.511   4.241  11.504  3.3034  1.2251 -0.4925
 7539SOL     OW34078   3.036   3.350   1.512 -0.1096 -0.4003 -0.5524
 7539SOL    HW134079   2.955   3.300   1.499  0.0278 -0.7299 -0.1371
 7539SOL    HW234080   3.076   3.345   1.425 -0.9759 -1.0587 -0.9181
 7540SOL     OW34081   2.327   4.251  12.190  0.3300 -0.5588 -0.9724
 7540SOL    HW134082   2.368   4.165  12.202  0.8481  0.1606  2.5051
 7540SOL    HW234083   2.331   4.254  12.094  0.8861 -1.8034 -0.9958
 7541SOL     OW34084   0.184   3.017   0.068 -0.1499  0.0481 -0.1746
 7541SOL    HW134085   0.234   3.026   0.149  2.1061 -0.5967 -1.5055
 7541SOL    HW234086   0.114   2.964   0.106  1.7172 -1.2120  1.5301
 7542SOL     OW34087   1.257   1.010   3.205 -0.7878  0.1923  0.0899
 7542SOL    HW134088   1.313   1.074   3.161 -1.0658  1.8113  2.0914
 7542SOL    HW234089   1.311   0.931   3.197  1.3167  1.4119  2.1009
 7543SOL     OW34090   2.306   2.373   4.005  0.7973  0.2398  0.5443
 7543SOL    HW134091   2.387   2.327   3.983 -0.1323 -0.3828 -1.5748
 7543SOL    HW234092   2.335   2.436   4.071 -0.7835 -1.3050  2.7329
 7544SOL     OW34093   2.261   4.650   2.082 -0.2414  0.2324  0.2780
 7544SOL    HW134094   2.263   0.001   2.023  0.7233  0.8028  1.0487
 7544SOL    HW234095   2.232   4.585   2.018  0.5242 -0.2409  0.4105
 7545SOL     OW34096   0.333   1.260   2.647 -0.0018 -0.6174 -0.4158
 7545SOL    HW134097   0.347   1.354   2.649 -2.9522 -0.3000  4.3767
 7545SOL    HW234098   0.309   1.251   2.554 -0.7414  2.6162 -0.5347
 7546SOL     OW34099   2.948   3.080   3.600 -0.0298 -0.2561  0.5223
 7546SOL    HW134100   2.931   2.990   3.570  0.8530 -0.3254  0.2305
 7546SOL    HW234101   3.035   3.099   3.564 -0.4714  0.0026 -0.4262
 7547SOL     OW34102   3.214   3.697  13.592  0.1098 -0.4753  0.3334
 7547SOL    HW134103   3.138   3.722  13.539  0.7592  3.0276  1.0900
 7547SOL    HW234104   3.175   3.642  13.660  0.1343 -1.4653 -0.4427
 7548SOL     OW34105   0.681   3.047   0.654  0.2251  0.3340 -0.7096
 7548SOL    HW134106   0.634   2.966   0.634 -0.3062  0.2577  0.8228
 7548SOL    HW234107   0.623   3.120   0.633 -2.0477 -1.0157  0.8378
 7549SOL     OW34108   3.117   3.261  17.581 -0.2678 -0.3183 -0.0562
 7549SOL    HW134109   3.180   3.329  17.557  0.1069 -1.2810 -1.7832
 7549SOL    HW234110   3.142   3.254  17.673 -1.6787  2.6956  0.5416
 7550SOL     OW34111   1.728   4.021   3.561  0.4280  0.2706  0.1451
 7550SOL    HW134112   1.807   3.968   3.550 -0.0520 -0.9256  2.5208
 7550SOL    HW234113   1.686   3.997   3.478  0.1097  2.2313 -0.2627
 7551SOL     OW34114   2.418   4.537  15.195  0.3735  0.1897 -0.1177
 7551SOL    HW134115   2.444   4.521  15.285  0.7008 -2.4495 -0.6706
 7551SOL    HW234116   2.351   4.471  15.177 -0.2856  1.1733 -1.2634
 7552SOL     OW34117   4.494   1.622  13.073  0.2119 -0.0034 -0.2575
 7552SOL    HW134118   4.544   1.698  13.043  0.4440 -0.7002 -1.6435
 7552SOL    HW234119   4.528   1.552  13.018  0.3717  0.0756 -0.2590
 7553SOL     OW34120   3.039   2.959   9.894 -0.5450 -0.3408  0.2589
 7553SOL    HW134121   3.114   2.962   9.834  0.0163  0.4749  1.0088
 7553SOL    HW234122   3.017   2.866   9.896  1.8419 -0.9161  0.1587
 7554SOL     OW34123   1.619   4.062   2.993 -0.0061 -0.1853  0.1282
 7554SOL    HW134124   1.590   4.097   2.909 -4.2777 -1.5323  1.0537
 7554SOL    HW234125   1.596   4.128   3.059 -0.9680  0.8379 -1.2507
 7555SOL     OW34126   2.220   4.585  11.006 -0.5366 -0.0004 -0.4155
 7555SOL    HW134127   2.271   4.550  10.933 -0.4219 -2.7727  0.9912
 7555SOL    HW234128   2.179   4.662  10.967  1.0364  1.5553  0.9857
 7556SOL     OW34129   2.314   3.035   7.490  0.3093 -0.1636 -0.2366
 7556SOL    HW134130   2.284   3.105   7.548  2.3821  0.1084  0.5378
 7556SOL    HW234131   2.247   3.040   7.422  0.8210 -0.1850 -0.7481
 7557SOL     OW34132   2.603   0.768   4.709  0.1461 -0.2269 -0.3882
 7557SOL    HW134133   2.638   0.776   4.797 -0.6089 -0.2881 -0.0792
 7557SOL    HW234134   2.509   0.756   4.723  0.4904 -0.1560  1.9835
 7558SOL     OW34135   2.414   1.504   0.413  0.2932  0.4406  0.3466
 7558SOL    HW134136   2.349   1.436   0.436  0.8456 -0.4001 -0.6087
 7558SOL    HW234137   2.401   1.564   0.486 -0.1949  1.8383 -0.8977
 7559SOL     OW34138   4.067   4.347   8.327 -0.0675  0.1762  0.4235
 7559SOL    HW134139   4.030   4.280   8.270 -2.1404 -0.1173  2.0977
 7559SOL    HW234140   3.996   4.411   8.329 -1.5365 -1.4059 -0.6819
 7560SOL     OW34141   4.014   0.163   3.037  0.0655  0.9088  0.3118
 7560SOL    HW134142   4.024   0.152   3.132 -1.0229 -0.7921  0.2392
 7560SOL    HW234143   3.920   0.147   3.034  0.3114 -0.2353 -1.0791
 7561SOL     OW34144   4.090   1.215   6.913 -0.7099  0.3282  0.1568
 7561SOL    HW134145   4.163   1.175   6.960 -1.4162 -1.2689 -0.1317
 7561SOL    HW234146   4.017   1.173   6.960  0.3718 -0.3912  1.1947
 7562SOL     OW34147   1.630   4.004   8.535 -0.0871 -0.0516 -0.5316
 7562SOL    HW134148   1.654   4.056   8.612  0.2761 -0.5611 -0.2987
 7562SOL    HW234149   1.717   3.986   8.499  1.0226 -2.2669  3.2260
 7563SOL     OW34150   1.335   2.462   5.843 -0.6288 -0.3147  0.1210
 7563SOL    HW134151   1.274   2.451   5.916  3.3837 -1.2392  3.3257
 7563SOL    HW234152   1.300   2.538   5.795 -2.6551 -1.1167  0.3033
 7564SOL     OW34153   1.752   3.613   8.481 -0.2337 -0.2506 -0.7274
 7564SOL    HW134154   1.822   3.651   8.533 -2.5052  0.5378  1.7755
 7564SOL    HW234155   1.757   3.657   8.396 -1.4978  0.1231 -0.6136
 7565SOL     OW34156   3.726   1.247   0.693 -0.6629  0.2131 -0.3803
 7565SOL    HW134157   3.656   1.244   0.627 -1.2976  1.7629  0.2338
 7565SOL    HW234158   3.743   1.341   0.701  3.9842 -0.5888 -1.0429
 7566SOL     OW34159   3.393   0.105  15.161  0.1144  0.8094  0.0261
 7566SOL    HW134160   3.329   0.082  15.093 -1.6986  3.8897  0.6725
 7566SOL    HW234161   3.328   0.121  15.230 -3.3475  0.7258 -3.1809
 7567SOL     OW34162   1.050   4.532   4.150 -0.2918 -0.6881  0.1463
 7567SOL    HW134163   1.046   4.497   4.239 -0.4655 -2.1033 -0.4042
 7567SOL    HW234164   1.111   4.474   4.104 -0.4058 -0.8037  0.1403
 7568SOL     OW34165   4.187   3.702  10.947 -0.1518  0.3246  0.2347
 7568SOL    HW134166   4.169   3.796  10.958 -1.0945  0.1816 -0.0808
 7568SOL    HW234167   4.103   3.664  10.972  1.5102 -3.3857  0.1053
 7569SOL     OW34168   1.835   2.541   3.364 -0.3134  0.2094 -0.1675
 7569SOL    HW134169   1.750   2.564   3.327 -1.4624  0.5967  2.6820
 7569SOL    HW234170   1.876   2.627   3.366 -0.8003  0.4262  0.6818
 7570SOL     OW34171   4.431   1.237  13.713  0.4755  0.5510 -0.5677
 7570SOL    HW134172   4.489   1.313  13.705  1.8552 -0.1955  2.2527
 7570SOL    HW234173   4.346   1.275  13.735  2.0036  4.4279 -1.3792
 7571SOL     OW34174   3.722   0.259  11.332  0.1826  0.4298 -0.2285
 7571SOL    HW134175   3.643   0.302  11.365 -1.0626 -0.4307 -2.0694
 7571SOL    HW234176   3.790   0.288  11.392 -1.2356 -1.7725  2.4556
 7572SOL     OW34177   0.894   0.414  15.789  0.0551 -0.3697  0.2488
 7572SOL    HW134178   0.906   0.367  15.707 -1.2922  0.3897 -0.3868
 7572SOL    HW234179   0.810   0.382  15.820  0.8384  0.8092  3.6213
 7573SOL     OW34180   0.629   1.990   3.793  0.2517 -0.4802  0.0722
 7573SOL    HW134181   0.588   2.066   3.833 -3.7345 -1.0191 -2.9208
 7573SOL    HW234182   0.595   1.986   3.704 -2.1617  1.3393  0.9090
 7574SOL     OW34183   3.868   3.686   9.583 -0.5304  0.3732 -0.2114
 7574SOL    HW134184   3.841   3.723   9.667  2.5540 -1.4582  1.5831
 7574SOL    HW234185   3.785   3.681   9.536 -0.0765  0.1950 -0.9915
 7575SOL     OW34186   3.044   0.621  14.671 -0.1769  0.3009  0.4215
 7575SOL    HW134187   3.094   0.702  14.673 -2.0074  1.3571  3.1740
 7575SOL    HW234188   3.082   0.584  14.591  0.0310  0.5059  0.4251
 7576SOL     OW34189   3.658   1.965   0.597 -0.1498 -0.4193 -0.4061
 7576SOL    HW134190   3.745   2.005   0.600 -0.1887 -0.3504 -0.2169
 7576SOL    HW234191   3.642   1.957   0.503  1.0983 -0.4236 -0.6209
 7577SOL     OW34192   3.126   2.555   9.690 -0.5217 -0.6745 -0.5573
 7577SOL    HW134193   3.076   2.610   9.750 -0.7258 -0.4195 -0.9611
 7577SOL    HW234194   3.192   2.523   9.752 -0.6429 -0.6368 -0.4091
 7578SOL     OW34195   0.302   2.936   8.141 -0.2061  0.0188  0.4564
 7578SOL    HW134196   0.358   2.876   8.189  0.0390 -1.1280 -1.2451
 7578SOL    HW234197   0.357   3.013   8.147  2.3749 -1.7421 -0.8047
 7579SOL     OW34198   2.099   0.361  15.596 -0.9158  0.4553 -0.0648
 7579SOL    HW134199   2.147   0.438  15.628  0.8077  0.6993 -3.2487
 7579SOL    HW234200   2.068   0.316  15.675 -2.5573 -0.5934 -1.3259
 7580SOL     OW34201   4.044   4.173   6.235  0.1525 -1.1568 -0.2548
 7580SOL    HW134202   4.078   4.113   6.302 -0.7574 -0.4790  0.8083
 7580SOL    HW234203   4.128   4.181   6.189 -0.1200  1.8295 -0.2168
 7581SOL     OW34204   3.984   1.968   4.701 -0.2253  0.1394  0.2550
 7581SOL    HW134205   4.020   2.038   4.647  1.2682 -0.7129  0.1422
 7581SOL    HW234206   4.066   1.922   4.719 -0.3673  0.3189  1.3342
 7582SOL     OW34207   3.959   2.110  14.669 -0.5616  0.2943 -0.5323
 7582SOL    HW134208   3.941   2.197  14.632  1.2427  1.6473  1.7673
 7582SOL    HW234209   3.921   2.110  14.757 -1.7624 -0.0133 -1.0540
 7583SOL     OW34210   4.514   1.761   8.435 -0.0060  0.1862  0.1565
 7583SOL    HW134211   4.502   1.763   8.340 -1.3584  0.0115  0.3194
 7583SOL    HW234212   4.426   1.741   8.467 -1.7205  4.8142 -1.6377
 7584SOL     OW34213   4.327   3.314   3.396  0.2611 -0.3284  0.1995
 7584SOL    HW134214   4.344   3.359   3.479  0.5650  2.1418 -1.2085
 7584SOL    HW234215   4.369   3.371   3.332 -0.9084 -0.3617 -0.5773
 7585SOL     OW34216   3.410   1.668   2.026  0.3300 -0.6097  0.0862
 7585SOL    HW134217   3.377   1.588   1.987 -0.3590  0.5646 -1.7554
 7585SOL    HW234218   3.499   1.640   2.047  0.9342 -0.0627 -1.7838
 7586SOL     OW34219   1.445   0.243   6.603  0.2928  0.1738 -0.2007
 7586SOL    HW134220   1.397   0.221   6.683  0.6758  0.5047  0.1251
 7586SOL    HW234221   1.498   0.165   6.586  1.9041  0.8507  1.7099
 7587SOL     OW34222   0.229   4.657   1.474  0.2134 -0.2756 -0.5658
 7587SOL    HW134223   0.180   4.624   1.399 -2.0492  0.6822  0.4990
 7587SOL    HW234224   0.319   4.635   1.449 -0.0713 -0.2334 -1.6106
 7588SOL     OW34225   1.825   1.478   0.619  0.4052 -0.2155  0.6652
 7588SOL    HW134226   1.787   1.566   0.614  2.4938  0.4832 -2.9463
 7588SOL    HW234227   1.762   1.435   0.677 -0.4968  0.7131  0.3754
 7589SOL     OW34228   0.882   2.118   4.805 -0.1560 -0.2425  0.1158
 7589SOL    HW134229   0.793   2.117   4.839 -0.0372 -0.3867  0.4241
 7589SOL    HW234230   0.894   2.212   4.790 -2.6700 -0.0959 -0.9546
 7590SOL     OW34231   0.053   0.979   5.896 -0.2011 -0.2349 -0.0376
 7590SOL    HW134232   0.016   0.911   5.952  1.5028 -1.5251 -0.5123
 7590SOL    HW234233   0.075   0.925   5.820  1.0137 -1.6385  1.3489
 7591SOL     OW34234   0.118   4.199   6.366 -0.3645  0.0135  0.3513
 7591SOL    HW134235   0.139   4.153   6.448  1.7693  0.6397  0.1422
 7591SOL    HW234236   0.100   4.283   6.407  1.1245  0.1131  0.8277
 7592SOL     OW34237   0.273   1.683   9.257  0.1778  0.5461 -0.5245
 7592SOL    HW134238   0.211   1.733   9.311  1.1242  2.0773 -0.8700
 7592SOL    HW234239   0.345   1.746   9.249  0.7317  0.3212  2.4332
 7593SOL     OW34240   0.348   4.070   1.504  0.3880 -0.0217  0.2205
 7593SOL    HW134241   0.291   4.095   1.576 -0.8932  1.1553 -1.2109
 7593SOL    HW234242   0.311   3.990   1.467 -0.6631  0.2592  0.6868
 7594SOL     OW34243   1.023   0.639  13.808 -0.5294  0.2348  0.3058
 7594SOL    HW134244   0.989   0.714  13.857 -2.1396 -0.4989  0.3062
 7594SOL    HW234245   1.018   0.561  13.863 -1.6926  0.0339 -0.0862
 7595SOL     OW34246   2.873   0.727  12.074 -0.0008  0.2651  0.4412
 7595SOL    HW134247   2.835   0.650  12.033  0.9052 -0.0850  0.2577
 7595SOL    HW234248   2.798   0.766  12.117  0.3502  1.3817  0.0459
 7596SOL     OW34249   1.312   1.092   6.628 -0.2909  0.4096 -0.3186
 7596SOL    HW134250   1.228   1.046   6.628 -0.2869  0.4307 -2.8326
 7596SOL    HW234251   1.302   1.146   6.707 -0.9925  0.0417 -0.1550
 7597SOL     OW34252   2.148   1.325   6.908  0.4123  0.0438  0.2019
 7597SOL    HW134253   2.181   1.406   6.947  0.7816  0.3274 -0.6882
 7597SOL    HW234254   2.205   1.326   6.831 -0.0999  1.2405 -0.1639
 7598SOL     OW34255   2.645   2.827  16.850  0.5505 -0.0142 -0.3958
 7598SOL    HW134256   2.657   2.845  16.943  3.2748 -1.7207 -0.4270
 7598SOL    HW234257   2.558   2.865  16.837  0.4360  0.7398  2.6822
 7599SOL     OW34258   2.582   3.521  17.281  0.4771  0.0134  0.0399
 7599SOL    HW134259   2.599   3.575  17.358  0.7480  1.5829 -1.1377
 7599SOL    HW234260   2.540   3.583  17.222  1.1602  0.5902  0.1708
 7600SOL     OW34261   0.835   4.423   7.618 -0.0049 -0.2419 -0.0578
 7600SOL    HW134262   0.791   4.346   7.583  1.6524 -1.5082  0.6431
 7600SOL    HW234263   0.909   4.382   7.663  0.5649  0.7570 -0.0716
 7601SOL     OW34264   4.310   3.343  14.956 -0.1543  0.4168 -0.5027
 7601SOL    HW134265   4.391   3.293  14.964  0.2640  1.1635 -0.0426
 7601SOL    HW234266   4.329   3.433  14.981 -2.1025  0.6096  0.2938
 7602SOL     OW34267   1.174   4.289  14.688  0.2492  0.1884 -0.0856
 7602SOL    HW134268   1.106   4.250  14.634 -1.0141 -0.5577  2.0075
 7602SOL    HW234269   1.214   4.218  14.740  1.3535  1.1119  0.3476
 7603SOL     OW34270   2.768   4.517  14.717 -0.2727  0.3973  0.3305
 7603SOL    HW134271   2.737   4.439  14.761 -0.9005  0.3118 -0.2560
 7603SOL    HW234272   2.714   4.584  14.758 -1.5679 -0.0284 -0.6660
 7604SOL     OW34273   0.655   2.731   4.435  0.4735  0.5319 -0.4882
 7604SOL    HW134274   0.585   2.680   4.394  0.2750 -1.8858  2.7857
 7604SOL    HW234275   0.696   2.661   4.486  0.7882  1.8351  1.0332
 7605SOL     OW34276   3.136   2.707   1.931  0.4579  0.5339 -0.3663
 7605SOL    HW134277   3.046   2.731   1.951 -0.0528  0.7513 -2.8934
 7605SOL    HW234278   3.163   2.693   2.022 -1.9341  2.0849  0.5972
 7606SOL     OW34279   1.066   3.075   4.190 -0.6478  0.4712  0.4595
 7606SOL    HW134280   1.155   3.100   4.164 -0.9675 -0.4742 -1.5367
 7606SOL    HW234281   1.066   3.062   4.285  0.9941 -3.6743 -0.0813
 7607SOL     OW34282   1.441   1.544   0.485  0.5438  0.3577  0.3145
 7607SOL    HW134283   1.392   1.584   0.413  1.3646  1.6771  0.4729
 7607SOL    HW234284   1.476   1.626   0.522  1.3803 -0.4299  1.2661
 7608SOL     OW34285   2.878   0.981   5.009  0.3864 -0.3004 -0.4943
 7608SOL    HW134286   2.945   0.978   4.941  0.3729 -0.0194 -0.5217
 7608SOL    HW234287   2.929   0.969   5.089  0.4762 -1.4945 -0.7275
 7609SOL     OW34288   0.730   1.078   5.030 -0.1877  0.4177 -0.6120
 7609SOL    HW134289   0.689   1.078   4.944  1.1229  0.9169 -1.2413
 7609SOL    HW234290   0.668   1.132   5.079  2.0727  1.6415  0.9064
 7610SOL     OW34291   0.330   0.097   5.096 -0.2672 -0.2044  0.1407
 7610SOL    HW134292   0.380   0.173   5.067  0.6193 -1.0061 -0.4193
 7610SOL    HW234293   0.383   0.022   5.070  0.5312  0.2528  0.4505
 7611SOL     OW34294   4.065   1.115   2.344  0.1287 -0.6231 -0.7540
 7611SOL    HW134295   4.020   1.199   2.341  0.8174 -0.2556 -0.9000
 7611SOL    HW234296   4.103   1.112   2.432 -2.2543 -0.9120  0.2499
 7612SOL     OW34297   3.986   2.161   0.370  0.4057 -0.0218  0.2064
 7612SOL    HW134298   3.993   2.067   0.385  0.7304  0.3411  2.3662
 7612SOL    HW234299   3.990   2.203   0.456 -1.1084  2.4812 -0.9337
 7613SOL     OW34300   3.157   1.463   6.840 -0.0108 -0.1163  0.1556
 7613SOL    HW134301   3.095   1.436   6.907 -2.1732  0.9407 -1.4249
 7613SOL    HW234302   3.195   1.375   6.827 -1.2827 -0.8080  1.1884
 7614SOL     OW34303   1.669   1.173  13.173 -0.1192  0.2380 -0.5260
 7614SOL    HW134304   1.724   1.238  13.218 -1.9220  2.6718 -1.8328
 7614SOL    HW234305   1.682   1.093  13.225 -1.9768 -0.0903 -0.5772
 7615SOL     OW34306   0.386   3.751   8.870  0.3740  0.6460  0.4096
 7615SOL    HW134307   0.297   3.718   8.857 -0.2071  1.9113  1.2694
 7615SOL    HW234308   0.423   3.674   8.914  0.3168 -0.1202 -0.8814
 7616SOL     OW34309   0.671   1.930   1.440  0.2186 -0.1654 -0.6177
 7616SOL    HW134310   0.705   2.001   1.385 -1.5316  0.6307 -0.6511
 7616SOL    HW234311   0.619   1.980   1.501  0.8229  0.7111 -0.8202
 7617SOL     OW34312   4.182   1.668   2.661 -0.8355 -0.8637 -0.1324
 7617SOL    HW134313   4.099   1.621   2.675  0.3690 -2.9261  0.0577
 7617SOL    HW234314   4.191   1.661   2.566 -0.3226  2.5089 -0.3185
 7618SOL     OW34315   1.171   0.530   6.438 -0.1890  0.2150  0.2070
 7618SOL    HW134316   1.094   0.474   6.440 -1.3805  1.7689 -1.6051
 7618SOL    HW234317   1.234   0.468   6.474  0.4952  0.5694 -0.3673
 7619SOL     OW34318   1.805   1.350   4.683  0.6842 -0.1345 -0.4051
 7619SOL    HW134319   1.804   1.301   4.600 -1.1164 -2.2851  0.8727
 7619SOL    HW234320   1.881   1.307   4.722  0.5671  0.5697  0.5906
 7620SOL     OW34321   0.598   0.207   3.209 -0.5768  0.6781 -0.0778
 7620SOL    HW134322   0.604   0.213   3.114 -0.9887  0.2627 -0.1285
 7620SOL    HW234323   0.504   0.195   3.222 -0.4480  0.8193  0.9889
 7621SOL     OW34324   1.293   0.698   5.342  0.3633 -0.0428  0.3782
 7621SOL    HW134325   1.320   0.614   5.381 -0.1998 -0.6552 -0.5598
 7621SOL    HW234326   1.371   0.724   5.293  0.7643  1.5735  1.8801
 7622SOL     OW34327   1.370   3.544   6.245  0.1480  0.3054 -0.3607
 7622SOL    HW134328   1.403   3.484   6.178  3.1873 -0.1167  1.5066
 7622SOL    HW234329   1.327   3.480   6.302 -1.7173 -0.2241 -2.3923
 7623SOL     OW34330   0.007   0.760  17.254  0.4211 -0.3736  0.3488
 7623SOL    HW134331   4.681   0.780  17.333 -0.5398 -1.4978  0.0335
 7623SOL    HW234332   0.076   0.825  17.260  2.3063 -2.4257  0.9990
 7624SOL     OW34333   3.098   3.302   4.031  0.0903 -0.3950 -0.2551
 7624SOL    HW134334   3.074   3.213   4.056 -2.6254  0.5125  0.3605
 7624SOL    HW234335   3.087   3.296   3.936  0.6350  2.2536 -0.4812
 7625SOL     OW34336   0.488   2.735   2.418 -0.5034  0.2106  0.5708
 7625SOL    HW134337   0.402   2.740   2.460  0.8098 -1.7003  3.4864
 7625SOL    HW234338   0.537   2.775   2.490 -1.3947  2.6711 -0.2103
 7626SOL     OW34339   4.492   1.233   3.709  0.1137 -0.5651 -0.0508
 7626SOL    HW134340   4.481   1.190   3.624  0.2472 -3.4263  1.4095
 7626SOL    HW234341   4.491   1.162   3.772 -0.1244 -1.7056 -1.3462
 7627SOL     OW34342   1.986   1.142   8.108  0.0629 -0.1473 -0.2193
 7627SOL    HW134343   2.034   1.222   8.128 -0.1699  0.0298 -0.3734
 7627SOL    HW234344   1.992   1.100   8.194 -0.8582 -1.0274 -0.5856
 7628SOL     OW34345   2.509   4.190   9.751 -0.0280  0.0901  0.4133
 7628SOL    HW134346   2.599   4.222   9.746  0.4242 -1.4835 -1.4749
 7628SOL    HW234347   2.494   4.183   9.845  3.3338 -0.5683  0.9239
 7629SOL     OW34348   2.866   2.995   8.914  0.5575 -0.0638  0.9338
 7629SOL    HW134349   2.904   2.982   8.827  0.3784  3.0723  0.3818
 7629SOL    HW234350   2.771   2.987   8.904  1.0642 -1.6499 -2.7995
 7630SOL     OW34351   1.302   3.709   1.758  0.0745 -0.8146 -0.4909
 7630SOL    HW134352   1.372   3.773   1.744 -0.2168 -0.6027 -0.9522
 7630SOL    HW234353   1.298   3.694   1.853  0.9742 -0.5468 -0.4024
 7631SOL     OW34354   1.068   4.183   3.477  0.8324  0.4553  0.1538
 7631SOL    HW134355   1.156   4.180   3.439  1.3654 -2.6203  1.5909
 7631SOL    HW234356   1.010   4.175   3.401  0.5538  0.8484  0.3276
 7632SOL     OW34357   0.382   0.970   6.465  0.0865 -0.4620 -0.6374
 7632SOL    HW134358   0.310   0.909   6.480 -0.2128 -0.1054 -0.6363
 7632SOL    HW234359   0.409   0.943   6.377  0.3846 -3.1613  0.2826
 7633SOL     OW34360   4.688   4.571   7.948 -0.3827  0.5434  0.5066
 7633SOL    HW134361   4.674   4.532   8.034  1.8239  1.2676  1.1672
 7633SOL    HW234362   4.619   4.527   7.897  0.5005 -1.1293  0.7605
 7634SOL     OW34363   2.682   1.527   8.086 -0.1375 -0.3250 -0.4878
 7634SOL    HW134364   2.637   1.577   8.018  0.2517  2.3605  1.2543
 7634SOL    HW234365   2.775   1.537   8.065  0.0646 -0.3551  0.3992
 7635SOL     OW34366   4.504   4.229   9.149  0.4240  0.2705  1.2045
 7635SOL    HW134367   4.548   4.243   9.233  2.4082 -1.7935  0.5027
 7635SOL    HW234368   4.449   4.151   9.157  2.9941 -1.6752 -0.0930
 7636SOL     OW34369   3.689   2.803  14.463  0.0505 -0.3019  0.9969
 7636SOL    HW134370   3.766   2.838  14.418 -0.3617 -1.0908 -0.3199
 7636SOL    HW234371   3.707   2.826  14.554 -0.6400  0.5053  0.9355
 7637SOL     OW34372   2.106   0.406  10.322  0.0037 -0.0930 -0.6208
 7637SOL    HW134373   2.148   0.491  10.306  0.3172 -0.4681 -1.7350
 7637SOL    HW234374   2.011   0.408  10.323  0.0399  2.1130 -1.6349
 7638SOL     OW34375   2.964   1.128  10.320  0.1590  0.1668 -0.1380
 7638SOL    HW134376   3.038   1.187  10.306 -0.9920  1.2075 -1.8832
 7638SOL    HW234377   2.906   1.199  10.290  0.8093  0.4716 -0.6639
 7639SOL     OW34378   2.399   0.408   3.495  0.0209 -0.6779  0.7520
 7639SOL    HW134379   2.371   0.488   3.538 -1.5746 -1.3882  1.0207
 7639SOL    HW234380   2.393   0.344   3.566 -1.5042  0.5706  1.7250
 7640SOL     OW34381   2.505   3.026   0.817 -0.3755  0.5057  0.0036
 7640SOL    HW134382   2.576   2.988   0.764 -0.3392  0.0095  0.4002
 7640SOL    HW234383   2.457   2.954   0.859 -1.8593 -0.4079 -3.2317
 7641SOL     OW34384   0.336   0.484   3.704  0.3524 -0.0096 -0.3264
 7641SOL    HW134385   0.349   0.418   3.637 -2.6313 -0.5044 -0.4322
 7641SOL    HW234386   0.367   0.560   3.654  2.3391 -0.4521  0.2390
 7642SOL     OW34387   2.542   3.607  11.854  0.0665  0.2735  0.1630
 7642SOL    HW134388   2.486   3.596  11.931  1.8809 -0.8900  1.3357
 7642SOL    HW234389   2.535   3.522  11.810 -3.6963  1.2403 -1.0686
 7643SOL     OW34390   0.301   0.403   7.922  0.0531 -0.0085  0.1030
 7643SOL    HW134391   0.285   0.334   7.986  1.0929  0.2346  0.6187
 7643SOL    HW234392   0.396   0.408   7.914 -0.1403  1.0332 -1.5968
 7644SOL     OW34393   3.120   3.946   4.360  0.6730  0.1327 -0.2069
 7644SOL    HW134394   3.049   4.000   4.323 -0.0286  0.4594  1.5967
 7644SOL    HW234395   3.134   3.877   4.295  1.8170  1.0588 -0.9460
 7645SOL     OW34396   4.258   3.323   4.361  0.3356 -0.6284  0.3671
 7645SOL    HW134397   4.204   3.359   4.431  0.5625  1.2344 -0.4251
 7645SOL    HW234398   4.204   3.265   4.308  1.1009 -0.5038 -0.5653
 7646SOL     OW34399   2.766   4.314  16.209 -0.2923  0.3147 -0.8412
 7646SOL    HW134400   2.741   4.272  16.127 -2.7355  0.4363 -0.1702
 7646SOL    HW234401   2.747   4.250  16.278  0.8250 -0.5695 -1.3415
 7647SOL     OW34402   3.551   2.871  16.246  0.1458 -0.2946  0.1213
 7647SOL    HW134403   3.528   2.945  16.301 -0.8021 -0.2421 -0.3387
 7647SOL    HW234404   3.590   2.810  16.309 -0.8964 -0.3044  0.7668
 7648SOL     OW34405   4.332   3.994  12.671  0.3047 -0.2790  0.3522
 7648SOL    HW134406   4.326   4.028  12.761 -1.0913  1.6666 -0.4931
 7648SOL    HW234407   4.248   4.024  12.638  0.6863  1.8427  1.2591
 7649SOL     OW34408   0.806   2.515  16.729 -0.4089  0.1021 -0.3442
 7649SOL    HW134409   0.816   2.575  16.802  0.0671  1.2357 -1.3408
 7649SOL    HW234410   0.715   2.517  16.698 -1.1256  0.7537  1.7719
 7650SOL     OW34411   3.623   0.944   4.018 -0.0684  0.1185  0.4013
 7650SOL    HW134412   3.647   1.020   3.965  1.1611 -0.4340  0.1596
 7650SOL    HW234413   3.665   0.967   4.101  0.3092 -0.2362  0.3128
 7651SOL     OW34414   4.298   1.763  11.213  0.4916 -0.3586 -0.1648
 7651SOL    HW134415   4.301   1.670  11.190  0.8660 -0.8082  1.6441
 7651SOL    HW234416   4.328   1.751  11.303  0.0794 -0.0812  0.0080
 7652SOL     OW34417   0.957   1.200   4.387 -0.1668 -0.1098 -0.1332
 7652SOL    HW134418   0.939   1.150   4.467  1.2868 -1.6594 -0.7644
 7652SOL    HW234419   0.876   1.245   4.364  0.1534  0.1234 -0.7922
 7653SOL     OW34420   0.166   0.703   7.583  0.2684  0.3130  0.1433
 7653SOL    HW134421   0.172   0.632   7.646  2.4962  1.0059  0.6912
 7653SOL    HW234422   0.094   0.757   7.618  0.2818  1.4320 -1.5314
 7654SOL     OW34423   2.679   2.421   5.269  0.8534 -0.3631  0.4825
 7654SOL    HW134424   2.714   2.509   5.280 -1.7272  0.7313 -0.1219
 7654SOL    HW234425   2.631   2.445   5.190  1.9044  1.3689  0.3754
 7655SOL     OW34426   2.795   0.709   6.698  0.3909  0.2942 -0.1418
 7655SOL    HW134427   2.814   0.779   6.761  2.9427 -0.3994 -0.1368
 7655SOL    HW234428   2.872   0.652   6.699  0.2943  0.1897  3.3326
 7656SOL     OW34429   0.486   1.245   6.866  0.0439  0.0364 -0.3962
 7656SOL    HW134430   0.548   1.318   6.858 -1.9701  1.8602  0.7397
 7656SOL    HW234431   0.483   1.230   6.771 -0.3416  1.3142 -0.5869
 7657SOL     OW34432   3.650   3.436   7.259 -0.1376  0.2416 -0.0193
 7657SOL    HW134433   3.677   3.422   7.350  0.3503  0.5264 -0.1186
 7657SOL    HW234434   3.631   3.344   7.242 -0.8615  0.4003 -0.0791
 7658SOL     OW34435   1.414   2.932   8.458 -0.4276 -0.1950  0.0389
 7658SOL    HW134436   1.488   2.993   8.467  0.2125 -1.3938  2.7884
 7658SOL    HW234437   1.445   2.879   8.384  0.1148  0.9692 -0.5870
 7659SOL     OW34438   4.279   0.252   4.614  0.6821 -0.1186  0.3113
 7659SOL    HW134439   4.343   0.293   4.673 -0.5230 -1.2006  2.3812
 7659SOL    HW234440   4.304   0.281   4.527  2.0375  1.1702  1.1295
 7660SOL     OW34441   2.731   2.276   0.421 -0.4925 -0.4484 -0.6097
 7660SOL    HW134442   2.755   2.208   0.358 -2.1140 -2.3013  0.7861
 7660SOL    HW234443   2.817   2.303   0.455 -0.8145 -1.1842  0.7743
 7661SOL     OW34444   3.484   4.597  15.251 -0.1751 -0.6264  0.3699
 7661SOL    HW134445   3.487   4.531  15.182 -3.4504  1.5042 -1.7874
 7661SOL    HW234446   3.423   4.662  15.217  1.0457  1.2011  1.6619
 7662SOL     OW34447   2.367   2.059   2.424  0.2830 -0.0893  0.1361
 7662SOL    HW134448   2.305   2.123   2.389  1.8335  1.3226 -0.0183
 7662SOL    HW234449   2.424   2.061   2.347 -0.7111 -2.8358 -0.6939
 7663SOL     OW34450   1.734   4.646   1.740 -1.2100  0.6734 -0.1780
 7663SOL    HW134451   1.729   4.598   1.823 -0.4868 -0.4287 -0.7710
 7663SOL    HW234452   1.828   4.663   1.733 -1.0584 -1.4805 -3.1880
 7664SOL     OW34453   2.558   1.023   7.987  0.2750 -0.2958 -0.0752
 7664SOL    HW134454   2.601   1.108   7.976 -1.2006  0.3720 -0.6466
 7664SOL    HW234455   2.617   0.976   8.046 -0.8406 -2.8877 -0.9875
 7665SOL     OW34456   4.505   3.915   5.005  0.1512 -0.6306  0.2809
 7665SOL    HW134457   4.476   3.851   4.941  0.5363  0.2774 -0.8088
 7665SOL    HW234458   4.440   3.985   4.999  2.5960  1.6145 -0.5394
 7666SOL     OW34459   4.564   3.498  14.643  0.0332  0.3118 -0.4906
 7666SOL    HW134460   4.522   3.582  14.622  0.2729  1.2956  3.0281
 7666SOL    HW234461   4.493   3.437  14.625 -1.1670  1.5171  0.1284
 7667SOL     OW34462   0.173   4.450  13.784  0.6117 -0.0045  0.1854
 7667SOL    HW134463   0.203   4.405  13.863  0.5005  2.8324  1.8440
 7667SOL    HW234464   0.086   4.417  13.764  0.0001  1.6495  0.1697
 7668SOL     OW34465   0.093   3.073   8.884  0.2271  0.0871  0.2166
 7668SOL    HW134466   0.156   3.032   8.944 -0.6931 -2.0659 -0.2751
 7668SOL    HW234467   0.093   3.163   8.917 -0.7166  0.8129 -1.7998
 7669SOL     OW34468   2.286   2.074   6.350 -0.2694 -0.2920  0.0002
 7669SOL    HW134469   2.369   2.029   6.334  1.3760  3.7460 -2.7412
 7669SOL    HW234470   2.294   2.146   6.288 -2.3740 -0.8828 -0.9369
 7670SOL     OW34471   4.640   1.709   2.473 -0.0196 -0.5558  0.1914
 7670SOL    HW134472   4.613   1.622   2.444  0.3149 -0.7891  0.5661
 7670SOL    HW234473   4.643   1.692   2.567 -1.1656  1.9961  0.6859
 7671SOL     OW34474   0.272   3.275  16.638  0.1384 -0.1346 -0.1556
 7671SOL    HW134475   0.252   3.313  16.724  0.6729  0.2614 -0.2078
 7671SOL    HW234476   0.183   3.279  16.603 -0.1046 -3.2079  0.1050
 7672SOL     OW34477   3.205   1.755   8.566 -0.4946 -0.3033  0.6519
 7672SOL    HW134478   3.167   1.749   8.478  0.3608 -2.2874  0.4102
 7672SOL    HW234479   3.146   1.697   8.614  1.3745 -1.5457  1.4929
 7673SOL     OW34480   1.558   2.794   1.459 -0.1657 -0.3465 -0.5064
 7673SOL    HW134481   1.608   2.715   1.479 -0.2453  0.3055  2.2520
 7673SOL    HW234482   1.469   2.759   1.454 -1.7265  3.8754 -2.3759
 7674SOL     OW34483   1.063   2.400   3.342  0.4558 -0.1767  0.2983
 7674SOL    HW134484   1.056   2.329   3.279 -0.2487  1.2516 -1.2390
 7674SOL    HW234485   0.974   2.397   3.377  0.8343  0.3513  1.3339
 7675SOL     OW34486   1.060   2.708   7.568 -0.7472  0.3042 -0.6872
 7675SOL    HW134487   1.016   2.653   7.633 -1.0639 -1.7411 -2.6415
 7675SOL    HW234488   1.116   2.764   7.621  0.3657 -0.5373 -0.9853
 7676SOL     OW34489   3.989   0.662   8.792 -0.2437 -0.1567 -0.1990
 7676SOL    HW134490   4.062   0.606   8.766  1.3778  1.6361  0.5194
 7676SOL    HW234491   4.023   0.686   8.877 -0.3058 -0.3262 -0.1250
 7677SOL     OW34492   0.613   3.483   8.257 -0.5182 -0.0009  0.3449
 7677SOL    HW134493   0.610   3.563   8.309 -1.4485  0.1820  0.0067
 7677SOL    HW234494   0.521   3.456   8.251 -0.8129  0.9798  0.5639
 7678SOL     OW34495   3.599   2.693  10.625 -0.0427  0.2474  0.0154
 7678SOL    HW134496   3.586   2.788  10.635  1.4354  0.5108 -0.7313
 7678SOL    HW234497   3.694   2.702  10.619 -0.2049  4.1874  3.0900
 7679SOL     OW34498   3.607   3.770   3.062 -0.0741 -0.8568  0.3993
 7679SOL    HW134499   3.531   3.778   3.120 -0.4132  0.4881 -0.2125
 7679SOL    HW234500   3.652   3.848   3.096  1.0338 -1.5764  0.5507
 7680SOL     OW34501   2.799   1.647   6.144  0.3493  0.3048 -0.3809
 7680SOL    HW134502   2.729   1.692   6.191 -0.0128 -0.4744 -0.1760
 7680SOL    HW234503   2.812   1.576   6.207  3.4349  0.7824 -0.4842
 7681SOL     OW34504   1.983   0.315   3.051 -0.4416  0.6447 -0.0225
 7681SOL    HW134505   2.008   0.223   3.049  0.4441  0.8333  1.8824
 7681SOL    HW234506   1.992   0.341   2.959 -4.0688  0.5665 -0.3741
 7682SOL     OW34507   1.954   2.753   5.982 -0.7119  0.3613 -0.0097
 7682SOL    HW134508   2.002   2.789   5.908  1.4230 -2.0407  0.2148
 7682SOL    HW234509   2.010   2.767   6.058 -1.0252  0.5980  0.1786
 7683SOL     OW34510   1.509   0.955   8.664 -0.1937 -0.2271  0.2431
 7683SOL    HW134511   1.552   0.949   8.578  0.4670  1.9873  0.4362
 7683SOL    HW234512   1.442   0.889   8.647  1.1601 -2.4648  3.6192
 7684SOL     OW34513   0.854   3.710   6.784  0.5263 -0.3433  0.4480
 7684SOL    HW134514   0.868   3.708   6.879 -1.7946 -1.1120  0.7716
 7684SOL    HW234515   0.853   3.802   6.759 -2.8985 -0.2962  0.7243
 7685SOL     OW34516   4.493   3.152   7.513 -0.2464 -0.2872  0.2663
 7685SOL    HW134517   4.556   3.224   7.506  0.1169 -0.7247 -0.8882
 7685SOL    HW234518   4.499   3.143   7.609 -1.3844  1.5430  0.5058
 7686SOL     OW34519   3.469   0.410   5.299 -0.8466 -0.3713 -0.0222
 7686SOL    HW134520   3.543   0.420   5.238  0.4760 -0.6014  1.5358
 7686SOL    HW234521   3.457   0.501   5.327  0.9831  0.1853 -1.0031
 7687SOL     OW34522   3.523   3.345   3.890  0.3775 -0.2251  0.0820
 7687SOL    HW134523   3.561   3.373   3.806  2.8373 -1.5955  0.7401
 7687SOL    HW234524   3.604   3.341   3.940  0.3540 -2.1093 -0.0436
 7688SOL     OW34525   1.878   0.987   3.705  0.4008 -0.3563  0.3350
 7688SOL    HW134526   1.969   0.982   3.676  0.4183 -0.4063  0.3974
 7688SOL    HW234527   1.890   1.042   3.783  0.7281  2.2070 -1.5010
 7689SOL     OW34528   1.706   2.072  14.922  0.4014 -0.1862 -0.2486
 7689SOL    HW134529   1.779   2.061  14.861  0.6554 -0.8224  0.1783
 7689SOL    HW234530   1.705   2.168  14.931  0.7998 -0.3113  1.0457
 7690SOL     OW34531   2.767   1.681   2.088  0.3310 -0.2190 -0.1511
 7690SOL    HW134532   2.793   1.702   1.998 -0.7005  0.6674 -0.2347
 7690SOL    HW234533   2.820   1.604   2.106 -0.7946 -0.6599  1.2107
 7691SOL     OW34534   3.627   3.423   5.793 -0.4710  0.4171 -0.8141
 7691SOL    HW134535   3.675   3.496   5.831  2.8916 -1.6798 -1.0059
 7691SOL    HW234536   3.537   3.434   5.824 -0.0737 -0.6454  0.7712
 7692SOL     OW34537   1.946   4.326  10.514 -0.2675  0.1446  0.0144
 7692SOL    HW134538   2.032   4.287  10.502 -1.2567 -1.6174 -1.2432
 7692SOL    HW234539   1.948   4.392  10.444  0.1351  0.1242  0.0085
 7693SOL     OW34540   3.321   0.838  15.328  0.3614  0.0776  0.4369
 7693SOL    HW134541   3.403   0.789  15.323  0.0826 -0.0032 -3.8921
 7693SOL    HW234542   3.265   0.762  15.316 -2.2531  1.7918  1.7676
 7694SOL     OW34543   4.221   4.434   1.146  0.2039 -0.4182  0.3851
 7694SOL    HW134544   4.167   4.507   1.117  1.1418  0.0928 -0.0974
 7694SOL    HW234545   4.185   4.430   1.234 -0.3848 -0.8895  0.1235
 7695SOL     OW34546   3.299   3.603   8.666  0.3941  0.2970  0.2191
 7695SOL    HW134547   3.344   3.556   8.736  2.7778 -0.2767 -1.7111
 7695SOL    HW234548   3.228   3.542   8.648  1.1985 -0.5541 -0.0705
 7696SOL     OW34549   1.993   4.218   7.568  0.9727  0.4016  0.2716
 7696SOL    HW134550   1.991   4.309   7.596 -2.0366  0.4594 -0.1068
 7696SOL    HW234551   2.088   4.202   7.564  0.5883 -1.7229 -0.5970
 7697SOL     OW34552   0.863   1.254  15.415  0.0710 -0.3735  0.0369
 7697SOL    HW134553   0.864   1.340  15.374  0.0401 -0.3074  0.1722
 7697SOL    HW234554   0.918   1.275  15.490 -2.0765  2.6625  0.7432
 7698SOL     OW34555   3.783   1.332   7.436  0.8931 -0.2429 -0.4675
 7698SOL    HW134556   3.716   1.267   7.457  2.4558 -2.1588 -1.3283
 7698SOL    HW234557   3.864   1.281   7.447  1.4491 -0.0778 -3.5906
 7699SOL     OW34558   2.295   2.444   3.220  0.3773 -0.4599 -0.7757
 7699SOL    HW134559   2.305   2.526   3.269 -1.4169 -0.2631 -0.7299
 7699SOL    HW234560   2.385   2.423   3.196  2.0081  1.6265  3.4410
 7700SOL     OW34561   0.712   1.660   7.249  0.2537  0.2321  0.3051
 7700SOL    HW134562   0.628   1.618   7.270  1.5549 -2.9605 -1.0019
 7700SOL    HW234563   0.765   1.587   7.278  0.3913  0.2623  0.1275
 7701SOL     OW34564   0.529   3.119   8.891 -0.2167 -0.0358 -0.4534
 7701SOL    HW134565   0.592   3.054   8.921  0.2335 -0.1639 -1.6677
 7701SOL    HW234566   0.584   3.164   8.827  2.0807 -2.5242 -0.2356
 7702SOL     OW34567   1.652   1.482  12.700 -0.5867  0.1563 -0.2662
 7702SOL    HW134568   1.745   1.473  12.721 -1.0584  0.3555  1.9149
 7702SOL    HW234569   1.610   1.424  12.763 -0.1940  2.2907  1.9443
 7703SOL     OW34570   0.971   1.520  14.498  0.2232  0.1538  0.5163
 7703SOL    HW134571   0.962   1.558  14.411  1.4642  0.2211  0.4119
 7703SOL    HW234572   0.962   1.602  14.547 -0.8270 -0.6132  1.6148
 7704SOL     OW34573   0.920   4.662   9.130 -0.2141 -0.0332 -0.3066
 7704SOL    HW134574   0.844   4.625   9.086  0.5407 -0.4195 -1.2884
 7704SOL    HW234575   0.876   0.013   9.169 -0.0965 -0.0984 -0.0507
 7705SOL     OW34576   3.923   3.347  10.987 -0.2418  0.2160 -0.3307
 7705SOL    HW134577   3.835   3.337  11.023  0.0516 -2.4740 -0.3543
 7705SOL    HW234578   3.979   3.327  11.062  1.0414  0.4634 -1.2183
 7706SOL     OW34579   0.609   3.359   3.190 -0.1427  0.2976 -0.4289
 7706SOL    HW134580   0.634   3.309   3.113  2.2444  0.5767  0.1781
 7706SOL    HW234581   0.634   3.447   3.163 -0.0777  0.6545  0.7613
 7707SOL     OW34582   0.180   0.213   4.563 -0.3745  0.2675  0.4673
 7707SOL    HW134583   0.108   0.268   4.596 -0.5084 -0.4276  1.3415
 7707SOL    HW234584   0.134   0.130   4.568 -1.9988  1.1623  0.3845
 7708SOL     OW34585   0.936   2.655   3.933 -0.1890  0.1868  0.0449
 7708SOL    HW134586   0.862   2.634   3.876 -0.6703  1.1936  0.2994
 7708SOL    HW234587   0.950   2.581   3.993  1.6746 -0.0299 -0.6460
 7709SOL     OW34588   2.859   2.432   5.492 -0.1663  0.4050  0.0425
 7709SOL    HW134589   2.776   2.429   5.446 -0.9327 -1.5813  1.5621
 7709SOL    HW234590   2.896   2.344   5.487 -2.9194 -0.6907 -1.0176
 7710SOL     OW34591   2.475   1.012   4.215 -0.8003 -0.2428  0.1692
 7710SOL    HW134592   2.485   0.921   4.186  0.2705 -0.1088  0.1392
 7710SOL    HW234593   2.432   1.049   4.138 -2.1122 -0.1603  0.9468
 7711SOL     OW34594   2.427   4.264   9.999  0.0690 -0.8287  0.9417
 7711SOL    HW134595   2.403   4.217  10.078 -0.7938  0.6772  1.5742
 7711SOL    HW234596   2.437   4.345  10.049  0.5741 -0.1396 -0.2749
 7712SOL     OW34597   3.803   4.470   7.033 -0.3889  0.1671 -0.5424
 7712SOL    HW134598   3.807   4.473   6.938 -0.6683 -0.5242 -0.5746
 7712SOL    HW234599   3.887   4.492   7.073 -0.8515  1.5261 -0.3165
 7713SOL     OW34600   1.407   2.209   7.679  0.0600  0.3467 -0.3240
 7713SOL    HW134601   1.502   2.203   7.671 -0.0309  1.6963 -2.6721
 7713SOL    HW234602   1.389   2.116   7.668  0.6863  0.2296 -0.3750
 7714SOL     OW34603   2.184   3.006   9.102 -0.1339 -0.1128  0.2997
 7714SOL    HW134604   2.120   2.950   9.059 -2.3198  0.8060  2.3984
 7714SOL    HW234605   2.242   3.020   9.027 -0.3683 -0.6366  0.0252
 7715SOL     OW34606   3.382   3.231  14.642 -0.0472  0.0079  0.0851
 7715SOL    HW134607   3.321   3.207  14.712 -2.1845  4.9975 -0.0876
 7715SOL    HW234608   3.417   3.146  14.614 -2.0792 -0.8845  0.1820
 7716SOL     OW34609   3.606   3.288   8.704 -0.5569 -0.0506 -0.1257
 7716SOL    HW134610   3.521   3.320   8.735 -0.7087  0.5129 -1.1174
 7716SOL    HW234611   3.640   3.371   8.671 -0.8238 -0.9904 -2.7197
 7717SOL     OW34612   1.429   4.622   7.898 -0.1316  0.7118 -1.0317
 7717SOL    HW134613   1.420   4.539   7.945  4.0329  1.8868  1.8002
 7717SOL    HW234614   1.509   4.656   7.938  0.3964 -1.3222 -0.3410
 7718SOL     OW34615   4.518   2.383   7.516 -0.1326  0.2830  0.1127
 7718SOL    HW134616   4.534   2.289   7.516 -2.4433 -0.1268 -0.2570
 7718SOL    HW234617   4.562   2.414   7.595 -2.5226 -0.7925  1.8803
 7719SOL     OW34618   0.955   3.577   5.226  0.0204  0.8444  0.0640
 7719SOL    HW134619   1.007   3.655   5.207  3.1513 -1.3699 -0.5434
 7719SOL    HW234620   0.935   3.584   5.319  2.4595  0.4314  0.6358
 7720SOL     OW34621   4.204   0.875   6.114 -0.6442 -0.4728 -0.1415
 7720SOL    HW134622   4.154   0.906   6.189 -0.4255  2.0265 -1.0216
 7720SOL    HW234623   4.191   0.780   6.121  0.9128 -0.6592  0.1929
 7721SOL     OW34624   3.385   0.384   5.738 -0.1483 -0.8010 -0.1370
 7721SOL    HW134625   3.338   0.413   5.660 -0.9139  0.6434  0.8495
 7721SOL    HW234626   3.368   0.291   5.751 -1.8369 -0.5630 -0.5342
 7722SOL     OW34627   3.526   2.856   3.090  0.6225 -0.6878 -0.0653
 7722SOL    HW134628   3.577   2.777   3.110  0.6700 -1.0015 -1.4188
 7722SOL    HW234629   3.467   2.824   3.021 -1.3749  1.5160  0.6010
 7723SOL     OW34630   1.619   3.496   7.239 -0.3445 -0.3696 -0.3721
 7723SOL    HW134631   1.709   3.527   7.240  0.0944 -1.6329 -0.4604
 7723SOL    HW234632   1.588   3.511   7.329  1.8541 -3.5460  0.8963
 7724SOL     OW34633   0.397   0.378   2.955 -0.6795 -0.7854 -0.6097
 7724SOL    HW134634   0.459   0.327   2.903  0.4166 -0.1367  0.0517
 7724SOL    HW234635   0.409   0.330   3.037  1.2085  1.3984  0.4087
 7725SOL     OW34636   3.843   2.249   4.059 -0.1686  0.6643 -0.1487
 7725SOL    HW134637   3.820   2.316   4.124  0.2730  0.7978 -0.1284
 7725SOL    HW234638   3.803   2.180   4.112 -0.0809 -1.0805 -2.4142
 7726SOL     OW34639   0.835   2.369   2.811 -0.5812  0.0673  0.8163
 7726SOL    HW134640   0.844   2.274   2.817 -0.1761 -0.0546 -1.7203
 7726SOL    HW234641   0.906   2.395   2.869  0.6260  0.0458 -0.6349
 7727SOL     OW34642   3.669   0.846  14.339  0.0233 -0.5488  0.1807
 7727SOL    HW134643   3.622   0.771  14.304  2.2816 -2.5741  1.4948
 7727SOL    HW234644   3.620   0.925  14.315  0.3704  0.2983  2.2069
 7728SOL     OW34645   2.653   4.460  13.527 -0.2235 -0.1405  0.3381
 7728SOL    HW134646   2.563   4.444  13.554 -0.4380 -0.4245 -0.5325
 7728SOL    HW234647   2.629   4.521  13.457  3.6365 -0.9708 -1.6899
 7729SOL     OW34648   3.082   2.911   2.878 -0.1783  0.1023  0.0557
 7729SOL    HW134649   3.082   2.967   2.955  0.3958 -0.9548  0.8333
 7729SOL    HW234650   3.080   2.973   2.805 -1.6676  0.3632  0.3196
 7730SOL     OW34651   3.264   3.370   1.237 -0.1804  0.1921  0.1977
 7730SOL    HW134652   3.211   3.292   1.249  0.2641 -0.2097 -0.4637
 7730SOL    HW234653   3.273   3.365   1.142  1.0710 -2.2690  0.4558
 7731SOL     OW34654   0.967   0.511   9.882  0.3667  0.1621 -0.2887
 7731SOL    HW134655   0.948   0.477   9.969  0.0284  1.5032  0.1621
 7731SOL    HW234656   0.929   0.453   9.816  3.0651  0.7112 -2.3607
 7732SOL     OW34657   0.193   0.915   9.478  0.4579  0.2629 -0.7739
 7732SOL    HW134658   0.116   0.863   9.499  1.2078 -0.1014  1.1095
 7732SOL    HW234659   0.171   0.990   9.423  0.5254  1.9269  1.4522
 7733SOL     OW34660   2.207   3.981  13.966 -0.1573 -0.0575  0.0018
 7733SOL    HW134661   2.206   3.951  14.057 -1.0867  2.3306  0.7703
 7733SOL    HW234662   2.131   3.932  13.936  0.6655 -1.4411  0.1602
 7734SOL     OW34663   3.824   3.427  14.685 -0.0435 -0.4358  0.0510
 7734SOL    HW134664   3.852   3.467  14.603  1.4730  1.1919  1.3840
 7734SOL    HW234665   3.870   3.343  14.695  0.9959  0.2924  1.3716
 7735SOL     OW34666   0.082   3.947   8.560  0.0774 -0.0704  0.6030
 7735SOL    HW134667   0.066   4.039   8.541 -0.4750  0.0222  1.5153
 7735SOL    HW234668   0.161   3.932   8.508 -0.8328 -2.2362 -0.2050
 7736SOL     OW34669   3.905   0.481   4.422  0.2315 -0.3753  0.1726
 7736SOL    HW134670   3.919   0.387   4.406  1.9193 -0.1051  0.0302
 7736SOL    HW234671   3.993   0.499   4.387 -0.4742 -0.4682 -1.6498
 7737SOL     OW34672   1.163   3.679  10.099  0.4991  0.1731 -0.4535
 7737SOL    HW134673   1.171   3.765  10.057 -0.0206  0.3995 -0.0817
 7737SOL    HW234674   1.137   3.622  10.026 -3.1078  1.9900 -0.6140
 7738SOL     OW34675   3.378   0.367   6.431 -0.0082  0.6742 -0.5624
 7738SOL    HW134676   3.453   0.408   6.473  0.7307  0.8599 -2.0758
 7738SOL    HW234677   3.379   0.278   6.466 -0.5024  0.6393 -0.6394
 7739SOL     OW34678   3.255   0.825  12.486  0.0443 -0.4336 -0.2703
 7739SOL    HW134679   3.306   0.849  12.409 -1.5411  0.5772 -1.0013
 7739SOL    HW234680   3.321   0.843  12.553 -2.6332 -0.3149  2.3230
 7740SOL     OW34681   4.590   0.093  15.995 -0.5698 -0.7087  0.5116
 7740SOL    HW134682   4.552   0.160  16.052  0.2498  0.6390 -0.5320
 7740SOL    HW234683   4.586   0.142  15.913 -2.2768  1.6388  1.9868
 7741SOL     OW34684   3.367   1.674  11.209 -0.7794  0.2350 -0.1667
 7741SOL    HW134685   3.326   1.625  11.138 -0.7433 -2.2589  1.5109
 7741SOL    HW234686   3.372   1.762  11.173  1.2757  0.5075  0.8200
 7742SOL     OW34687   0.777   4.712   6.166 -0.2327 -0.0065  0.7729
 7742SOL    HW134688   0.694   4.721   6.119  1.5740  1.2952 -2.2179
 7742SOL    HW234689   0.808   4.628   6.131 -1.7887  0.0239 -0.6952
 7743SOL     OW34690   4.254   1.688   8.495 -0.6089 -0.0714  0.5685
 7743SOL    HW134691   4.180   1.716   8.441 -3.1350 -2.9379  2.5030
 7743SOL    HW234692   4.221   1.719   8.579  0.2515  0.0432  0.8597
 7744SOL     OW34693   3.337   0.454   2.052  0.5773  0.2452  0.8315
 7744SOL    HW134694   3.431   0.465   2.068  0.5434 -0.8044  1.7296
 7744SOL    HW234695   3.327   0.506   1.972 -0.2216  0.3245  0.9849
 7745SOL     OW34696   4.291   1.415   3.311 -0.3475 -0.1658  0.7105
 7745SOL    HW134697   4.374   1.430   3.357  0.8087 -1.6836 -0.8659
 7745SOL    HW234698   4.313   1.343   3.253  1.0081 -0.2702  1.3558
 7746SOL     OW34699   0.929   2.226   6.680 -0.1498  0.1669 -0.4832
 7746SOL    HW134700   0.922   2.307   6.630 -1.2389 -0.8805 -2.0226
 7746SOL    HW234701   0.971   2.260   6.760 -0.6064  0.1155 -0.2222
 7747SOL     OW34702   1.129   0.487   8.664 -0.1510  0.4450 -0.0709
 7747SOL    HW134703   1.054   0.545   8.650 -1.4389 -1.7124 -2.1008
 7747SOL    HW234704   1.126   0.432   8.586 -1.0620  0.8012 -0.2852
 7748SOL     OW34705   2.299   1.637   0.675 -0.8206  0.1938  0.5917
 7748SOL    HW134706   2.263   1.654   0.763 -3.0664  1.3626 -0.5341
 7748SOL    HW234707   2.244   1.562   0.654 -0.3327  0.8525 -2.9349
 7749SOL     OW34708   1.191   3.657   6.914  0.4543 -0.5550 -0.2458
 7749SOL    HW134709   1.267   3.672   6.971  0.2317 -2.7912  0.6216
 7749SOL    HW234710   1.121   3.683   6.975 -0.8267 -0.3211 -1.8336
 7750SOL     OW34711   3.478   2.997  14.876  0.4755 -0.4605 -0.4098
 7750SOL    HW134712   3.522   3.054  14.938  0.2590  2.7223 -3.2116
 7750SOL    HW234713   3.482   2.916  14.927  2.2215  0.7491  1.3605
 7751SOL     OW34714   4.699   4.132  10.277  0.5723 -0.0137  0.1512
 7751SOL    HW134715   0.040   4.183  10.229  0.7716 -0.1279  0.3002
 7751SOL    HW234716   0.031   4.082  10.336 -0.9317 -0.8501  0.8627
 7752SOL     OW34717   0.451   3.292   1.999 -0.0137 -0.1840 -0.2657
 7752SOL    HW134718   0.374   3.272   1.946  1.1189 -0.4604 -1.7846
 7752SOL    HW234719   0.473   3.214   2.050  1.4135  0.5218  0.1966
 7753SOL     OW34720   3.277   1.971  15.387 -0.4401  0.1297  0.1841
 7753SOL    HW134721   3.334   2.017  15.326  0.7023  1.3277  2.1747
 7753SOL    HW234722   3.292   1.883  15.353  0.8654  0.4806 -0.1339
 7754SOL     OW34723   4.248   1.493   2.862 -0.1294 -0.1839  0.4687
 7754SOL    HW134724   4.310   1.424   2.839  0.4263  0.9005 -1.3546
 7754SOL    HW234725   4.254   1.548   2.783  0.6031  0.4901  0.9927
 7755SOL     OW34726   3.922   0.583   9.877 -0.3273 -0.9066  0.1742
 7755SOL    HW134727   3.942   0.633   9.957  0.9189 -0.4374 -0.4353
 7755SOL    HW234728   3.874   0.514   9.924 -1.0187  0.1131  0.9802
 7756SOL     OW34729   3.506   0.677  15.400 -0.1236 -0.9695 -0.0474
 7756SOL    HW134730   3.463   0.615  15.459 -0.5636 -1.8694 -1.3269
 7756SOL    HW234731   3.596   0.668  15.431  0.0615 -1.1763 -0.6485
 7757SOL     OW34732   3.080   3.966   8.629 -0.2553  0.3915  0.4906
 7757SOL    HW134733   3.025   4.037   8.595 -1.0160  0.3692  1.6829
 7757SOL    HW234734   3.137   3.941   8.556  0.8813  1.7668  0.8949
 7758SOL     OW34735   1.379   0.839   6.900  0.1779 -0.5446 -0.0939
 7758SOL    HW134736   1.349   0.810   6.814  0.0719  0.7177 -0.4778
 7758SOL    HW234737   1.305   0.873   6.949  1.7122 -0.7190  2.3535
 7759SOL     OW34738   3.931   1.017  10.006 -0.4793  0.0406 -0.3497
 7759SOL    HW134739   3.922   0.950   9.938 -0.0933 -0.6546  0.2837
 7759SOL    HW234740   3.984   0.965  10.067 -0.3742  1.3945  0.7060
 7760SOL     OW34741   3.060   4.078   1.216  0.4132  0.0615 -0.2076
 7760SOL    HW134742   2.966   4.086   1.232  0.1643 -2.3926 -0.4935
 7760SOL    HW234743   3.068   4.069   1.121 -0.0941 -0.8824 -0.1605
 7761SOL     OW34744   3.682   0.374  10.786 -0.2270 -0.2099 -0.0309
 7761SOL    HW134745   3.626   0.301  10.761 -3.0845  1.7079  0.8153
 7761SOL    HW234746   3.718   0.345  10.870 -0.6234 -2.6424 -0.7177
 7762SOL     OW34747   3.783   2.337  12.804  0.2387  0.1090 -0.7420
 7762SOL    HW134748   3.738   2.261  12.842  2.7466  0.0375  2.0524
 7762SOL    HW234749   3.798   2.396  12.878  0.6477  0.1194 -0.8367
 7763SOL     OW34750   3.384   2.898  16.772  0.2385 -0.3536 -0.2182
 7763SOL    HW134751   3.326   2.826  16.748 -1.6208  0.9561  0.3900
 7763SOL    HW234752   3.459   2.879  16.716 -0.0360 -0.4532 -0.5539
 7764SOL     OW34753   1.381   4.597   0.751 -0.0979  0.2600  0.1781
 7764SOL    HW134754   1.461   4.549   0.731 -0.1873  0.0693  0.2794
 7764SOL    HW234755   1.334   4.525   0.793  2.3341  0.1075  2.6399
 7765SOL     OW34756   1.964   3.090  13.017 -0.0832 -0.5213 -0.1232
 7765SOL    HW134757   1.962   3.134  13.102 -2.6676 -0.4002 -0.2496
 7765SOL    HW234758   2.052   3.053  13.018  1.3073  2.8431  1.9864
 7766SOL     OW34759   2.704   0.455   7.792 -0.3230  0.6872  0.2211
 7766SOL    HW134760   2.727   0.384   7.731 -2.9474 -1.0002  1.2277
 7766SOL    HW234761   2.790   0.489   7.815  0.6861 -0.8841 -1.1875
 7767SOL     OW34762   2.634   0.953   1.298 -0.1370  0.0171  0.2220
 7767SOL    HW134763   2.653   0.964   1.391  1.3554  0.2462 -0.1128
 7767SOL    HW234764   2.722   0.945   1.261 -1.1320  0.4401 -2.1934
 7768SOL     OW34765   0.815   4.175   1.530 -0.0252 -0.5898 -0.3669
 7768SOL    HW134766   0.862   4.258   1.533  0.4321 -0.8044 -2.0635
 7768SOL    HW234767   0.788   4.173   1.439 -1.6845  0.0262  0.1213
 7769SOL     OW34768   2.181   2.150   3.747  0.1425 -0.4068 -0.2863
 7769SOL    HW134769   2.190   2.145   3.652 -0.7051  0.7367 -0.4256
 7769SOL    HW234770   2.171   2.057   3.767  1.2959 -0.6095 -0.6529
 7770SOL     OW34771   4.321   0.495   9.020 -0.1367 -0.2184 -0.2989
 7770SOL    HW134772   4.326   0.532   9.108  1.2833 -1.7385  0.2542
 7770SOL    HW234773   4.268   0.564   8.980 -1.8681 -2.6562 -2.2306
 7771SOL     OW34774   0.555   2.343   5.983  0.0842 -0.9556  0.5549
 7771SOL    HW134775   0.614   2.268   5.989  0.1079 -0.9265  0.6765
 7771SOL    HW234776   0.506   2.339   6.065  2.0575  2.1622  1.8489
 7772SOL     OW34777   0.997   2.913   9.236 -0.4975 -0.2511 -0.7456
 7772SOL    HW134778   1.064   2.947   9.176 -1.1153 -0.4597 -1.5491
 7772SOL    HW234779   1.012   2.819   9.228  0.5526 -0.1477  0.0343
 7773SOL     OW34780   4.295   0.853  13.355  0.3888  0.2813  0.1890
 7773SOL    HW134781   4.223   0.866  13.417 -0.2705 -1.7391 -0.1661
 7773SOL    HW234782   4.354   0.924  13.381 -0.3011  0.8839  0.1183
 7774SOL     OW34783   3.459   1.856  15.678  0.4193 -0.4787 -0.2543
 7774SOL    HW134784   3.493   1.870  15.590 -0.6027 -2.7569 -1.0083
 7774SOL    HW234785   3.412   1.939  15.692 -0.6723 -1.3986  1.5780
 7775SOL     OW34786   0.097   0.857   0.745  0.2977  0.3616 -0.2695
 7775SOL    HW134787   0.160   0.793   0.779 -0.5724 -0.3219  0.0807
 7775SOL    HW234788   0.157   0.918   0.701 -0.9743  0.7575 -1.4617
 7776SOL     OW34789   2.602   3.537   0.009 -0.2107  0.7240  0.1950
 7776SOL    HW134790   2.593   3.594  17.632  1.5615  0.9038  0.1150
 7776SOL    HW234791   2.520   3.488   0.015  0.2191 -0.3201 -2.3581
 7777SOL     OW34792   3.182   0.161   6.884 -0.2820 -0.2753  0.0118
 7777SOL    HW134793   3.192   0.255   6.870  1.6689 -0.4287  0.3792
 7777SOL    HW234794   3.272   0.134   6.869  0.0814  1.3224 -0.6050
 7778SOL     OW34795   1.481   3.215  10.204  0.3681  0.3751  0.0291
 7778SOL    HW134796   1.574   3.194  10.196  0.2109 -0.1554 -0.4340
 7778SOL    HW234797   1.481   3.242  10.296  0.5097 -0.5535  0.3081
 7779SOL     OW34798   3.199   2.997   2.414  0.2438 -0.2447 -0.0820
 7779SOL    HW134799   3.261   3.069   2.428 -0.3390  0.7958 -2.7950
 7779SOL    HW234800   3.219   2.969   2.325  2.4020 -0.1726  0.3981
 7780SOL     OW34801   3.052   0.708  12.627  0.6112  0.2181 -0.0530
 7780SOL    HW134802   3.123   0.745  12.574  0.2177  0.4301 -0.4276
 7780SOL    HW234803   3.009   0.658  12.557  2.3639 -0.0766 -0.9296
 7781SOL     OW34804   4.520   4.258  14.960  0.4702 -0.4780  0.2472
 7781SOL    HW134805   4.442   4.297  14.998  0.0025 -1.4799  0.3180
 7781SOL    HW234806   4.514   4.307  14.878 -0.6655  0.8793  1.1608
 7782SOL     OW34807   1.620   2.200   5.943  0.0507 -0.4981 -0.9643
 7782SOL    HW134808   1.680   2.163   5.878  1.2206  0.7342 -0.5859
 7782SOL    HW234809   1.678   2.251   6.000 -1.6779  1.6296 -1.1221
 7783SOL     OW34810   0.017   1.050   2.463 -0.0217  0.0493 -0.1658
 7783SOL    HW134811   0.096   1.022   2.418 -0.0129  0.4736 -0.4090
 7783SOL    HW234812   4.663   1.036   2.411  0.6095  1.1154 -1.4012
 7784SOL     OW34813   2.382   0.717   7.830  0.5278  0.7413 -0.4212
 7784SOL    HW134814   2.460   0.704   7.883 -0.0765  0.9780  0.5148
 7784SOL    HW234815   2.392   0.658   7.755  0.1962 -0.9375  0.8449
 7785SOL     OW34816   1.271   3.119   3.275  0.2919 -0.3590 -0.5678
 7785SOL    HW134817   1.197   3.062   3.293 -0.5586  0.9245  0.0177
 7785SOL    HW234818   1.332   3.072   3.331 -1.0369 -1.9684 -0.4816
 7786SOL     OW34819   2.132   1.709   7.709  0.9913 -0.4286  0.2720
 7786SOL    HW134820   2.047   1.747   7.731  1.3868  0.5540  0.1163
 7786SOL    HW234821   2.181   1.743   7.784  0.2164 -0.9848  1.0352
 7787SOL     OW34822   2.746   2.267   8.936  0.3047  0.0655 -0.0819
 7787SOL    HW134823   2.677   2.235   8.877 -0.1972  0.4443  0.3059
 7787SOL    HW234824   2.778   2.331   8.872 -1.2131  1.1961  0.3040
 7788SOL     OW34825   4.596   4.563   1.682 -0.0460 -0.2395  0.4073
 7788SOL    HW134826   4.531   4.544   1.749 -0.0796  0.3906  0.5471
 7788SOL    HW234827   4.651   4.628   1.726  0.2926 -0.6284  0.5660
 7789SOL     OW34828   1.405   4.289   2.728 -0.0863  0.3114 -0.3293
 7789SOL    HW134829   1.318   4.287   2.688 -1.3067  1.3566  2.2805
 7789SOL    HW234830   1.447   4.362   2.682 -0.0862  0.2082 -0.4932
 7790SOL     OW34831   0.662   0.207  15.967 -0.1460  0.5763  0.1241
 7790SOL    HW134832   0.639   0.158  15.889 -1.9659  1.8019 -0.1198
 7790SOL    HW234833   0.614   0.290  15.960 -2.8555 -0.9630  0.1837
 7791SOL     OW34834   3.756   0.811   3.808 -0.0801  0.4131  0.0624
 7791SOL    HW134835   3.725   0.825   3.897  0.1456  0.3045  0.1560
 7791SOL    HW234836   3.698   0.739   3.784 -0.3839  0.0475  1.8879
 7792SOL     OW34837   2.942   3.674   0.838  0.1041 -0.2826  0.3495
 7792SOL    HW134838   3.000   3.599   0.826 -0.5057 -0.7137  0.1198
 7792SOL    HW234839   2.960   3.687   0.932 -0.1696  1.5198  0.1629
 7793SOL     OW34840   3.369   1.155   4.424  0.3635  0.2952  0.9703
 7793SOL    HW134841   3.291   1.112   4.389  0.7614 -1.5503  2.3975
 7793SOL    HW234842   3.344   1.246   4.439 -3.5555 -0.5527 -0.4402
 7794SOL     OW34843   4.704   1.400  11.402  0.4196  0.4412  0.3937
 7794SOL    HW134844   0.028   1.441  11.473  1.4861 -0.1224 -0.0100
 7794SOL    HW234845   4.649   1.336  11.447  2.4140 -0.4269  1.5948
 7795SOL     OW34846   1.636   2.159  10.551  0.4113  0.0487  0.1512
 7795SOL    HW134847   1.722   2.142  10.513  0.0899  1.1866 -1.0997
 7795SOL    HW234848   1.634   2.254  10.555  0.3712  0.0870 -0.7829
 7796SOL     OW34849   0.012   4.177   2.857  0.2263 -0.2566  0.1174
 7796SOL    HW134850   0.105   4.184   2.877  0.4806 -1.9371 -0.5270
 7796SOL    HW234851   0.013   4.163   2.763  1.6946 -1.4281  0.3017
 7797SOL     OW34852   1.558   2.197   3.413 -0.0459 -0.1104  0.1978
 7797SOL    HW134853   1.559   2.174   3.319 -0.0315  0.0284  0.1647
 7797SOL    HW234854   1.518   2.284   3.414 -0.0290 -0.1651  4.7785
 7798SOL     OW34855   1.909   2.433   4.090 -0.1658  0.5808  0.4121
 7798SOL    HW134856   1.958   2.424   4.171 -1.5454  1.7602  1.3683
 7798SOL    HW234857   1.904   2.343   4.056 -1.6000  0.7149  0.2760
 7799SOL     OW34858   1.229   1.848   2.601 -0.3913 -0.6984 -0.4525
 7799SOL    HW134859   1.170   1.923   2.590 -1.4335 -1.4123  0.3310
 7799SOL    HW234860   1.181   1.812   2.676  2.8097 -1.1187  1.3592
 7800SOL     OW34861   3.371   2.094   3.326 -0.1858 -0.0922 -0.5242
 7800SOL    HW134862   3.457   2.110   3.286 -0.0670  1.0721  0.1913
 7800SOL    HW234863   3.302   2.103   3.260 -0.2210 -2.4003 -0.8018
 7801SOL     OW34864   1.837   3.003   0.155 -0.1440  0.2186 -0.0872
 7801SOL    HW134865   1.770   3.052   0.108  2.2025  3.2304 -0.3464
 7801SOL    HW234866   1.844   2.926   0.100 -3.4946 -2.1524  2.8473
 7802SOL     OW34867   4.322   2.732   3.659 -0.0305  0.3628  0.1168
 7802SOL    HW134868   4.361   2.718   3.746  1.1488  4.7133  0.3037
 7802SOL    HW234869   4.238   2.699   3.691 -0.3035  2.3432  1.4294
 7803SOL     OW34870   2.217   1.552   7.057 -0.0686 -0.0102  0.2149
 7803SOL    HW134871   2.143   1.607   7.031  0.9027  1.2293  0.1301
 7803SOL    HW234872   2.291   1.611   7.046 -0.5069  0.2861 -1.1253
 7804SOL     OW34873   0.898   1.262  14.586  0.3235 -0.3205  0.3832
 7804SOL    HW134874   0.922   1.350  14.560  3.4622 -1.1646  0.3830
 7804SOL    HW234875   0.835   1.275  14.657  0.1232  0.0083  0.1431
 7805SOL     OW34876   3.262   0.240   3.768  0.0281 -0.8572 -0.0747
 7805SOL    HW134877   3.336   0.182   3.786 -0.4221 -1.1474  0.8206
 7805SOL    HW234878   3.273   0.247   3.673  1.4983 -1.2496  0.0679
 7806SOL     OW34879   1.224   4.626   7.485  0.6025 -0.0694  0.1358
 7806SOL    HW134880   1.212   4.666   7.571  0.8630 -2.8972  1.5059
 7806SOL    HW234881   1.317   4.641   7.470  1.5425 -2.7418  3.4270
 7807SOL     OW34882   3.944   1.494   3.994  0.0378 -0.6223  0.4181
 7807SOL    HW134883   3.965   1.492   3.900 -1.4079 -0.1915  0.0835
 7807SOL    HW234884   4.012   1.556   4.021 -1.3531  0.6894  0.8659
 7808SOL     OW34885   2.264   0.716  14.033 -0.2595  0.3047  0.4680
 7808SOL    HW134886   2.351   0.712  14.073 -0.2410 -0.8270  0.3189
 7808SOL    HW234887   2.279   0.793  13.978 -0.7683  1.8482  2.4876
 7809SOL     OW34888   2.048   4.149   8.489 -0.1758 -0.3845 -0.3744
 7809SOL    HW134889   2.131   4.154   8.442  0.1681 -0.3805  0.2289
 7809SOL    HW234890   2.049   4.234   8.535 -1.6718 -0.3201 -0.4601
 7810SOL     OW34891   1.418   1.749   7.666 -0.3484 -0.0416 -0.2665
 7810SOL    HW134892   1.422   1.722   7.575  2.6434 -1.1327  0.1794
 7810SOL    HW234893   1.476   1.680   7.699  2.1716  2.6086  0.8680
 7811SOL     OW34894   1.140   2.627  13.053 -0.0810 -0.5842 -0.4185
 7811SOL    HW134895   1.224   2.623  13.098 -0.4707  0.3258  0.3960
 7811SOL    HW234896   1.136   2.535  13.028  0.1164 -0.7547  0.1782
 7812SOL     OW34897   4.460   1.655  16.100 -0.3660  0.0605 -0.1855
 7812SOL    HW134898   4.492   1.743  16.080  1.4831 -0.7449 -0.7870
 7812SOL    HW234899   4.388   1.660  16.036  0.1819  0.8948 -0.7270
 7813SOL     OW34900   0.608   3.695   5.236 -0.0617 -0.2667 -0.6038
 7813SOL    HW134901   0.537   3.657   5.288  0.5941 -0.8890 -0.1614
 7813SOL    HW234902   0.656   3.728   5.312  1.2582  0.6416 -1.8355
 7814SOL     OW34903   1.382   1.887  10.147  0.4381 -0.2099 -0.3411
 7814SOL    HW134904   1.323   1.959  10.123 -0.4141 -0.5434  0.7688
 7814SOL    HW234905   1.357   1.819  10.085  1.4679  0.1020 -1.1046
 7815SOL     OW34906   2.366   0.569  13.679 -0.1116 -1.0004  0.1885
 7815SOL    HW134907   2.340   0.509  13.748 -0.2190  1.7928  2.5871
 7815SOL    HW234908   2.306   0.640  13.701  0.0160 -1.0171  0.5793
 7816SOL     OW34909   4.374   2.715  16.619  0.4179 -0.2412 -0.6474
 7816SOL    HW134910   4.307   2.692  16.684  0.8148  0.0558 -0.1273
 7816SOL    HW234911   4.410   2.632  16.587  0.8790 -0.0915 -0.5193
 7817SOL     OW34912   2.987   1.591  11.824 -0.0598  0.7319  0.6931
 7817SOL    HW134913   3.025   1.678  11.829 -1.1090  1.1374  1.5163
 7817SOL    HW234914   2.901   1.612  11.789  0.1528 -0.2737 -0.4737
 7818SOL     OW34915   2.723   1.879   7.122  0.6048  0.5796  0.7271
 7818SOL    HW134916   2.716   1.950   7.058  0.0909 -0.7851 -0.7260
 7818SOL    HW234917   2.667   1.915   7.191 -1.5846 -0.7686 -0.3526
 7819SOL     OW34918   2.768   1.349   6.046  0.4749 -0.5526  0.2701
 7819SOL    HW134919   2.711   1.321   6.118  3.3679  0.0184  2.7624
 7819SOL    HW234920   2.714   1.402   5.988  0.9354 -2.1497 -1.5989
 7820SOL     OW34921   3.505   2.160  17.079 -0.3971 -0.4204  0.2447
 7820SOL    HW134922   3.475   2.209  17.003  2.1825 -0.5699 -0.8754
 7820SOL    HW234923   3.506   2.232  17.143  1.8870 -0.1813 -0.0497
 7821SOL     OW34924   3.699   4.008   8.114  0.5505  0.5384 -0.3087
 7821SOL    HW134925   3.689   4.068   8.188  2.0801  0.0022  0.3355
 7821SOL    HW234926   3.670   4.058   8.038 -1.0836  0.5925  0.3614
 7822SOL     OW34927   0.111   1.246   7.754 -0.1667  0.5703 -0.3669
 7822SOL    HW134928   0.052   1.307   7.797 -1.6332 -1.4838  0.5259
 7822SOL    HW234929   0.198   1.280   7.775  0.5081 -0.3734 -1.6124
 7823SOL     OW34930   0.027   1.300  10.485  0.2001  0.5713  0.2688
 7823SOL    HW134931   4.680   1.278  10.544 -0.5204 -1.5923 -1.3958
 7823SOL    HW234932   0.080   1.359  10.539  2.1019 -0.8299 -0.0500
 7824SOL     OW34933   0.888   4.333   3.595  0.2488  0.5490 -0.4445
 7824SOL    HW134934   0.937   4.271   3.541  3.6470  1.4812  1.5720
 7824SOL    HW234935   0.964   4.371   3.640 -0.4194 -0.2367  1.3723
 7825SOL     OW34936   1.832   2.900   9.989  0.4571  0.1104  0.2018
 7825SOL    HW134937   1.814   2.809   9.963  1.6676 -0.4368  1.2871
 7825SOL    HW234938   1.924   2.887  10.014  0.5956 -2.2748 -1.4414
 7826SOL     OW34939   2.522   2.567   2.836  0.2386 -0.3741  0.0463
 7826SOL    HW134940   2.466   2.516   2.776 -0.6802  1.9087 -1.0224
 7826SOL    HW234941   2.581   2.491   2.840  0.2106 -0.3226  1.2218
 7827SOL     OW34942   3.405   0.394  13.991  0.1872  0.3199 -0.1250
 7827SOL    HW134943   3.459   0.465  13.956  2.5403 -0.6790  1.5256
 7827SOL    HW234944   3.354   0.434  14.062  0.0498  0.5076 -0.3274
 7828SOL     OW34945   3.207   4.673  14.213 -0.4976 -0.2382  0.7094
 7828SOL    HW134946   3.284   4.705  14.166 -1.4487  1.5946  0.4057
 7828SOL    HW234947   3.236   4.587  14.243 -1.6346 -1.3547 -1.3864
 7829SOL     OW34948   3.939   3.041   2.228 -0.4576 -0.2562  0.6206
 7829SOL    HW134949   3.943   3.101   2.154  1.1761 -1.4902 -0.2907
 7829SOL    HW234950   3.889   2.975   2.180 -2.8725  1.8983  0.2167
 7830SOL     OW34951   2.971   4.618   2.719 -0.1066  0.0138  0.2757
 7830SOL    HW134952   2.908   4.669   2.667  0.2388 -0.0570 -0.2156
 7830SOL    HW234953   2.926   4.613   2.803  3.7693  1.2802  2.4211
 7831SOL     OW34954   3.005   4.362   8.599  0.0682 -0.2642 -0.0237
 7831SOL    HW134955   2.954   4.290   8.636 -0.9617 -0.3318 -1.5755
 7831SOL    HW234956   3.035   4.312   8.523  0.0697  1.2072 -1.0046
 7832SOL     OW34957   4.505   0.924   5.025 -0.1368  0.6909  0.2495
 7832SOL    HW134958   4.520   1.018   5.035  0.0890  1.0360 -3.3216
 7832SOL    HW234959   4.474   0.903   5.114 -1.6689  0.3851 -0.3621
 7833SOL     OW34960   1.705   3.994   6.729 -0.1967  0.2698  0.6459
 7833SOL    HW134961   1.711   4.054   6.655  0.2682  3.8549  3.5295
 7833SOL    HW234962   1.611   3.980   6.729  0.0143 -1.1143  0.4284
 7834SOL     OW34963   4.708   4.195  12.899  0.0734 -0.1527 -0.6309
 7834SOL    HW134964   4.674   4.212  12.987 -0.4516  0.8013 -1.0245
 7834SOL    HW234965   4.712   4.099  12.895  0.4909 -0.1956  0.8275
 7835SOL     OW34966   2.057   3.934  13.165  0.3840 -0.2583  0.0272
 7835SOL    HW134967   2.029   4.017  13.203 -1.4183 -1.6983  1.8980
 7835SOL    HW234968   2.151   3.946  13.175  0.3856  0.1188 -0.4414
 7836SOL     OW34969   0.412   4.439   3.853 -0.2929 -0.5879 -0.1730
 7836SOL    HW134970   0.462   4.360   3.873  1.4991  0.3177 -1.0603
 7836SOL    HW234971   0.478   4.507   3.858  0.3619 -1.0725 -2.2801
 7837SOL     OW34972   1.803   2.976  16.826  0.6665  0.7140  0.5323
 7837SOL    HW134973   1.780   2.933  16.743 -0.5114  1.7772  0.3033
 7837SOL    HW234974   1.899   2.971  16.825  0.7864  4.0520 -3.6120
 7838SOL     OW34975   2.995   2.042   2.833  0.5112 -0.9314  0.1269
 7838SOL    HW134976   2.917   2.004   2.874  0.9543 -2.4309 -0.3942
 7838SOL    HW234977   2.981   2.124   2.880 -1.0037 -1.6403  0.9227
 7839SOL     OW34978   3.535   0.268   7.647  0.3877 -0.3915  0.5925
 7839SOL    HW134979   3.511   0.329   7.716 -1.6754 -1.2240  0.6163
 7839SOL    HW234980   3.501   0.183   7.676 -0.2799 -0.7697 -1.2738
 7840SOL     OW34981   3.782   0.294   7.538 -0.1295 -0.1638  0.1688
 7840SOL    HW134982   3.697   0.283   7.579 -0.5773  1.8834 -0.2239
 7840SOL    HW234983   3.797   0.202   7.517  2.0777  0.3754 -0.6756
 7841SOL     OW34984   3.069   3.558   5.285 -0.1098  0.1782 -0.2182
 7841SOL    HW134985   3.002   3.492   5.268  1.1565 -1.4238  1.0573
 7841SOL    HW234986   3.115   3.552   5.201  1.0278 -1.0007  0.4909
 7842SOL     OW34987   4.002   4.317  16.546  0.0909  0.6206 -0.0437
 7842SOL    HW134988   4.051   4.357  16.474 -1.3836 -0.4282 -1.6181
 7842SOL    HW234989   3.985   4.389  16.607  1.3167  0.9702 -0.1164
 7843SOL     OW34990   4.086   0.115   7.196  0.4649  0.3803 -0.0422
 7843SOL    HW134991   4.102   0.155   7.110  0.2354 -1.1778 -0.8147
 7843SOL    HW234992   4.004   0.155   7.225  0.8743  0.2729  1.2336
 7844SOL     OW34993   1.078   3.472   7.474 -0.2822 -0.3325  0.3201
 7844SOL    HW134994   1.025   3.400   7.439  0.9534 -0.4432 -1.2911
 7844SOL    HW234995   1.143   3.483   7.405 -0.4942  0.8372  0.3082
 7845SOL     OW34996   3.733   3.218  11.171  0.6185  0.7011  0.1328
 7845SOL    HW134997   3.728   3.122  11.169 -0.1230  0.7754 -1.7084
 7845SOL    HW234998   3.763   3.239  11.260  0.7322  1.3879 -0.0669
 7846SOL     OW34999   0.514   4.313  13.246  0.0877 -0.4493 -0.3613
 7846SOL    HW135000   0.544   4.252  13.314  0.7975  1.2166  0.8194
 7846SOL    HW235001   0.561   4.395  13.260 -2.5439  0.6626  2.0574
 7847SOL     OW35002   3.130   1.684   7.038 -0.0709  0.0252 -0.5774
 7847SOL    HW135003   3.220   1.654   7.029 -0.7804 -2.4975  0.6071
 7847SOL    HW235004   3.101   1.642   7.119  0.0113 -0.6808 -0.9187
 7848SOL     OW35005   1.077   3.764   9.402 -0.4471 -0.6582 -0.0090
 7848SOL    HW135006   0.997   3.778   9.453  0.4133 -0.3136  1.2478
 7848SOL    HW235007   1.083   3.837   9.341 -0.8261 -0.9151 -0.3568
 7849SOL     OW35008   2.799   0.806   0.400  0.2136 -0.2808  0.0237
 7849SOL    HW135009   2.852   0.885   0.405 -0.1998 -0.0264  0.3723
 7849SOL    HW235010   2.864   0.736   0.391  0.0774 -0.2667 -1.1339
 7850SOL     OW35011   4.411   1.036   9.332  0.0476 -0.3624 -0.3781
 7850SOL    HW135012   4.431   1.117   9.285  2.0770 -1.9823 -2.2744
 7850SOL    HW235013   4.316   1.048   9.336  0.0530 -0.3855 -0.1365
 7851SOL     OW35014   0.018   4.203   7.129 -0.9205 -0.3558 -0.3887
 7851SOL    HW135015   0.026   4.199   7.224  1.5483  2.7466 -0.4514
 7851SOL    HW235016   0.062   4.284   7.102 -0.8514 -0.9930 -2.1810
 7852SOL     OW35017   0.340   2.986   1.769  0.3314  0.2136  0.2156
 7852SOL    HW135018   0.365   2.934   1.692 -1.7458 -1.1505  0.4569
 7852SOL    HW235019   0.245   2.979   1.761  0.4124 -0.8482  0.1374
 7853SOL     OW35020   1.632   3.527   3.884  0.3509 -0.3162  1.2900
 7853SOL    HW135021   1.601   3.609   3.922 -1.1682  0.2077 -1.0679
 7853SOL    HW235022   1.596   3.462   3.944  0.4354 -0.4037  1.2453
 7854SOL     OW35023   0.781   2.606   4.902 -0.2529  0.4838 -0.2866
 7854SOL    HW135024   0.823   2.681   4.860  0.9160 -1.0795 -1.9205
 7854SOL    HW235025   0.828   2.590   4.983 -0.9692  2.0078  0.4249
 7855SOL     OW35026   2.634   4.057  12.633 -0.3098  0.5066 -0.2565
 7855SOL    HW135027   2.551   4.009  12.622 -0.8201  1.5565 -0.9457
 7855SOL    HW235028   2.657   4.039  12.724  1.4717  1.4311 -0.5262
 7856SOL     OW35029   2.763   4.462   3.684  0.3186  0.6069 -0.3143
 7856SOL    HW135030   2.854   4.439   3.704  0.6285  0.8982 -1.4077
 7856SOL    HW235031   2.763   4.458   3.588  0.1873  0.3193 -0.3008
 7857SOL     OW35032   1.197   0.552   3.523  0.2902 -0.4723 -0.1643
 7857SOL    HW135033   1.185   0.473   3.576  2.9511 -0.5035  0.3752
 7857SOL    HW235034   1.292   0.556   3.528  0.1363  1.8151  0.9007
 7858SOL     OW35035   2.938   2.807   1.745 -0.8707 -0.1287  0.9386
 7858SOL    HW135036   2.849   2.815   1.710 -1.3817  0.1889  2.2656
 7858SOL    HW235037   2.948   2.898   1.775 -1.7123  0.4947 -0.6800
 7859SOL     OW35038   2.618   1.854   3.212 -0.0725  0.0321 -1.2165
 7859SOL    HW135039   2.650   1.783   3.268 -0.7480 -0.6854 -1.7419
 7859SOL    HW235040   2.540   1.878   3.263  0.4021  0.8655 -0.8835
 7860SOL     OW35041   3.128   0.354  13.302  0.1603 -0.2509 -0.0710
 7860SOL    HW135042   3.131   0.432  13.247  0.5008 -1.7938 -2.2490
 7860SOL    HW235043   3.096   0.286  13.243  1.5298  1.2240 -2.5305
 7861SOL     OW35044   3.378   1.121  12.150 -0.7088 -0.5503 -0.5705
 7861SOL    HW135045   3.407   1.059  12.217  0.1801  3.2735  2.6139
 7861SOL    HW235046   3.435   1.090  12.080 -0.0819  1.6201 -1.0260
 7862SOL     OW35047   1.704   4.500   7.128 -0.0058  0.3695  0.6615
 7862SOL    HW135048   1.767   4.456   7.071  0.0584  0.1070  0.9389
 7862SOL    HW235049   1.658   4.561   7.069  0.0296 -0.7476 -0.5136
 7863SOL     OW35050   1.282   2.576   8.340 -0.4077  0.2029 -0.2835
 7863SOL    HW135051   1.314   2.514   8.406  0.0184  2.0171  1.2065
 7863SOL    HW235052   1.189   2.557   8.355 -0.2495  0.2981  0.8703
 7864SOL     OW35053   2.545   4.178   2.946 -0.1108 -0.4897 -0.3126
 7864SOL    HW135054   2.582   4.143   2.865 -0.7592  1.4124 -1.4235
 7864SOL    HW235055   2.480   4.114   2.975 -0.6499  0.4750  0.6155
 7865SOL     OW35056   1.451   1.223   4.778 -0.2040 -0.0098  0.3049
 7865SOL    HW135057   1.481   1.218   4.869  1.2917 -2.2436 -0.3023
 7865SOL    HW235058   1.445   1.318   4.766  1.5573  0.4079  2.6497
 7866SOL     OW35059   1.426   0.130   1.071 -0.6515 -0.1644 -0.0047
 7866SOL    HW135060   1.465   0.055   1.026  0.5426  0.5858 -0.2333
 7866SOL    HW235061   1.432   0.191   0.998  3.1428 -1.8036 -1.0875
 7867SOL     OW35062   1.992   3.201   2.689 -0.3875  0.1655 -0.4696
 7867SOL    HW135063   1.955   3.290   2.689  1.7437  1.0453 -0.2822
 7867SOL    HW235064   2.039   3.196   2.606  0.7187 -3.7609  0.4208
 7868SOL     OW35065   3.023   2.894  17.280 -0.1978 -0.3832 -0.0663
 7868SOL    HW135066   3.064   2.925  17.360 -1.3861 -0.2491  0.4967
 7868SOL    HW235067   2.940   2.858  17.313  0.0517 -0.5682  0.3611
 7869SOL     OW35068   0.941   0.686   0.192  0.0501 -0.1143 -0.5907
 7869SOL    HW135069   0.921   0.595   0.170  0.2233  0.0643 -1.4783
 7869SOL    HW235070   0.944   0.683   0.288  0.1075  1.7119 -0.5476
 7870SOL     OW35071   4.029   2.047   6.694  0.1872 -0.4417  0.1758
 7870SOL    HW135072   3.953   2.104   6.709 -0.2282 -0.8303 -0.4411
 7870SOL    HW235073   3.994   1.958   6.685 -0.6489 -0.2825  1.7801
 7871SOL     OW35074   2.159   4.118   2.948  0.8923 -0.1350 -0.5240
 7871SOL    HW135075   2.190   4.205   2.970 -1.9748  0.7499 -0.0579
 7871SOL    HW235076   2.151   4.077   3.035 -1.2776  1.0354 -0.1915
 7872SOL     OW35077   2.206   0.095  10.654  0.2337  0.2318  0.2658
 7872SOL    HW135078   2.125   0.124  10.611  0.1940 -1.4422 -0.7928
 7872SOL    HW235079   2.264   0.102  10.578 -1.0519  0.2067 -0.7175
 7873SOL     OW35080   3.798   0.394   0.889 -0.5844  0.3308  0.2955
 7873SOL    HW135081   3.705   0.414   0.892 -0.9405 -0.8920 -2.4018
 7873SOL    HW235082   3.822   0.486   0.879  1.9201 -0.4419 -0.8645
 7874SOL     OW35083   0.479   3.940   8.101  0.0449 -0.2772  0.5256
 7874SOL    HW135084   0.494   3.862   8.048  1.4395  1.3330 -1.4661
 7874SOL    HW235085   0.397   3.922   8.146 -2.2204  2.3454 -2.5653
 7875SOL     OW35086   2.471   0.729   0.746  0.0179  0.8082 -0.0843
 7875SOL    HW135087   2.457   0.636   0.730  0.4817  0.6982  0.1688
 7875SOL    HW235088   2.566   0.743   0.748 -0.3304  2.8194  2.8176
 7876SOL     OW35089   2.888   1.015   6.217  0.0199 -0.0688  0.5872
 7876SOL    HW135090   2.814   0.964   6.248 -0.0494  0.0393  0.5979
 7876SOL    HW235091   2.924   1.045   6.300 -0.2967  1.8425  0.0157
 7877SOL     OW35092   0.809   0.090   7.588 -0.0024 -0.3452 -0.0840
 7877SOL    HW135093   0.818   0.084   7.493 -0.2091  3.0113 -0.3172
 7877SOL    HW235094   0.862   0.167   7.607 -0.1950 -0.1125 -0.4951
 7878SOL     OW35095   2.969   3.980  16.312 -0.2542 -0.0448 -0.3604
 7878SOL    HW135096   3.006   4.068  16.318  0.4844 -0.3958  0.2581
 7878SOL    HW235097   2.982   3.953  16.403 -1.3240 -1.1082 -0.5258
 7879SOL     OW35098   3.424   2.115  14.737  0.5505 -1.0174 -0.1232
 7879SOL    HW135099   3.472   2.188  14.696 -1.7302  0.2610 -0.5339
 7879SOL    HW235100   3.412   2.052  14.666 -1.6790 -0.2477 -0.4393
 7880SOL     OW35101   3.793   3.883  17.584  0.4652 -0.4693 -0.3859
 7880SOL    HW135102   3.841   3.817  17.634 -1.4837 -1.2034  0.4917
 7880SOL    HW235103   3.826   3.964  17.623  2.1086 -0.3699 -1.9621
 7881SOL     OW35104   1.417   3.469   3.379 -0.2126 -0.3449 -0.0190
 7881SOL    HW135105   1.409   3.503   3.468 -2.2079 -1.7082  0.3286
 7881SOL    HW235106   1.327   3.449   3.352 -0.1880 -0.1254 -0.2562
 7882SOL     OW35107   1.826   2.713   0.357  0.1061 -0.1852  0.4063
 7882SOL    HW135108   1.847   2.803   0.382  2.0571 -0.7957  1.0002
 7882SOL    HW235109   1.758   2.724   0.291  1.9812  0.3295 -1.4248
 7883SOL     OW35110   1.357   3.371   5.003 -0.4369 -0.1491 -0.2028
 7883SOL    HW135111   1.387   3.281   4.989 -1.3527 -0.3931 -0.6131
 7883SOL    HW235112   1.263   3.361   5.020  0.1442 -0.0195  3.0932
 7884SOL     OW35113   0.942   0.138   4.695 -0.1938  0.6749  0.6738
 7884SOL    HW135114   0.970   0.216   4.742  0.6776  0.7976 -0.0533
 7884SOL    HW235115   0.939   0.088   4.777 -0.7401  0.6922  0.6705
 7885SOL     OW35116   4.584   2.520   1.877 -0.2231 -0.2115  0.4224
 7885SOL    HW135117   4.545   2.607   1.874  0.6240  0.1488 -0.3021
 7885SOL    HW235118   4.524   2.479   1.814 -0.8414 -0.5370  1.2375
 7886SOL     OW35119   3.442   2.842  13.593 -0.4627  0.1941  0.3987
 7886SOL    HW135120   3.507   2.899  13.552 -0.3185 -1.2836 -1.4795
 7886SOL    HW235121   3.449   2.757  13.549  2.2805 -0.0248  1.2818
 7887SOL     OW35122   4.318   4.519   5.245  0.3838  0.2788 -0.0915
 7887SOL    HW135123   4.317   4.614   5.233 -1.5886  0.2089 -0.4170
 7887SOL    HW235124   4.271   4.482   5.171  0.8888  1.8639 -1.2043
 7888SOL     OW35125   2.281   1.252   3.682  0.1694 -0.4904  0.2086
 7888SOL    HW135126   2.245   1.332   3.722  0.3752  0.0850 -0.7791
 7888SOL    HW235127   2.375   1.268   3.678 -0.1939  1.3007 -0.9496
 7889SOL     OW35128   2.478   1.780  11.620  0.1884 -0.9790 -0.0488
 7889SOL    HW135129   2.433   1.736  11.692 -0.8687  0.5169  0.2141
 7889SOL    HW235130   2.547   1.822  11.671 -0.8287  1.5569 -0.7573
 7890SOL     OW35131   1.917   1.602   1.891  0.2605 -0.6845  0.2992
 7890SOL    HW135132   1.925   1.677   1.832  1.6345 -0.8601  0.2695
 7890SOL    HW235133   2.007   1.578   1.912  0.7900 -0.2317 -1.4871
 7891SOL     OW35134   0.585   4.263   3.481  0.0400  0.6430 -0.0644
 7891SOL    HW135135   0.673   4.253   3.445  0.4213  0.0808  1.0433
 7891SOL    HW235136   0.607   4.259   3.574 -1.5069 -0.1914  0.2633
 7892SOL     OW35137   1.352   2.308  10.137 -0.0670 -0.1789  0.1395
 7892SOL    HW135138   1.424   2.252  10.110 -0.6417 -0.0363 -1.6835
 7892SOL    HW235139   1.288   2.244  10.106  1.3044 -2.2470  1.5871
 7893SOL     OW35140   2.393   4.526   4.827 -0.5767 -0.0670  0.0147
 7893SOL    HW135141   2.309   4.557   4.862  0.1043 -1.2337  2.7267
 7893SOL    HW235142   2.375   4.432   4.816 -0.0933  0.1020 -2.1093
 7894SOL     OW35143   4.676   4.423   5.346  0.4087  0.1090 -0.1640
 7894SOL    HW135144   4.711   4.335   5.355 -0.6014 -0.4549 -1.6855
 7894SOL    HW235145   4.627   4.409   5.265 -0.1609  0.0643  0.1876
 7895SOL     OW35146   2.712   2.955  10.020 -0.2365  0.4253  0.2792
 7895SOL    HW135147   2.729   2.951   9.926  1.1458  2.0663  0.4732
 7895SOL    HW235148   2.630   3.003  10.013 -0.8211 -1.0802 -3.5225
 7896SOL     OW35149   2.283   3.709   5.349 -0.4778 -0.5726 -0.6593
 7896SOL    HW135150   2.298   3.795   5.389  2.0122 -1.0507 -0.5693
 7896SOL    HW235151   2.201   3.677   5.385 -1.0294  2.1020  0.4665
 7897SOL     OW35152   1.428   2.829   3.452  0.6725 -0.3477 -0.2179
 7897SOL    HW135153   1.355   2.828   3.391  0.9385  0.3391 -0.5475
 7897SOL    HW235154   1.404   2.914   3.488  2.2494  0.3315 -0.7879
 7898SOL     OW35155   2.214   0.934   5.361  0.5191 -0.4110 -0.2313
 7898SOL    HW135156   2.231   1.021   5.397 -1.3199 -0.3497  0.4711
 7898SOL    HW235157   2.243   0.881   5.435  0.5987  0.6161  0.4760
 7899SOL     OW35158   4.634   1.595  17.464  0.1052  0.0794 -0.4933
 7899SOL    HW135159   4.589   1.675  17.490 -2.5499 -1.2898 -0.8235
 7899SOL    HW235160   4.670   1.560  17.546 -0.3724 -1.6718 -1.0315
 7900SOL     OW35161   4.675   3.131   1.000 -0.5887 -0.2524 -0.6343
 7900SOL    HW135162   4.693   3.079   0.922  1.4845  1.9061 -1.5892
 7900SOL    HW235163   4.682   3.070   1.073  0.7196  0.7268  0.0597
 7901SOL     OW35164   0.584   0.332  14.655  0.7436 -0.0459  0.0883
 7901SOL    HW135165   0.514   0.281  14.695 -0.1371  0.5397 -0.7323
 7901SOL    HW235166   0.619   0.258  14.606 -1.4602 -0.8527 -0.2393
 7902SOL     OW35167   3.925   4.564   3.933  0.0238 -0.2366  0.0162
 7902SOL    HW135168   3.842   4.519   3.950  1.1132 -2.5032 -0.6060
 7902SOL    HW235169   3.975   4.539   4.011  0.3511  1.1231  0.2372
 7903SOL     OW35170   1.580   0.760   8.053  0.2993 -0.0716  0.7194
 7903SOL    HW135171   1.629   0.772   8.135  0.8729 -1.6334  0.6049
 7903SOL    HW235172   1.500   0.795   8.091 -1.1206 -1.0895 -1.3915
 7904SOL     OW35173   1.604   3.445   1.789  0.3291  0.0672  0.4230
 7904SOL    HW135174   1.650   3.382   1.844  1.2917 -0.2113 -0.6862
 7904SOL    HW235175   1.537   3.481   1.847 -1.8653  2.0541 -3.3179
 7905SOL     OW35176   2.198   4.550   4.426  0.1637 -0.0862  0.5011
 7905SOL    HW135177   2.164   4.601   4.499 -0.8718 -0.8758  0.5794
 7905SOL    HW235178   2.273   4.594   4.387 -0.5141 -0.0553 -0.7775
 7906SOL     OW35179   2.794   0.723   3.175 -0.9504  0.3083 -0.4787
 7906SOL    HW135180   2.733   0.748   3.244 -1.1785 -1.2785 -0.1069
 7906SOL    HW235181   2.739   0.741   3.099  0.6076  1.0955 -1.4457
 7907SOL     OW35182   3.360   3.074   6.481 -0.0362  0.0149 -0.2582
 7907SOL    HW135183   3.401   3.111   6.402  1.2854 -0.3582  0.2565
 7907SOL    HW235184   3.399   2.987   6.488  1.1296  0.6747  1.4109
 7908SOL     OW35185   2.465   0.573  10.194  0.0181  0.4803 -0.2914
 7908SOL    HW135186   2.441   0.626  10.269  1.5143  0.1998  0.3837
 7908SOL    HW235187   2.531   0.524  10.243  0.4695 -0.6796 -2.0513
 7909SOL     OW35188   2.035   1.966   6.283 -0.2376 -0.0575  0.2312
 7909SOL    HW135189   1.999   2.049   6.314  1.7953  0.4277  1.3086
 7909SOL    HW235190   2.127   1.990   6.295 -0.6061  0.9841  1.0101
 7910SOL     OW35191   0.879   4.203   8.935  0.0571 -0.2926  0.3081
 7910SOL    HW135192   0.919   4.130   8.982 -1.3270 -2.6612 -2.1748
 7910SOL    HW235193   0.881   4.183   8.841  0.5371  1.6659 -0.0904
 7911SOL     OW35194   4.264   0.915   1.453 -0.3480  0.2219  0.3453
 7911SOL    HW135195   4.224   0.898   1.368  3.0633 -2.0018 -0.8252
 7911SOL    HW235196   4.185   0.921   1.506  0.4028 -0.1680  1.5134
 7912SOL     OW35197   0.255   0.392  13.316  0.0000 -0.6595 -0.5642
 7912SOL    HW135198   0.273   0.299  13.307  3.3872 -0.0343 -0.2384
 7912SOL    HW235199   0.214   0.397  13.230 -1.5389 -0.0621  0.2057
 7913SOL     OW35200   0.102   4.347   4.967 -0.3846 -0.1388 -0.5332
 7913SOL    HW135201   0.015   4.311   4.985  1.0942 -0.9735  5.0467
 7913SOL    HW235202   0.111   4.424   5.023  0.0037 -0.3121 -0.3594
 7914SOL     OW35203   2.854   0.326   3.922 -0.3852 -0.1466  0.1630
 7914SOL    HW135204   2.933   0.370   3.953 -1.0971  0.8178  0.5922
 7914SOL    HW235205   2.897   0.264   3.862 -0.0842 -0.2613  0.4952
 7915SOL     OW35206   2.382   2.254   0.536 -0.0425 -0.4902 -0.1843
 7915SOL    HW135207   2.435   2.264   0.457  2.0311 -0.3399  1.1938
 7915SOL    HW235208   2.419   2.333   0.578 -0.4220  0.2101 -1.1626
 7916SOL     OW35209   0.198   4.074   2.361  0.0782 -0.2721 -0.1560
 7916SOL    HW135210   0.153   3.990   2.372 -0.1723 -0.3668 -1.9346
 7916SOL    HW235211   0.289   4.044   2.365  0.1241 -0.3285 -1.9080
 7917SOL     OW35212   3.178   2.868  15.241  0.1068 -0.2605  0.8236
 7917SOL    HW135213   3.211   2.780  15.259  0.5998 -0.0907  0.7538
 7917SOL    HW235214   3.264   2.908  15.225 -1.2689  2.2420 -0.3273
 7918SOL     OW35215   0.459   3.500  11.458 -0.5677 -0.3447  1.0854
 7918SOL    HW135216   0.539   3.511  11.509 -0.2835 -0.6236  0.7027
 7918SOL    HW235217   0.404   3.459  11.524 -1.0763 -0.5526  0.5408
 7919SOL     OW35218   4.292   2.512  16.032 -0.2380 -0.2730 -0.0752
 7919SOL    HW135219   4.254   2.552  15.954  1.4409 -0.7802 -1.1694
 7919SOL    HW235220   4.312   2.426  15.995  0.8835 -0.0851  0.0978
 7920SOL     OW35221   3.038   3.510   2.988  0.0251  0.1232  0.2974
 7920SOL    HW135222   3.120   3.524   2.941  0.4812 -0.0818  1.0397
 7920SOL    HW235223   2.974   3.500   2.917  0.2104 -0.1340  0.1691
 7921SOL     OW35224   0.721   0.119  17.460 -0.0429 -0.0908 -0.5524
 7921SOL    HW135225   0.764   0.034  17.451 -3.0118 -1.5523 -0.8131
 7921SOL    HW235226   0.661   0.094  17.530  1.9391 -0.4867  0.9826
 7922SOL     OW35227   1.647   1.082   1.563  0.1053 -0.3214  0.4410
 7922SOL    HW135228   1.673   1.160   1.514  0.7558  1.3764  3.5430
 7922SOL    HW235229   1.583   1.113   1.626 -0.5194  0.6073 -0.6600
 7923SOL     OW35230   2.307   0.993  10.493  0.0200  0.7594  0.3302
 7923SOL    HW135231   2.360   1.014  10.570  2.7448 -0.4956 -1.1890
 7923SOL    HW235232   2.336   0.903  10.474 -0.2378  0.5397  0.9580
 7924SOL     OW35233   0.618   2.996   7.696  0.1699  0.0984  0.3548
 7924SOL    HW135234   0.658   3.005   7.783 -0.1756  0.9821  0.4159
 7924SOL    HW235235   0.668   3.053   7.638 -0.2896  0.9098  0.7646
 7925SOL     OW35236   1.736   1.191   6.622  0.1757 -0.3504  0.3387
 7925SOL    HW135237   1.698   1.123   6.676  1.0453  2.1924  4.1256
 7925SOL    HW235238   1.663   1.230   6.574  0.6615  1.6697  1.2641
 7926SOL     OW35239   1.981   3.038   1.610  0.9456  0.2447 -0.3137
 7926SOL    HW135240   2.058   2.983   1.596  1.3769  0.4999  1.1296
 7926SOL    HW235241   1.979   3.044   1.705 -0.1175 -2.1773 -0.1941
 7927SOL     OW35242   2.908   3.185   9.801  0.3363  0.3019  0.6502
 7927SOL    HW135243   2.964   3.186   9.724 -2.6244 -0.0932 -1.4892
 7927SOL    HW235244   2.943   3.110   9.848  1.4983  0.3850 -0.0754
 7928SOL     OW35245   3.980   3.856   3.998  0.3881 -0.4990  0.4998
 7928SOL    HW135246   4.055   3.796   3.991  0.0536 -0.9550  0.7893
 7928SOL    HW235247   3.936   3.821   4.076  0.3463 -1.7489 -0.0846
 7929SOL     OW35248   0.078   0.714   5.220 -0.0998 -0.5465 -0.3469
 7929SOL    HW135249   0.125   0.792   5.251 -1.6021  0.4451 -0.5537
 7929SOL    HW235250   0.095   0.641   5.280 -1.9927 -1.0604 -0.4544
 7930SOL     OW35251   3.161   1.440  10.848 -0.3350 -0.1897  0.2075
 7930SOL    HW135252   3.161   1.515  10.789 -0.8120 -0.4640 -0.1361
 7930SOL    HW235253   3.115   1.374  10.797 -1.3889  0.1237  0.7589
 7931SOL     OW35254   4.498   3.388  11.058  0.1803  0.5054  0.5347
 7931SOL    HW135255   4.406   3.362  11.062 -0.0562  1.3484  0.6220
 7931SOL    HW235256   4.504   3.465  11.001 -1.2599  0.6216  0.5257
 7932SOL     OW35257   0.424   0.861   4.645 -0.3593 -0.1658 -0.4000
 7932SOL    HW135258   0.465   0.776   4.630  0.9240  0.7405 -2.0019
 7932SOL    HW235259   0.336   0.838   4.675 -0.3625 -0.5716 -0.7342
 7933SOL     OW35260   4.227   2.154   5.997  0.1701 -0.1432  0.1468
 7933SOL    HW135261   4.305   2.103   6.015 -0.7672 -0.9599  1.9308
 7933SOL    HW235262   4.254   2.217   5.931 -0.6556 -0.2398 -0.2839
 7934SOL     OW35263   3.147   1.767  16.094  0.6242  0.1909 -0.0012
 7934SOL    HW135264   3.135   1.771  15.999 -1.2751  2.7779  0.3300
 7934SOL    HW235265   3.212   1.697  16.103  1.1128  0.7232  0.6062
 7935SOL     OW35266   0.540   3.913  16.825 -0.3521 -0.2462  0.2734
 7935SOL    HW135267   0.535   4.006  16.802  3.8284 -0.7620 -2.6828
 7935SOL    HW235268   0.589   3.874  16.753  1.8155  1.5928  0.7222
 7936SOL     OW35269   1.506   2.276  15.146 -0.1013 -1.0567 -0.1246
 7936SOL    HW135270   1.495   2.349  15.207  1.0941  0.2404 -1.4569
 7936SOL    HW235271   1.593   2.300  15.114  0.3972 -0.8965  1.3364
 7937SOL     OW35272   0.259   0.312   5.903 -0.0504 -1.0872  0.4185
 7937SOL    HW135273   0.316   0.281   5.974 -2.0031 -0.8413  2.0926
 7937SOL    HW235274   0.179   0.262   5.918  1.3172 -2.8591  1.7394
 7938SOL     OW35275   4.718   3.018   7.914 -0.3050 -0.7465  0.0966
 7938SOL    HW135276   0.010   2.963   7.990 -0.9109 -0.1292  0.6694
 7938SOL    HW235277   0.043   2.961   7.855  1.0140  0.0858  0.4026
 7939SOL     OW35278   1.932   1.015  17.257 -0.8854  0.5638  0.8167
 7939SOL    HW135279   1.862   0.995  17.319 -0.4046  0.2285  1.2511
 7939SOL    HW235280   2.007   0.974  17.302 -0.0634  1.6489  0.4223
 7940SOL     OW35281   0.405   3.388   6.601  0.1233  0.6080  0.1177
 7940SOL    HW135282   0.398   3.465   6.543  2.2341 -0.2250 -1.2255
 7940SOL    HW235283   0.381   3.315   6.544  2.1604 -0.2458  0.3565
 7941SOL     OW35284   3.306   1.640   7.539  0.6271  0.4469  0.4884
 7941SOL    HW135285   3.306   1.639   7.635 -2.7081 -0.1753  0.4649
 7941SOL    HW235286   3.388   1.596   7.516 -0.3031 -1.1422  0.2571
 7942SOL     OW35287   0.814   0.919   5.606  0.4905 -0.2760 -0.1613
 7942SOL    HW135288   0.876   0.932   5.677 -1.4671 -1.2303  1.7140
 7942SOL    HW235289   0.736   0.927   5.660  1.5272  3.1811  0.7657
 7943SOL     OW35290   2.054   2.042   4.525  0.0511 -0.2270 -0.0542
 7943SOL    HW135291   1.993   2.069   4.594 -1.9970 -0.6375 -1.7091
 7943SOL    HW235292   2.103   1.971   4.567 -0.2792  0.1424  0.9583
 7944SOL     OW35293   2.529   4.147   8.056 -0.1529  0.2523  0.1920
 7944SOL    HW135294   2.475   4.199   8.116 -0.4221  0.8077 -0.5280
 7944SOL    HW235295   2.615   4.153   8.099  0.1489  1.3657 -0.5734
 7945SOL     OW35296   0.412   0.673   7.811  0.4212 -0.1200 -0.2334
 7945SOL    HW135297   0.454   0.595   7.848 -0.3187  0.8268  2.6011
 7945SOL    HW235298   0.472   0.743   7.839 -0.1526  0.0710  0.5136
 7946SOL     OW35299   4.303   0.930   4.693 -0.3578  0.1030  0.7939
 7946SOL    HW135300   4.295   0.860   4.627  1.3954  1.1639 -0.5625
 7946SOL    HW235301   4.378   0.982   4.663  0.1747 -0.1149  1.7333
 7947SOL     OW35302   2.467   4.536   3.732  1.0377 -0.3823  0.0289
 7947SOL    HW135303   2.531   4.482   3.687 -0.8171 -1.6647 -1.0940
 7947SOL    HW235304   2.402   4.560   3.666  0.4811 -1.2113  0.2688
 7948SOL     OW35305   4.150   4.594   4.440 -0.2018 -0.5489  0.5052
 7948SOL    HW135306   4.058   4.589   4.414  0.3759 -1.6964 -1.3235
 7948SOL    HW235307   4.169   4.500   4.435  2.3572  0.0606 -0.9649
 7949SOL     OW35308   0.337   1.965   4.962  0.2199 -0.2897 -0.4518
 7949SOL    HW135309   0.355   2.011   5.045  0.1705 -1.2046  0.0665
 7949SOL    HW235310   0.312   1.877   4.990 -0.1983 -0.3968 -1.1665
 7950SOL     OW35311   0.196   0.742   6.415  0.4629 -0.0711  0.9942
 7950SOL    HW135312   0.126   0.807   6.420  2.2418  1.8423  0.8244
 7950SOL    HW235313   0.229   0.743   6.325  0.7239 -0.8316  1.0824
 7951SOL     OW35314   1.775   4.529   0.843 -0.4022 -0.0986  0.1013
 7951SOL    HW135315   1.792   4.435   0.843  1.4009  0.2181  0.1601
 7951SOL    HW235316   1.847   4.550   0.783 -0.2699 -1.5220 -0.2282
 7952SOL     OW35317   0.193   2.595  12.558  0.5757  0.4206 -0.2375
 7952SOL    HW135318   0.219   2.626  12.471  0.1154 -0.0473 -0.5461
 7952SOL    HW235319   0.238   2.662  12.609  0.4381 -0.3139  0.8424
 7953SOL     OW35320   0.491   3.876   1.642 -0.5205  0.0211  0.0182
 7953SOL    HW135321   0.409   3.835   1.669 -2.3024  2.5773 -1.5574
 7953SOL    HW235322   0.455   3.923   1.567  1.9383  1.8281 -0.0427
 7954SOL     OW35323   0.289   4.045  10.192 -0.2195 -0.4459  0.7189
 7954SOL    HW135324   0.213   4.099  10.170 -0.1454 -0.3897  0.5950
 7954SOL    HW235325   0.252   3.958  10.207 -0.6097  0.0346  2.5875
 7955SOL     OW35326   4.297   2.358   6.759  0.4255 -0.1328 -0.4606
 7955SOL    HW135327   4.315   2.265   6.774  1.3411  0.4488  1.9460
 7955SOL    HW235328   4.337   2.413   6.826 -1.3081  0.1203  0.3625
 7956SOL     OW35329   1.909   3.389  16.962  0.0919  0.2621 -0.4152
 7956SOL    HW135330   1.889   3.355  17.049  1.2079  0.1737 -0.1937
 7956SOL    HW235331   1.993   3.344  16.948 -0.3614 -0.7088 -0.0030
 7957SOL     OW35332   2.553   4.436   3.323 -0.5192  0.1406 -0.3998
 7957SOL    HW135333   2.503   4.492   3.382 -0.3087  0.7301 -0.7822
 7957SOL    HW235334   2.479   4.378   3.306  0.5313 -0.6105 -2.3627
 7958SOL     OW35335   4.558   1.405  15.386  0.3442  0.4840 -0.1277
 7958SOL    HW135336   4.577   1.371  15.473 -0.2556 -1.0328 -0.5855
 7958SOL    HW235337   4.638   1.445  15.353  0.1127 -0.6761 -2.1160
 7959SOL     OW35338   3.367   3.623  10.935 -0.0695  0.3414 -0.0418
 7959SOL    HW135339   3.338   3.534  10.916 -0.9273  0.9556 -1.6687
 7959SOL    HW235340   3.301   3.652  10.998  0.5424  0.6030  0.4810
 7960SOL     OW35341   1.612   2.701   6.125 -0.2988 -0.0335  0.4332
 7960SOL    HW135342   1.525   2.663   6.114 -0.3786 -0.4959  2.5958
 7960SOL    HW235343   1.652   2.638   6.185  1.0955  1.6548  1.2822
 7961SOL     OW35344   1.845   3.771   0.081 -0.9597  0.5277  0.8790
 7961SOL    HW135345   1.755   3.790   0.052 -1.0957  2.4658  2.6404
 7961SOL    HW235346   1.884   3.855   0.103  1.1145  0.4524 -2.5795
 7962SOL     OW35347   0.335   3.985  12.519  0.4876 -0.2217 -0.5652
 7962SOL    HW135348   0.282   4.002  12.597  0.1004  0.1495 -0.9114
 7962SOL    HW235349   0.269   3.989  12.450  0.5853 -0.1718 -0.6554
 7963SOL     OW35350   2.329   1.932   3.243 -0.1099 -0.2498 -0.0259
 7963SOL    HW135351   2.264   1.886   3.188  0.1755 -0.6732 -0.0129
 7963SOL    HW235352   2.279   1.959   3.320  0.7890  0.2177  0.3811
 7964SOL     OW35353   1.909   2.074   7.237 -0.1775  0.0661  0.0185
 7964SOL    HW135354   1.949   2.139   7.179  0.9879 -0.9877 -0.3728
 7964SOL    HW235355   1.972   2.002   7.234 -0.1991  0.1430 -2.6624
 7965SOL     OW35356   3.283   1.470   2.714  0.5009  0.6493  0.0695
 7965SOL    HW135357   3.363   1.426   2.745 -0.4094 -0.7447  0.4441
 7965SOL    HW235358   3.243   1.395   2.669  0.5001  2.9775 -3.7416
 7966SOL     OW35359   3.071   0.190   3.157 -0.1305  0.3295 -0.2583
 7966SOL    HW135360   3.020   0.262   3.196  0.3217  0.4708  0.0809
 7966SOL    HW235361   2.996   0.163   3.106 -1.1284 -0.6462  1.7239
 7967SOL     OW35362   3.346   0.146   7.816  0.2622  0.1720  0.4744
 7967SOL    HW135363   3.306   0.233   7.826 -3.1006 -1.2750 -0.4604
 7967SOL    HW235364   3.272   0.085   7.812 -0.6408  1.5164 -3.5302
 7968SOL     OW35365   2.760   2.245   7.549 -0.4008 -0.5565  0.5440
 7968SOL    HW135366   2.815   2.200   7.613  0.2235  1.0375  1.1111
 7968SOL    HW235367   2.770   2.339   7.562  1.6121 -0.8101  0.8986
 7969SOL     OW35368   2.268   1.274   0.498 -0.3847 -0.2084  0.0362
 7969SOL    HW135369   2.221   1.334   0.557  1.1312  1.5523 -0.5320
 7969SOL    HW235370   2.254   1.201   0.557 -0.5231 -1.5444 -1.6487
 7970SOL     OW35371   3.986   1.779  11.424 -0.0050 -0.0888 -0.1349
 7970SOL    HW135372   3.941   1.823  11.352 -0.0839 -0.4965 -0.3398
 7970SOL    HW235373   4.030   1.855  11.461 -0.5780 -0.9535  2.3166
 7971SOL     OW35374   3.430   1.242   9.813 -0.1590 -0.4355 -0.6053
 7971SOL    HW135375   3.414   1.316   9.754  0.7755  0.8241  0.6941
 7971SOL    HW235376   3.351   1.245   9.867  0.0793  0.6028 -0.3033
 7972SOL     OW35377   3.986   2.262   3.405  0.3425 -0.2602  1.1782
 7972SOL    HW135378   4.033   2.224   3.331 -3.2678 -1.3664 -0.5393
 7972SOL    HW235379   4.048   2.332   3.425  1.6968 -0.5123 -2.1152
 7973SOL     OW35380   0.581   2.601   1.896  0.1708 -0.3093  0.2633
 7973SOL    HW135381   0.506   2.637   1.848  0.6768 -1.1615 -1.1681
 7973SOL    HW235382   0.553   2.512   1.875  3.5024 -2.0219  3.1570
 7974SOL     OW35383   3.072   0.313  11.029 -0.3605 -0.0282  0.6727
 7974SOL    HW135384   3.009   0.361  10.975 -1.3465 -1.7740  0.2799
 7974SOL    HW235385   3.112   0.379  11.086  0.2522 -1.6120  2.0505
 7975SOL     OW35386   3.454   4.125  14.349 -0.1328 -0.3752  0.1594
 7975SOL    HW135387   3.371   4.138  14.303 -0.7492 -0.9085  1.1164
 7975SOL    HW235388   3.482   4.047  14.302  2.1409  0.6508 -0.2071
 7976SOL     OW35389   0.636   3.673  10.473 -0.7042 -0.0274  0.2025
 7976SOL    HW135390   0.567   3.713  10.525 -0.9608 -0.0023 -0.1643
 7976SOL    HW235391   0.600   3.598  10.425  4.2701 -3.1029  1.2044
 7977SOL     OW35392   0.299   0.748   3.312 -0.0054 -0.4674  0.1034
 7977SOL    HW135393   0.316   0.711   3.225  1.2525 -0.0810  0.1847
 7977SOL    HW235394   0.298   0.840   3.288  1.0169  0.0786  2.2341
 7978SOL     OW35395   2.906   3.420  14.229 -0.1487  0.1950  0.1410
 7978SOL    HW135396   2.966   3.385  14.295 -0.7016 -1.3072 -0.1380
 7978SOL    HW235397   2.876   3.338  14.187 -0.1734  1.8758 -3.1463
 7979SOL     OW35398   2.811   0.956   8.092 -0.0188  0.1375 -0.0025
 7979SOL    HW135399   2.894   1.000   8.111  0.2664 -0.5442  0.3224
 7979SOL    HW235400   2.787   0.935   8.182 -1.7419  1.9260 -0.0457
 7980SOL     OW35401   1.905   4.619   3.071  0.1722  0.1630 -0.4340
 7980SOL    HW135402   1.865   4.635   3.157  2.1832  1.4420  0.2590
 7980SOL    HW235403   1.844   4.554   3.038  0.8053 -0.3551 -0.5870
 7981SOL     OW35404   3.918   2.935  16.153  0.4120 -0.2763 -0.1769
 7981SOL    HW135405   3.955   2.939  16.241  3.6737 -0.8813 -1.5124
 7981SOL    HW235406   3.823   2.936  16.163  0.3876  0.8209 -0.5443
 7982SOL     OW35407   2.557   0.342   4.239  0.5686 -0.2534  0.4467
 7982SOL    HW135408   2.522   0.296   4.163  1.3667  1.0550 -0.7015
 7982SOL    HW235409   2.651   0.340   4.219  0.6347  0.8039  0.6600
 7983SOL     OW35410   0.005   2.055  11.438 -0.1172  0.0733  0.1872
 7983SOL    HW135411   0.044   1.968  11.422 -1.0516  0.1018 -2.3215
 7983SOL    HW235412   4.699   2.079  11.351 -0.4596 -0.6807  0.0989
 7984SOL     OW35413   3.289   4.639   7.279  0.0680  0.7929  0.4431
 7984SOL    HW135414   3.223   4.626   7.346  0.3144 -0.3116  0.4676
 7984SOL    HW235415   3.285   0.009   7.264  0.7241  0.7356 -0.1075
 7985SOL     OW35416   2.760   2.357   2.060  0.3434 -0.1283 -0.0473
 7985SOL    HW135417   2.774   2.449   2.038  2.6643  0.0636  2.3097
 7985SOL    HW235418   2.836   2.320   2.015  0.4632  1.7833 -1.4511
 7986SOL     OW35419   4.394   1.235  11.095 -0.1960  0.2733 -1.0198
 7986SOL    HW135420   4.430   1.154  11.059 -2.0901 -0.9358 -0.1688
 7986SOL    HW235421   4.442   1.295  11.037  1.9514  0.4722  0.9860
 7987SOL     OW35422   2.097   3.032   5.322 -0.9054 -0.0108  0.1615
 7987SOL    HW135423   2.174   3.089   5.329  0.0639 -1.1170 -1.4120
 7987SOL    HW235424   2.138   2.950   5.294 -1.6654 -0.5893  0.7596
 7988SOL     OW35425   2.011   3.326   7.837  0.0351 -0.1835  0.7439
 7988SOL    HW135426   2.019   3.405   7.892 -0.8502  1.0095 -0.8580
 7988SOL    HW235427   2.054   3.262   7.894  1.0168 -0.4087 -0.2599
 7989SOL     OW35428   3.713   3.901   6.994  0.1618  0.4467 -0.0194
 7989SOL    HW135429   3.758   3.817   7.005 -0.2661 -0.3572 -4.3801
 7989SOL    HW235430   3.664   3.891   6.913 -0.1900  0.2799  0.2157
 7990SOL     OW35431   1.053   0.129  12.747  0.0485  0.0514 -0.0191
 7990SOL    HW135432   1.130   0.081  12.779  0.5237  1.4052  0.9041
 7990SOL    HW235433   1.089   0.171  12.669 -0.4246 -0.8172 -0.6935
 7991SOL     OW35434   1.482   1.752   2.507 -0.1672  0.1720 -0.6871
 7991SOL    HW135435   1.408   1.701   2.473 -0.4039 -0.3342  0.5914
 7991SOL    HW235436   1.442   1.778   2.589 -0.8396 -0.4849 -0.8048
 7992SOL     OW35437   0.054   1.805  11.357 -0.2891  0.6890  0.1818
 7992SOL    HW135438   4.706   1.742  11.359  2.3425 -2.3473  0.6214
 7992SOL    HW235439   0.091   1.771  11.275 -0.7716  3.4924 -1.1824
 7993SOL     OW35440   1.278   1.673  11.889 -0.5620 -0.4911 -0.1207
 7993SOL    HW135441   1.289   1.585  11.925  0.6045 -0.6420 -0.8486
 7993SOL    HW235442   1.275   1.727  11.969  3.3741  1.4091 -1.2425
 7994SOL     OW35443   2.363   3.039   4.742 -0.3526 -0.3601 -0.1524
 7994SOL    HW135444   2.310   3.082   4.675 -0.5443  2.0331  1.5485
 7994SOL    HW235445   2.424   3.108   4.768 -1.5264  0.4797  0.4009
 7995SOL     OW35446   0.831   0.986   6.614 -0.2340  0.2097  0.1258
 7995SOL    HW135447   0.917   0.953   6.639 -0.0317  0.5636 -0.1109
 7995SOL    HW235448   0.819   1.053   6.681 -0.6528  0.1570  0.1029
 7996SOL     OW35449   4.678   1.229  14.219  0.2607  0.2792 -0.0069
 7996SOL    HW135450   4.611   1.295  14.234  2.7808  3.0697 -0.9275
 7996SOL    HW235451   0.022   1.274  14.169  0.8365 -1.0482 -0.4180
 7997SOL     OW35452   4.092   4.142   2.964 -0.1823 -0.3536  0.0067
 7997SOL    HW135453   4.041   4.156   3.044  2.0364  2.2006  1.0024
 7997SOL    HW235454   4.139   4.226   2.969  0.8614 -0.8196 -2.1304
 7998SOL     OW35455   0.014   0.993  10.209 -0.0361  0.1579 -0.0767
 7998SOL    HW135456   0.072   0.923  10.239 -3.0715 -0.7103  3.7420
 7998SOL    HW235457   0.078   1.052  10.169  0.8433 -0.2238  0.7617
 7999SOL     OW35458   0.451   4.560   1.362 -0.4953 -0.2339 -0.4336
 7999SOL    HW135459   0.453   4.465   1.348 -0.7301 -0.1552 -1.0021
 7999SOL    HW235460   0.460   4.600   1.276 -0.1877  0.5823 -0.0262
 8000SOL     OW35461   4.626   3.531   9.021  0.0758  1.1808 -0.3108
 8000SOL    HW135462   4.663   3.464   8.963 -1.3133  1.3235 -1.3510
 8000SOL    HW235463   4.693   3.544   9.088 -0.2866  1.7342 -0.0566
 8001SOL     OW35464   0.223   2.129   3.554  0.0407 -0.2049 -0.0062
 8001SOL    HW135465   0.165   2.190   3.600  0.1669 -1.3143  1.5902
 8001SOL    HW235466   0.274   2.191   3.500 -0.6854 -0.4818 -1.0072
 8002SOL     OW35467   1.260   3.706   5.368  0.6612  0.2171  0.0540
 8002SOL    HW135468   1.265   3.802   5.367  0.6611  0.2179  0.1278
 8002SOL    HW235469   1.281   3.690   5.277  0.6245 -1.8592  0.4252
 8003SOL     OW35470   2.460   3.678   3.595 -0.6623  0.0665  0.2423
 8003SOL    HW135471   2.439   3.762   3.637 -1.2222 -0.2121  0.5241
 8003SOL    HW235472   2.554   3.667   3.609 -0.2822  2.7393 -0.1445
 8004SOL     OW35473   0.796   2.870   2.071 -0.6288  0.4603  0.1459
 8004SOL    HW135474   0.778   2.785   2.112  0.5823  1.4843  2.8165
 8004SOL    HW235475   0.712   2.893   2.032 -1.2581 -1.3192  0.4219
 8005SOL     OW35476   4.163   2.448  12.055  0.0796  0.0296 -0.0375
 8005SOL    HW135477   4.196   2.394  12.127  2.6268 -0.5956 -1.6988
 8005SOL    HW235478   4.220   2.524  12.053  0.1195  0.0166  0.5226
 8006SOL     OW35479   2.427   1.114   5.178 -0.2806 -0.5245 -0.4463
 8006SOL    HW135480   2.466   1.029   5.202 -0.7607  0.0633  2.4836
 8006SOL    HW235481   2.509   1.160   5.162  0.4362 -1.9522 -0.8926
 8007SOL     OW35482   2.989   0.677   1.304 -0.4722  0.0130 -0.5951
 8007SOL    HW135483   3.050   0.603   1.308 -0.0986  0.3344 -0.3717
 8007SOL    HW235484   3.040   0.744   1.349 -1.2674  1.1984 -1.4570
 8008SOL     OW35485   2.598   0.954   5.668 -0.3237  0.2516  0.7081
 8008SOL    HW135486   2.662   0.969   5.737  0.2839 -0.0286  0.2053
 8008SOL    HW235487   2.593   1.030   5.609  2.7866  0.0890  0.2757
 8009SOL     OW35488   1.790   2.199   4.382  0.6074 -0.3674 -0.1307
 8009SOL    HW135489   1.843   2.260   4.434  0.6609  0.4527 -1.1565
 8009SOL    HW235490   1.712   2.184   4.436  0.6701  1.1167  0.3597
 8010SOL     OW35491   2.942   4.613   3.934 -0.3455  0.0220 -0.3473
 8010SOL    HW135492   2.855   4.606   3.896 -0.2821  0.5148 -0.5817
 8010SOL    HW235493   2.979   4.690   3.891  0.8843 -0.6157 -0.4346
 8011SOL     OW35494   0.084   4.544   4.294  0.1689  0.6589 -0.5432
 8011SOL    HW135495   0.084   4.450   4.316  2.8802  1.0042  0.8668
 8011SOL    HW235496   0.174   4.559   4.265  0.8810  0.8035  1.7776
 8012SOL     OW35497   1.270   0.006   3.483  0.2379  0.7151  0.3526
 8012SOL    HW135498   1.253   0.096   3.454  3.7396  2.3009  3.2067
 8012SOL    HW235499   1.200   4.684   3.438  1.3462  1.1142 -1.8192
 8013SOL     OW35500   1.995   1.351  13.827 -0.0718 -0.0737  0.2572
 8013SOL    HW135501   1.918   1.298  13.852 -1.1654  1.2222 -0.3647
 8013SOL    HW235502   2.061   1.282  13.827  0.3479  0.3343 -0.5337
 8014SOL     OW35503   4.707   3.997   1.348  0.0981 -0.4057 -0.3171
 8014SOL    HW135504   4.614   4.018   1.351  0.1364 -0.4103  0.8656
 8014SOL    HW235505   4.722   4.013   1.255 -0.6041  1.0039 -0.1902
 8015SOL     OW35506   0.836   4.093  11.719  0.1497 -0.3584  0.8667
 8015SOL    HW135507   0.922   4.131  11.699 -1.1489  1.4638 -1.3419
 8015SOL    HW235508   0.816   4.128  11.806  2.4933  1.5044  0.6616
 8016SOL     OW35509   1.610   3.527   5.362  0.4145  0.0665  0.2049
 8016SOL    HW135510   1.542   3.526   5.429 -0.3588  0.4185 -0.5747
 8016SOL    HW235511   1.602   3.618   5.332  1.9511  0.0750 -0.1726
 8017SOL     OW35512   2.910   4.262   7.679 -0.1511  0.7119  0.2265
 8017SOL    HW135513   2.827   4.259   7.632  0.3432  2.3500 -0.7490
 8017SOL    HW235514   2.959   4.196   7.630 -0.7583  1.7489 -1.7934
 8018SOL     OW35515   3.347   4.527   5.214 -0.6872  0.4714  0.0698
 8018SOL    HW135516   3.439   4.509   5.191 -0.2139 -0.9333  3.0154
 8018SOL    HW235517   3.326   4.617   5.190  1.1996  0.7719 -0.4773
 8019SOL     OW35518   0.956   0.797  10.951 -0.0065  0.3629  0.4079
 8019SOL    HW135519   0.883   0.833  11.001  1.5794  0.6916  2.5024
 8019SOL    HW235520   0.910   0.811  10.868 -0.6037 -1.7090  0.3856
 8020SOL     OW35521   3.167   4.473   8.128 -0.2176 -0.2522  0.2063
 8020SOL    HW135522   3.168   4.568   8.140  1.3800 -0.1978 -0.4212
 8020SOL    HW235523   3.078   4.453   8.100  0.7592 -2.5772 -1.1798
 8021SOL     OW35524   3.766   1.251   2.317 -0.4416 -0.5188 -0.3583
 8021SOL    HW135525   3.713   1.198   2.376  0.8529 -1.3830  0.0478
 8021SOL    HW235526   3.767   1.195   2.239 -1.4511 -0.1467 -0.6322
 8022SOL     OW35527   1.337   0.476   7.209 -0.1743 -0.5241 -0.4141
 8022SOL    HW135528   1.388   0.552   7.182 -1.9235  0.5896 -0.6066
 8022SOL    HW235529   1.277   0.466   7.136 -1.7241  0.6766  0.6910
 8023SOL     OW35530   0.250   4.648   2.951 -0.3505  0.1659 -0.5877
 8023SOL    HW135531   0.326   4.705   2.961  0.0131 -0.4643  0.2724
 8023SOL    HW235532   0.244   4.651   2.856  2.1568 -2.5263 -0.8659
 8024SOL     OW35533   2.179   1.823   1.008 -0.1594 -1.1527  0.1982
 8024SOL    HW135534   2.123   1.750   1.034 -0.4290 -1.1925 -0.5014
 8024SOL    HW235535   2.172   1.845   0.915 -1.1112  0.8911  0.7393
 8025SOL     OW35536   1.010   3.131   6.305 -0.4116  0.4617  0.2507
 8025SOL    HW135537   1.031   3.138   6.398  1.2391  1.4973 -0.2046
 8025SOL    HW235538   0.941   3.067   6.288  0.7866 -0.7021 -0.2496
 8026SOL     OW35539   3.291   4.595   0.455 -0.1075 -0.6287  0.1146
 8026SOL    HW135540   3.238   4.517   0.472 -0.0397 -1.0474 -1.6266
 8026SOL    HW235541   3.365   4.567   0.402  0.2514 -0.6938  0.6494
 8027SOL     OW35542   4.708   2.696   2.169  0.2231 -0.8275 -0.0694
 8027SOL    HW135543   0.047   2.659   2.230 -1.8810 -0.6609  2.1862
 8027SOL    HW235544   0.042   2.724   2.099  0.2413 -0.5398  0.0645
 8028SOL     OW35545   0.081   2.533   8.122 -0.3949 -0.0311  0.0600
 8028SOL    HW135546   0.001   2.483   8.140 -0.6055  0.8271  1.4731
 8028SOL    HW235547   0.153   2.481   8.160  0.8919  1.1762 -0.7518
 8029SOL     OW35548   2.075   3.715   7.849  0.6533  0.2702 -0.2431
 8029SOL    HW135549   2.055   3.630   7.890 -0.3006  0.0626 -1.1417
 8029SOL    HW235550   2.036   3.773   7.914 -1.3582 -0.1341 -1.1053
 8030SOL     OW35551   1.250   1.686  10.022 -0.2958 -0.3678 -0.5482
 8030SOL    HW135552   1.172   1.721   9.979  0.4196 -0.1648 -1.7057
 8030SOL    HW235553   1.269   1.610   9.967  1.9773 -0.2245  0.0462
 8031SOL     OW35554   2.064   2.218   6.086  0.0412 -0.7192  0.1881
 8031SOL    HW135555   2.127   2.268   6.138 -2.0234  0.3017  1.7439
 8031SOL    HW235556   2.047   2.279   6.014  1.5874 -0.8563 -0.2969
 8032SOL     OW35557   0.722   3.954   6.476  0.6554  0.3587 -0.2542
 8032SOL    HW135558   0.757   3.929   6.391 -0.6928 -1.8083 -0.1523
 8032SOL    HW235559   0.642   3.902   6.477  1.8946 -1.5124 -0.3259
 8033SOL     OW35560   3.184   0.831   7.478  0.1572  0.5920 -0.5968
 8033SOL    HW135561   3.110   0.785   7.517  0.5006  0.4336 -0.1401
 8033SOL    HW235562   3.190   0.797   7.388  2.0735  0.2315 -0.3403
 8034SOL     OW35563   3.997   3.643   6.301 -0.0666  0.2500  0.4075
 8034SOL    HW135564   3.935   3.683   6.362 -0.2547 -0.9215  0.9835
 8034SOL    HW235565   4.024   3.571   6.358 -1.1706 -1.2094 -0.9072
 8035SOL     OW35566   2.824   3.192  14.116  0.4389  0.2027  0.0701
 8035SOL    HW135567   2.810   3.100  14.093 -1.1489  0.9087 -1.8305
 8035SOL    HW235568   2.734   3.214  14.137  0.3640  1.1059 -1.2119
 8036SOL     OW35569   3.222   1.398   2.181 -0.0107 -0.1153 -0.0358
 8036SOL    HW135570   3.159   1.441   2.124  1.4562  1.0533 -0.7678
 8036SOL    HW235571   3.207   1.305   2.163 -0.3445  0.2475 -1.6767
 8037SOL     OW35572   0.684   2.671  15.921  0.0541  0.1429  0.0770
 8037SOL    HW135573   0.746   2.726  15.872 -1.7396  0.4490 -1.8407
 8037SOL    HW235574   0.677   2.725  16.000  1.1398 -0.3952  0.5496
 8038SOL     OW35575   1.526   0.661  11.399  0.0852  0.0113 -0.1197
 8038SOL    HW135576   1.483   0.741  11.428  0.3860  0.0773  0.1506
 8038SOL    HW235577   1.533   0.620  11.486 -0.4587  1.1313  0.4388
 8039SOL     OW35578   0.999   1.449  11.660 -0.0196  0.2024  0.2803
 8039SOL    HW135579   0.932   1.483  11.601 -1.0329 -1.3073  0.5563
 8039SOL    HW235580   1.075   1.450  11.602 -0.7082 -1.8029 -0.6347
 8040SOL     OW35581   3.819   0.203   7.861  0.2765  0.1003 -0.2349
 8040SOL    HW135582   3.900   0.240   7.827 -0.5975  1.3764 -0.9263
 8040SOL    HW235583   3.758   0.273   7.840  2.3882  1.9200 -0.2877
 8041SOL     OW35584   3.419   3.784   8.184  0.5467  0.0731 -0.1044
 8041SOL    HW135585   3.456   3.761   8.269  0.7631 -0.6681 -0.4016
 8041SOL    HW235586   3.400   3.875   8.207  0.0353 -0.2060  0.5358
 8042SOL     OW35587   1.958   3.027   6.414  0.6129 -0.0165  0.5263
 8042SOL    HW135588   1.870   3.037   6.448 -0.0269 -1.6577 -0.6312
 8042SOL    HW235589   1.989   3.000   6.500  0.5235 -1.3779  0.1319
 8043SOL     OW35590   4.334   1.817  17.149 -0.1128 -0.2323 -0.1465
 8043SOL    HW135591   4.325   1.841  17.241  0.2465 -0.7280  0.0194
 8043SOL    HW235592   4.397   1.884  17.121  0.3228 -1.4306 -2.0376
 8044SOL     OW35593   0.137   3.318  12.974 -0.5647  0.2500  0.4470
 8044SOL    HW135594   0.209   3.377  12.997 -1.8599  1.1756  2.0521
 8044SOL    HW235595   0.085   3.313  13.054  1.8021  1.9559  2.1089
 8045SOL     OW35596   1.609   1.613   0.982 -0.1518 -0.2830 -0.3014
 8045SOL    HW135597   1.583   1.597   0.891 -0.3507 -0.6919 -0.1743
 8045SOL    HW235598   1.688   1.558   0.988  0.3720  0.5078  0.0556
 8046SOL     OW35599   0.117   0.748   1.460  0.3478  0.0362 -0.2266
 8046SOL    HW135600   0.160   0.751   1.545 -2.3329  2.2444  1.0540
 8046SOL    HW235601   0.071   0.832   1.454  0.1582  0.1451  2.8040
 8047SOL     OW35602   2.751   1.185   7.187 -0.0494  0.3659  0.4870
 8047SOL    HW135603   2.796   1.241   7.251 -0.3989 -0.4241  1.4282
 8047SOL    HW235604   2.675   1.238   7.164  0.1503  0.4116 -0.0560
 8048SOL     OW35605   4.227   2.200   6.347 -0.4099 -0.5144  0.3430
 8048SOL    HW135606   4.239   2.288   6.312  0.5052 -0.1570  1.5347
 8048SOL    HW235607   4.315   2.169   6.369 -0.1395  1.0675  1.4403
 8049SOL     OW35608   3.076   4.528   6.885 -0.4172 -0.0984  0.1278
 8049SOL    HW135609   3.063   4.614   6.845  1.7501 -0.1561 -0.6614
 8049SOL    HW235610   3.169   4.507   6.890 -0.2296  0.8182  0.4261
 8050SOL     OW35611   2.149   0.789   3.888  0.1268 -0.2906 -0.4128
 8050SOL    HW135612   2.196   0.723   3.940  0.5421 -0.5016 -1.0581
 8050SOL    HW235613   2.064   0.768   3.927 -0.7913  0.3924 -2.0720
 8051SOL     OW35614   4.245   0.115  14.654 -0.1704 -0.0576 -0.0987
 8051SOL    HW135615   4.192   0.195  14.646 -1.4635 -0.8130  0.8681
 8051SOL    HW235616   4.186   0.050  14.615 -1.9469  0.8907  0.9847
 8052SOL     OW35617   0.207   1.369  11.252  0.1091 -0.2584  0.5075
 8052SOL    HW135618   0.123   1.368  11.298  0.1624  0.5476  0.6197
 8052SOL    HW235619   0.211   1.277  11.226 -3.5534 -0.3470  0.2775
 8053SOL     OW35620   0.970   4.093   5.106 -0.2860  0.6832 -0.1336
 8053SOL    HW135621   1.034   4.155   5.142 -0.7653  0.6670  0.7526
 8053SOL    HW235622   0.965   4.121   5.015  2.4585  0.9463 -0.1883
 8054SOL     OW35623   0.604   1.675   6.614 -0.0580 -0.3360 -0.0004
 8054SOL    HW135624   0.693   1.673   6.579  0.4936  0.3814  1.3617
 8054SOL    HW235625   0.566   1.605   6.561  0.8210 -0.8913  0.1109
 8055SOL     OW35626   1.178   1.509   4.748  0.1022  0.4620 -0.4927
 8055SOL    HW135627   1.157   1.518   4.655 -1.2070 -2.5958 -0.5172
 8055SOL    HW235628   1.143   1.420   4.755  3.2548 -0.8745 -1.8211
 8056SOL     OW35629   2.041   3.623   5.497  0.5648 -0.1113  0.0102
 8056SOL    HW135630   1.985   3.582   5.431 -1.4406  0.0290  1.6192
 8056SOL    HW235631   1.979   3.688   5.530  1.2113  0.3794  0.2577
 8057SOL     OW35632   0.343   4.015  17.068 -0.6938  0.1126 -0.3571
 8057SOL    HW135633   0.305   3.955  17.131 -0.9430 -1.4836 -2.0212
 8057SOL    HW235634   0.296   4.006  16.985  1.2920 -0.2015 -1.4340
 8058SOL     OW35635   1.147   0.562   4.690  0.3614 -1.0259  0.2229
 8058SOL    HW135636   1.114   0.559   4.600  0.6091 -1.9978  0.1597
 8058SOL    HW235637   1.239   0.542   4.671  0.4262  1.8672 -2.5520
 8059SOL     OW35638   3.764   2.881   1.805  0.0505  0.1824  0.9679
 8059SOL    HW135639   3.711   2.944   1.756  1.7456  0.6828 -0.2122
 8059SOL    HW235640   3.831   2.935   1.846 -0.1252  0.0713  1.4067
 8060SOL     OW35641   2.445   1.354  15.736 -0.3952 -0.2294 -0.6756
 8060SOL    HW135642   2.496   1.308  15.803 -0.1262  0.1705 -0.6044
 8060SOL    HW235643   2.446   1.300  15.657  0.5601  0.3026 -1.0310
 8061SOL     OW35644   2.798   3.318   3.291  0.0510  0.5294 -0.1465
 8061SOL    HW135645   2.886   3.355   3.297  0.1309  0.1383  1.0842
 8061SOL    HW235646   2.752   3.398   3.265  0.2847  0.1844 -1.6035
 8062SOL     OW35647   2.088   2.007   3.371  0.2271  0.3297  0.3475
 8062SOL    HW135648   2.128   2.093   3.383  1.0698 -0.1625  1.0916
 8062SOL    HW235649   2.029   2.031   3.300 -0.8447 -1.1543  0.7213
 8063SOL     OW35650   0.313   1.479   3.257 -0.2420 -1.0346  0.2121
 8063SOL    HW135651   0.229   1.443   3.284  0.5508 -3.0075  0.0149
 8063SOL    HW235652   0.339   1.431   3.179  1.5489 -0.4088  0.4285
 8064SOL     OW35653   1.709   1.523   6.933 -0.0831  0.0146 -0.4069
 8064SOL    HW135654   1.761   1.468   6.875  2.3435 -0.0153  1.8018
 8064SOL    HW235655   1.670   1.453   6.985 -0.4651 -1.4081 -2.5970
 8065SOL     OW35656   3.037   1.201  11.614 -0.0173 -0.0369 -0.8185
 8065SOL    HW135657   3.097   1.184  11.542  0.8888 -0.8528  0.1244
 8065SOL    HW235658   3.003   1.286  11.586 -1.5022 -0.1136  0.7886
 8066SOL     OW35659   2.357   0.890   0.511  0.3107  0.6011  0.1290
 8066SOL    HW135660   2.368   0.954   0.581  0.8824  0.6033  0.0334
 8066SOL    HW235661   2.376   0.808   0.557 -1.4332 -1.6751 -3.2033
 8067SOL     OW35662   2.313   1.003   3.907  0.4959 -0.4352 -0.0052
 8067SOL    HW135663   2.251   1.074   3.921 -0.4496 -1.0422 -1.1794
 8067SOL    HW235664   2.257   0.926   3.904  0.8969 -0.7357  0.2816
 8068SOL     OW35665   2.285   0.999   6.661 -0.8020  0.4272 -0.0855
 8068SOL    HW135666   2.211   0.949   6.627  0.7372 -2.1508  0.3721
 8068SOL    HW235667   2.325   0.943   6.728 -0.5227  0.0639 -0.5461
 8069SOL     OW35668   4.556   2.977   1.961  0.0249 -0.2522 -0.1236
 8069SOL    HW135669   4.544   2.895   1.912  1.8193 -1.3345  1.2503
 8069SOL    HW235670   4.542   2.946   2.050 -2.0488  0.4042 -0.2160
 8070SOL     OW35671   3.800   3.745  11.436  0.1339 -0.5706  0.1188
 8070SOL    HW135672   3.761   3.833  11.432  1.7085  0.2181  2.2395
 8070SOL    HW235673   3.726   3.697  11.475 -0.6704 -0.0530 -0.7580
 8071SOL     OW35674   4.538   1.080   3.919  0.1696 -0.3188 -0.5270
 8071SOL    HW135675   4.615   1.053   3.868  0.5576  1.3079 -0.8164
 8071SOL    HW235676   4.493   1.004   3.956  0.3715  0.5297  1.4538
 8072SOL     OW35677   0.771   3.052   7.948  0.1831 -1.0478  0.1195
 8072SOL    HW135678   0.823   3.086   7.875 -1.6115  0.8166 -0.3028
 8072SOL    HW235679   0.803   3.096   8.027  1.4026 -1.6310 -0.0561
 8073SOL     OW35680   3.088   3.766   6.000  0.3193  0.4613 -0.4405
 8073SOL    HW135681   3.018   3.829   5.982  0.1586  1.0462  2.2346
 8073SOL    HW235682   3.043   3.685   5.976 -1.8478  1.6316 -0.2755
 8074SOL     OW35683   3.764   0.276  14.395  0.1877 -0.0461  0.5190
 8074SOL    HW135684   3.671   0.294  14.411  0.1478  0.5264 -0.3565
 8074SOL    HW235685   3.763   0.273  14.299  3.5156 -1.2506  0.5346
 8075SOL     OW35686   0.505   3.240   0.587 -0.6366 -0.2671 -0.6630
 8075SOL    HW135687   0.498   3.293   0.508 -0.2384  1.4018  0.4222
 8075SOL    HW235688   0.411   3.235   0.608 -0.5008 -1.3931 -0.3186
 8076SOL     OW35689   1.133   0.020   8.283 -0.0061 -0.2658  0.4360
 8076SOL    HW135690   1.099   4.659   8.309 -0.3454 -0.7619 -1.6240
 8076SOL    HW235691   1.097   0.028   8.195 -0.1218  1.1528  0.6137
 8077SOL     OW35692   4.307   2.855   5.722 -0.0102 -0.4608  0.5581
 8077SOL    HW135693   4.233   2.894   5.676 -0.2247  0.8418  2.0328
 8077SOL    HW235694   4.291   2.880   5.813 -3.5775 -0.1748 -0.1542
 8078SOL     OW35695   3.113   2.559  17.254 -0.2855  0.1939  0.5082
 8078SOL    HW135696   3.056   2.495  17.297  0.1653  0.3995  1.4183
 8078SOL    HW235697   3.090   2.551  17.162  0.6725  0.5591  0.2450
 8079SOL     OW35698   3.166   3.800  15.155  0.0646  0.3274  0.3425
 8079SOL    HW135699   3.190   3.886  15.122 -0.3266  0.5423  0.6039
 8079SOL    HW235700   3.070   3.810  15.158 -0.1206 -1.1488 -0.5525
 8080SOL     OW35701   3.125   1.175  12.775 -0.2667 -0.1454  0.1004
 8080SOL    HW135702   3.158   1.265  12.769 -0.9765  0.0467 -1.0047
 8080SOL    HW235703   3.195   1.116  12.747 -1.6414 -1.0926 -1.3279
 8081SOL     OW35704   2.285   0.416  13.877 -0.8940  0.0736 -0.1683
 8081SOL    HW135705   2.308   0.375  13.959  0.0837  2.4616  0.7593
 8081SOL    HW235706   2.235   0.343  13.839 -2.1445  0.3238  1.0053
 8082SOL     OW35707   4.344   1.068   0.931 -0.4707 -0.2530  0.2599
 8082SOL    HW135708   4.348   1.140   0.868  1.4929 -1.1112 -0.6209
 8082SOL    HW235709   4.438   1.047   0.934 -0.2701  1.1716  3.1023
 8083SOL     OW35710   2.743   1.562   5.380 -0.0344  0.6971 -0.0284
 8083SOL    HW135711   2.761   1.478   5.338 -1.5147  0.5455 -0.3523
 8083SOL    HW235712   2.732   1.533   5.471  0.3941 -2.1901 -0.9073
 8084SOL     OW35713   0.254   0.760   4.085 -0.2895 -0.3573  0.2505
 8084SOL    HW135714   0.220   0.832   4.139 -0.3620 -1.0795  1.1809
 8084SOL    HW235715   0.173   0.729   4.045  1.6229 -0.3900 -3.5604
 8085SOL     OW35716   0.418   2.101   5.983 -0.3924  0.2068 -0.1806
 8085SOL    HW135717   0.427   2.065   5.895 -2.5069 -2.1457  0.5773
 8085SOL    HW235718   0.505   2.141   5.992 -0.8998  0.9888  1.2468
 8086SOL     OW35719   3.179   1.061  14.123 -0.5580 -0.5745 -0.3576
 8086SOL    HW135720   3.113   1.077  14.055 -3.4348  2.0440  3.0467
 8086SOL    HW235721   3.232   1.002  14.070  2.8941  1.4098  0.8908
 8087SOL     OW35722   3.325   4.400   6.357  0.1775  0.5316  0.1873
 8087SOL    HW135723   3.317   4.355   6.273  0.4331  1.2960 -0.2380
 8087SOL    HW235724   3.317   4.325   6.417 -0.1152 -0.0177 -0.5363
 8088SOL     OW35725   1.315   2.389   8.082 -0.0689  0.4715  0.6011
 8088SOL    HW135726   1.326   2.442   8.160 -0.2370  1.4337 -0.0285
 8088SOL    HW235727   1.380   2.319   8.093 -0.2520  0.3489  0.9083
 8089SOL     OW35728   0.401   1.394   2.067  0.7165 -0.4974  0.4891
 8089SOL    HW135729   0.436   1.341   1.995  0.3724  0.9887 -0.7825
 8089SOL    HW235730   0.318   1.348   2.081 -1.1059  2.6866  0.2265
 8090SOL     OW35731   3.239   0.792  15.028  0.1487 -0.1991  0.0616
 8090SOL    HW135732   3.281   0.876  15.013  0.0400 -0.2990 -0.7803
 8090SOL    HW235733   3.173   0.814  15.094 -0.8121 -0.4672 -0.8129
 8091SOL     OW35734   1.063   2.935  11.798 -0.2922  1.1045 -0.0612
 8091SOL    HW135735   1.094   2.881  11.870  1.8368  0.5570 -1.3855
 8091SOL    HW235736   1.090   3.025  11.817  1.3344  0.4916  0.4563
 8092SOL     OW35737   0.960   4.257   4.286  0.7304  0.4464  0.5069
 8092SOL    HW135738   1.021   4.198   4.242 -1.9398 -1.0653 -1.1514
 8092SOL    HW235739   0.886   4.256   4.224  2.0477  0.1380 -1.0540
 8093SOL     OW35740   1.194   0.374   1.319  0.6438 -0.1023  0.0408
 8093SOL    HW135741   1.241   0.321   1.384  0.5055  0.2351  0.4121
 8093SOL    HW235742   1.154   0.434   1.381 -2.4628 -2.4259  0.3081
 8094SOL     OW35743   1.932   3.984   8.119 -0.4816 -0.2358  0.3962
 8094SOL    HW135744   1.958   4.076   8.123  2.0784 -0.9049 -0.6343
 8094SOL    HW235745   2.017   3.946   8.140  0.0162  0.3655 -0.5367
 8095SOL     OW35746   2.638   3.557   3.277  0.2158 -0.7567  0.2741
 8095SOL    HW135747   2.554   3.578   3.318 -0.0489 -0.9700 -0.1615
 8095SOL    HW235748   2.658   3.640   3.234 -1.1209 -1.4695 -1.7114
 8096SOL     OW35749   1.269   4.374   3.205  0.2060  0.2664 -0.2642
 8096SOL    HW135750   1.202   4.342   3.144  1.8457  0.9371 -2.4160
 8096SOL    HW235751   1.211   4.434   3.252  0.4488  1.6161 -1.6939
 8097SOL     OW35752   0.981   3.528  12.047 -0.5144  0.1724 -0.4415
 8097SOL    HW135753   0.975   3.434  12.032 -0.4241  0.0006  0.6214
 8097SOL    HW235754   1.004   3.547  11.956  2.6456 -0.1587  0.3075
 8098SOL     OW35755   3.656   4.440   1.863 -0.1290 -0.5368 -0.4996
 8098SOL    HW135756   3.635   4.347   1.871 -1.2404 -0.2670 -0.2666
 8098SOL    HW235757   3.751   4.437   1.852  0.1951  2.0149  1.6329
 8099SOL     OW35758   4.414   0.854   5.910 -0.3301  0.3891  0.1341
 8099SOL    HW135759   4.349   0.875   5.977  0.0575 -2.0196  1.2750
 8099SOL    HW235760   4.390   0.923   5.848  0.7322  1.6974  1.2071
 8100SOL     OW35761   2.507   3.734   9.462  0.6300 -0.0500 -0.7110
 8100SOL    HW135762   2.562   3.691   9.528  0.6118  1.6912  0.4207
 8100SOL    HW235763   2.493   3.820   9.500  0.5854 -0.8503  1.0636
 8101SOL     OW35764   2.730   4.611   8.481  0.1832  0.2136 -0.4656
 8101SOL    HW135765   2.810   4.625   8.531  0.0986  2.0936 -0.8651
 8101SOL    HW235766   2.684   4.694   8.495 -0.5914 -0.1347 -0.9075
 8102SOL     OW35767   0.594   0.311   3.567  0.2509 -0.0567 -0.1438
 8102SOL    HW135768   0.635   0.359   3.639  1.4163 -1.0887 -0.1015
 8102SOL    HW235769   0.673   0.293   3.516 -1.4095 -1.0630 -2.3542
 8103SOL     OW35770   3.854   4.386  12.525  0.4284 -0.1588  1.0615
 8103SOL    HW135771   3.869   4.385  12.619  2.5847  0.0091  0.7189
 8103SOL    HW235772   3.939   4.345  12.509 -0.7707 -2.4854  0.5672
 8104SOL     OW35773   0.456   3.096   5.768 -0.2172 -0.1478 -0.2433
 8104SOL    HW135774   0.536   3.098   5.715 -0.4361 -1.4330 -0.6217
 8104SOL    HW235775   0.449   3.001   5.758 -0.3235 -0.1937  0.2651
 8105SOL     OW35776   4.495   2.120   7.856  0.8808  0.4557  0.3447
 8105SOL    HW135777   4.541   2.076   7.927  1.4239  0.8021  0.2065
 8105SOL    HW235778   4.559   2.115   7.785  1.1825 -2.2643  0.8273
 8106SOL     OW35779   2.101   4.364   2.643  0.1061  0.6880  0.3076
 8106SOL    HW135780   2.043   4.440   2.642 -2.0760 -0.9480  2.6866
 8106SOL    HW235781   2.122   4.351   2.550 -2.4465 -0.7882 -0.0746
 8107SOL     OW35782   0.935   1.243   3.988  0.1029 -0.5193  0.7284
 8107SOL    HW135783   0.955   1.301   4.061 -1.8228  0.9645  0.0503
 8107SOL    HW235784   0.931   1.289   3.905  0.0828 -1.8990 -0.0330
 8108SOL     OW35785   1.543   2.791   2.799 -0.2476 -0.2152  0.3082
 8108SOL    HW135786   1.585   2.849   2.736 -0.3841  0.2392  0.6415
 8108SOL    HW235787   1.608   2.791   2.870 -0.2267  0.0287  0.2866
 8109SOL     OW35788   3.222   2.170  17.535  0.3139 -0.0006 -0.4824
 8109SOL    HW135789   3.224   2.143  17.627  0.2652  0.9841 -0.1925
 8109SOL    HW235790   3.159   2.106  17.502 -0.2976 -0.0703  0.7998
 8110SOL     OW35791   3.633   2.377   6.663 -0.6631 -0.1270 -0.3504
 8110SOL    HW135792   3.724   2.394   6.639 -0.3400 -1.3958 -0.0546
 8110SOL    HW235793   3.642   2.417   6.749  0.1886  1.4186 -1.1681
 8111SOL     OW35794   3.571   3.633   5.424 -0.5676  0.0513  0.2228
 8111SOL    HW135795   3.649   3.673   5.384  0.6360 -0.0166  2.5132
 8111SOL    HW235796   3.589   3.539   5.418 -1.8787 -0.1232 -0.9544
 8112SOL     OW35797   0.796   2.098  15.343  0.0951  0.1929  0.0944
 8112SOL    HW135798   0.756   2.089  15.430  2.7619  0.9336  1.4156
 8112SOL    HW235799   0.789   2.005  15.322 -0.0556 -0.0400  1.1698
 8113SOL     OW35800   0.859   3.375   4.331  0.0354  0.4662 -0.3395
 8113SOL    HW135801   0.933   3.403   4.386  0.8319 -0.1277 -1.0966
 8113SOL    HW235802   0.814   3.459   4.326  0.8337  0.8663 -0.8357
 8114SOL     OW35803   3.685   1.873   0.948  0.5592  0.1118 -0.2579
 8114SOL    HW135804   3.649   1.835   0.868 -0.6728 -0.1240  0.4095
 8114SOL    HW235805   3.691   1.793   1.000 -0.9230  0.1770  0.0239
 8115SOL     OW35806   1.153   1.649   6.514  0.4803 -0.4603  0.1216
 8115SOL    HW135807   1.208   1.699   6.574 -0.1401  1.0991 -0.5923
 8115SOL    HW235808   1.091   1.589   6.555  0.6485 -1.6836 -1.4114
 8116SOL     OW35809   4.204   1.581   8.188 -0.7529 -0.2408 -0.1075
 8116SOL    HW135810   4.137   1.533   8.138  1.6277 -1.9965 -1.5997
 8116SOL    HW235811   4.233   1.514   8.250  1.4139  0.0172 -0.8395
 8117SOL     OW35812   2.204   0.573   7.001 -0.1924  0.4933 -0.1691
 8117SOL    HW135813   2.154   0.653   7.017 -1.5623 -0.4657  0.3236
 8117SOL    HW235814   2.294   0.592   7.028 -0.3319  1.2908 -0.2530
 8118SOL     OW35815   4.142   2.307  15.399  0.7331  0.4232 -0.0539
 8118SOL    HW135816   4.139   2.232  15.339  0.2335 -3.1911  4.4250
 8118SOL    HW235817   4.053   2.295  15.434  1.4467 -1.7490  1.0533
 8119SOL     OW35818   2.551   3.891  14.270  0.6226  0.6473 -0.4231
 8119SOL    HW135819   2.497   3.815  14.249  0.8230  0.4519 -0.2386
 8119SOL    HW235820   2.522   3.957  14.208  0.6438  1.4890  0.4613
 8120SOL     OW35821   0.621   2.332   0.487  0.4589  0.0533  0.0653
 8120SOL    HW135822   0.580   2.246   0.488  0.7929 -0.0550  4.6914
 8120SOL    HW235823   0.680   2.327   0.563  0.9688 -1.6243 -0.4472
 8121SOL     OW35824   0.729   0.734  11.803 -0.4447  0.1815  0.7363
 8121SOL    HW135825   0.737   0.640  11.789  0.7054  0.0443  2.4008
 8121SOL    HW235826   0.639   0.723  11.834 -1.1614 -0.4542 -1.5981
 8122SOL     OW35827   1.684   4.115  15.236 -0.1190  0.0796 -0.6177
 8122SOL    HW135828   1.733   4.097  15.316 -1.2597 -1.6468 -0.3320
 8122SOL    HW235829   1.594   4.089  15.253  0.0310 -1.3447 -2.0169
 8123SOL     OW35830   1.078   3.456   1.808  0.1143 -1.0297 -0.2285
 8123SOL    HW135831   1.073   3.367   1.842 -1.8657  0.4095  3.2770
 8123SOL    HW235832   1.133   3.444   1.731  0.3424  0.1457 -0.2467
 8124SOL     OW35833   0.330   2.156   0.436 -0.1497 -0.2965 -0.7703
 8124SOL    HW135834   0.394   2.086   0.450 -0.4209 -0.8795 -2.4614
 8124SOL    HW235835   0.295   2.132   0.350 -1.9975  0.0421 -0.1051
 8125SOL     OW35836   0.072   4.700   4.553 -0.2256  0.1322  0.0318
 8125SOL    HW135837   0.141   4.639   4.580 -0.8045  0.3088  1.9051
 8125SOL    HW235838   0.043   4.657   4.473 -0.4887 -0.0027  0.2004
 8126SOL     OW35839   3.065   1.230   8.403 -0.3817 -0.6769  0.5409
 8126SOL    HW135840   3.053   1.325   8.392 -4.6076 -1.5059 -2.0335
 8126SOL    HW235841   3.155   1.230   8.435  0.5202 -2.8665 -2.0958
 8127SOL     OW35842   0.249   3.662   3.178  0.1138  0.1169 -0.2378
 8127SOL    HW135843   0.169   3.713   3.165 -0.0033 -0.1416 -0.5192
 8127SOL    HW235844   0.272   3.694   3.266 -0.7055 -0.9280  0.3477
 8128SOL     OW35845   1.839   2.940  14.198  0.3473 -0.1088  0.0135
 8128SOL    HW135846   1.908   2.875  14.208 -1.4981 -2.4240 -2.4184
 8128SOL    HW235847   1.764   2.884  14.218 -0.5661  1.7809  1.8275
 8129SOL     OW35848   3.204   2.805   3.988 -0.3939  1.0498 -1.1093
 8129SOL    HW135849   3.163   2.754   3.918  1.0951 -0.3267 -0.9821
 8129SOL    HW235850   3.281   2.759   4.022 -0.2774  1.6149 -0.6071
 8130SOL     OW35851   4.521   0.598   7.261  0.5296 -0.1470  0.0779
 8130SOL    HW135852   4.573   0.632   7.189 -1.5447  0.8103 -0.9835
 8130SOL    HW235853   4.586   0.552   7.315 -0.1838 -0.6500  0.5179
 8131SOL     OW35854   3.720   2.087   5.966 -0.4478 -0.0224  0.0908
 8131SOL    HW135855   3.673   2.019   6.013 -0.4442  0.8620  1.3788
 8131SOL    HW235856   3.710   2.157   6.030  0.6688  1.1146 -0.9717
 8132SOL     OW35857   3.830   2.746   6.815  0.0827 -0.5320 -0.7516
 8132SOL    HW135858   3.920   2.718   6.798 -0.0519 -0.4171 -1.6816
 8132SOL    HW235859   3.789   2.664   6.842 -0.6373  0.0260 -0.1491
 8133SOL     OW35860   3.875   4.552  12.936  0.0526  0.0628 -0.4696
 8133SOL    HW135861   3.796   4.590  12.899  0.8733  0.8569 -1.4177
 8133SOL    HW235862   3.909   4.486  12.875 -0.3560  0.0172 -0.6423
 8134SOL     OW35863   0.481   3.274  14.470 -0.0688  0.0078 -0.2167
 8134SOL    HW135864   0.392   3.243  14.485  0.0105  0.8321  1.9452
 8134SOL    HW235865   0.476   3.355  14.520  0.5923  0.5721 -1.0672
 8135SOL     OW35866   0.797   3.828   2.404 -0.3304  0.0239  0.2708
 8135SOL    HW135867   0.798   3.923   2.394  0.2505 -0.0447 -0.2690
 8135SOL    HW235868   0.794   3.799   2.313  1.4347 -1.5607  0.7129
 8136SOL     OW35869   0.491   1.410   9.912  0.4158 -0.0763 -0.0646
 8136SOL    HW135870   0.511   1.341   9.849  1.5696  1.2877 -1.1979
 8136SOL    HW235871   0.397   1.394   9.913  0.4777 -0.4058  0.5101
 8137SOL     OW35872   3.475   0.744  12.048 -0.7300 -0.2966  1.1731
 8137SOL    HW135873   3.522   0.664  12.021  1.1702  0.9798  0.7239
 8137SOL    HW235874   3.384   0.724  12.027 -0.8410  0.7391  0.7093
 8138SOL     OW35875   3.510   2.128   7.175  0.5393 -0.1999 -0.5465
 8138SOL    HW135876   3.555   2.052   7.212 -0.1622 -0.7020 -0.7112
 8138SOL    HW235877   3.425   2.108   7.215  1.0348  0.7387  0.9945
 8139SOL     OW35878   4.330   2.829  16.339  0.5798  0.9365  0.7550
 8139SOL    HW135879   4.322   2.734  16.342  0.7438  0.8957 -0.1248
 8139SOL    HW235880   4.245   2.855  16.376 -1.3832  0.9244 -3.7746
 8140SOL     OW35881   4.569   3.357   0.338  0.2394  0.1004  0.0706
 8140SOL    HW135882   4.658   3.350   0.304  0.5843  0.7388  0.8574
 8140SOL    HW235883   4.569   3.276   0.389 -0.0336  1.2646  1.9255
 8141SOL     OW35884   0.640   3.189   4.420 -0.2807  0.6103 -0.0003
 8141SOL    HW135885   0.694   3.260   4.386 -1.1480  0.8291 -0.9197
 8141SOL    HW235886   0.565   3.247   4.436  1.1656  2.1444  1.2516
 8142SOL     OW35887   3.857   1.735   4.850 -0.2159  0.1232 -0.5803
 8142SOL    HW135888   3.878   1.822   4.815 -1.1556  0.7474  0.3780
 8142SOL    HW235889   3.907   1.678   4.793 -0.3663  1.5244 -2.1178
 8143SOL     OW35890   0.156   3.834   9.670  0.8031 -0.4925  0.9327
 8143SOL    HW135891   0.238   3.838   9.621  0.6290 -1.7140  0.5374
 8143SOL    HW235892   0.143   3.919   9.711  1.6446 -0.0354  0.2421
 8144SOL     OW35893   2.893   3.642   7.313 -0.1680  0.5748  0.0423
 8144SOL    HW135894   2.845   3.724   7.327 -2.7077 -0.5995 -1.7997
 8144SOL    HW235895   2.874   3.592   7.393  1.0038  1.4255  0.8479
 8145SOL     OW35896   2.396   0.243   5.882 -0.1491 -0.0263 -0.1068
 8145SOL    HW135897   2.340   0.318   5.901  0.1470  0.4516 -1.0951
 8145SOL    HW235898   2.482   0.275   5.909 -0.0757 -0.8155  0.5910
 8146SOL     OW35899   4.632   0.772   6.037 -0.1474  0.1650  0.4402
 8146SOL    HW135900   4.585   0.772   6.120  0.1397  1.1476  0.6062
 8146SOL    HW235901   4.561   0.804   5.983 -1.5020 -1.8923  1.0154
 8147SOL     OW35902   3.760   3.599  10.614 -0.5769  0.2911  0.8041
 8147SOL    HW135903   3.802   3.678  10.579 -1.1802  1.1074  1.8933
 8147SOL    HW235904   3.730   3.621  10.702 -1.5821 -2.6443  1.1686
 8148SOL     OW35905   2.253   0.425   1.896 -0.1753  0.3662  0.5457
 8148SOL    HW135906   2.212   0.475   1.967 -0.4115 -1.2960  1.5811
 8148SOL    HW235907   2.345   0.449   1.903 -0.2281  0.6542  0.2217
 8149SOL     OW35908   3.309   2.793   8.605  0.1371  0.6396 -0.2495
 8149SOL    HW135909   3.336   2.723   8.664 -2.3043  0.6023  0.8174
 8149SOL    HW235910   3.259   2.845   8.667  1.0085  1.5381 -0.2973
 8150SOL     OW35911   4.170   2.675   1.126  0.2269  0.6188 -0.6776
 8150SOL    HW135912   4.244   2.671   1.064 -0.4851  1.6661 -1.5906
 8150SOL    HW235913   4.209   2.710   1.206 -1.6288  2.8902 -0.7791
 8151SOL     OW35914   0.703   2.526  10.432 -0.3776  0.4809 -0.0242
 8151SOL    HW135915   0.779   2.542  10.488  0.1148  1.1088 -0.8618
 8151SOL    HW235916   0.703   2.431  10.437 -0.8829  0.6001  2.0171
 8152SOL     OW35917   2.257   1.965  17.075 -0.1457 -0.4877 -0.0614
 8152SOL    HW135918   2.338   1.999  17.114  0.5644 -2.0378 -0.1808
 8152SOL    HW235919   2.251   2.010  16.991  1.4913  1.4941  0.8808
 8153SOL     OW35920   3.142   0.544   6.371 -0.4882 -0.1732  0.1259
 8153SOL    HW135921   3.193   0.609   6.323  0.8938 -0.7516  0.8028
 8153SOL    HW235922   3.214   0.500   6.416 -1.5520 -0.6149  1.4226
 8154SOL     OW35923   1.918   1.449   6.767 -0.1566 -0.2972  0.0651
 8154SOL    HW135924   1.879   1.400   6.696 -0.4900 -2.1633  1.5273
 8154SOL    HW235925   1.987   1.389   6.795 -1.4917 -1.7384  0.2412
 8155SOL     OW35926   2.219   2.919   3.846  0.4045  0.0386  0.3151
 8155SOL    HW135927   2.252   2.851   3.904 -1.9017 -1.5100 -0.2141
 8155SOL    HW235928   2.171   2.972   3.909  0.5140 -1.3491  1.5512
 8156SOL     OW35929   1.270   0.143   4.678 -0.2141  0.8444  0.8864
 8156SOL    HW135930   1.241   0.200   4.606  1.0238  2.1911  1.4483
 8156SOL    HW235931   1.311   0.198   4.745 -0.0025  0.3914  1.1275
 8157SOL     OW35932   0.435   0.039  17.531 -0.3812  0.3948 -0.2494
 8157SOL    HW135933   0.345   0.046  17.498 -0.4385  0.2553 -0.1184
 8157SOL    HW235934   0.430   0.046  17.626 -0.4700  3.1850 -0.4384
 8158SOL     OW35935   0.088   1.333   3.261  0.0045 -0.0434 -0.0644
 8158SOL    HW135936   0.039   1.254   3.282 -0.0703 -0.1835 -0.7871
 8158SOL    HW235937   0.068   1.324   3.168  0.0348  1.4463 -0.2232
 8159SOL     OW35938   3.016   3.847   7.112 -0.4505  0.3113 -0.0430
 8159SOL    HW135939   3.071   3.776   7.078  0.5034  0.6451  0.8136
 8159SOL    HW235940   2.946   3.790   7.144  0.7410 -1.6624 -0.9691
 8160SOL     OW35941   2.997   3.693   2.722  0.0768 -0.4207  0.0231
 8160SOL    HW135942   2.943   3.744   2.782  0.6789  0.1163  0.0961
 8160SOL    HW235943   2.947   3.612   2.709 -0.3024 -0.1750 -0.0345
 8161SOL     OW35944   3.272   0.994  10.859 -0.2693  0.1008 -0.1398
 8161SOL    HW135945   3.223   1.019  10.938 -0.7569  0.6925 -0.6256
 8161SOL    HW235946   3.313   1.074  10.826 -2.1279  0.1598 -2.3422
 8162SOL     OW35947   1.708   4.163   1.307 -0.2554  0.1854 -0.1235
 8162SOL    HW135948   1.714   4.249   1.264  0.8779  1.7181  3.0713
 8162SOL    HW235949   1.751   4.120   1.233 -0.2968  0.2776 -0.2011
 8163SOL     OW35950   2.390   2.467   8.124 -0.2993 -0.3836  0.2506
 8163SOL    HW135951   2.336   2.390   8.108 -1.7077  0.4804  0.8545
 8163SOL    HW235952   2.351   2.522   8.056  0.3188 -1.4842 -0.9769
 8164SOL     OW35953   4.352   2.591   3.973 -0.0006 -0.1807  0.0090
 8164SOL    HW135954   4.431   2.629   3.935 -0.3068 -0.3093 -0.7556
 8164SOL    HW235955   4.393   2.508   3.998  1.8811  1.2416  1.6886
 8165SOL     OW35956   0.914   1.097   8.214  0.2394 -0.2666  0.0354
 8165SOL    HW135957   0.963   1.039   8.273 -0.1566  0.0358  0.6591
 8165SOL    HW235958   0.973   1.143   8.154 -0.6071 -0.4313 -0.9283
 8166SOL     OW35959   3.639   0.904   3.321  0.6861 -0.0476 -0.1411
 8166SOL    HW135960   3.567   0.934   3.376 -0.8577 -0.6581 -1.8314
 8166SOL    HW235961   3.690   0.985   3.327  2.7433 -1.1952 -2.0682
 8167SOL     OW35962   4.578   1.477  14.298  0.2585  0.7313 -0.1251
 8167SOL    HW135963   4.582   1.558  14.348 -1.4979  0.3008  0.7282
 8167SOL    HW235964   4.557   1.497  14.207 -0.6147 -0.0672 -0.0990
 8168SOL     OW35965   0.113   0.937   9.157 -0.1650  0.2585 -0.0790
 8168SOL    HW135966   0.120   1.024   9.196  1.5370 -0.2343  0.7121
 8168SOL    HW235967   0.049   0.899   9.216  0.7347 -0.1367  0.6394
 8169SOL     OW35968   2.516   4.283   7.655 -0.0197  0.0500 -0.2811
 8169SOL    HW135969   2.546   4.257   7.568  0.0378 -0.8115 -0.0059
 8169SOL    HW235970   2.532   4.378   7.654 -0.9327  0.2403  2.4297
 8170SOL     OW35971   1.492   2.572   6.568 -0.0240  0.4920  0.1027
 8170SOL    HW135972   1.577   2.567   6.613  1.2082 -2.5605 -2.5893
 8170SOL    HW235973   1.433   2.517   6.620  0.5706 -0.5511 -0.3314
 8171SOL     OW35974   3.809   1.937  15.501  0.2412 -0.2236 -0.2733
 8171SOL    HW135975   3.763   2.020  15.491  2.2491  0.8431 -0.5467
 8171SOL    HW235976   3.875   1.951  15.434  0.2906  0.2804 -0.1133
 8172SOL     OW35977   1.867   1.131   6.038  0.2609 -0.7812  0.1821
 8172SOL    HW135978   1.824   1.125   6.123  0.4362 -1.2660  0.2348
 8172SOL    HW235979   1.806   1.196   6.004  0.3020  0.3655  2.3013
 8173SOL     OW35980   0.146   1.480   7.468 -0.1051 -0.5051 -0.3412
 8173SOL    HW135981   0.216   1.421   7.496 -1.2769 -1.5919  0.3199
 8173SOL    HW235982   0.161   1.505   7.377 -2.7339 -0.2154 -0.6933
 8174SOL     OW35983   2.335   2.573   5.113 -0.6850  0.4360 -0.1116
 8174SOL    HW135984   2.400   2.518   5.070  0.6190  2.4932 -0.7418
 8174SOL    HW235985   2.288   2.605   5.036 -2.4408 -0.4520  0.5913
 8175SOL     OW35986   2.481   2.478   9.556 -0.0278  0.1496 -0.0145
 8175SOL    HW135987   2.500   2.481   9.650  1.0010  3.6042 -0.3178
 8175SOL    HW235988   2.572   2.475   9.524 -0.5642 -1.1827 -1.4109
 8176SOL     OW35989   1.828   0.919   2.568 -0.5099 -0.4723  0.1160
 8176SOL    HW135990   1.739   0.953   2.562 -0.7780 -1.4266 -1.3573
 8176SOL    HW235991   1.881   0.998   2.570 -3.6965  1.6078  0.7949
 8177SOL     OW35992   0.187   4.233  17.148 -0.2689 -0.3836 -0.2313
 8177SOL    HW135993   0.240   4.251  17.070 -0.1223 -0.4964 -0.1569
 8177SOL    HW235994   0.225   4.150  17.178 -1.0574 -1.2151 -1.5535
 8178SOL     OW35995   2.101   4.653  17.394  0.2068  0.2632 -0.1273
 8178SOL    HW135996   2.096   4.621  17.304  0.5717 -1.5135  0.4976
 8178SOL    HW235997   2.169   4.602  17.438  0.3721 -1.3793 -2.2657
 8179SOL     OW35998   3.080   0.436   2.122  0.0394  0.0443  0.1699
 8179SOL    HW135999   3.050   0.523   2.097  1.9323  1.0409  1.3448
 8179SOL    HW236000   3.173   0.457   2.120 -0.0230  0.2401 -0.6388
 8180SOL     OW36001   4.230   0.066   6.721  0.7366  0.4152 -0.0785
 8180SOL    HW136002   4.282   0.140   6.687  0.2500  1.2381  0.9793
 8180SOL    HW236003   4.182   0.042   6.642 -1.2063  0.6745  1.0289
 8181SOL     OW36004   0.320   1.897   2.185  0.1270  0.1501  0.1141
 8181SOL    HW136005   0.349   1.810   2.214 -0.8142  0.2939  1.4790
 8181SOL    HW236006   0.331   1.948   2.264 -1.6351  0.7207 -0.0127
 8182SOL     OW36007   1.331   1.698  12.830  0.1475 -0.0108  0.1553
 8182SOL    HW136008   1.398   1.757  12.866 -0.7491  1.1644 -0.0774
 8182SOL    HW236009   1.258   1.715  12.890 -0.3629 -1.4995 -0.0511
 8183SOL     OW36010   0.087   2.826   4.144 -0.1999  0.1341  0.3516
 8183SOL    HW136011   0.065   2.758   4.080  1.9574  0.6625 -0.9544
 8183SOL    HW236012   0.181   2.827   4.125 -0.5444  2.0673 -1.2270
 8184SOL     OW36013   2.522   2.277   5.819 -0.4664  0.2207 -0.5134
 8184SOL    HW136014   2.439   2.248   5.781 -1.0614  2.5854 -1.0107
 8184SOL    HW236015   2.582   2.220   5.771 -0.0263 -0.9988  1.5135
 8185SOL     OW36016   0.832   2.161   6.312 -0.4837  0.6375  0.1027
 8185SOL    HW136017   0.820   2.190   6.222  1.6049 -3.1630 -1.4086
 8185SOL    HW236018   0.894   2.226   6.344 -1.2885  1.3586  0.1795
 8186SOL     OW36019   1.972   0.390   3.728 -0.1772  0.3162  0.0919
 8186SOL    HW136020   1.944   0.318   3.784 -2.7657  0.1692 -1.3845
 8186SOL    HW236021   2.045   0.429   3.776  1.4551 -1.3290 -1.0641
 8187SOL     OW36022   2.291   3.794  12.881  0.0954 -0.1414 -0.2539
 8187SOL    HW136023   2.302   3.699  12.877 -0.4110 -0.1898 -0.5316
 8187SOL    HW236024   2.274   3.795  12.975  0.2184 -0.8287 -0.2238
 8188SOL     OW36025   2.271   4.142   7.874  0.2172 -0.2639  0.1786
 8188SOL    HW136026   2.364   4.134   7.853 -0.5746 -1.4580 -2.9640
 8188SOL    HW236027   2.246   4.055   7.841  1.4793 -1.7006  3.0698
 8189SOL     OW36028   3.553   2.357   0.900 -0.1891 -0.4741 -0.7587
 8189SOL    HW136029   3.567   2.310   0.982  1.9481  3.9170  1.4219
 8189SOL    HW236030   3.560   2.283   0.840  0.6728 -1.4646  0.5688
 8190SOL     OW36031   3.148   2.119  15.568  0.5326  0.1171  0.5937
 8190SOL    HW136032   3.076   2.059  15.588  0.5274  0.7512  2.4253
 8190SOL    HW236033   3.195   2.058  15.511  1.6456  1.8122 -0.3030
 8191SOL     OW36034   2.649   4.483   0.702  0.0953  0.4868  0.4139
 8191SOL    HW136035   2.720   4.539   0.737 -0.0470  0.2607  1.0646
 8191SOL    HW236036   2.709   4.429   0.651 -0.7886  0.3194 -0.4367
 8192SOL     OW36037   4.640   0.669   8.361  0.4167 -0.7253 -0.1624
 8192SOL    HW136038   4.562   0.620   8.389  0.4201 -1.5669 -1.6167
 8192SOL    HW236039   4.620   0.687   8.269  1.5198  1.4985  0.0293
 8193SOL     OW36040   1.404   1.698   2.216 -0.4932  0.3886  0.7207
 8193SOL    HW136041   1.378   1.740   2.134  0.3976  1.5166  1.0122
 8193SOL    HW236042   1.474   1.757   2.243  0.8706 -0.7648 -0.2908
 8194SOL     OW36043   0.521   1.778   2.349  0.5371  0.6732 -0.2288
 8194SOL    HW136044   0.478   1.826   2.419  0.2491 -1.9812  1.4282
 8194SOL    HW236045   0.467   1.699   2.349 -0.1328  1.1234  0.9650
 8195SOL     OW36046   1.352   4.530   5.356 -0.5166  0.1717  0.2824
 8195SOL    HW136047   1.412   4.603   5.341 -1.1930  0.3904 -1.4547
 8195SOL    HW236048   1.280   4.568   5.406 -1.7202  2.4561 -3.1639
 8196SOL     OW36049   3.668   1.567   2.150  0.8398 -0.1544 -0.1402
 8196SOL    HW136050   3.695   1.598   2.236 -2.2300  1.4605  0.2139
 8196SOL    HW236051   3.727   1.607   2.085 -1.5651  2.7893 -0.5162
 8197SOL     OW36052   3.688   4.281   9.096 -0.0345 -0.0510 -0.0291
 8197SOL    HW136053   3.771   4.234   9.107 -0.6888 -0.5873  2.6269
 8197SOL    HW236054   3.623   4.210   9.100 -0.6893  0.6691  2.2839
 8198SOL     OW36055   3.021   0.538   6.785 -0.5085  0.6660 -0.7386
 8198SOL    HW136056   3.113   0.515   6.798 -0.8791 -0.1476  0.4408
 8198SOL    HW236057   2.986   0.524   6.872 -0.6996 -1.0962 -1.0911
 8199SOL     OW36058   1.726   0.134  10.023 -0.6062  0.4002  1.0438
 8199SOL    HW136059   1.783   0.202   9.987  0.6633 -0.2454  1.8319
 8199SOL    HW236060   1.652   0.136   9.963  1.0673 -0.7916 -1.0328
 8200SOL     OW36061   4.165   4.349   7.367 -0.3470 -0.1966 -0.2593
 8200SOL    HW136062   4.183   4.321   7.277 -1.2822 -0.3603 -0.3885
 8200SOL    HW236063   4.209   4.435   7.364  1.6112 -1.1336  1.4030
 8201SOL     OW36064   0.701   0.589   3.407  0.7425 -0.2218  0.2295
 8201SOL    HW136065   0.621   0.589   3.458  0.3138  0.2883 -0.4393
 8201SOL    HW236066   0.755   0.520   3.447  0.6332 -1.0051 -0.9566
 8202SOL     OW36067   1.271   0.208   3.930 -0.5390 -0.3953 -0.3826
 8202SOL    HW136068   1.297   0.190   4.020 -0.7491 -0.5439 -0.3502
 8202SOL    HW236069   1.296   0.132   3.878 -0.0604  0.4598 -1.4141
 8203SOL     OW36070   3.019   3.624   5.678  0.2699  0.3735  0.0730
 8203SOL    HW136071   3.024   3.598   5.770  0.1888 -1.6164 -0.4830
 8203SOL    HW236072   3.088   3.569   5.642 -0.7891  0.4369 -2.0619
 8204SOL     OW36073   1.946   3.032   4.402  0.2944  0.3565 -0.5474
 8204SOL    HW136074   1.894   3.007   4.326 -0.6690  1.1632 -0.1537
 8204SOL    HW236075   1.950   3.126   4.383  0.9732  0.0893 -1.6790
 8205SOL     OW36076   2.192   2.689   1.852 -0.8080  0.9200  0.6425
 8205SOL    HW136077   2.113   2.660   1.805 -1.3717 -0.2599  2.3015
 8205SOL    HW236078   2.243   2.745   1.794 -1.2101  0.7477  0.1179
 8206SOL     OW36079   3.155   4.282   6.151  0.2891 -0.0323  0.1233
 8206SOL    HW136080   3.110   4.353   6.104 -0.2525  0.1682  0.9502
 8206SOL    HW236081   3.083   4.238   6.196 -1.3290  2.1870 -0.2936
 8207SOL     OW36082   0.836   1.459   9.650 -0.2166 -0.3050 -0.1770
 8207SOL    HW136083   0.751   1.431   9.616  1.1773 -2.0636 -2.2125
 8207SOL    HW236084   0.892   1.407   9.592  1.3816  2.0491 -0.7424
 8208SOL     OW36085   3.248   3.954  17.363 -0.6499  0.1812 -0.2032
 8208SOL    HW136086   3.304   3.931  17.289  0.4234  1.6681  0.1615
 8208SOL    HW236087   3.187   4.014  17.319 -1.3396 -0.3921 -0.0284
 8209SOL     OW36088   1.001   2.465   5.938  0.7929  0.4010 -0.1419
 8209SOL    HW136089   0.973   2.429   5.854  0.8266 -1.3077  0.5780
 8209SOL    HW236090   1.017   2.385   5.988  0.5168  0.3217 -0.1808
 8210SOL     OW36091   0.845   0.441   3.066 -0.2581 -0.7826  0.1184
 8210SOL    HW136092   0.853   0.350   3.093  0.1001 -0.8149 -0.1017
 8210SOL    HW236093   0.914   0.488   3.113 -0.1839 -0.6839 -0.0864
 8211SOL     OW36094   2.766   0.148  17.510 -0.6355 -0.5445 -0.0534
 8211SOL    HW136095   2.749   0.222  17.452 -1.0960  0.4156  1.3095
 8211SOL    HW236096   2.835   0.182  17.567 -2.9411  2.4295  0.9539
 8212SOL     OW36097   2.188   3.641   2.237  0.0513 -0.1488  0.7513
 8212SOL    HW136098   2.281   3.640   2.217 -0.0925  0.2146  0.0690
 8212SOL    HW236099   2.181   3.715   2.297  2.4026 -0.0103  0.8421
 8213SOL     OW36100   3.424   4.041   2.320  0.0108  0.0764  0.6435
 8213SOL    HW136101   3.493   3.990   2.362 -1.2903 -0.9694  1.5387
 8213SOL    HW236102   3.444   4.041   2.227 -0.1897 -1.1824  0.5943
 8214SOL     OW36103   0.919   2.506   7.219 -0.4132 -0.0724  0.6540
 8214SOL    HW136104   0.857   2.556   7.271 -0.2392 -0.6836  1.4370
 8214SOL    HW236105   0.867   2.446   7.165  1.0304  0.8109 -1.7230
 8215SOL     OW36106   4.659   2.048   7.652  0.0860 -0.0644 -0.1210
 8215SOL    HW136107   4.639   2.073   7.562  0.3590  0.7191  0.0288
 8215SOL    HW236108   4.633   1.956   7.654  0.7419 -0.1936  2.8218
 8216SOL     OW36109   1.924   3.237  13.271  0.3626  0.2841  0.3598
 8216SOL    HW136110   1.843   3.243  13.220  1.3020 -0.3728 -1.1755
 8216SOL    HW236111   1.887   3.245  13.359 -0.1246 -1.6343  0.3195
 8217SOL     OW36112   3.178   3.865   8.402 -0.4381 -0.3373 -0.6188
 8217SOL    HW136113   3.091   3.898   8.380 -0.5744  0.2911  0.8381
 8217SOL    HW236114   3.189   3.794   8.339  0.1580  0.0434 -0.9407
 8218SOL     OW36115   2.837   4.350  12.663  0.4965  0.1525 -0.2240
 8218SOL    HW136116   2.778   4.305  12.723 -0.5182  3.6849  1.4482
 8218SOL    HW236117   2.771   4.405  12.619  0.0963  1.7520  2.3774
 8219SOL     OW36118   0.205   2.248   5.225  0.1937 -0.0398 -0.0648
 8219SOL    HW136119   0.226   2.334   5.261 -1.4477  1.3589 -2.5025
 8219SOL    HW236120   0.127   2.219   5.272  0.6317  2.5865  2.2072
 8220SOL     OW36121   0.814   3.679   8.719  0.1309  0.1424 -0.1655
 8220SOL    HW136122   0.880   3.660   8.785 -0.4412  0.1709  0.4152
 8220SOL    HW236123   0.789   3.591   8.690  1.4024 -0.7659  1.5358
 8221SOL     OW36124   1.661   4.205   5.899  0.2852 -0.1404  0.2393
 8221SOL    HW136125   1.714   4.246   5.831  1.4747 -2.3552 -0.1651
 8221SOL    HW236126   1.727   4.140   5.922 -0.9573 -2.1220 -1.7489
 8222SOL     OW36127   1.380   3.429   2.393  0.1739  0.4468  0.7834
 8222SOL    HW136128   1.379   3.334   2.408  1.7818  0.2511 -0.2539
 8222SOL    HW236129   1.464   3.450   2.434  0.5571  1.1100 -0.3622
 8223SOL     OW36130   2.326   0.216  11.088 -0.0704  0.4447  0.0484
 8223SOL    HW136131   2.305   0.142  11.032  0.7348 -0.9600  1.6048
 8223SOL    HW236132   2.237   0.250  11.090 -0.4661 -0.5718 -0.3716
 8224SOL     OW36133   4.584   0.702   2.377 -0.2671 -0.1853  0.2790
 8224SOL    HW136134   4.669   0.731   2.343  0.6260  1.4443  3.8899
 8224SOL    HW236135   4.545   0.650   2.307 -0.2379  0.0007  0.1240
 8225SOL     OW36136   2.205   4.103   4.618  0.0047 -0.1671 -0.0116
 8225SOL    HW136137   2.205   4.086   4.523 -1.0756  0.1979 -0.0764
 8225SOL    HW236138   2.187   4.013   4.647  1.0178 -0.1281  0.7499
 8226SOL     OW36139   0.747   2.198  16.282  0.5622 -0.3695  0.0421
 8226SOL    HW136140   0.652   2.187  16.286  0.5866 -0.5489  0.1476
 8226SOL    HW236141   0.772   2.261  16.350 -1.7711  0.3403  0.2530
 8227SOL     OW36142   4.159   3.667   3.953 -0.2571 -0.2048  0.1183
 8227SOL    HW136143   4.254   3.681   3.956 -0.1560 -0.7426 -0.7774
 8227SOL    HW236144   4.154   3.578   3.989 -1.1688 -0.6776 -1.1935
 8228SOL     OW36145   4.203   1.434   4.178 -1.0944  0.3210  0.4196
 8228SOL    HW136146   4.247   1.409   4.097  0.8382  1.8340  1.0076
 8228SOL    HW236147   4.181   1.525   4.156 -1.4715  0.7208  2.4011
 8229SOL     OW36148   0.423   2.163   5.462  0.3274 -0.4866 -0.6413
 8229SOL    HW136149   0.484   2.089   5.455  0.3258 -0.4395 -1.1576
 8229SOL    HW236150   0.430   2.192   5.553  2.3884 -0.5524 -0.7731
 8230SOL     OW36151   4.610   1.112   5.546  0.0706  0.2511 -0.1263
 8230SOL    HW136152   4.674   1.096   5.616  0.0486 -0.7323 -0.3351
 8230SOL    HW236153   4.558   1.034   5.529  0.5713  0.1285 -1.0909
 8231SOL     OW36154   3.266   3.207   8.290 -0.0790 -0.1333 -0.0747
 8231SOL    HW136155   3.288   3.299   8.303  0.2862 -0.4699  1.6275
 8231SOL    HW236156   3.190   3.207   8.231 -2.6910  2.4931  3.3007
 8232SOL     OW36157   2.347   3.941  13.140  0.1874  0.1322  0.2992
 8232SOL    HW136158   2.392   4.005  13.085  0.2471  1.4315  1.8944
 8232SOL    HW236159   2.408   3.912  13.207 -0.2613 -1.1814  0.1397
 8233SOL     OW36160   3.700   0.581   5.630  0.3130  0.1546 -0.3078
 8233SOL    HW136161   3.646   0.604   5.554 -1.4887  3.9425  2.0889
 8233SOL    HW236162   3.760   0.520   5.588 -1.0706 -0.7473 -0.9744
 8234SOL     OW36163   4.618   0.190   1.319 -0.2532 -0.3360 -0.0741
 8234SOL    HW136164   4.541   0.240   1.346  0.6761  0.3501  1.3345
 8234SOL    HW236165   4.585   0.135   1.248  0.4354  0.4340 -0.9834
 8235SOL     OW36166   3.415   1.021   6.150  0.2891 -0.5782  0.2380
 8235SOL    HW136167   3.370   0.971   6.218 -1.4362  0.1908 -0.3577
 8235SOL    HW236168   3.425   0.954   6.082  3.6881  0.4456 -0.2730
 8236SOL     OW36169   4.405   0.744   0.914 -1.0876  0.0926 -0.1288
 8236SOL    HW136170   4.404   0.648   0.906 -0.2642  0.0972 -0.3157
 8236SOL    HW236171   4.469   0.762   0.845 -0.9884 -0.8486 -0.2880
 8237SOL     OW36172   4.454   1.758   5.192 -0.4391  0.1031  0.2648
 8237SOL    HW136173   4.425   1.668   5.199 -0.0843  0.0804  1.4617
 8237SOL    HW236174   4.415   1.801   5.269 -2.0344  1.3362 -1.2349
 8238SOL     OW36175   4.533   4.719   5.870  0.0908  0.4174  0.0534
 8238SOL    HW136176   4.538   4.643   5.813  1.4447 -1.0046  2.0996
 8238SOL    HW236177   4.512   0.062   5.805  2.0677  1.3715  0.4230
 8239SOL     OW36178   4.154   3.754  12.427  0.2935  0.4895  0.0204
 8239SOL    HW136179   4.182   3.665  12.446 -2.5048 -0.7487 -1.7558
 8239SOL    HW236180   4.091   3.729  12.360 -0.4354 -1.7415  1.5520
 8240SOL     OW36181   4.593   2.202   6.724  0.0880 -0.8710  0.1952
 8240SOL    HW136182   4.543   2.137   6.775 -0.3693 -0.2465  0.5424
 8240SOL    HW236183   4.663   2.150   6.686  0.4622 -0.0340 -0.2553
 8241SOL     OW36184   0.248   2.713   2.529 -0.5597 -0.0939 -0.0722
 8241SOL    HW136185   0.196   2.783   2.489  0.3870  0.2252 -0.7612
 8241SOL    HW236186   0.195   2.697   2.606 -1.6066  0.5096 -0.6694
 8242SOL     OW36187   3.441   4.719  14.372  0.0084 -0.3196 -0.3765
 8242SOL    HW136188   3.513   4.666  14.339 -1.2229 -2.1997 -0.0072
 8242SOL    HW236189   3.391   4.665  14.433  0.4065 -1.9487 -1.5032
 8243SOL     OW36190   3.611   0.362  13.588 -0.0569  0.2476 -0.2964
 8243SOL    HW136191   3.585   0.287  13.642 -2.9212  0.9139 -0.7676
 8243SOL    HW236192   3.705   0.363  13.566  0.6622  0.3436  2.7273
 8244SOL     OW36193   1.093   1.332   8.582 -0.4725  0.6091 -0.5416
 8244SOL    HW136194   1.127   1.410   8.625  2.1954 -0.1221 -1.3071
 8244SOL    HW236195   1.014   1.360   8.535 -1.4855 -0.5409  0.5033
 8245SOL     OW36196   3.472   3.291   9.160 -0.3980  0.0477 -0.0650
 8245SOL    HW136197   3.448   3.201   9.181 -0.2053 -0.6077 -2.7300
 8245SOL    HW236198   3.557   3.297   9.205  0.5849  0.4022 -1.9918
 8246SOL     OW36199   3.320   3.499   0.417 -0.3993 -0.2796 -0.6952
 8246SOL    HW136200   3.327   3.582   0.464 -0.0212 -0.4981 -0.3713
 8246SOL    HW236201   3.264   3.450   0.477  2.1762  0.3567  2.1813
 8247SOL     OW36202   1.496   2.321   7.031 -0.7338  0.2359 -0.1361
 8247SOL    HW136203   1.563   2.368   6.982 -0.4711 -1.8187 -1.7562
 8247SOL    HW236204   1.542   2.237   7.040  0.1706  0.7712  0.3227
 8248SOL     OW36205   4.239   4.615   1.980  0.2216 -0.2659 -0.1583
 8248SOL    HW136206   4.313   4.596   2.038 -0.1689  0.2355  0.5027
 8248SOL    HW236207   4.275   4.678   1.918  0.4088  0.1146  0.3333
 8249SOL     OW36208   3.498   1.536   6.786 -0.4186 -0.4080  0.2053
 8249SOL    HW136209   3.594   1.530   6.787 -0.4445 -0.6230  1.5803
 8249SOL    HW236210   3.479   1.443   6.803  0.2708 -0.5664  0.1282
 8250SOL     OW36211   0.845   4.714   4.902  0.1377 -0.3016  0.9216
 8250SOL    HW136212   0.781   0.022   4.838  0.9199  3.1841  1.9436
 8250SOL    HW236213   0.803   0.013   4.985 -1.1412  1.7055 -0.2930
 8251SOL     OW36214   1.859   1.643  14.876 -0.4152 -0.3729 -0.2129
 8251SOL    HW136215   1.938   1.665  14.925 -0.0595  1.6408 -1.7146
 8251SOL    HW236216   1.874   1.678  14.788  0.5706 -0.5595 -0.1205
 8252SOL     OW36217   1.600   1.887   4.439 -0.3369  0.1220  0.0549
 8252SOL    HW136218   1.652   1.871   4.360  2.1256 -0.0798  1.7192
 8252SOL    HW236219   1.666   1.855   4.500  0.1168  1.9103  0.4812
 8253SOL     OW36220   1.746   1.229   3.121 -0.3533  0.1253 -0.1402
 8253SOL    HW136221   1.667   1.255   3.170 -1.1980 -0.0933 -1.4025
 8253SOL    HW236222   1.723   1.151   3.070 -0.7056  1.7563 -2.4702
 8254SOL     OW36223   0.892   3.177  17.651 -0.0251 -0.2930 -0.3044
 8254SOL    HW136224   0.897   3.266  17.616 -0.3595 -0.4389 -0.7159
 8254SOL    HW236225   0.849   3.201   0.035  0.5949  2.0690 -0.6602
 8255SOL     OW36226   0.487   1.098   3.874  1.0040  0.0642  0.7383
 8255SOL    HW136227   0.436   1.103   3.792  0.6648 -2.4647  0.7950
 8255SOL    HW236228   0.489   1.003   3.885 -2.0210 -0.1515 -0.4131
 8256SOL     OW36229   2.599   2.540   5.031 -0.1093 -0.2648  0.3344
 8256SOL    HW136230   2.584   2.633   5.016  0.6327 -0.4325 -1.4524
 8256SOL    HW236231   2.671   2.523   4.970 -1.3855 -0.8468 -1.0179
 8257SOL     OW36232   2.119   1.916   7.117 -0.8794  0.1796  0.4867
 8257SOL    HW136233   2.089   1.841   7.066  0.1440  0.6073 -0.7396
 8257SOL    HW236234   2.111   1.983   7.050 -1.3906  2.0638  2.4131
 8258SOL     OW36235   3.718   3.454   7.558 -0.5602 -0.4183 -0.4495
 8258SOL    HW136236   3.795   3.507   7.540 -0.8741 -0.4990 -2.0797
 8258SOL    HW236237   3.743   3.371   7.597 -1.2989  1.1873  3.4224
 8259SOL     OW36238   1.561   0.845   7.419 -0.6760 -0.1532 -0.5686
 8259SOL    HW136239   1.599   0.865   7.505 -1.0157  0.9818 -0.6935
 8259SOL    HW236240   1.573   0.750   7.408  0.2528 -0.0277 -0.6722
 8260SOL     OW36241   2.753   4.585   7.440 -0.1528 -0.0075 -0.4262
 8260SOL    HW136242   2.771   4.492   7.427  1.9917  0.3983 -0.3450
 8260SOL    HW236243   2.692   4.584   7.513  1.3253 -2.1647  0.7700
 8261SOL     OW36244   0.537   0.629   3.878  0.7336  0.2053  0.1397
 8261SOL    HW136245   0.461   0.598   3.829  1.1286 -0.8791  0.2068
 8261SOL    HW236246   0.579   0.686   3.812  1.8246  0.3703  0.9714
 8262SOL     OW36247   2.276   2.612   6.115  0.4243 -0.1411  0.2040
 8262SOL    HW136248   2.300   2.632   6.024 -0.7166  0.1553 -0.0385
 8262SOL    HW236249   2.307   2.690   6.161  2.3202 -2.3667  2.6392
 8263SOL     OW36250   2.810   0.035   7.800  0.6585 -0.0973  0.0836
 8263SOL    HW136251   2.726   4.716   7.782  0.3901 -0.1413  1.4257
 8263SOL    HW236252   2.801   0.123   7.764  1.6235  0.2753  0.7592
 8264SOL     OW36253   1.089   0.799  12.655 -0.5508  0.0283  0.3312
 8264SOL    HW136254   1.090   0.706  12.630  0.8191  0.7914 -2.5398
 8264SOL    HW236255   1.102   0.790  12.749 -3.4510  2.1900  0.9429
 8265SOL     OW36256   1.234   0.635   4.123  0.5569  0.2323  0.2988
 8265SOL    HW136257   1.216   0.629   4.029  0.9817  1.6069  0.1386
 8265SOL    HW236258   1.150   0.660   4.160 -0.0548 -0.4223 -0.6521
 8266SOL     OW36259   1.844   3.834   7.199  0.5636 -0.1129  0.2403
 8266SOL    HW136260   1.865   3.751   7.155 -1.8180  0.6685 -2.3364
 8266SOL    HW236261   1.928   3.874   7.223  0.4106  1.0204 -1.1356
 8267SOL     OW36262   4.578   2.948   8.808  0.3501  0.5531  0.2353
 8267SOL    HW136263   4.667   2.965   8.837  0.5194 -0.1278  0.1292
 8267SOL    HW236264   4.594   2.895   8.730 -1.2952 -0.0590  0.3058
 8268SOL     OW36265   4.431   2.707   4.839 -0.1399 -0.0462  0.0753
 8268SOL    HW136266   4.486   2.692   4.762 -0.0171  1.7907 -0.2065
 8268SOL    HW236267   4.399   2.794   4.815  1.8092  0.6315 -0.1321
 8269SOL     OW36268   2.188   3.732   6.798 -0.0300  0.3187  0.7547
 8269SOL    HW136269   2.190   3.668   6.869 -1.8410  0.2372  0.7331
 8269SOL    HW236270   2.198   3.812   6.849 -0.5365  1.7990 -1.4219
 8270SOL     OW36271   0.651   2.529   8.333 -0.0523  0.5600  0.5551
 8270SOL    HW136272   0.707   2.470   8.385 -0.0541 -0.6869 -0.8706
 8270SOL    HW236273   0.575   2.473   8.320  0.6224 -0.7185  2.0450
 8271SOL     OW36274   0.267   3.176   1.534  0.2256 -0.1856  0.1882
 8271SOL    HW136275   0.315   3.095   1.520  0.2632  0.1383 -1.5744
 8271SOL    HW236276   0.297   3.227   1.459  0.0279 -0.4308 -0.0551
 8272SOL     OW36277   1.560   1.930   0.816 -0.2601  0.4178  0.2421
 8272SOL    HW136278   1.514   1.994   0.870  0.9050  1.7243 -0.3014
 8272SOL    HW236279   1.621   1.903   0.884 -1.6824 -5.0600 -0.7096
 8273SOL     OW36280   1.127   2.185   5.192 -0.1629  0.1537  0.4272
 8273SOL    HW136281   1.041   2.224   5.197  0.2697  0.8336  2.4713
 8273SOL    HW236282   1.127   2.141   5.277  0.0584  0.0075  0.3533
 8274SOL     OW36283   0.491   1.071   9.397  0.3088 -0.1587  0.0741
 8274SOL    HW136284   0.515   1.025   9.316  1.1572 -0.3574  0.4456
 8274SOL    HW236285   0.421   1.122   9.356 -0.7185 -1.4357  0.2510
 8275SOL     OW36286   1.919   0.881  11.182 -0.0138 -0.1513 -0.2095
 8275SOL    HW136287   1.854   0.817  11.210 -1.1989  1.0749 -0.1629
 8275SOL    HW236288   1.944   0.844  11.097  0.3458 -0.3681 -0.0082
 8276SOL     OW36289   0.320   3.658  10.171 -0.2357 -0.1916  0.1806
 8276SOL    HW136290   0.250   3.721  10.186 -1.2863 -0.9887 -1.2995
 8276SOL    HW236291   0.366   3.661  10.255  0.3444 -0.6153 -0.1212
 8277SOL     OW36292   0.627   2.551  10.179  1.0294 -0.0034  1.0253
 8277SOL    HW136293   0.589   2.463  10.170  0.3710  0.4105 -0.3041
 8277SOL    HW236294   0.657   2.547  10.270 -0.3929 -1.4512  1.4385
 8278SOL     OW36295   0.783   3.845   1.003  0.0591 -0.0696  0.2369
 8278SOL    HW136296   0.793   3.886   1.088 -3.2129  1.2871 -0.0338
 8278SOL    HW236297   0.774   3.751   1.018  1.7094 -0.7565 -3.0067
 8279SOL     OW36298   2.161   1.055   0.966  0.1461  0.5791  0.0573
 8279SOL    HW136299   2.200   1.096   1.043 -0.7171 -0.5442  1.0992
 8279SOL    HW236300   2.207   0.972   0.961 -1.4524 -0.4147  1.8127
 8280SOL     OW36301   2.044   2.735   8.154 -0.1837  0.4357  0.4586
 8280SOL    HW136302   2.053   2.709   8.063 -0.0518  0.8897  0.3453
 8280SOL    HW236303   2.123   2.784   8.175 -0.0313  0.1969  0.4396
 8281SOL     OW36304   1.606   4.319  11.141  0.0277 -0.0448  0.2888
 8281SOL    HW136305   1.600   4.343  11.048 -0.0348 -1.3197 -0.0377
 8281SOL    HW236306   1.623   4.225  11.133  0.4256  0.0564 -0.0518
 8282SOL     OW36307   2.055   4.073   1.740  0.3432 -0.1792  0.7849
 8282SOL    HW136308   2.099   4.139   1.794  0.2894  0.4806  0.0130
 8282SOL    HW236309   2.032   4.126   1.665  0.3624  2.9525  3.0014
 8283SOL     OW36310   2.188   2.651   3.651 -0.0229 -0.2649 -0.1852
 8283SOL    HW136311   2.238   2.710   3.708  1.0602 -0.5240 -0.8552
 8283SOL    HW236312   2.181   2.578   3.712  0.9676  0.0628  0.3341
 8284SOL     OW36313   2.181   1.786   1.593 -0.0118 -0.1444  0.3907
 8284SOL    HW136314   2.226   1.706   1.565 -1.6514 -1.4900  1.6057
 8284SOL    HW236315   2.129   1.800   1.513  0.0567  1.2069  0.5892
 8285SOL     OW36316   2.657   2.924  17.095 -0.0906  0.7821  0.1805
 8285SOL    HW136317   2.695   2.860  17.156 -0.0466  0.8230  0.1958
 8285SOL    HW236318   2.568   2.928  17.130  0.4706  0.1984  1.7103
 8286SOL     OW36319   3.360   0.013  13.648 -0.3054 -0.4793 -0.2743
 8286SOL    HW136320   3.418   0.083  13.677 -2.1678  0.9173  0.1350
 8286SOL    HW236321   3.320   0.058  13.573  0.1645 -0.3876 -0.4642
 8287SOL     OW36322   2.019   4.664   5.172 -0.4152 -0.2579 -0.1303
 8287SOL    HW136323   2.041   4.667   5.265 -2.8461  1.3165  0.3861
 8287SOL    HW236324   1.940   4.611   5.185 -0.4910 -0.1912 -0.3194
 8288SOL     OW36325   1.395   4.649   6.430 -0.0071  0.1144 -0.0245
 8288SOL    HW136326   1.361   4.654   6.519  0.1870  1.1374  0.0030
 8288SOL    HW236327   1.336   4.583   6.395 -1.5343  1.8589 -0.7466
 8289SOL     OW36328   0.309   0.878   0.299  0.2402  0.3440  0.3515
 8289SOL    HW136329   0.376   0.925   0.348  3.5674 -0.7698 -3.1423
 8289SOL    HW236330   0.346   0.795   0.269  0.8889  0.8718 -0.3117
 8290SOL     OW36331   0.831   1.823   4.380  0.1950  0.4348  0.2994
 8290SOL    HW136332   0.763   1.766   4.415 -0.1509  0.8764  0.3499
 8290SOL    HW236333   0.816   1.899   4.436  2.1715  0.2788  1.0277
 8291SOL     OW36334   1.720   0.153   2.400 -0.0151  0.3038  0.3650
 8291SOL    HW136335   1.795   0.152   2.340 -0.4312  2.9947 -0.1735
 8291SOL    HW236336   1.695   0.243   2.382 -1.7139 -0.4471 -0.9881
 8292SOL     OW36337   4.165   2.233   8.618 -0.0958  0.1321  0.3596
 8292SOL    HW136338   4.239   2.293   8.626 -0.5988  0.9457 -1.2508
 8292SOL    HW236339   4.201   2.149   8.647  2.5973  1.2794  0.3466
 8293SOL     OW36340   1.674   1.926   3.678  0.4866 -0.4374  0.2295
 8293SOL    HW136341   1.703   2.007   3.637 -0.7755 -0.1262 -0.0689
 8293SOL    HW236342   1.578   1.925   3.673  0.3804  1.8802  1.9020
 8294SOL     OW36343   3.735   2.790  17.109  0.4623  0.5948  0.9576
 8294SOL    HW136344   3.705   2.724  17.171  1.4605 -2.0494 -1.4108
 8294SOL    HW236345   3.661   2.849  17.095  0.9981  0.4113 -2.6235
 8295SOL     OW36346   3.911   3.206   6.187 -0.4183 -0.2057  0.2042
 8295SOL    HW136347   3.851   3.145   6.228 -0.8107 -0.0208 -0.0999
 8295SOL    HW236348   3.951   3.149   6.121  0.6985 -1.3820  1.8904
 8296SOL     OW36349   2.084   3.603   6.393 -0.9963  0.2518 -0.2298
 8296SOL    HW136350   2.070   3.683   6.343 -1.3290  0.5227  0.2951
 8296SOL    HW236351   2.030   3.544   6.340  1.1579 -1.3606 -0.5948
 8297SOL     OW36352   0.529   1.100  13.042 -0.8528 -0.2080  0.3234
 8297SOL    HW136353   0.499   1.051  13.119  2.9234  0.7223  2.3922
 8297SOL    HW236354   0.585   1.162  13.090 -0.7026 -2.1034  2.5954
 8298SOL     OW36355   2.195   2.704   7.235  0.2676  0.2522 -0.3730
 8298SOL    HW136356   2.247   2.730   7.159 -0.3956 -1.5009 -1.4235
 8298SOL    HW236357   2.253   2.633   7.260 -0.1617  0.5951  1.5608
 8299SOL     OW36358   3.595   2.118   1.027 -0.1826  0.0473 -0.0323
 8299SOL    HW136359   3.557   2.117   1.115  1.1603 -2.4654  0.5137
 8299SOL    HW236360   3.637   2.032   1.029  2.0112  1.1080 -0.5115
 8300SOL     OW36361   1.597   3.284   3.500  0.0511  0.4891  0.4281
 8300SOL    HW136362   1.652   3.273   3.423 -0.8315 -0.6561 -0.0497
 8300SOL    HW236363   1.524   3.333   3.463 -1.0602 -1.7445 -0.3709
 8301SOL     OW36364   1.380   1.042   9.686  0.1847 -0.2114 -0.1190
 8301SOL    HW136365   1.359   1.059   9.594  1.5280  0.9173 -0.2210
 8301SOL    HW236366   1.463   0.998   9.671  1.5421  1.2977  2.9472
 8302SOL     OW36367   1.653   1.357   4.031  0.0905 -0.0279  0.4215
 8302SOL    HW136368   1.659   1.296   3.958  0.0636  0.2183  0.2102
 8302SOL    HW236369   1.666   1.305   4.109  1.5621  0.9121  0.8009
 8303SOL     OW36370   3.946   3.047   1.889 -0.7939  0.5826 -0.0814
 8303SOL    HW136371   4.022   3.029   1.944 -2.0845  0.8475  1.7831
 8303SOL    HW236372   3.983   3.107   1.824 -2.3228  0.7380 -0.8100
 8304SOL     OW36373   0.927   2.826   7.333  0.1932  0.0871  0.1035
 8304SOL    HW136374   0.856   2.764   7.346 -0.0229 -0.0301 -1.6147
 8304SOL    HW236375   0.993   2.809   7.399  1.7233  2.4668 -0.8075
 8305SOL     OW36376   4.681   0.819  17.698 -0.2604  0.4244  0.7603
 8305SOL    HW136377   4.623   0.800  17.625 -0.4800  2.3025  0.4471
 8305SOL    HW236378   0.030   0.867  17.660  0.4831 -1.0492  0.3419
 8306SOL     OW36379   3.603   2.231  15.966  0.1940 -0.4775  0.1332
 8306SOL    HW136380   3.566   2.151  15.929  0.3214 -1.2511  1.6778
 8306SOL    HW236381   3.666   2.264  15.902  2.1111 -1.5222  1.4787
 8307SOL     OW36382   1.469   3.188   2.821 -0.7769  0.1564 -0.4860
 8307SOL    HW136383   1.539   3.149   2.874  2.2324  2.5038 -2.7281
 8307SOL    HW236384   1.401   3.142   2.870 -0.3238  1.1595  1.0672
 8308SOL     OW36385   1.691   0.458  10.298  0.4649 -0.1936  0.2891
 8308SOL    HW136386   1.599   0.482  10.304  0.8521  0.7135  2.4057
 8308SOL    HW236387   1.738   0.538  10.320 -2.7830  2.4453 -2.4142
 8309SOL     OW36388   0.333   2.367   2.986 -0.1241 -0.2343  0.1764
 8309SOL    HW136389   0.415   2.392   2.942 -0.3645 -0.7554 -0.5685
 8309SOL    HW236390   0.339   2.424   3.062 -1.5112  2.4563 -1.7120
 8310SOL     OW36391   3.120   3.785   4.931  0.3525  0.3935 -0.5911
 8310SOL    HW136392   3.176   3.814   4.859 -0.0686  2.8270  0.0783
 8310SOL    HW236393   3.145   3.852   4.994  0.6316 -1.3141  1.1178
 8311SOL     OW36394   4.199   1.993   0.228  0.1852 -0.4463  0.7478
 8311SOL    HW136395   4.113   1.950   0.220 -0.1290  0.4946 -0.8507
 8311SOL    HW236396   4.193   2.080   0.188  0.6749  1.0345  3.8913
 8312SOL     OW36397   4.653   3.360   5.573  0.9213  0.3776  0.0125
 8312SOL    HW136398   4.724   3.296   5.574  0.1842 -0.4405 -0.4557
 8312SOL    HW236399   4.583   3.321   5.521  1.4928 -1.4579  0.6236
 8313SOL     OW36400   2.140   3.307  15.634  0.2923  0.7076 -0.5958
 8313SOL    HW136401   2.131   3.241  15.564  0.5028 -0.0209  0.0633
 8313SOL    HW236402   2.055   3.351  15.636 -1.1735 -2.0034 -1.9256
 8314SOL     OW36403   0.797   0.448   5.026  0.1281 -0.7975 -0.2802
 8314SOL    HW136404   0.735   0.438   4.954 -0.2736 -0.6367  0.0412
 8314SOL    HW236405   0.746   0.482   5.100 -0.0884  1.1797 -1.3382
 8315SOL     OW36406   3.155   1.381   4.908  0.0628  0.4566 -0.1343
 8315SOL    HW136407   3.241   1.374   4.868 -0.6193  0.6192 -1.6393
 8315SOL    HW236408   3.104   1.379   4.827 -1.6515 -2.3555  0.9901
 8316SOL     OW36409   0.885   0.809   7.185  0.5378 -0.0595  0.0777
 8316SOL    HW136410   0.956   0.783   7.243 -0.4966 -1.4162  0.7318
 8316SOL    HW236411   0.815   0.787   7.246  1.6341  0.7923  1.6291
 8317SOL     OW36412   0.647   1.031   6.070  0.1482 -0.5786  0.2533
 8317SOL    HW136413   0.592   1.096   6.114 -0.6062 -0.0386 -1.4743
 8317SOL    HW236414   0.627   0.952   6.120  2.5358 -0.4132  1.4565
 8318SOL     OW36415   4.089   0.916   3.020 -0.0717 -0.0700 -0.1164
 8318SOL    HW136416   4.160   0.946   3.076  0.8260 -0.1865 -1.1926
 8318SOL    HW236417   4.048   0.998   2.994  1.3544  0.7869  0.3414
 8319SOL     OW36418   1.309   0.643   2.656  0.2306 -0.1812 -0.4010
 8319SOL    HW136419   1.254   0.703   2.605 -1.4258 -0.3235  1.2496
 8319SOL    HW236420   1.247   0.599   2.714 -1.2613  0.0037 -1.8646
 8320SOL     OW36421   3.281   4.241   6.734  0.0100  0.0399  0.9642
 8320SOL    HW136422   3.194   4.252   6.696  0.3535  0.6951  0.3743
 8320SOL    HW236423   3.327   4.216   6.654 -2.0603  1.6357 -0.7242
 8321SOL     OW36424   1.623   1.576   3.895 -0.0310  0.4086  0.1439
 8321SOL    HW136425   1.675   1.596   3.818  1.5131 -1.1792  0.7728
 8321SOL    HW236426   1.653   1.498   3.943 -0.1674  0.4647  0.3214
 8322SOL     OW36427   4.350   1.554  17.201 -0.3417 -0.3588 -0.2163
 8322SOL    HW136428   4.292   1.478  17.193 -0.4528 -0.3011  0.0708
 8322SOL    HW236429   4.306   1.627  17.158  0.7516  1.1700  1.2793
 8323SOL     OW36430   2.370   1.338   1.746  0.1519 -0.0402  0.4175
 8323SOL    HW136431   2.366   1.247   1.719  1.2610  0.6124 -1.9908
 8323SOL    HW236432   2.427   1.334   1.822 -0.8151  0.3811  1.1682
 8324SOL     OW36433   4.718   0.312   0.862 -0.5979  0.3170 -0.2960
 8324SOL    HW136434   4.688   0.280   0.778  0.7096 -0.6826 -0.3901
 8324SOL    HW236435   0.010   0.223   0.893 -1.4494 -0.0029 -0.7902
 8325SOL     OW36436   4.048   2.424   4.725 -0.3374  0.1244  0.0292
 8325SOL    HW136437   3.962   2.382   4.729 -0.1811 -0.1168  0.9436
 8325SOL    HW236438   4.056   2.438   4.819 -0.6512  3.9837 -0.5490
 8326SOL     OW36439   2.236   2.037   8.208  0.1230  0.8909 -0.4635
 8326SOL    HW136440   2.150   2.006   8.237  1.0545 -1.6028 -0.3292
 8326SOL    HW236441   2.272   2.058   8.294  0.0096  1.5641 -0.5829
 8327SOL     OW36442   0.547   1.055   4.815 -0.9357  0.1456 -0.0147
 8327SOL    HW136443   0.478   1.108   4.853  0.3380 -0.4410  3.1131
 8327SOL    HW236444   0.512   1.004   4.741 -1.4837 -0.1810  0.4722
 8328SOL     OW36445   1.108   2.257  14.104 -0.2113 -0.4362 -0.8661
 8328SOL    HW136446   1.147   2.334  14.146  0.8982 -0.4821 -1.8095
 8328SOL    HW236447   1.016   2.276  14.119  0.0992 -0.1267  0.7032
 8329SOL     OW36448   3.191   1.110  10.071  0.2586  0.2258 -0.0682
 8329SOL    HW136449   3.101   1.083  10.054 -0.2838  1.9698 -0.0045
 8329SOL    HW236450   3.177   1.205  10.076 -1.0968 -0.0281  0.7844
 8330SOL     OW36451   3.774   2.118   6.647  0.0769 -0.1648 -0.0315
 8330SOL    HW136452   3.737   2.095   6.733  0.6899 -1.3470 -0.0840
 8330SOL    HW236453   3.716   2.193   6.636  0.3727 -0.1947 -1.6871
 8331SOL     OW36454   1.379   4.213   5.156 -0.0786 -0.1843  0.2241
 8331SOL    HW136455   1.290   4.250   5.151 -0.0922  0.1263  2.8056
 8331SOL    HW236456   1.420   4.254   5.080 -1.4282 -0.9593 -0.9157
 8332SOL     OW36457   1.399   4.154   5.821 -0.6553 -0.1699 -0.2363
 8332SOL    HW136458   1.479   4.179   5.867 -0.6583 -1.6290  0.5669
 8332SOL    HW236459   1.380   4.241   5.787 -0.4002  0.1696  0.4921
 8333SOL     OW36460   0.493   3.501  11.181  0.5486 -0.0900 -0.0091
 8333SOL    HW136461   0.444   3.468  11.256 -0.8000 -1.3156 -1.4281
 8333SOL    HW236462   0.558   3.560  11.217 -0.9595 -0.7680  3.8462
 8334SOL     OW36463   4.248   4.100   7.726  0.4118 -0.1517 -0.5674
 8334SOL    HW136464   4.246   4.085   7.632 -1.1743 -1.1209 -0.3740
 8334SOL    HW236465   4.154   4.104   7.745  0.4161 -1.7556 -0.2421
 8335SOL     OW36466   3.704   1.037   2.149 -0.1049  0.3027 -0.0683
 8335SOL    HW136467   3.618   1.077   2.139 -0.2274 -0.0098 -0.2563
 8335SOL    HW236468   3.708   0.966   2.085  0.8499 -0.7665  1.1673
 8336SOL     OW36469   4.414   0.224   4.901  0.4066  0.0568 -0.0116
 8336SOL    HW136470   4.496   0.206   4.948  1.8132 -0.0996 -2.5534
 8336SOL    HW236471   4.399   0.138   4.862 -0.3001  0.4248 -0.5340
 8337SOL     OW36472   4.260   3.991   2.282 -0.1011 -0.1317  0.1698
 8337SOL    HW136473   4.233   4.024   2.368  1.0998  2.7745 -0.5831
 8337SOL    HW236474   4.324   3.928   2.317  0.6891 -1.2044 -3.2264
 8338SOL     OW36475   4.556   1.187   5.146  0.4363  0.2730  0.2797
 8338SOL    HW136476   4.553   1.281   5.131 -0.3456  0.1960 -0.0695
 8338SOL    HW236477   4.485   1.199   5.209  0.2990 -1.2162  0.4060
 8339SOL     OW36478   3.548   0.682  17.659  0.5084  0.1760  0.9545
 8339SOL    HW136479   3.574   0.667  17.568  0.3944  0.3240  0.8980
 8339SOL    HW236480   3.495   0.761  17.645  0.2202 -0.2557 -0.4205
 8340SOL     OW36481   4.316   1.498  13.260  0.9912  0.6413 -0.2719
 8340SOL    HW136482   4.376   1.522  13.190  0.5063  1.3306 -0.4498
 8340SOL    HW236483   4.352   1.561  13.323  2.0103 -1.0776  0.8735
 8341SOL     OW36484   3.058   1.429   3.107 -0.3526 -0.1880  0.1180
 8341SOL    HW136485   3.133   1.452   3.161  1.0234  0.7182 -2.1515
 8341SOL    HW236486   2.994   1.430   3.177  0.6489  3.2803  0.9719
 8342SOL     OW36487   3.665   0.785   1.999  0.3641  0.5871  0.0554
 8342SOL    HW136488   3.666   0.690   2.007 -1.5683  0.4989 -0.8680
 8342SOL    HW236489   3.640   0.791   1.907  0.2999  1.2565  0.1169
 8343SOL     OW36490   3.315   1.402   4.529 -0.3145 -0.6287  0.9420
 8343SOL    HW136491   3.244   1.439   4.580 -0.8966  1.7743 -1.5688
 8343SOL    HW236492   3.360   1.486   4.518 -2.2993  0.5627  2.0713
 8344SOL     OW36493   0.045   1.401  10.231  0.1317 -0.1438 -0.6318
 8344SOL    HW136494   0.120   1.460  10.238 -1.3303  1.5460  0.6914
 8344SOL    HW236495   0.038   1.358  10.316  1.7916  0.9708  0.0635
 8345SOL     OW36496   4.555   3.664   6.816  0.7513  0.6361  0.0780
 8345SOL    HW136497   4.619   3.723   6.777 -0.3676  1.9539  0.2321
 8345SOL    HW236498   4.544   3.706   6.902 -0.2737 -0.9280  0.7008
 8346SOL     OW36499   1.986   4.286   4.683 -0.1518  0.4165  0.0750
 8346SOL    HW136500   2.061   4.243   4.643  1.9767  4.1258  0.0403
 8346SOL    HW236501   2.019   4.309   4.771  0.1541 -0.2358  0.1269
 8347SOL     OW36502   2.390   3.299   8.622  0.0501  0.6846  0.5188
 8347SOL    HW136503   2.389   3.320   8.528  0.0574 -1.2745  0.0744
 8347SOL    HW236504   2.410   3.206   8.614 -0.5032  0.4387  2.0249
 8348SOL     OW36505   3.036   1.373  14.391  0.2439 -0.2233 -0.1845
 8348SOL    HW136506   2.941   1.385  14.387  0.0908 -1.6817 -1.0124
 8348SOL    HW236507   3.042   1.433  14.466  1.4690 -0.8756  0.2260
 8349SOL     OW36508   0.625   2.246   3.884 -0.1731 -0.3278 -0.5343
 8349SOL    HW136509   0.557   2.313   3.877  0.0584  0.1630  2.0026
 8349SOL    HW236510   0.701   2.281   3.838  0.8656 -2.8292 -0.7057
 8350SOL     OW36511   1.846   1.770   3.820  0.2877  0.0220 -0.2136
 8350SOL    HW136512   1.820   1.832   3.751 -1.7832 -1.5450 -0.8088
 8350SOL    HW236513   1.837   1.823   3.900 -1.5108  0.1582 -0.5067
 8351SOL     OW36514   4.376   3.905  12.316  0.3157  0.4306  0.0532
 8351SOL    HW136515   4.409   3.864  12.237  0.8216 -1.2916  1.1618
 8351SOL    HW236516   4.301   3.854  12.347  0.6477  0.3851  0.7819
 8352SOL     OW36517   2.728   3.156   7.081  0.0465 -0.2353 -0.5701
 8352SOL    HW136518   2.736   3.063   7.105  0.8993  0.0964  0.4122
 8352SOL    HW236519   2.816   3.177   7.051  0.9270  0.7469  2.7334
 8353SOL     OW36520   1.198   2.209   8.509 -0.2306  0.1653  0.4324
 8353SOL    HW136521   1.284   2.232   8.473 -0.0616  1.7883  1.8678
 8353SOL    HW236522   1.198   2.262   8.588  1.8741 -0.6259  0.9597
 8354SOL     OW36523   2.229   3.536   8.982  0.4419  0.6980  0.3057
 8354SOL    HW136524   2.295   3.487   8.934 -0.4759 -0.2016 -0.0105
 8354SOL    HW236525   2.264   3.623   8.963  1.0611  0.8337  2.0703
 8355SOL     OW36526   1.490   3.460   2.760  0.4222  0.2786 -0.2786
 8355SOL    HW136527   1.441   3.386   2.795 -0.9779  0.7190 -1.3187
 8355SOL    HW236528   1.523   3.421   2.679  4.5240 -0.4179  1.6899
 8356SOL     OW36529   3.404   4.399   2.258 -0.5168  0.3464 -0.1660
 8356SOL    HW136530   3.359   4.393   2.173 -2.4350 -0.3108  0.8976
 8356SOL    HW236531   3.414   4.307   2.281  0.4245 -0.4477 -3.7360
 8357SOL     OW36532   2.180   2.583  14.082 -0.1606 -0.1682  0.1445
 8357SOL    HW136533   2.163   2.551  13.993  2.0173 -1.3188  0.1400
 8357SOL    HW236534   2.249   2.647  14.063  0.8581 -0.9051  1.4069
 8358SOL     OW36535   2.471   0.820   3.705  0.4367  0.0639 -0.0194
 8358SOL    HW136536   2.431   0.871   3.775  0.3315 -0.1635  0.0860
 8358SOL    HW236537   2.517   0.754   3.757 -2.9069 -3.0810 -0.9784
 8359SOL     OW36538   1.559   2.307  12.009  0.6745 -0.3084  0.3260
 8359SOL    HW136539   1.554   2.399  12.032 -1.6884  0.7185 -4.4642
 8359SOL    HW236540   1.615   2.311  11.932  0.5023  2.1373  0.3545
 8360SOL     OW36541   3.288   2.327  15.416 -0.1445  0.1526 -0.2964
 8360SOL    HW136542   3.312   2.290  15.332  0.3534  0.6882 -0.3922
 8360SOL    HW236543   3.302   2.250  15.472  0.9442  0.0093 -0.7820
 8361SOL     OW36544   2.588   1.295   3.673 -0.1117  0.1471  0.2339
 8361SOL    HW136545   2.608   1.387   3.656 -1.2404  0.0729 -1.4804
 8361SOL    HW236546   2.619   1.288   3.763  0.4628  1.1627  0.1236
 8362SOL     OW36547   3.994   3.285  14.436 -0.3926  0.0592 -0.3591
 8362SOL    HW136548   3.968   3.377  14.429 -2.1253 -0.4681 -0.7819
 8362SOL    HW236549   3.993   3.274  14.531  0.7648 -1.2209 -0.4972
 8363SOL     OW36550   2.753   3.336   1.919 -0.8326 -0.5166  0.0135
 8363SOL    HW136551   2.833   3.302   1.961  0.3237  0.3488 -1.4922
 8363SOL    HW236552   2.749   3.278   1.843 -2.2284  0.1946 -0.4433
 8364SOL     OW36553   3.961   2.417  11.868  0.1628  0.7998 -0.2393
 8364SOL    HW136554   3.903   2.479  11.911  3.1812  2.2303  1.7231
 8364SOL    HW236555   4.040   2.427  11.921 -1.4971  1.1776  2.1395
 8365SOL     OW36556   2.696   4.337  12.212  0.1838 -0.6740  0.0965
 8365SOL    HW136557   2.653   4.297  12.287 -1.5074  0.7544 -0.1085
 8365SOL    HW236558   2.741   4.260  12.178 -0.9207 -0.5309 -1.7229
 8366SOL     OW36559   0.081   3.121  17.102 -0.1138 -0.1021 -0.1783
 8366SOL    HW136560   0.175   3.139  17.107 -0.3266  1.1842 -0.8449
 8366SOL    HW236561   0.068   3.057  17.172 -0.6138 -1.2408 -1.3010
 8367SOL     OW36562   3.263   1.313   0.451  0.2231  0.1379 -0.1502
 8367SOL    HW136563   3.291   1.279   0.366 -0.1849 -3.1230  1.0112
 8367SOL    HW236564   3.177   1.271   0.462  0.7082 -0.3513  1.8221
 8368SOL     OW36565   0.466   3.054   8.572  0.3071 -0.2470 -0.3229
 8368SOL    HW136566   0.538   3.103   8.612  0.7724 -2.1925  1.2280
 8368SOL    HW236567   0.521   2.996   8.519  0.9359  0.6565 -0.6570
 8369SOL     OW36568   4.653   1.315   4.388  0.9049  0.2276  0.1094
 8369SOL    HW136569   4.653   1.308   4.292 -0.2675 -1.6638  0.2472
 8369SOL    HW236570   4.577   1.370   4.407  1.0068 -0.3555  2.2433
 8370SOL     OW36571   2.010   3.599   0.639  0.3547  0.3680  0.4321
 8370SOL    HW136572   2.093   3.569   0.604 -0.1390 -2.3244  1.6157
 8370SOL    HW236573   2.011   3.680   0.587 -0.4767  1.8528  2.7181
 8371SOL     OW36574   4.100   3.802   2.169  0.0479  0.2339 -0.4006
 8371SOL    HW136575   4.008   3.823   2.184  0.2887  1.4224 -0.5522
 8371SOL    HW236576   4.143   3.872   2.219 -1.6546 -1.1329  2.9849
 8372SOL     OW36577   0.988   1.102   4.977  0.9696 -0.2237 -0.0767
 8372SOL    HW136578   1.012   1.182   4.930 -2.0378 -2.4035 -5.2745
 8372SOL    HW236579   0.900   1.130   5.003  1.9037  1.7224  0.9665
 8373SOL     OW36580   1.710   3.536  15.294 -0.6739 -0.0250 -0.0516
 8373SOL    HW136581   1.745   3.622  15.316  0.7596 -0.4849 -0.5608
 8373SOL    HW236582   1.706   3.532  15.198 -0.8434  1.2932 -0.0976
 8374SOL     OW36583   3.567   3.449  11.800  0.4111 -0.1095 -0.4591
 8374SOL    HW136584   3.600   3.404  11.878  0.9707  0.2571 -0.4822
 8374SOL    HW236585   3.537   3.377  11.745  1.1974 -1.1684  0.4895
 8375SOL     OW36586   1.260   3.129   3.006  0.3265  0.0108 -0.1203
 8375SOL    HW136587   1.191   3.075   2.967 -0.5680  0.5546  0.7083
 8375SOL    HW236588   1.258   3.124   3.102  0.2624 -0.6223 -0.1511
 8376SOL     OW36589   2.229   4.452   6.545 -0.1938  0.4267 -0.0500
 8376SOL    HW136590   2.281   4.514   6.596 -0.6729  2.1401 -1.6858
 8376SOL    HW236591   2.183   4.514   6.490  0.9266 -0.4586 -1.9763
 8377SOL     OW36592   1.474   2.628   7.703 -0.2230  0.0490 -0.3736
 8377SOL    HW136593   1.463   2.575   7.624  1.7950  0.4015 -0.8844
 8377SOL    HW236594   1.399   2.597   7.754  0.4605  1.4048  1.4827
 8378SOL     OW36595   3.121   2.882   0.163  0.0667  0.1886  0.3646
 8378SOL    HW136596   3.109   2.833   0.082  0.8825 -0.2579  0.5155
 8378SOL    HW236597   3.216   2.872   0.168  0.0547 -1.6543 -3.2452
 8379SOL     OW36598   2.368   4.113   8.603 -0.4705 -0.5063  0.2578
 8379SOL    HW136599   2.358   4.183   8.667 -0.1860 -0.6102  0.4193
 8379SOL    HW236600   2.364   4.035   8.659  0.3319 -1.5680 -1.1475
 8380SOL     OW36601   2.104   2.822  16.854 -0.7332  0.4470  0.2216
 8380SOL    HW136602   2.160   2.849  16.781 -0.9456  0.0316 -0.1000
 8380SOL    HW236603   2.122   2.888  16.921 -0.1447 -0.5502  1.0327
 8381SOL     OW36604   0.326   3.724   5.617 -0.4899 -0.3819 -0.1162
 8381SOL    HW136605   0.286   3.810   5.627 -1.6428 -1.0255  0.9655
 8381SOL    HW236606   0.250   3.674   5.648 -0.8397 -0.1887 -0.6630
 8382SOL     OW36607   1.182   1.455   0.609  0.1314  0.2677  0.4968
 8382SOL    HW136608   1.225   1.512   0.672  3.4378 -2.7252  0.9528
 8382SOL    HW236609   1.237   1.377   0.620 -0.0654  0.4550  2.6908
 8383SOL     OW36610   1.487   0.278  16.373 -0.2764 -0.7875 -0.4115
 8383SOL    HW136611   1.509   0.361  16.330 -0.0674  0.8413  2.8738
 8383SOL    HW236612   1.413   0.315  16.420  0.5495  0.9912 -0.4733
 8384SOL     OW36613   1.856   0.850  15.775  0.1665  0.2676 -0.0260
 8384SOL    HW136614   1.926   0.873  15.714  1.0229 -2.6393 -0.1454
 8384SOL    HW236615   1.859   0.754  15.776  0.6088  0.2921  0.5589
 8385SOL     OW36616   0.464   2.268   5.717 -0.2003  0.0196 -0.3404
 8385SOL    HW136617   0.556   2.263   5.692 -0.5349 -1.4906 -1.2914
 8385SOL    HW236618   0.478   2.324   5.793 -2.3860 -1.1655  0.9128
 8386SOL     OW36619   3.279   4.114   5.989 -0.2997  0.0033  0.2296
 8386SOL    HW136620   3.254   4.195   6.033  1.5009  0.1389  1.0262
 8386SOL    HW236621   3.215   4.061   6.036  2.4436 -0.9057  2.9330
 8387SOL     OW36622   3.199   3.298   4.296 -0.3347  0.4486 -0.4955
 8387SOL    HW136623   3.145   3.287   4.218  0.4507  2.0397 -1.2752
 8387SOL    HW236624   3.143   3.334   4.365 -1.6897 -0.0565 -1.3430
 8388SOL     OW36625   1.785   3.055   5.686  0.2542  0.0390 -0.3784
 8388SOL    HW136626   1.836   3.132   5.708 -1.3417  1.4811 -1.7383
 8388SOL    HW236627   1.718   3.100   5.635  1.1793  1.7587 -0.0693
 8389SOL     OW36628   4.426   1.487   4.389  0.3637 -0.0793  0.1702
 8389SOL    HW136629   4.413   1.582   4.382  0.9443 -0.1583 -2.0643
 8389SOL    HW236630   4.376   1.467   4.309  1.0909 -1.8447  0.1710
 8390SOL     OW36631   0.581   3.644   7.534  0.3675 -0.5643 -0.1735
 8390SOL    HW136632   0.609   3.723   7.488 -0.7866 -0.9799 -1.5590
 8390SOL    HW236633   0.523   3.687   7.596  1.1628 -1.5547  1.2560
 8391SOL     OW36634   2.261   0.257   2.936 -0.0066  0.0905  0.2754
 8391SOL    HW136635   2.245   0.275   2.843 -0.0075 -0.5614  0.1470
 8391SOL    HW236636   2.202   0.183   2.946 -1.3408  1.2776  1.1747
 8392SOL     OW36637   4.045   3.627  17.517 -0.5136 -0.0677 -0.7179
 8392SOL    HW136638   4.072   3.717  17.504  0.1538 -0.0022  1.0772
 8392SOL    HW236639   4.098   3.601  17.593 -0.3222 -0.2771 -0.9217
 8393SOL     OW36640   4.593   1.820  11.009 -0.1291 -0.2454 -0.2145
 8393SOL    HW136641   4.586   1.894  11.069 -1.8126 -0.6999  0.1468
 8393SOL    HW236642   4.547   1.752  11.059 -1.1818  0.5056 -0.1774
 8394SOL     OW36643   0.438   3.138   3.347  0.5695 -0.3216 -0.9247
 8394SOL    HW136644   0.485   3.200   3.292  2.5835  1.0780  2.3477
 8394SOL    HW236645   0.472   3.159   3.434  3.2224 -1.2978 -1.7655
 8395SOL     OW36646   1.025   0.132  10.843  0.0700 -0.3949  0.3544
 8395SOL    HW136647   0.940   0.173  10.856  1.1288  2.1471 -0.7467
 8395SOL    HW236648   1.069   0.173  10.917 -0.0178  1.8382 -0.8282
 8396SOL     OW36649   1.620   0.116   7.422  0.2989  0.4015  0.2434
 8396SOL    HW136650   1.635   0.193   7.367  1.3303 -0.1845 -0.3193
 8396SOL    HW236651   1.560   0.149   7.488  1.5731  1.0858  1.0628
 8397SOL     OW36652   1.841   2.172  10.367 -0.4205  0.4641  0.0055
 8397SOL    HW136653   1.808   2.244  10.313  1.6083  0.4325 -1.2751
 8397SOL    HW236654   1.935   2.193  10.375  0.0090 -1.1380 -0.8239
 8398SOL     OW36655   3.623   0.747   6.465 -0.3225 -0.2826  0.7551
 8398SOL    HW136656   3.645   0.671   6.411  1.4606  0.5400  0.2972
 8398SOL    HW236657   3.688   0.808   6.430 -1.1450 -0.2903 -0.8015
 8399SOL     OW36658   1.431   0.433  13.397 -0.6081 -0.0487  0.6459
 8399SOL    HW136659   1.388   0.388  13.324  0.3353  1.4036 -0.8187
 8399SOL    HW236660   1.394   0.520  13.407 -1.5143 -0.2166 -1.2180
 8400SOL     OW36661   0.646   1.309   3.694  0.4182 -0.0718  0.5575
 8400SOL    HW136662   0.660   1.215   3.706  1.2726  0.1317  1.1542
 8400SOL    HW236663   0.591   1.315   3.616 -0.9123 -1.9814  1.3374
 8401SOL     OW36664   4.626   0.852   9.364 -0.4404 -0.2440 -0.0309
 8401SOL    HW136665   4.598   0.778   9.418  0.1385  0.0721  0.7020
 8401SOL    HW236666   4.554   0.915   9.365 -1.4743 -1.4583  1.0677
 8402SOL     OW36667   4.568   2.331   0.377  0.7489 -0.1641  0.4476
 8402SOL    HW136668   4.596   2.240   0.391  2.8290  0.4630  0.3249
 8402SOL    HW236669   4.633   2.362   0.315  1.2690 -1.7827  0.1786
 8403SOL     OW36670   0.048   2.988   1.736  0.3379 -0.2028 -0.6053
 8403SOL    HW136671   4.712   2.945   1.674  1.0174 -2.3984  0.2694
 8403SOL    HW236672   4.711   2.993   1.810  0.8824  0.5189 -0.2131
 8404SOL     OW36673   3.715   0.253   2.926 -0.2129 -0.3595  0.9484
 8404SOL    HW136674   3.684   0.291   2.843  1.6004 -2.4656 -0.6777
 8404SOL    HW236675   3.738   0.334   2.972 -2.3695  1.1331 -0.5746
 8405SOL     OW36676   0.974   0.490   5.285  0.2463  0.6963  0.3563
 8405SOL    HW136677   0.891   0.507   5.327 -0.6999 -2.2263 -0.3174
 8405SOL    HW236678   0.996   0.575   5.247 -0.0752 -0.2092 -1.8635
 8406SOL     OW36679   3.189   4.332   0.577  0.6858 -0.0558 -0.0476
 8406SOL    HW136680   3.156   4.315   0.489  0.2073 -2.1467  0.5389
 8406SOL    HW236681   3.245   4.254   0.585 -0.2741 -0.8244 -0.9136
 8407SOL     OW36682   1.027   3.576   7.826 -0.7699  0.3474  0.7284
 8407SOL    HW136683   1.082   3.653   7.809 -0.6317  0.3024  0.9696
 8407SOL    HW236684   1.030   3.578   7.922 -1.4141  2.0810  0.7206
 8408SOL     OW36685   1.409   1.429  12.853 -0.1687  0.4281 -0.8787
 8408SOL    HW136686   1.426   1.429  12.948  1.2508  1.3611 -1.1472
 8408SOL    HW236687   1.407   1.524  12.840  1.5126  0.8036  1.6778
 8409SOL     OW36688   3.302   3.196   3.520 -0.2551  0.1908 -0.2571
 8409SOL    HW136689   3.280   3.225   3.431  0.5763  0.7105 -0.2879
 8409SOL    HW236690   3.395   3.177   3.513  0.3694  3.4820 -1.0362
 8410SOL     OW36691   4.044   3.765   8.643  0.4436  0.9602  0.1588
 8410SOL    HW136692   4.049   3.772   8.739  1.4430 -2.5928  0.3646
 8410SOL    HW236693   4.055   3.854   8.610 -0.6829  0.6784 -0.9680
 8411SOL     OW36694   4.332   1.393   7.026 -0.2116  0.4179  0.6921
 8411SOL    HW136695   4.310   1.309   7.067  0.7659 -0.4346 -0.5359
 8411SOL    HW236696   4.263   1.453   7.053  0.4653  1.4710  0.0883
 8412SOL     OW36697   4.127   4.444   5.580 -0.1739 -0.1423  0.1302
 8412SOL    HW136698   4.048   4.468   5.629  0.3997  1.6386  0.1876
 8412SOL    HW236699   4.091   4.434   5.492 -0.3128  1.3698  0.0054
 8413SOL     OW36700   3.258   0.400  15.218  0.8573 -0.0868 -0.6529
 8413SOL    HW136701   3.324   0.390  15.150  0.1789 -0.9319 -1.1893
 8413SOL    HW236702   3.279   0.488  15.249 -2.4798 -0.0429  1.4878
 8414SOL     OW36703   1.469   0.695   4.014  0.0510  0.2598 -0.3099
 8414SOL    HW136704   1.385   0.675   4.055  0.6785 -0.6067  0.5465
 8414SOL    HW236705   1.438   0.773   3.967 -3.4755 -1.4516 -0.7671
 8415SOL     OW36706   3.509   3.878   4.223  0.6182 -0.5098  0.4594
 8415SOL    HW136707   3.446   3.807   4.229  1.3632 -1.3752 -2.0468
 8415SOL    HW236708   3.526   3.886   4.317 -0.8298  1.5392  0.5527
 8416SOL     OW36709   1.142   0.752   2.471  0.0300 -0.1746 -0.2690
 8416SOL    HW136710   1.216   0.741   2.411  1.0323 -1.1806  1.1413
 8416SOL    HW236711   1.092   0.820   2.426  0.5134  0.7344  0.5574
 8417SOL     OW36712   4.365   1.450  11.291  0.2633 -0.5728 -0.0023
 8417SOL    HW136713   4.382   1.393  11.215 -0.9743 -2.1570  0.9125
 8417SOL    HW236714   4.296   1.409  11.343  1.0561 -1.3705  0.4299
 8418SOL     OW36715   4.344   0.808   7.624  0.5278 -0.6400 -1.1234
 8418SOL    HW136716   4.320   0.750   7.551  1.4821 -1.3325 -0.8835
 8418SOL    HW236717   4.434   0.778   7.637  1.4134  2.4127 -0.2048
 8419SOL     OW36718   1.403   2.124   5.532 -0.2488  0.0631  0.1059
 8419SOL    HW136719   1.429   2.163   5.615  1.6095  0.9690 -0.8949
 8419SOL    HW236720   1.338   2.188   5.501 -0.9799 -0.3661  0.7598
 8420SOL     OW36721   0.474   3.352   2.896  0.0238  0.0995 -0.6266
 8420SOL    HW136722   0.409   3.418   2.867 -0.3683  0.6867  1.6203
 8420SOL    HW236723   0.470   3.292   2.821 -0.7474 -0.7954  0.1338
 8421SOL     OW36724   1.069   3.118   7.246  0.5507 -1.1124  0.2890
 8421SOL    HW136725   0.990   3.172   7.247  1.7532  0.6985 -1.8616
 8421SOL    HW236726   1.030   3.032   7.262 -1.8600  0.1137  1.1369
 8422SOL     OW36727   4.406   1.080  13.496  0.0997  0.2496  0.3536
 8422SOL    HW136728   4.419   1.168  13.529 -0.0486  0.1846  0.5827
 8422SOL    HW236729   4.461   1.023  13.550 -0.7052 -0.3158  0.5758
 8423SOL     OW36730   0.608   1.894   2.973 -0.6035  0.2371  0.8926
 8423SOL    HW136731   0.573   1.851   3.051 -0.2388 -2.7204 -0.5544
 8423SOL    HW236732   0.634   1.981   3.002 -2.1472  0.6023  1.2209
 8424SOL     OW36733   1.179   0.268   2.788  0.6865  0.1663  0.7342
 8424SOL    HW136734   1.143   0.272   2.700 -0.5641  0.1525  1.2342
 8424SOL    HW236735   1.169   0.361   2.808  2.3628  0.8453 -1.6392
 8425SOL     OW36736   0.046   3.055   5.189  0.2891 -0.1503  0.4517
 8425SOL    HW136737   0.098   2.995   5.242 -0.9357 -0.8512  0.8585
 8425SOL    HW236738   4.685   3.014   5.181 -0.0989  0.6723  0.3910
 8426SOL     OW36739   1.738   1.552   4.836 -0.2061  0.2649 -0.0679
 8426SOL    HW136740   1.770   1.474   4.792  0.5398  0.6826 -0.2597
 8426SOL    HW236741   1.663   1.573   4.780  1.4414  1.9847 -1.6439
 8427SOL     OW36742   1.618   1.671   6.428 -0.1968  0.1648  0.4212
 8427SOL    HW136743   1.698   1.636   6.387 -0.6083 -2.5664  1.9366
 8427SOL    HW236744   1.640   1.761   6.451  2.0870 -0.6196  1.3352
 8428SOL     OW36745   0.562   0.420   8.998  0.3810 -0.3198  0.1613
 8428SOL    HW136746   0.482   0.432   9.050  0.1832 -0.0612 -0.2065
 8428SOL    HW236747   0.554   0.493   8.937 -0.5814 -1.7463 -1.4097
 8429SOL     OW36748   2.324   1.639   9.444 -0.1599 -0.3954  0.4207
 8429SOL    HW136749   2.328   1.554   9.488  2.5692 -0.6179 -0.1979
 8429SOL    HW236750   2.365   1.695   9.510  0.0766 -1.3756  1.0920
 8430SOL     OW36751   0.046   1.557  15.302 -0.1195 -0.0934  0.2555
 8430SOL    HW136752   0.049   1.504  15.222  0.8880  0.0325  0.2185
 8430SOL    HW236753   0.139   1.575  15.310  0.3418 -3.3275  2.4008
 8431SOL     OW36754   2.184   3.878   8.214 -0.3333 -0.4663 -0.4408
 8431SOL    HW136755   2.198   3.940   8.286 -2.2527 -0.5036 -0.0205
 8431SOL    HW236756   2.249   3.900   8.148  0.0997 -1.0733 -0.2137
 8432SOL     OW36757   3.024   2.189   9.756  0.5227  0.3313  0.0097
 8432SOL    HW136758   2.951   2.230   9.802  1.3399  0.1174  1.5244
 8432SOL    HW236759   3.016   2.235   9.673  0.3038 -0.8207 -0.6144
 8433SOL     OW36760   1.854   4.025   4.799  0.0910  0.8557 -0.0421
 8433SOL    HW136761   1.779   4.054   4.747  1.4724  0.8847 -1.9801
 8433SOL    HW236762   1.921   4.087   4.770 -0.5922  1.6581  0.0635
 8434SOL     OW36763   2.168   2.674   8.479 -0.6648  0.2262 -0.3981
 8434SOL    HW136764   2.249   2.627   8.461 -0.5605  0.5337 -0.7479
 8434SOL    HW236765   2.155   2.716   8.394 -1.8898 -0.3454 -0.4885
 8435SOL     OW36766   4.568   4.294   5.102 -0.2468  0.0763 -0.6329
 8435SOL    HW136767   4.546   4.212   5.146 -0.1470  0.0292 -0.6702
 8435SOL    HW236768   4.530   4.279   5.015  0.3830 -0.2576 -0.8511
 8436SOL     OW36769   4.411   3.879   7.282 -0.4478  0.1661  0.2531
 8436SOL    HW136770   4.336   3.850   7.334 -0.2268 -0.0120  0.4745
 8436SOL    HW236771   4.468   3.923   7.346 -1.4458  2.9603 -0.8136
 8437SOL     OW36772   4.077   0.881   7.026  0.2209  0.1745 -0.7676
 8437SOL    HW136773   4.104   0.822   7.096 -1.7630 -0.0860 -0.2188
 8437SOL    HW236774   4.083   0.824   6.949 -1.2666  2.1273 -2.3507
 8438SOL     OW36775   3.566   2.081  14.476  0.3885  0.0795 -0.2403
 8438SOL    HW136776   3.568   2.171  14.510  2.4041 -0.5705  1.2948
 8438SOL    HW236777   3.596   2.028  14.550 -1.7623 -0.3151  0.3555
 8439SOL     OW36778   1.763   4.484  16.033 -0.6521 -0.2523 -0.0476
 8439SOL    HW136779   1.734   4.560  16.084 -0.0185  0.3514 -0.5783
 8439SOL    HW236780   1.838   4.526  15.990 -0.9621 -0.2981 -0.6238
 8440SOL     OW36781   4.535   3.884   8.494  0.1897 -0.2889  0.3348
 8440SOL    HW136782   4.618   3.906   8.536  0.5440 -1.0359  0.0234
 8440SOL    HW236783   4.563   3.860   8.406 -0.7831 -1.2198  0.2728
 8441SOL     OW36784   1.665   2.651  10.666  0.1220  0.3798  0.1363
 8441SOL    HW136785   1.727   2.724  10.671  0.7519 -0.0424 -1.4198
 8441SOL    HW236786   1.594   2.695  10.619  2.2927  0.8238 -2.7845
 8442SOL     OW36787   0.492   4.518  12.384 -0.6016  0.2012  0.2172
 8442SOL    HW136788   0.532   4.455  12.325 -1.5543  2.5348 -2.9148
 8442SOL    HW236789   0.464   4.457  12.452 -0.2083 -0.1130  0.0956
 8443SOL     OW36790   3.671   2.732   3.366  0.4530 -0.1660 -0.0108
 8443SOL    HW136791   3.653   2.812   3.415 -0.7976 -0.4903  0.0607
 8443SOL    HW236792   3.738   2.694   3.421  0.3230 -0.9899 -0.4230
 8444SOL     OW36793   0.733   3.239  17.401  0.1830 -0.2443  0.6901
 8444SOL    HW136794   0.756   3.316  17.453  1.2670  0.4295 -0.8114
 8444SOL    HW236795   0.803   3.174  17.408 -0.1960 -0.8103 -0.8795
 8445SOL     OW36796   0.329   3.526   7.389 -0.1589 -0.4735 -0.1768
 8445SOL    HW136797   0.387   3.545   7.463 -2.0396  0.7202  0.9988
 8445SOL    HW236798   0.351   3.586   7.318 -0.6643 -1.1390 -0.9001
 8446SOL     OW36799   0.304   3.556   2.762 -0.2239 -0.3241  0.0838
 8446SOL    HW136800   0.219   3.588   2.792  0.0485 -1.4910  2.1108
 8446SOL    HW236801   0.317   3.577   2.670 -1.5030  2.7786  0.6212
 8447SOL     OW36802   1.460   1.446   7.286  0.0128  0.1493 -0.2138
 8447SOL    HW136803   1.470   1.366   7.338  1.0674 -0.2414 -1.0236
 8447SOL    HW236804   1.496   1.417   7.203  0.3737 -0.2598  0.0862
 8448SOL     OW36805   0.383   4.294   9.414  0.2214  0.1939  0.7282
 8448SOL    HW136806   0.435   4.319   9.490  1.3546  0.7549 -0.2364
 8448SOL    HW236807   0.446   4.307   9.344 -0.8453 -1.0668 -0.4622
 8449SOL     OW36808   1.558   1.564  13.088 -0.3914 -0.0786  0.1738
 8449SOL    HW136809   1.481   1.607  13.125  3.0240  3.1105  3.5425
 8449SOL    HW236810   1.615   1.566  13.164 -1.4572 -0.4875  0.9782
 8450SOL     OW36811   4.224   4.263   1.510 -0.5076  0.9341 -0.8456
 8450SOL    HW136812   4.149   4.204   1.517  0.0136  0.5670  1.6005
 8450SOL    HW236813   4.254   4.251   1.420  0.3193  0.5953 -0.5137
 8451SOL     OW36814   1.878   4.102   4.060 -0.1575 -0.3969  0.2288
 8451SOL    HW136815   1.954   4.042   4.060 -1.7224 -2.3958  1.4906
 8451SOL    HW236816   1.807   4.048   4.095 -0.0930  0.1702  1.2184
 8452SOL     OW36817   2.441   3.143   6.297 -0.0017 -0.1036 -0.0187
 8452SOL    HW136818   2.384   3.197   6.243  0.3902  0.7977  0.4746
 8452SOL    HW236819   2.515   3.195   6.327 -0.3100  0.0078  0.5553
 8453SOL     OW36820   3.664   2.517   7.351  0.3538  0.2367  0.2568
 8453SOL    HW136821   3.674   2.438   7.405  0.6505  1.6584  2.3188
 8453SOL    HW236822   3.756   2.538   7.334  0.2684  0.4189  0.0283
 8454SOL     OW36823   0.607   0.472  15.922 -0.0637  0.6036 -0.6271
 8454SOL    HW136824   0.666   0.547  15.924  0.3431  0.2688  0.2162
 8454SOL    HW236825   0.527   0.514  15.952  0.8218  0.9708  1.2449
 8455SOL     OW36826   4.270   3.959   1.658  0.2431 -0.6549  0.2798
 8455SOL    HW136827   4.253   3.989   1.747  0.7419  1.4374 -0.3277
 8455SOL    HW236828   4.200   3.894   1.657 -0.7803  0.4215  2.7896
 8456SOL     OW36829   0.333   0.661  12.558  0.9625 -0.9611  0.0810
 8456SOL    HW136830   0.327   0.595  12.488  0.8153 -0.5026 -0.3374
 8456SOL    HW236831   0.394   0.728  12.528  0.4189 -0.9722 -1.0488
 8457SOL     OW36832   1.432   0.491   8.728 -0.0373  0.2204  0.0084
 8457SOL    HW136833   1.457   0.528   8.813  1.7331 -3.3776  1.0623
 8457SOL    HW236834   1.343   0.528   8.725 -0.1391 -0.1046 -0.8417
 8458SOL     OW36835   3.479   0.263  14.368 -0.5496  0.1325  0.0036
 8458SOL    HW136836   3.385   0.277  14.356 -0.2118  2.0202 -0.4004
 8458SOL    HW236837   3.478   0.167  14.365 -0.4327  0.1338 -0.0574
 8459SOL     OW36838   1.693   1.141   6.251  0.1752  0.2859  0.2882
 8459SOL    HW136839   1.758   1.146   6.321  1.4942  1.0454 -1.0126
 8459SOL    HW236840   1.650   1.227   6.251  1.2314  0.8101 -0.1975
 8460SOL     OW36841   2.325   2.891  16.723  0.1396  0.1165  0.0773
 8460SOL    HW136842   2.316   2.918  16.632 -0.6829 -0.5986 -0.0568
 8460SOL    HW236843   2.376   2.958  16.770  0.0113  0.3528 -0.1210
 8461SOL     OW36844   4.395   0.486   2.918  0.4565 -0.2037  0.2950
 8461SOL    HW136845   4.302   0.467   2.931  0.2849 -0.2522 -0.9995
 8461SOL    HW236846   4.402   0.549   2.990  3.2834  0.6541 -0.7499
 8462SOL     OW36847   4.040   4.234  11.387 -0.1829 -0.2776  0.1066
 8462SOL    HW136848   4.114   4.173  11.391  1.3094  1.5095  0.0115
 8462SOL    HW236849   4.082   4.309  11.344  2.1832 -0.8922  1.3450
 8463SOL     OW36850   3.875   2.791   7.256 -0.2065 -0.1405 -0.3029
 8463SOL    HW136851   3.892   2.697   7.268 -0.4927  0.0877  1.9807
 8463SOL    HW236852   3.961   2.821   7.225  0.4531 -0.4590  1.1843
 8464SOL     OW36853   2.926   2.821   7.541 -0.5359 -0.2067 -0.3273
 8464SOL    HW136854   2.944   2.731   7.512 -0.8313 -0.8070  1.3357
 8464SOL    HW236855   2.834   2.830   7.516  0.2249 -0.6682 -3.3923
 8465SOL     OW36856   1.019   1.512   5.256 -0.0062  0.1684  0.3864
 8465SOL    HW136857   0.938   1.469   5.283  0.1659 -0.1169  0.4605
 8465SOL    HW236858   1.085   1.445   5.276 -1.2142 -0.9055  0.7645
 8466SOL     OW36859   0.733   2.393  16.078  0.2529 -0.0367 -0.4817
 8466SOL    HW136860   0.771   2.314  16.117 -0.2032 -1.4641 -2.8473
 8466SOL    HW236861   0.729   2.440  16.160 -0.5302 -2.1277  0.6930
 8467SOL     OW36862   1.782   1.947   1.630 -0.6903 -0.3055  0.6277
 8467SOL    HW136863   1.715   2.016   1.630 -0.8041 -0.4004 -2.2418
 8467SOL    HW236864   1.770   1.916   1.540 -2.1426  0.7987  0.4302
 8468SOL     OW36865   4.654   0.187   2.869 -0.6144 -0.2240  0.0438
 8468SOL    HW136866   4.632   0.237   2.790  0.9640 -1.8468 -1.4454
 8468SOL    HW236867   4.699   0.255   2.919 -1.1402 -0.1105  0.3584
 8469SOL     OW36868   1.779   4.365   4.539  0.0810  0.1207  0.4909
 8469SOL    HW136869   1.851   4.326   4.588  0.7818 -1.2656 -1.6097
 8469SOL    HW236870   1.831   4.397   4.465  1.9375  1.3060  2.3297
 8470SOL     OW36871   3.404   4.469  14.808  0.8680 -0.7394  0.1116
 8470SOL    HW136872   3.398   4.563  14.818 -1.5162 -0.9866  1.0328
 8470SOL    HW236873   3.360   4.466  14.723 -0.7930  1.8488  0.8911
 8471SOL     OW36874   2.568   0.764   4.195  1.0416 -0.0189  0.4029
 8471SOL    HW136875   2.536   0.694   4.252 -0.3246 -0.9632 -1.5418
 8471SOL    HW236876   2.621   0.721   4.128  0.1151 -0.4743 -0.0269
 8472SOL     OW36877   2.808   3.608   1.872 -0.4017 -0.3351 -0.6275
 8472SOL    HW136878   2.724   3.643   1.843 -0.8464 -1.5432 -0.7549
 8472SOL    HW236879   2.781   3.522   1.901  2.1444 -0.7660  0.4402
 8473SOL     OW36880   2.113   1.482   0.599  0.6109 -0.4864  0.8820
 8473SOL    HW136881   2.023   1.461   0.622  0.8222 -1.4955  0.8059
 8473SOL    HW236882   2.088   1.526   0.518 -0.7073 -1.0459  0.9973
 8474SOL     OW36883   2.193   2.896   2.469 -0.4091 -0.2353  0.0050
 8474SOL    HW136884   2.219   2.953   2.541  2.3311 -1.8365  0.2808
 8474SOL    HW236885   2.237   2.816   2.497  0.4095 -0.4250 -1.8112
 8475SOL     OW36886   3.214   0.532   7.540  0.1769  0.0893 -0.3486
 8475SOL    HW136887   3.255   0.452   7.507 -1.2303 -0.7899  0.0325
 8475SOL    HW236888   3.142   0.535   7.477 -0.1493 -3.0281 -0.1133
 8476SOL     OW36889   3.630   3.743   4.648 -0.3202 -0.0658 -0.1884
 8476SOL    HW136890   3.717   3.733   4.610  0.6398 -0.8095  2.2797
 8476SOL    HW236891   3.648   3.731   4.741 -1.6292 -1.8350 -0.1664
 8477SOL     OW36892   2.602   4.538   2.311 -0.0228 -0.1407  0.0713
 8477SOL    HW136893   2.697   4.545   2.308 -0.1027  0.5229 -1.0319
 8477SOL    HW236894   2.595   4.444   2.291  0.5752 -0.2073  0.1810
 8478SOL     OW36895   2.765   1.146   4.814 -0.3851  0.0105 -0.6047
 8478SOL    HW136896   2.813   1.107   4.886 -0.1568 -2.4229 -2.0632
 8478SOL    HW236897   2.681   1.101   4.827  0.4437 -1.8450 -1.6664
 8479SOL     OW36898   2.031   3.169  15.410  0.2139  0.5885 -0.2951
 8479SOL    HW136899   2.086   3.210  15.343  0.1048  1.5964  0.2207
 8479SOL    HW236900   1.953   3.226  15.408 -0.7579 -0.6044  3.2150
 8480SOL     OW36901   3.343   3.181  10.003 -0.5843  0.0232 -0.4150
 8480SOL    HW136902   3.306   3.257  10.049 -1.0593 -0.7442  0.4691
 8480SOL    HW236903   3.294   3.106  10.036  1.3464 -1.5577 -1.1369
 8481SOL     OW36904   2.662   0.231   3.173 -0.1333  0.8355  0.2084
 8481SOL    HW136905   2.575   0.196   3.155 -0.5366  2.4000 -0.9001
 8481SOL    HW236906   2.658   0.307   3.115  1.1768 -1.4771 -2.8378
 8482SOL     OW36907   3.482   0.924  12.304 -0.1245  0.2991  0.2841
 8482SOL    HW136908   3.557   0.883  12.347  1.2578  1.9814 -0.5723
 8482SOL    HW236909   3.476   0.870  12.225 -1.8297  0.1121  0.5268
 8483SOL     OW36910   1.207   0.885   1.696 -0.0382 -0.0988 -0.0981
 8483SOL    HW136911   1.206   0.903   1.602 -1.8922  1.6280  0.2431
 8483SOL    HW236912   1.199   0.973   1.735  1.4107 -1.1858  2.7004
 8484SOL     OW36913   2.689   0.032   5.066 -0.3769 -0.1791  0.2494
 8484SOL    HW136914   2.618   0.068   5.013 -0.6575 -1.0130  0.0631
 8484SOL    HW236915   2.663   0.047   5.157  2.0131 -1.6899  1.2069
 8485SOL     OW36916   0.838   0.930   2.718  0.3613  0.5275  0.1253
 8485SOL    HW136917   0.751   0.922   2.758  0.0384 -0.9229 -0.8630
 8485SOL    HW236918   0.885   0.856   2.757 -0.6660  0.0848  0.5509
 8486SOL     OW36919   4.704   0.554   1.325  0.1386 -0.0503 -0.4202
 8486SOL    HW136920   4.673   0.491   1.390  1.5201 -0.5763 -0.2585
 8486SOL    HW236921   0.033   0.608   1.385 -3.5345 -0.0575  2.8549
 8487SOL     OW36922   2.391   2.877   4.962 -0.4103  0.1452 -0.4872
 8487SOL    HW136923   2.380   2.924   4.880  0.7688  2.2159  0.5397
 8487SOL    HW236924   2.303   2.895   4.995  1.5894  2.6628  3.4284
 8488SOL     OW36925   3.976   3.916   7.939 -0.1864 -0.3634 -0.3937
 8488SOL    HW136926   3.951   3.968   8.015 -0.3257 -0.8937 -0.0777
 8488SOL    HW236927   3.996   3.833   7.983 -1.3264 -1.6238 -2.2245
 8489SOL     OW36928   0.034   0.023   2.097 -0.1536  0.2641  0.0058
 8489SOL    HW136929   0.010   0.115   2.089  1.8046  0.4841 -3.6151
 8489SOL    HW236930   0.101   0.026   2.028 -0.4068 -0.6678 -0.2771
 8490SOL     OW36931   0.881   3.961   3.864  0.2990  0.9735  0.4267
 8490SOL    HW136932   0.974   3.982   3.862  0.9127 -1.7130 -0.4254
 8490SOL    HW236933   0.880   3.875   3.821 -0.9293  0.5662  1.2531
 8491SOL     OW36934   1.736   3.678   8.182 -0.1429 -0.3258 -0.0907
 8491SOL    HW136935   1.824   3.647   8.163  0.1326  0.9132 -0.8431
 8491SOL    HW236936   1.694   3.657   8.099  0.2494 -1.3115 -0.0396
 8492SOL     OW36937   1.362   0.336   6.368  0.7033  0.4038  0.0028
 8492SOL    HW136938   1.431   0.402   6.366 -1.3818  2.5882 -0.6701
 8492SOL    HW236939   1.373   0.296   6.454  0.4953 -0.5064 -0.3952
 8493SOL     OW36940   4.444   3.206   5.444 -0.2934  0.3754  0.2050
 8493SOL    HW136941   4.413   3.176   5.359  1.5670 -1.0953  0.0396
 8493SOL    HW236942   4.427   3.126   5.492  0.2568  0.0430 -0.1483
 8494SOL     OW36943   2.637   0.842  15.534 -0.0253 -0.2997 -0.3998
 8494SOL    HW136944   2.728   0.866  15.547  0.3238 -2.0315  0.3274
 8494SOL    HW236945   2.613   0.817  15.624  1.5404 -2.0116 -0.4626
 8495SOL     OW36946   3.864   2.688   2.837  0.4049 -0.0184  0.4833
 8495SOL    HW136947   3.817   2.768   2.815  0.2842 -0.1771  0.1563
 8495SOL    HW236948   3.958   2.706   2.827 -0.0074  1.1917 -1.0468
 8496SOL     OW36949   0.313   2.419   0.368 -0.8295  0.0100 -0.2499
 8496SOL    HW136950   0.300   2.324   0.372 -1.0534  0.0584  0.2102
 8496SOL    HW236951   0.343   2.438   0.457 -0.4485 -2.0045  0.0584
 8497SOL     OW36952   1.513   4.242   6.506 -0.6438 -0.2833  0.5469
 8497SOL    HW136953   1.586   4.271   6.560 -1.1282  1.9050 -0.0002
 8497SOL    HW236954   1.457   4.211   6.578 -0.2575 -3.5711 -0.5646
 8498SOL     OW36955   2.901   1.035   8.533 -0.4288 -0.2823 -0.4298
 8498SOL    HW136956   2.957   1.097   8.487 -0.6522  0.8347  0.7940
 8498SOL    HW236957   2.867   0.971   8.470  0.0514  1.7427 -2.7369
 8499SOL     OW36958   2.006   0.870   8.589  0.6479  0.0339  0.3541
 8499SOL    HW136959   2.026   0.930   8.660  1.5115  0.2612 -0.0688
 8499SOL    HW236960   1.989   0.787   8.634  2.6113 -1.8190 -2.2744
 8500SOL     OW36961   4.665   0.110   1.731 -0.1948  0.1907  0.3597
 8500SOL    HW136962   4.700   0.158   1.806  0.5317 -0.9731  0.7453
 8500SOL    HW236963   4.711   0.157   1.661  1.3746  0.8266  1.8274
 8501SOL     OW36964   0.199   0.443   3.955  0.7677  0.1809  0.1721
 8501SOL    HW136965   0.210   0.349   3.963  0.0220  0.1195  0.4444
 8501SOL    HW236966   0.258   0.458   3.881 -2.0922  1.9048 -1.7389
 8502SOL     OW36967   3.155   1.235   1.827 -0.3054  0.2497  0.0090
 8502SOL    HW136968   3.078   1.200   1.782  0.1557  0.5763 -1.0456
 8502SOL    HW236969   3.149   1.328   1.802  0.7650  0.3607  0.1922
 8503SOL     OW36970   3.262   1.880   9.920  0.4524 -0.3659 -0.5248
 8503SOL    HW136971   3.355   1.896   9.903  0.7425  0.5879  1.9345
 8503SOL    HW236972   3.250   1.792   9.884  0.4604 -0.5912  0.0303
 8504SOL     OW36973   3.596   0.912   4.549 -0.2939 -0.1542  0.6873
 8504SOL    HW136974   3.517   0.865   4.575  0.0960 -1.0520  0.2613
 8504SOL    HW236975   3.662   0.848   4.577 -0.8738 -0.9965  0.1530
 8505SOL     OW36976   3.099   4.474   5.339 -0.0981 -0.4117 -0.3806
 8505SOL    HW136977   3.057   4.400   5.296 -0.1857 -1.4219  1.4237
 8505SOL    HW236978   3.180   4.487   5.290  0.9793  0.7040  1.6906
 8506SOL     OW36979   3.919   2.422   9.335 -0.1000  0.5582 -0.3099
 8506SOL    HW136980   3.838   2.454   9.294 -0.6644 -2.9789 -1.9630
 8506SOL    HW236981   3.941   2.335   9.300 -0.3282 -0.0282  1.0161
 8507SOL     OW36982   3.440   3.602   4.496  0.9903  0.3227  0.0718
 8507SOL    HW136983   3.524   3.648   4.507  0.4690  1.3440 -0.2464
 8507SOL    HW236984   3.400   3.598   4.583 -0.2134  0.1092 -0.4951
 8508SOL     OW36985   1.992   3.892   3.902  0.2244  0.2820  0.0559
 8508SOL    HW136986   2.053   3.886   3.976  1.1356 -1.6497 -0.8753
 8508SOL    HW236987   1.942   3.811   3.908  0.1134  0.2988 -0.6383
 8509SOL     OW36988   3.841   3.463   6.122  0.4149 -0.5783  0.1038
 8509SOL    HW136989   3.866   3.379   6.162 -0.7429  0.0755  2.1952
 8509SOL    HW236990   3.924   3.504   6.145  0.9521 -1.0547 -0.9859
 8510SOL     OW36991   1.680   4.400   1.106  0.3189  0.3764  0.0612
 8510SOL    HW136992   1.655   4.489   1.132  0.8291 -0.2573  2.7450
 8510SOL    HW236993   1.735   4.416   1.030  0.2383  1.8645  0.3176
 8511SOL     OW36994   0.772   3.835   0.616  0.1813 -0.1285  0.2143
 8511SOL    HW136995   0.840   3.824   0.549 -0.4415 -0.8592 -0.3022
 8511SOL    HW236996   0.717   3.900   0.572 -1.8355  1.2496  4.8468
 8512SOL     OW36997   2.074   1.349   5.827  0.4620 -0.0945  0.0790
 8512SOL    HW136998   2.005   1.348   5.760  0.6439 -2.2006 -0.0828
 8512SOL    HW236999   2.045   1.283   5.890  1.0702 -0.0918  0.3600
 8513SOL     OW37000   2.234   2.227   3.427 -0.4106  0.2836 -0.3303
 8513SOL    HW137001   2.171   2.298   3.443 -1.6771 -1.1290  0.9708
 8513SOL    HW237002   2.315   2.275   3.408 -0.0163  0.3218  1.4110
 8514SOL     OW37003   4.309   4.042   8.447 -0.0530 -0.7278  0.8455
 8514SOL    HW137004   4.332   4.110   8.384  0.2923 -2.0528 -0.4345
 8514SOL    HW237005   4.391   3.993   8.452  0.8635  0.9740  2.6979
 8515SOL     OW37006   0.909   0.973   1.458 -0.2851 -0.1225  0.1917
 8515SOL    HW137007   0.955   0.890   1.463  1.4136  0.9232  2.0407
 8515SOL    HW237008   0.854   0.980   1.536  0.8206 -1.1792  1.0545
 8516SOL     OW37009   0.011   3.321   1.654 -0.0667 -0.3459  0.4931
 8516SOL    HW137010   0.056   3.244   1.620  1.6042 -0.0715  2.0745
 8516SOL    HW237011   4.643   3.296   1.643 -0.7072  1.9191  0.6367
 8517SOL     OW37012   2.830   2.395  11.454 -0.1852  0.4150 -0.0052
 8517SOL    HW137013   2.915   2.412  11.414 -0.0477 -0.4571 -0.0862
 8517SOL    HW237014   2.847   2.416  11.546 -0.6050 -0.5920  0.3010
 8518SOL     OW37015   2.322   4.316   5.017  0.5937 -0.0719 -0.0216
 8518SOL    HW137016   2.330   4.390   5.078 -2.9100  0.6585 -0.4444
 8518SOL    HW237017   2.402   4.265   5.032 -0.2411 -1.4729 -0.3795
 8519SOL     OW37018   1.442   3.160   5.457  0.1681 -0.0912  0.1767
 8519SOL    HW137019   1.373   3.208   5.411  0.7836  1.6671  1.0553
 8519SOL    HW237020   1.460   3.092   5.393  0.9179  1.5210 -1.3183
 8520SOL     OW37021   1.702   3.618   1.593 -0.0367 -0.2479  0.8815
 8520SOL    HW137022   1.657   3.579   1.668  2.8834 -1.2306  2.1072
 8520SOL    HW237023   1.794   3.600   1.612 -0.1907 -0.7172  1.1732
 8521SOL     OW37024   1.756   3.250   3.722 -0.5478 -0.6376  0.1802
 8521SOL    HW137025   1.696   3.257   3.648  2.0545 -1.2521 -1.9774
 8521SOL    HW237026   1.799   3.335   3.718  2.9100 -2.3242  1.2697
 8522SOL     OW37027   3.360   2.977  17.224 -0.2829 -0.5927 -0.2001
 8522SOL    HW137028   3.288   2.989  17.162 -0.1768  0.9784 -0.0186
 8522SOL    HW237029   3.422   2.972  17.152  1.5071  0.9600  1.2312
 8523SOL     OW37030   0.523   1.392   4.527  0.0387 -0.4193 -0.2243
 8523SOL    HW137031   0.430   1.413   4.535 -0.0137 -1.0155  0.6786
 8523SOL    HW237032   0.514   1.297   4.518 -4.8932 -0.0574  0.8156
 8524SOL     OW37033   1.443   0.665   5.692  0.3689  0.5208 -0.0166
 8524SOL    HW137034   1.422   0.576   5.719  1.9045 -0.2398 -1.3261
 8524SOL    HW237035   1.491   0.691   5.770  1.2470 -0.2466 -0.2905
 8525SOL     OW37036   1.306   1.538   2.440  0.0593  0.0121 -0.1653
 8525SOL    HW137037   1.233   1.488   2.404  0.9262  0.0646 -1.9609
 8525SOL    HW237038   1.334   1.589   2.364  0.8285  1.6203  1.1680
 8526SOL     OW37039   1.069   3.939   2.094 -0.0407  0.0507  0.2689
 8526SOL    HW137040   0.991   3.995   2.095 -0.5303 -0.6291  0.3325
 8526SOL    HW237041   1.125   3.996   2.041  1.0640 -2.0452 -0.8114
 8527SOL     OW37042   2.518   3.798  11.628  0.2095 -0.2090  0.3920
 8527SOL    HW137043   2.493   3.741  11.555 -3.1677  0.1018  1.2967
 8527SOL    HW237044   2.559   3.740  11.692  1.2908 -0.0302 -0.1439
 8528SOL     OW37045   1.118   3.850   2.721  0.2802 -0.1067 -0.5206
 8528SOL    HW137046   1.104   3.764   2.681 -0.3931 -0.8585  1.3517
 8528SOL    HW237047   1.204   3.834   2.759  0.0204 -1.7991 -0.6394
 8529SOL     OW37048   4.223   4.226   5.689  0.5502  0.4824 -0.5622
 8529SOL    HW137049   4.177   4.204   5.770 -0.5681 -0.2684 -1.4023
 8529SOL    HW237050   4.182   4.311   5.673 -0.2476 -0.0751 -1.4941
 8530SOL     OW37051   2.997   4.634   1.674 -0.0294  0.0248 -0.4831
 8530SOL    HW137052   3.031   4.546   1.657  2.3130  1.1685 -1.7722
 8530SOL    HW237053   2.942   4.657   1.600 -0.4952 -2.4596 -0.8884
 8531SOL     OW37054   0.119   4.232  10.081  0.4822  0.5719 -0.0095
 8531SOL    HW137055   0.032   4.261  10.054  0.9379 -0.1092 -2.2143
 8531SOL    HW237056   0.143   4.191   9.997 -0.2677  0.6849 -0.2798
 8532SOL     OW37057   0.023   2.594  14.258 -0.0012 -0.9115 -0.4376
 8532SOL    HW137058   4.655   2.620  14.258 -0.1942 -1.5997  1.2289
 8532SOL    HW237059   0.028   2.555  14.346 -0.7476 -0.9854 -0.4262
 8533SOL     OW37060   1.378   3.703   8.105 -0.0264 -0.1845  0.0313
 8533SOL    HW137061   1.431   3.655   8.041  2.2944 -0.4699  2.2247
 8533SOL    HW237062   1.297   3.654   8.115  0.6883 -1.3355  0.1145
 8534SOL     OW37063   1.673   0.563   3.369 -0.4366 -0.0542 -0.0613
 8534SOL    HW137064   1.706   0.640   3.416  0.3117 -0.1082 -0.5004
 8534SOL    HW237065   1.737   0.498   3.398  2.1719  1.7736 -1.6848
 8535SOL     OW37066   2.880   0.832   3.587 -0.3057  0.0840  0.1521
 8535SOL    HW137067   2.867   0.833   3.681  0.3699 -0.4472  0.2470
 8535SOL    HW237068   2.804   0.883   3.559 -0.7387 -0.9913 -0.6760
 8536SOL     OW37069   0.958   3.368  10.721 -0.0301  0.3308  0.5572
 8536SOL    HW137070   1.053   3.365  10.726 -0.1597  1.2950  3.7231
 8536SOL    HW237071   0.942   3.274  10.705 -1.5691  0.7936 -0.6875
 8537SOL     OW37072   3.376   0.762   4.657 -0.6149  0.1948  0.3095
 8537SOL    HW137073   3.360   0.742   4.749  0.0009 -1.4936  0.0513
 8537SOL    HW237074   3.327   0.690   4.617  2.0354 -1.6811  0.4660
 8538SOL     OW37075   2.607   1.288   6.728 -0.0907 -0.0634 -0.3771
 8538SOL    HW137076   2.611   1.371   6.775  1.8720 -1.8526  2.6227
 8538SOL    HW237077   2.515   1.290   6.702  0.1317 -2.5931 -1.4242
 8539SOL     OW37078   1.724   4.666  11.401 -0.0844 -0.6440  0.3030
 8539SOL    HW137079   1.651   4.627  11.353  0.8962  0.2913 -1.9959
 8539SOL    HW237080   1.790   4.656  11.332  0.4944 -1.8554  1.0365
 8540SOL     OW37081   2.178   0.183   8.827 -0.0767 -0.0434 -0.8403
 8540SOL    HW137082   2.085   0.194   8.843  0.3600  1.8963  0.3243
 8540SOL    HW237083   2.185   0.162   8.733 -1.3723  0.8100 -1.1249
 8541SOL     OW37084   2.896   4.595   6.415  0.2472 -0.2460 -0.8576
 8541SOL    HW137085   2.900   4.689   6.399 -1.4719  0.0771  0.7094
 8541SOL    HW237086   2.904   4.559   6.326  2.2147 -0.9750 -0.4067
 8542SOL     OW37087   3.369   1.092   4.972 -0.3515  0.0220  0.3072
 8542SOL    HW137088   3.462   1.113   4.984 -0.4495 -0.6979  2.4326
 8542SOL    HW237089   3.358   1.124   4.883 -0.4745 -1.1882 -0.1013
 8543SOL     OW37090   3.223   0.306   2.489  0.3454  0.5454 -0.2484
 8543SOL    HW137091   3.277   0.385   2.488  1.3650 -0.1642 -0.8653
 8543SOL    HW237092   3.294   0.242   2.485  0.6835  0.9843 -1.1699
 8544SOL     OW37093   3.386   4.491  11.073 -0.2935  0.0783  0.0778
 8544SOL    HW137094   3.292   4.488  11.089 -0.5726 -1.7407 -1.9879
 8544SOL    HW237095   3.396   4.425  11.005  2.8590  0.4565  0.1528
 8545SOL     OW37096   4.659   4.393   1.277  0.2685  0.4542  0.7928
 8545SOL    HW137097   4.603   4.379   1.200 -0.7937 -3.3173  2.2741
 8545SOL    HW237098   4.598   4.435   1.338 -1.8921 -2.0690  0.4084
 8546SOL     OW37099   4.589   4.377   5.896 -0.1427  0.1862 -0.0651
 8546SOL    HW137100   4.591   4.432   5.819 -0.0682 -0.0448 -0.2283
 8546SOL    HW237101   4.495   4.362   5.904 -0.0319 -0.6405 -0.2587
 8547SOL     OW37102   0.063   0.756   0.386  0.6698 -0.3541 -0.4449
 8547SOL    HW137103   0.141   0.807   0.367 -0.7966  2.3805  0.8559
 8547SOL    HW237104   4.721   0.818   0.354 -0.3957 -2.7975 -2.9625
 8548SOL     OW37105   2.145   0.263   6.539  0.0109 -0.7331  0.1782
 8548SOL    HW137106   2.081   0.331   6.557  2.5442  2.3002 -2.3284
 8548SOL    HW237107   2.173   0.229   6.624 -0.1499  0.7225  0.8116
 8549SOL     OW37108   4.103   1.665   0.081 -0.1916 -0.0882  0.1650
 8549SOL    HW137109   4.098   1.608   0.004  1.7366  0.1047 -0.1068
 8549SOL    HW237110   4.091   1.750   0.039  0.9481  0.0966  0.2186
 8550SOL     OW37111   0.355   4.317   1.878 -0.6383 -0.2775 -0.1991
 8550SOL    HW137112   0.332   4.331   1.786 -1.7868  0.8865  0.2615
 8550SOL    HW237113   0.449   4.332   1.876 -0.6207 -0.2662  0.5853
 8551SOL     OW37114   3.903   2.124   3.698  0.4925  0.3333  0.3497
 8551SOL    HW137115   3.858   2.055   3.650  1.0152 -0.3946  0.9080
 8551SOL    HW237116   3.936   2.160   3.615  1.3666  0.4236  0.7312
 8552SOL     OW37117   4.099   4.039   7.272  0.1205  0.0452  0.2314
 8552SOL    HW137118   4.109   3.978   7.199  2.6135  0.6808  0.0244
 8552SOL    HW237119   4.010   4.068   7.253  0.8147  3.2917  1.8486
 8553SOL     OW37120   4.592   3.583  13.290 -0.0800  0.1645  0.0230
 8553SOL    HW137121   4.616   3.506  13.341 -1.3619 -0.2725 -0.0326
 8553SOL    HW237122   4.561   3.629  13.369 -0.2347 -0.1089  0.1195
 8554SOL     OW37123   3.630   2.422   0.163 -0.0806 -0.1443  0.2027
 8554SOL    HW137124   3.657   2.390   0.249  0.5168 -1.7765 -0.5905
 8554SOL    HW237125   3.683   2.501   0.165  0.3730 -0.4100 -1.1748
 8555SOL     OW37126   0.959   2.559   6.908  0.1196 -0.1777  0.5379
 8555SOL    HW137127   0.941   2.653   6.901  2.9747  0.4607  2.0648
 8555SOL    HW237128   0.959   2.547   7.003  1.2406 -1.3456  0.3864
 8556SOL     OW37129   2.657   2.784   2.373  0.5841  0.2192  0.0645
 8556SOL    HW137130   2.618   2.709   2.419  1.3371  0.4700  1.1134
 8556SOL    HW237131   2.581   2.810   2.321  0.5062 -0.8408 -0.3541
 8557SOL     OW37132   3.300   2.255   4.744  0.2501 -0.3370 -0.0042
 8557SOL    HW137133   3.253   2.316   4.686 -1.3278 -3.0133 -1.5561
 8557SOL    HW237134   3.348   2.319   4.797  1.6983 -0.1212 -1.5885
 8558SOL     OW37135   2.659   3.973   8.436  0.5465 -0.0350 -0.1233
 8558SOL    HW137136   2.615   3.900   8.395  1.0888 -0.0730 -0.6419
 8558SOL    HW237137   2.606   3.995   8.513  1.1846 -1.6634  0.7790
 8559SOL     OW37138   3.065   1.819   6.320  0.4925 -0.2752  0.3311
 8559SOL    HW137139   3.051   1.891   6.382 -1.6117 -1.3192  1.0679
 8559SOL    HW237140   3.079   1.747   6.381 -2.0767  0.2313  1.5004
 8560SOL     OW37141   2.494   4.257   5.309  0.5608 -0.6559  0.4178
 8560SOL    HW137142   2.531   4.174   5.278  0.1160 -0.3210 -0.9733
 8560SOL    HW237143   2.399   4.252   5.300  0.6226  2.1021 -1.6498
 8561SOL     OW37144   3.985   0.100   4.141  0.2835  0.8024  0.0929
 8561SOL    HW137145   4.007   0.163   4.073  2.7782 -0.6750 -0.4472
 8561SOL    HW237146   3.896   0.071   4.122  0.2475 -0.5222  2.2874
 8562SOL     OW37147   3.323   0.869   5.928 -0.6330 -0.6509 -0.0739
 8562SOL    HW137148   3.238   0.886   5.968 -0.8247 -0.7199 -0.4503
 8562SOL    HW237149   3.320   0.777   5.904 -0.5788 -0.6566 -0.0582
 8563SOL     OW37150   2.214   3.394   1.707  0.4011 -0.3200  0.1659
 8563SOL    HW137151   2.226   3.300   1.720  0.6071 -0.1275  1.3247
 8563SOL    HW237152   2.217   3.433   1.794  1.0069  0.8589 -0.3754
 8564SOL     OW37153   1.337   0.933   7.552  0.1162 -0.6032  0.0816
 8564SOL    HW137154   1.297   0.888   7.626 -1.5613  0.6986 -0.0470
 8564SOL    HW237155   1.425   0.895   7.554  0.3727 -0.0221 -0.3684
 8565SOL     OW37156   3.044   2.886   7.220  0.5222  0.4387 -0.8714
 8565SOL    HW137157   3.081   2.810   7.176  0.5214  0.1459 -0.3719
 8565SOL    HW237158   3.090   2.868   7.302 -0.6175 -0.9265 -0.5266
 8566SOL     OW37159   2.876   3.060   0.499 -0.0614 -0.0641 -0.8081
 8566SOL    HW137160   2.965   3.085   0.475 -0.6542  3.4370  0.5952
 8566SOL    HW237161   2.846   3.133   0.554 -0.6088 -0.1314 -1.0136
 8567SOL     OW37162   0.781   4.277   9.192 -0.2999  0.1549  0.1508
 8567SOL    HW137163   0.756   4.188   9.218 -0.8007  0.0826 -0.5595
 8567SOL    HW237164   0.820   4.255   9.107  0.9452  2.1142  0.2191
 8568SOL     OW37165   3.495   1.004   9.606 -0.1221  0.4112 -0.1071
 8568SOL    HW137166   3.403   1.029   9.612 -0.1816 -0.1416  1.2478
 8568SOL    HW237167   3.524   1.077   9.660 -1.8790  0.9358  0.1424
 8569SOL     OW37168   3.711   4.087  14.599 -0.6140 -0.1537  0.0755
 8569SOL    HW137169   3.671   4.168  14.629  0.5366 -0.8640  3.5862
 8569SOL    HW237170   3.725   4.100  14.505 -0.1074 -1.6730 -0.0648
 8570SOL     OW37171   3.934   3.861   5.943 -0.1507 -0.5114  0.1183
 8570SOL    HW137172   3.851   3.825   5.972  0.2337 -1.3802  0.1509
 8570SOL    HW237173   3.897   3.944   5.915  1.6369  0.5139  0.7707
 8571SOL     OW37174   1.309   0.517   9.924 -0.3344 -0.1552 -0.6799
 8571SOL    HW137175   1.257   0.569   9.863  1.9556  0.7906 -1.7918
 8571SOL    HW237176   1.387   0.509   9.870 -0.6720 -1.6285 -0.9465
 8572SOL     OW37177   1.245   4.415  15.526 -0.4732 -0.0217 -0.4173
 8572SOL    HW137178   1.220   4.327  15.501 -1.5598  0.3079 -0.4788
 8572SOL    HW237179   1.330   4.433  15.486 -1.5190  1.1634 -2.1216
 8573SOL     OW37180   4.706   4.593  14.789 -0.4914  0.5036  0.2987
 8573SOL    HW137181   4.658   4.515  14.759  0.5440 -0.8664  2.1331
 8573SOL    HW237182   0.030   4.559  14.865  0.0876  2.1530  0.6532
 8574SOL     OW37183   2.005   3.246   0.038  0.1150  0.1675 -0.0491
 8574SOL    HW137184   1.989   3.302   0.114 -1.8838  1.4352 -1.4063
 8574SOL    HW237185   1.934   3.182   0.037  0.1943  0.0644  1.8383
 8575SOL     OW37186   4.377   3.756   4.811 -0.0880 -0.1296  0.0511
 8575SOL    HW137187   4.347   3.671   4.844 -1.1244  0.8309  1.5513
 8575SOL    HW237188   4.366   3.739   4.718  0.7725 -1.2400  0.1565
 8576SOL     OW37189   0.953   0.811   9.386  0.0213  0.2717  0.2388
 8576SOL    HW137190   1.041   0.844   9.407 -0.7362  2.0013  0.6914
 8576SOL    HW237191   0.978   0.738   9.329 -2.9200  0.0106 -0.7257
 8577SOL     OW37192   2.493   0.812  15.794 -0.0134 -0.6438 -0.2812
 8577SOL    HW137193   2.540   0.745  15.844  0.6152  2.7198  3.6388
 8577SOL    HW237194   2.422   0.824  15.856 -0.6870 -1.7483 -0.8303
 8578SOL     OW37195   0.357   0.485  12.774  0.1299 -0.1231  0.5334
 8578SOL    HW137196   0.262   0.473  12.781 -0.0721 -0.4698 -2.4960
 8578SOL    HW237197   0.358   0.547  12.700 -0.9211 -0.2988  0.3760
 8579SOL     OW37198   2.897   3.974   3.064  0.3220  0.9902 -0.2235
 8579SOL    HW137199   2.832   3.903   3.058  1.0782  0.3457 -0.7101
 8579SOL    HW237200   2.848   4.056   3.060  0.4376  1.1604  1.7837
 8580SOL     OW37201   3.696   1.365   7.738 -0.0053 -0.0379  0.4953
 8580SOL    HW137202   3.716   1.381   7.830 -0.4370 -0.0195  0.5889
 8580SOL    HW237203   3.769   1.310   7.712 -1.4299 -0.5670 -2.3251
 8581SOL     OW37204   2.381   2.126   8.773  0.2367  0.4782  0.2798
 8581SOL    HW137205   2.421   2.088   8.851 -1.1915  2.1805  1.8521
 8581SOL    HW237206   2.341   2.051   8.730 -1.6565 -0.4934  3.7501
 8582SOL     OW37207   4.417   2.704   2.930 -0.0494 -0.4566 -0.1270
 8582SOL    HW137208   4.472   2.745   2.997 -1.6510  0.5887  0.5489
 8582SOL    HW237209   4.396   2.620   2.971 -4.9224 -0.4515 -2.7160
 8583SOL     OW37210   0.824   0.495   9.435  0.2242 -0.7257  0.2281
 8583SOL    HW137211   0.738   0.479   9.474 -0.4020  2.6942  0.2631
 8583SOL    HW237212   0.803   0.577   9.391 -1.7256  0.6001  3.5871
 8584SOL     OW37213   4.043   1.656  11.713  0.1002 -0.9041 -0.0268
 8584SOL    HW137214   3.963   1.708  11.710  1.1965  0.7803 -0.5349
 8584SOL    HW237215   4.105   1.725  11.688 -0.7230 -0.2128 -0.1504
 8585SOL     OW37216   1.244   3.706   4.031  0.1006 -0.5939 -0.0662
 8585SOL    HW137217   1.217   3.779   3.976 -0.2221  1.2855  2.5664
 8585SOL    HW237218   1.212   3.738   4.116  0.0843 -1.4061  0.2348
 8586SOL     OW37219   4.541   0.233  14.861 -0.3685  0.7592 -0.4757
 8586SOL    HW137220   4.493   0.303  14.905  0.9799  1.7515 -0.6206
 8586SOL    HW237221   4.632   0.240  14.889 -0.3381  0.7786 -0.5803
 8587SOL     OW37222   1.259   1.926   0.755  0.2349  0.8363  0.6374
 8587SOL    HW137223   1.252   1.893   0.666  1.4282  0.4778  0.6807
 8587SOL    HW237224   1.322   1.997   0.743  0.1351  0.9850  0.9961
 8588SOL     OW37225   3.797   2.895   4.126 -0.1479  0.4059  0.1756
 8588SOL    HW137226   3.832   2.870   4.212  0.4812 -3.2332 -1.1477
 8588SOL    HW237227   3.705   2.871   4.138  0.9446 -3.2613  1.1975
 8589SOL     OW37228   3.991   4.168   4.982 -0.0237  0.6143 -0.4783
 8589SOL    HW137229   4.059   4.103   4.964 -1.8452 -1.1267 -1.0517
 8589SOL    HW237230   3.931   4.155   4.909  0.2959 -1.5003 -0.3869
 8590SOL     OW37231   0.998   0.589   3.245 -0.4308  0.0980 -0.2113
 8590SOL    HW137232   1.093   0.577   3.239 -0.4318  0.1256 -0.2846
 8590SOL    HW237233   0.993   0.623   3.334  3.1460  0.2707 -0.0562
 8591SOL     OW37234   1.614   0.762  12.625  0.1627  0.2270 -0.0452
 8591SOL    HW137235   1.591   0.847  12.661 -1.6666  0.0577 -0.8478
 8591SOL    HW237236   1.656   0.716  12.698  1.5587 -0.8762 -1.5337
 8592SOL     OW37237   2.319   1.142   6.263  0.0579  0.1149 -0.0519
 8592SOL    HW137238   2.276   1.065   6.226  2.3381 -1.2273  0.0505
 8592SOL    HW237239   2.383   1.105   6.325 -0.9997 -0.9399  0.4220
 8593SOL     OW37240   2.067   3.397   0.434  0.4579  0.1954  0.3798
 8593SOL    HW137241   2.112   3.326   0.389  1.4216  0.9116  0.2358
 8593SOL    HW237242   2.117   3.470   0.397  0.1597 -0.5209 -1.4418
 8594SOL     OW37243   0.213   0.703   9.037  0.2415  0.1473  0.2222
 8594SOL    HW137244   0.153   0.683   8.966 -0.2273  1.6004  0.2131
 8594SOL    HW237245   0.166   0.770   9.088 -0.7457 -0.5213  0.1858
 8595SOL     OW37246   0.583   0.885   7.860  0.2315  0.5828 -0.2994
 8595SOL    HW137247   0.667   0.928   7.874 -0.3102  0.1475  4.1679
 8595SOL    HW237248   0.540   0.910   7.942 -0.6283 -0.4935 -0.4128
 8596SOL     OW37249   1.959   4.438  16.832 -0.5129  0.0638  0.3938
 8596SOL    HW137250   1.877   4.390  16.823 -0.6708  0.0809  1.8298
 8596SOL    HW237251   2.028   4.373  16.841 -0.2884  0.0077 -1.7869
 8597SOL     OW37252   2.183   0.979  10.844 -0.3352 -0.2131 -0.6494
 8597SOL    HW137253   2.106   0.929  10.868 -0.3281  0.4210  0.6828
 8597SOL    HW237254   2.140   1.065  10.836  1.6677  0.7909 -0.6424
 8598SOL     OW37255   1.897   2.636   1.987  0.2775  0.0789 -0.3472
 8598SOL    HW137256   1.927   2.635   1.896  1.3233 -0.8689  0.0036
 8598SOL    HW237257   1.922   2.544   2.001 -1.0673 -0.1642  0.4241
 8599SOL     OW37258   0.008   3.148   8.179 -0.3662  0.1519 -0.0497
 8599SOL    HW137259   0.076   3.130   8.114 -0.4482 -1.3865  0.2912
 8599SOL    HW237260   4.651   3.105   8.154 -0.5904  0.3259  0.3820
 8600SOL     OW37261   3.980   3.549  14.424  0.2273  0.2424  0.5944
 8600SOL    HW137262   3.944   3.612  14.362 -1.9883 -2.0070 -0.3886
 8600SOL    HW237263   4.073   3.560  14.405  0.2884 -1.4317 -0.0718
 8601SOL     OW37264   4.088   0.973   5.178  0.2564  0.1849  0.4382
 8601SOL    HW137265   4.028   0.946   5.109 -1.1685  2.0297  0.9692
 8601SOL    HW237266   4.120   1.056   5.143 -0.0148 -0.1062 -0.5142
 8602SOL     OW37267   3.890   0.837   7.721 -0.6859 -0.5413  0.6733
 8602SOL    HW137268   3.820   0.792   7.672 -0.2307  0.2096 -0.6662
 8602SOL    HW237269   3.834   0.891   7.777 -0.5486 -1.2494  1.5021
 8603SOL     OW37270   2.196   2.061   0.528 -0.4841  0.1388 -0.1903
 8603SOL    HW137271   2.265   2.125   0.514  0.7780 -1.1659  0.0928
 8603SOL    HW237272   2.122   2.104   0.485 -0.6770  0.4002  0.4063
 8604SOL     OW37273   4.621   1.689   7.158  0.7468 -0.4272 -0.3329
 8604SOL    HW137274   4.586   1.731   7.080  0.0766 -1.9684 -0.8637
 8604SOL    HW237275   4.646   1.608   7.115  0.2208 -0.0654 -1.3251
 8605SOL     OW37276   1.876   2.985  15.518 -0.2048  0.2853 -0.2152
 8605SOL    HW137277   1.921   3.062  15.483  1.6935  0.0986  1.7785
 8605SOL    HW237278   1.922   2.968  15.600  1.0781  0.5527 -0.8760
 8606SOL     OW37279   0.875   4.022   5.936  0.1517 -0.1026 -0.0010
 8606SOL    HW137280   0.881   4.014   6.031  1.0172  1.4050  0.0674
 8606SOL    HW237281   0.812   3.952   5.920 -0.6783  1.0593 -1.7857
 8607SOL     OW37282   1.410   4.010  12.830 -0.3833 -0.1648 -0.2062
 8607SOL    HW137283   1.439   4.006  12.921 -0.8037 -2.0802 -0.1572
 8607SOL    HW237284   1.483   3.976  12.777 -1.0783 -0.4424 -0.9752
 8608SOL     OW37285   3.168   0.796   6.691  0.0552  0.1901  0.7174
 8608SOL    HW137286   3.231   0.783   6.621 -0.7680 -2.0527  0.4020
 8608SOL    HW237287   3.125   0.710   6.698  0.1094  0.1790  0.9376
 8609SOL     OW37288   1.755   2.755   8.497  0.4569 -0.3457  0.4027
 8609SOL    HW137289   1.829   2.772   8.438  0.4192  2.5878  1.2040
 8609SOL    HW237290   1.692   2.824   8.478  0.6629  0.1596  1.5486
 8610SOL     OW37291   1.929   4.605   2.631 -0.5067 -0.5080  0.0986
 8610SOL    HW137292   1.879   4.667   2.686 -1.1795 -0.1367 -0.9236
 8610SOL    HW237293   1.941   4.660   2.553 -1.6010  2.5804  2.0834
 8611SOL     OW37294   0.657   4.272   2.294  0.3655 -0.4401 -0.3205
 8611SOL    HW137295   0.676   4.309   2.208  0.0237  1.2956  0.3486
 8611SOL    HW237296   0.642   4.355   2.340  2.5936 -0.3096  0.1590
 8612SOL     OW37297   1.511   1.369  12.474  0.9071  0.0114  0.3725
 8612SOL    HW137298   1.442   1.322  12.521  0.7370 -1.4931 -1.3649
 8612SOL    HW237299   1.545   1.430  12.540  0.1722  0.3279  0.4584
 8613SOL     OW37300   2.362   2.203  16.000  0.0276  0.2799 -0.0850
 8613SOL    HW137301   2.281   2.234  15.959  0.7173  2.7492  0.4386
 8613SOL    HW237302   2.399   2.180  15.914  0.2922  1.5653 -0.3174
 8614SOL     OW37303   3.328   1.542   0.543 -1.1114 -0.4727  0.6460
 8614SOL    HW137304   3.322   1.499   0.628  0.3895  1.2089  1.5987
 8614SOL    HW237305   3.314   1.469   0.484 -0.8866 -0.1899  0.2453
 8615SOL     OW37306   3.800   0.595   2.720  0.3683  0.1623 -0.2140
 8615SOL    HW137307   3.770   0.549   2.642 -0.0329 -3.7196  2.2112
 8615SOL    HW237308   3.829   0.673   2.672 -0.0519  0.0864 -0.5890
 8616SOL     OW37309   4.007   1.420   2.322 -0.0624 -0.1074  0.3576
 8616SOL    HW137310   4.025   1.473   2.244  2.8843 -3.3303 -1.1217
 8616SOL    HW237311   3.916   1.390   2.317  0.4887 -1.8601  0.8887
 8617SOL     OW37312   0.678   4.319   3.738 -0.1359 -0.3818 -0.4521
 8617SOL    HW137313   0.717   4.333   3.825  0.4294 -0.0636 -0.7562
 8617SOL    HW237314   0.759   4.331   3.688 -0.7925  0.9872 -1.1671
 8618SOL     OW37315   0.035   1.152   7.272 -0.1103  0.1574  0.1370
 8618SOL    HW137316   0.131   1.157   7.268 -0.1117 -0.4626 -0.7175
 8618SOL    HW237317   0.021   1.115   7.359 -2.2700  0.4409 -0.0836
 8619SOL     OW37318   4.603   3.986   3.554  0.1450 -0.1549 -0.3621
 8619SOL    HW137319   4.651   4.048   3.498  2.4153  1.1833  3.0799
 8619SOL    HW237320   4.520   4.032   3.567  1.4626  2.5821 -1.6393
 8620SOL     OW37321   1.876   3.638  16.396  0.1369 -0.2224  0.1101
 8620SOL    HW137322   1.798   3.663  16.444 -2.0199 -0.9943 -3.0317
 8620SOL    HW237323   1.906   3.714  16.345  0.4881 -0.1113  0.4797
 8621SOL     OW37324   0.081   4.445  15.886  0.1384 -0.4176 -0.6427
 8621SOL    HW137325   0.066   4.511  15.819  1.8797 -1.2012 -1.8170
 8621SOL    HW237326   0.177   4.449  15.879  0.0135  2.0464 -0.9072
 8622SOL     OW37327   1.594   2.566   7.246  0.0961  0.1235 -0.6293
 8622SOL    HW137328   1.669   2.511   7.223  1.5946  1.9141  0.0461
 8622SOL    HW237329   1.619   2.631   7.181  0.4916 -0.7982 -1.4104
 8623SOL     OW37330   3.416   3.654   4.912 -0.1673 -0.0233 -0.4154
 8623SOL    HW137331   3.489   3.595   4.892 -0.4290  0.0267 -1.5264
 8623SOL    HW237332   3.354   3.619   4.848  0.4807 -0.7068 -0.6695
 8624SOL     OW37333   0.901   0.216   9.691  0.3593 -0.5539  0.2449
 8624SOL    HW137334   0.969   0.158   9.726  0.9698  0.0519  0.0729
 8624SOL    HW237335   0.842   0.206   9.765 -2.1540 -1.9244 -1.9646
 8625SOL     OW37336   1.467   1.739   3.075 -0.4628 -0.0951  0.0757
 8625SOL    HW137337   1.552   1.751   3.033 -0.6551  1.8052  0.2289
 8625SOL    HW237338   1.440   1.666   3.020  0.0959 -0.8271  0.7757
 8626SOL     OW37339   1.990   3.259   3.940  0.2259  0.1230  0.3650
 8626SOL    HW137340   1.986   3.293   3.851  0.4523  0.4974  0.4991
 8626SOL    HW237341   1.900   3.225   3.949  0.1220 -0.3629 -2.6727
 8627SOL     OW37342   0.945   2.259   5.777  0.3593  0.0998 -0.2494
 8627SOL    HW137343   0.954   2.173   5.818  0.6743  0.2240 -0.0516
 8627SOL    HW237344   1.030   2.265   5.733  0.6916 -0.0431  0.3724
 8628SOL     OW37345   1.861   2.088   3.051 -0.7157  0.1772  0.1133
 8628SOL    HW137346   1.949   2.127   3.059 -0.7805  0.3975 -0.2200
 8628SOL    HW237347   1.875   1.996   3.069 -0.4049  0.3033  0.5200
 8629SOL     OW37348   2.809   4.091   3.474 -0.3387  1.0389  0.5778
 8629SOL    HW137349   2.799   4.169   3.529 -2.9808 -0.3060  2.0269
 8629SOL    HW237350   2.788   4.122   3.385 -0.5203 -2.2645 -0.5100
 8630SOL     OW37351   1.382   1.734  11.431  0.3990 -0.5284 -0.1742
 8630SOL    HW137352   1.464   1.760  11.473 -0.0512  0.0250  0.3569
 8630SOL    HW237353   1.376   1.643  11.460  0.6352 -0.0907  1.2325
 8631SOL     OW37354   3.243   2.319  12.033  0.3125 -0.1282 -0.3433
 8631SOL    HW137355   3.317   2.378  12.044 -0.8923  0.4888  4.5463
 8631SOL    HW237356   3.196   2.307  12.115  0.0466  1.7762 -0.2074
 8632SOL     OW37357   3.720   3.393   5.377  0.8420  0.2097 -0.4333
 8632SOL    HW137358   3.716   3.329   5.448 -1.4195  0.8488  0.0351
 8632SOL    HW237359   3.812   3.413   5.363  0.5019 -0.3379 -3.3112
 8633SOL     OW37360   2.660   3.353   3.903 -0.6084  0.5457 -0.1725
 8633SOL    HW137361   2.581   3.367   3.955 -0.2906 -0.5273  0.5896
 8633SOL    HW237362   2.627   3.354   3.813 -1.0406  0.3384 -0.0146
 8634SOL     OW37363   1.448   1.295   1.448 -0.0827  0.0190 -0.3201
 8634SOL    HW137364   1.382   1.341   1.499  0.9861  1.1927  0.0150
 8634SOL    HW237365   1.425   1.211   1.488 -1.3097 -0.4546 -2.0480
 8635SOL     OW37366   1.920   0.103   4.948 -0.2890  0.0934 -0.1557
 8635SOL    HW137367   1.994   0.042   4.953 -0.6465 -0.2572  0.8716
 8635SOL    HW237368   1.872   0.078   4.869 -1.8664  1.9584  0.2313
 8636SOL     OW37369   2.201   3.591   5.867  0.3620 -0.3833 -0.1595
 8636SOL    HW137370   2.266   3.539   5.914  0.1571 -1.8341 -1.5121
 8636SOL    HW237371   2.217   3.550   5.782  1.9428  1.4979 -0.7784
 8637SOL     OW37372   3.126   1.915  13.967 -0.2448 -0.1967 -0.5367
 8637SOL    HW137373   3.043   1.890  14.009 -0.2024  0.3120 -0.1514
 8637SOL    HW237374   3.178   1.945  14.041 -0.7609  1.2543 -0.7588
 8638SOL     OW37375   2.443   2.662   8.749 -0.0077 -0.2560  0.2361
 8638SOL    HW137376   2.392   2.698   8.822 -1.0973 -0.0109 -0.6521
 8638SOL    HW237377   2.407   2.695   8.667  0.0521  0.3680  0.4653
 8639SOL     OW37378   0.255   0.379   6.356 -0.0833 -0.5228  0.2027
 8639SOL    HW137379   0.302   0.375   6.273 -0.6988  0.1274 -0.1823
 8639SOL    HW237380   0.278   0.293   6.390  0.5569 -0.7104 -0.6988
 8640SOL     OW37381   1.221   0.687   8.388  0.2392  0.0277 -0.4740
 8640SOL    HW137382   1.200   0.647   8.472  1.0909  3.7110  1.4904
 8640SOL    HW237383   1.314   0.708   8.401 -0.7971  3.4505  1.3560
 8641SOL     OW37384   2.158   0.109  10.919  0.1506  0.1954 -0.1324
 8641SOL    HW137385   2.079   0.162  10.910 -0.7797 -1.1965 -0.2758
 8641SOL    HW237386   2.182   0.108  10.826 -1.0080 -1.2231 -0.4239
 8642SOL     OW37387   4.148   1.974  10.392 -0.6566 -0.1249  0.4322
 8642SOL    HW137388   4.148   2.031  10.315  0.3794  0.3801  0.8063
 8642SOL    HW237389   4.238   1.977  10.422 -0.4964  0.6631 -0.1417
 8643SOL     OW37390   1.189   1.997   5.391  0.0654  0.2084  0.3393
 8643SOL    HW137391   1.279   2.014   5.420  0.2507 -0.0727 -0.0747
 8643SOL    HW237392   1.187   1.904   5.367 -0.2435 -0.0309  1.2792
 8644SOL     OW37393   2.786   1.147   7.641  0.1737 -0.1035  0.6931
 8644SOL    HW137394   2.747   1.062   7.659 -0.5764  0.0500 -0.1833
 8644SOL    HW237395   2.763   1.207   7.713  2.2093  0.1305  1.1384
 8645SOL     OW37396   3.761   1.640   5.875  0.2706 -0.2425  0.3810
 8645SOL    HW137397   3.711   1.712   5.912 -0.5555  0.4138 -2.0399
 8645SOL    HW237398   3.721   1.562   5.915 -1.0231  0.6788  0.8533
 8646SOL     OW37399   2.334   0.539  14.290  0.0530  0.5713 -1.1412
 8646SOL    HW137400   2.272   0.535  14.217 -1.3080  1.7678 -0.0649
 8646SOL    HW237401   2.365   0.450  14.306 -0.0515  0.5067 -1.2964
 8647SOL     OW37402   0.322   0.031   3.800 -0.3911  0.4921  0.9165
 8647SOL    HW137403   0.328   0.095   3.872 -0.9207  0.1757  1.2438
 8647SOL    HW237404   0.292   4.678   3.847 -1.7154 -0.4146 -1.4674
 8648SOL     OW37405   1.407   1.320   6.014  0.3518 -0.2347  0.3806
 8648SOL    HW137406   1.497   1.287   6.008 -0.2213 -1.9331  1.0316
 8648SOL    HW237407   1.410   1.356   5.925  2.9556  0.4204  0.7348
 8649SOL     OW37408   0.728   1.680   6.973 -0.2521 -0.2902 -0.4275
 8649SOL    HW137409   0.770   1.742   6.914 -0.1758 -1.2540 -1.3806
 8649SOL    HW237410   0.717   1.725   7.057 -1.6650 -3.9890  1.4077
 8650SOL     OW37411   0.745   3.619   3.487  0.3449 -0.2832 -0.0984
 8650SOL    HW137412   0.696   3.659   3.558 -2.5426 -1.4143 -1.4329
 8650SOL    HW237413   0.707   3.660   3.409  0.6482  0.5462  0.1928
 8651SOL     OW37414   2.432   2.652   9.344  0.2228  0.2554  0.0007
 8651SOL    HW137415   2.340   2.656   9.370 -0.3534 -0.8630 -1.8751
 8651SOL    HW237416   2.470   2.609   9.420 -1.2407  0.2708  0.7431
 8652SOL     OW37417   3.532   3.804   5.089 -0.1060 -0.0704  0.8167
 8652SOL    HW137418   3.468   3.826   5.157 -0.9952 -1.6333  0.4725
 8652SOL    HW237419   3.478   3.759   5.024  1.8240 -0.3421 -0.5823
 8653SOL     OW37420   0.516   4.370   9.173 -0.3827  0.7329  0.0726
 8653SOL    HW137421   0.608   4.392   9.164 -0.2212  0.7252  1.6963
 8653SOL    HW237422   0.518   4.275   9.158 -2.7504  0.6614  0.2165
 8654SOL     OW37423   2.453   1.758   1.048 -0.0075  0.3093 -0.2015
 8654SOL    HW137424   2.511   1.828   1.017  0.2160 -0.2160 -0.9484
 8654SOL    HW237425   2.371   1.764   0.999  0.8659  0.4181 -1.6132
 8655SOL     OW37426   3.359   1.036   5.345  0.1859 -0.0831  1.0908
 8655SOL    HW137427   3.398   1.114   5.307  0.9726  0.7016  3.5394
 8655SOL    HW237428   3.370   1.055   5.438  2.4812 -2.8181  1.3548
 8656SOL     OW37429   0.698   2.680   3.762  0.3343  0.3524  0.7793
 8656SOL    HW137430   0.628   2.697   3.825 -0.3233 -1.7605  0.6074
 8656SOL    HW237431   0.700   2.766   3.719 -1.5582 -1.0462 -2.1430
 8657SOL     OW37432   1.903   1.852   8.857 -0.2513 -0.0524  0.0885
 8657SOL    HW137433   1.809   1.839   8.871 -0.1638 -0.7702 -0.0252
 8657SOL    HW237434   1.938   1.840   8.946 -0.8694 -1.9969  0.0714
 8658SOL     OW37435   2.475   0.756   2.395 -0.3292 -0.6551  0.4074
 8658SOL    HW137436   2.397   0.809   2.379 -0.1627 -0.1479  1.2943
 8658SOL    HW237437   2.491   0.782   2.485 -1.1729  0.4599  0.2403
 8659SOL     OW37438   4.552   0.039   4.700 -0.0355 -0.3446 -0.4763
 8659SOL    HW137439   4.640   0.057   4.666  0.1541 -2.3250 -1.0173
 8659SOL    HW237440   4.512   4.709   4.632 -1.9940  0.4291  0.0568
 8660SOL     OW37441   1.653   1.052   8.319 -0.0757 -0.5503 -0.4979
 8660SOL    HW137442   1.687   0.965   8.297  2.0738  0.4019 -0.9569
 8660SOL    HW237443   1.561   1.030   8.307 -0.4079  1.0782 -0.9772
 8661SOL     OW37444   1.656   4.363   6.705 -0.3777 -0.1795  0.5034
 8661SOL    HW137445   1.716   4.336   6.774 -0.0242 -1.0089 -0.1344
 8661SOL    HW237446   1.719   4.394   6.640 -0.4419  2.2026  1.5668
 8662SOL     OW37447   2.921   3.134   5.101  0.2155  0.1542 -0.1306
 8662SOL    HW137448   2.901   3.174   5.016  3.2672 -1.9727 -1.8874
 8662SOL    HW237449   3.001   3.081   5.094 -0.5678 -0.9873 -0.3844
 8663SOL     OW37450   4.015   3.334   2.009  0.1081  0.0695  0.0431
 8663SOL    HW137451   3.982   3.421   2.033 -1.6981 -1.1550  2.0015
 8663SOL    HW237452   3.936   3.319   1.956  0.9418  0.7439 -1.3930
 8664SOL     OW37453   0.077   2.808   8.062 -0.5865  0.2578 -0.2156
 8664SOL    HW137454   0.075   2.713   8.071  1.2071 -0.0244 -2.8511
 8664SOL    HW237455   0.168   2.837   8.075 -0.3398  0.0570 -1.4488
 8665SOL     OW37456   1.368   3.698   2.275 -0.2007 -0.1659  1.0352
 8665SOL    HW137457   1.376   3.606   2.299 -0.9586 -0.3350  0.6354
 8665SOL    HW237458   1.375   3.737   2.362  2.0272  1.9739 -0.1184
 8666SOL     OW37459   0.730   0.194   1.734 -0.1905 -0.4383 -0.2638
 8666SOL    HW137460   0.655   0.200   1.675  0.3194 -0.1746 -0.8844
 8666SOL    HW237461   0.690   0.212   1.819 -0.2508  0.1148 -0.4091
 8667SOL     OW37462   2.631   0.542   5.111 -0.2650 -0.3719  0.1629
 8667SOL    HW137463   2.562   0.569   5.172 -0.0191  1.9227 -0.5756
 8667SOL    HW237464   2.621   0.612   5.047 -1.6583 -2.2010 -1.6075
 8668SOL     OW37465   3.065   4.466  15.006 -0.0276 -0.1161 -0.4761
 8668SOL    HW137466   3.028   4.553  14.990  0.6814  0.4901  1.2049
 8668SOL    HW237467   2.981   4.421  14.996  0.2323 -0.4501 -1.1592
 8669SOL     OW37468   2.415   1.635   7.963  0.1505  0.0701  0.2400
 8669SOL    HW137469   2.426   1.723   7.929  0.4270 -0.0016  0.1405
 8669SOL    HW237470   2.380   1.654   8.050  2.1739 -1.4239  1.3769
 8670SOL     OW37471   3.402   0.299  13.041 -0.2877 -0.3328  0.7763
 8670SOL    HW137472   3.316   0.331  13.016 -0.0122 -1.2724 -1.3726
 8670SOL    HW237473   3.406   0.336  13.129  2.8727 -1.3481  1.0724
 8671SOL     OW37474   1.496   3.229   1.621 -0.1865  0.5264 -0.4972
 8671SOL    HW137475   1.569   3.268   1.669 -0.7298 -0.6739  1.3045
 8671SOL    HW237476   1.425   3.293   1.617  0.9379  1.9041  2.0691
 8672SOL     OW37477   3.971   3.745   5.680 -0.2280 -0.0105 -0.6942
 8672SOL    HW137478   4.029   3.669   5.680 -0.8728 -0.5042  1.1162
 8672SOL    HW237479   3.984   3.762   5.773  0.1209  3.6607 -1.4114
 8673SOL     OW37480   3.461   3.393   2.622 -0.4206 -0.0835  0.0424
 8673SOL    HW137481   3.484   3.362   2.534 -0.8649 -2.1092  0.6355
 8673SOL    HW237482   3.545   3.408   2.665 -1.0703  4.4062 -0.2595
 8674SOL     OW37483   0.160   0.131   7.544 -0.4792  0.0576 -0.5925
 8674SOL    HW137484   0.234   0.090   7.589 -0.2060 -2.0034 -2.8987
 8674SOL    HW237485   0.098   0.151   7.614  1.7106 -1.5539  1.7879
 8675SOL     OW37486   4.138   4.497   8.553  0.1883  0.2172 -0.1900
 8675SOL    HW137487   4.104   4.433   8.491  2.0655  1.5085 -2.5370
 8675SOL    HW237488   4.228   4.503   8.521  0.4646  1.5171  0.8095
 8676SOL     OW37489   4.176   3.113   3.620  0.0944 -0.0664  0.4687
 8676SOL    HW137490   4.137   3.113   3.708 -1.7216  1.4721 -0.3443
 8676SOL    HW237491   4.176   3.206   3.596  0.0312 -0.5134 -1.2275
 8677SOL     OW37492   2.233   3.891   1.893  0.1217  0.0919  0.0507
 8677SOL    HW137493   2.295   3.927   1.829 -0.7292  0.7627 -0.4082
 8677SOL    HW237494   2.149   3.897   1.847 -0.9487 -1.3250  1.8470
 8678SOL     OW37495   3.105   3.437   1.953  0.5919  0.5137 -0.2155
 8678SOL    HW137496   3.164   3.400   2.018  0.2157 -0.1336 -0.2406
 8678SOL    HW237497   3.089   3.526   1.984 -0.0580 -0.1751  1.4640
 8679SOL     OW37498   0.081   1.601  12.860 -0.6189 -0.2190 -0.0118
 8679SOL    HW137499   0.132   1.520  12.865 -0.6777 -0.3098 -0.8998
 8679SOL    HW237500   0.146   1.662  12.894 -0.5653  0.5296 -1.4954
 8680SOL     OW37501   3.228   2.052   1.832 -0.0815 -0.1445 -0.5514
 8680SOL    HW137502   3.284   2.031   1.757 -1.2785 -1.4763 -1.0472
 8680SOL    HW237503   3.197   2.138   1.803 -1.4147 -0.4905 -0.1319
 8681SOL     OW37504   1.136   1.686   3.328  0.4267 -0.7508 -0.1038
 8681SOL    HW137505   1.072   1.697   3.399 -1.0158  0.3523 -1.5955
 8681SOL    HW237506   1.101   1.606   3.289  0.0361 -0.3854 -0.4898
 8682SOL     OW37507   3.607   1.176   2.965  0.7598 -0.0406  0.1582
 8682SOL    HW137508   3.518   1.178   3.002  0.4223  0.2920 -0.6719
 8682SOL    HW237509   3.660   1.215   3.035 -0.2392  0.3680  0.6891
 8683SOL     OW37510   2.356   3.491   6.041  0.6300  0.3162 -0.3804
 8683SOL    HW137511   2.307   3.427   6.093 -1.6553  2.8551  0.5997
 8683SOL    HW237512   2.391   3.546   6.111 -1.2494 -0.4451  1.1390
 8684SOL     OW37513   0.551   0.599  13.364 -0.0805  0.0329 -0.1316
 8684SOL    HW137514   0.489   0.569  13.296 -0.0015  0.2288 -0.2898
 8684SOL    HW237515   0.613   0.651  13.313 -1.3061  0.8769 -0.7507
 8685SOL     OW37516   0.888   3.091   3.549 -0.1884  0.3256 -0.4744
 8685SOL    HW137517   0.937   3.025   3.499 -1.3747 -1.6643  0.9712
 8685SOL    HW237518   0.884   3.168   3.492  0.4660  0.1311 -0.7747
 8686SOL     OW37519   1.538   3.311   3.191 -0.0392 -0.2244  0.3435
 8686SOL    HW137520   1.494   3.353   3.265 -0.2553 -1.5928  0.9858
 8686SOL    HW237521   1.488   3.230   3.183  2.3748 -1.6863 -0.2017
 8687SOL     OW37522   4.579   3.481  11.342 -0.4784 -0.0020 -1.0379
 8687SOL    HW137523   4.509   3.546  11.349 -1.5059 -1.2724  0.3704
 8687SOL    HW237524   4.566   3.460  11.249  1.6810 -1.3357 -1.0514
 8688SOL     OW37525   3.488   2.390   4.895 -0.5781  0.1725 -0.2970
 8688SOL    HW137526   3.574   2.430   4.898 -0.3415 -0.4321  1.0464
 8688SOL    HW237527   3.507   2.304   4.932 -0.5141  0.3092 -0.0130
 8689SOL     OW37528   1.937   1.587  15.736 -0.1442  0.1409 -0.3359
 8689SOL    HW137529   1.879   1.592  15.660  1.5566 -0.6123 -1.6962
 8689SOL    HW237530   1.986   1.668  15.725 -0.3449  0.0237 -2.2197
 8690SOL     OW37531   2.444   2.267   4.482 -0.8640  0.2767  0.1384
 8690SOL    HW137532   2.385   2.270   4.407 -0.3187  0.1650 -0.3006
 8690SOL    HW237533   2.431   2.176   4.509  1.6571 -0.5529 -1.3449
 8691SOL     OW37534   0.515   3.123   5.270 -0.3065  0.4212  0.1095
 8691SOL    HW137535   0.465   3.171   5.336 -0.5983  2.7234 -1.7856
 8691SOL    HW237536   0.564   3.069   5.332 -0.4955  2.0063  1.6714
 8692SOL     OW37537   0.646   2.521  16.345 -0.2706 -0.3621 -0.0696
 8692SOL    HW137538   0.615   2.612  16.346 -0.7160 -0.5209  0.1743
 8692SOL    HW237539   0.571   2.474  16.379 -0.4075  1.2260  1.8070
 8693SOL     OW37540   1.798   1.431   1.006 -0.0454  0.6556 -0.0454
 8693SOL    HW137541   1.882   1.388   0.988 -1.3089 -2.0105  0.5146
 8693SOL    HW237542   1.737   1.358   0.998 -1.7137  2.1317 -0.5844
 8694SOL     OW37543   3.661   1.328  16.864 -0.0797  0.2013 -0.0700
 8694SOL    HW137544   3.580   1.281  16.884  0.2068  0.5192  1.8709
 8694SOL    HW237545   3.625   1.392  16.803  2.3517 -0.7853 -2.5365
 8695SOL     OW37546   1.107   3.070   7.527 -0.5816 -0.0619  0.2925
 8695SOL    HW137547   1.185   3.053   7.579  0.1612  0.6809 -0.5830
 8695SOL    HW237548   1.132   3.059   7.435 -0.8664  4.2358 -0.3083
 8696SOL     OW37549   1.014   2.298  17.436 -0.2801  0.2140  0.4708
 8696SOL    HW137550   1.052   2.303  17.348 -0.7711 -0.9135  0.1932
 8696SOL    HW237551   0.925   2.275  17.410  0.3682 -2.0703  0.2712
 8697SOL     OW37552   1.828   1.332   1.817  0.0416 -0.0403  0.6385
 8697SOL    HW137553   1.863   1.401   1.873 -1.3578  1.7035 -0.6285
 8697SOL    HW237554   1.737   1.362   1.809  0.2414  0.0949 -1.1715
 8698SOL     OW37555   2.980   0.232   9.718  0.2113 -0.2046 -0.1717
 8698SOL    HW137556   3.016   0.283   9.645  1.6344 -1.2446 -0.1811
 8698SOL    HW237557   2.916   0.287   9.764 -0.9622 -0.6325 -1.2723
 8699SOL     OW37558   2.432   0.942  10.746  0.1583  0.5314  0.3005
 8699SOL    HW137559   2.446   0.866  10.803  1.0521 -1.7322 -2.9669
 8699SOL    HW237560   2.345   0.958  10.784  0.5954  1.0819  1.0688
 8700SOL     OW37561   3.360   1.931  11.135  0.1238 -0.2962  0.2229
 8700SOL    HW137562   3.403   1.912  11.051 -2.4720  1.3199 -1.4571
 8700SOL    HW237563   3.279   1.968  11.100  1.6172  1.2900 -1.6171
 8701SOL     OW37564   0.179   0.205  14.603  0.3623  0.4253 -0.2020
 8701SOL    HW137565   0.140   0.189  14.689  1.1530  0.6470  0.1974
 8701SOL    HW237566   0.096   0.214  14.556  0.6480  0.5046 -0.6799
 8702SOL     OW37567   3.852   3.702   5.309  0.0452  0.1767 -0.1668
 8702SOL    HW137568   3.869   3.656   5.392 -0.9426  3.4934  1.8766
 8702SOL    HW237569   3.935   3.709   5.263 -0.6461 -0.5212 -1.5263
 8703SOL     OW37570   1.770   0.195  10.312  0.2820 -0.4361  0.1800
 8703SOL    HW137571   1.742   0.286  10.312  0.9014 -0.2409 -1.4179
 8703SOL    HW237572   1.768   0.174  10.218 -2.8997  0.7290 -0.0188
 8704SOL     OW37573   0.200   0.327   8.877 -0.0468 -0.5721 -0.5180
 8704SOL    HW137574   0.189   0.243   8.831  1.3229 -0.1745 -1.5784
 8704SOL    HW237575   0.246   0.373   8.807  0.9450 -0.9123 -0.1018
 8705SOL     OW37576   0.908   3.128   7.729  0.7292  0.0292  0.5865
 8705SOL    HW137577   0.909   3.102   7.637  1.8158  2.4660 -0.0689
 8705SOL    HW237578   0.978   3.191   7.741 -1.1054  2.4096 -1.2447
 8706SOL     OW37579   3.552   0.006   2.116 -0.1002 -0.5426  0.5214
 8706SOL    HW137580   3.558   4.653   2.060  1.1670  2.2086 -3.2252
 8706SOL    HW237581   3.459   0.031   2.115 -0.2659 -1.1985 -1.7971
 8707SOL     OW37582   3.635   3.695   2.324 -0.7289  0.4058  0.2939
 8707SOL    HW137583   3.712   3.638   2.317 -0.7003  0.8266 -2.8681
 8707SOL    HW237584   3.567   3.628   2.315  1.1683 -1.6106  0.8665
 8708SOL     OW37585   1.036   3.613   2.010 -0.4890 -0.3586  0.6325
 8708SOL    HW137586   1.111   3.672   2.016 -0.7121  0.0417 -0.4020
 8708SOL    HW237587   1.058   3.563   1.932 -2.1469  0.8080 -0.5902
 8709SOL     OW37588   0.524   0.652   9.365  0.3884 -0.6261  0.3336
 8709SOL    HW137589   0.550   0.579   9.421  0.2652 -1.3219 -0.5180
 8709SOL    HW237590   0.522   0.725   9.426 -1.2177 -1.7509  1.6351
 8710SOL     OW37591   2.804   0.767  11.173  0.1228 -0.7116 -0.3312
 8710SOL    HW137592   2.843   0.850  11.201  1.5104 -1.7510  0.8672
 8710SOL    HW237593   2.735   0.803  11.118 -1.7167  0.9438  3.0561
 8711SOL     OW37594   2.191   4.285   7.102  0.1784  0.2667 -0.3362
 8711SOL    HW137595   2.117   4.278   7.163  0.6428  2.8751  0.5125
 8711SOL    HW237596   2.193   4.377   7.078  3.4741 -0.0707 -1.2489
 8712SOL     OW37597   4.092   4.488   1.406  0.3305  0.0061  0.6472
 8712SOL    HW137598   4.044   4.515   1.485 -0.5677  1.5816 -0.4391
 8712SOL    HW237599   4.146   4.428   1.457 -0.8156 -0.7198  1.0195
 8713SOL     OW37600   3.672   3.882   3.375  0.3683 -0.4938 -0.0607
 8713SOL    HW137601   3.719   3.836   3.444 -0.8813  0.5924  1.5124
 8713SOL    HW237602   3.583   3.869   3.405 -0.4151  2.1709 -1.1761
 8714SOL     OW37603   0.151   2.236   7.599 -0.0776 -0.2512  0.2931
 8714SOL    HW137604   0.065   2.232   7.642 -0.0412  0.1451  0.4044
 8714SOL    HW237605   0.207   2.241   7.677 -0.2163  0.2405  0.3599
 8715SOL     OW37606   2.029   2.742  14.217  0.5907 -0.2169  0.1420
 8715SOL    HW137607   2.066   2.673  14.161 -2.5311  0.1068 -2.2831
 8715SOL    HW237608   2.082   2.818  14.191  0.1595 -0.7937 -2.3738
 8716SOL     OW37609   4.178   3.520   8.635  0.3289  0.2363  0.2582
 8716SOL    HW137610   4.245   3.585   8.655  0.4378  0.8389 -2.0372
 8716SOL    HW237611   4.118   3.581   8.594 -1.5157 -0.2836  2.1994
 8717SOL     OW37612   4.160   2.691   7.777 -0.4883  0.0914 -0.2288
 8717SOL    HW137613   4.162   2.786   7.762  0.5018 -0.0726 -1.1645
 8717SOL    HW237614   4.198   2.692   7.865 -3.4769 -3.1414  1.0686
 8718SOL     OW37615   4.603   0.739   4.246  0.5985 -0.1512 -0.3245
 8718SOL    HW137616   4.627   0.769   4.334  0.7489 -2.7047  0.5111
 8718SOL    HW237617   4.602   0.644   4.252  1.2943 -0.0005  2.0661
 8719SOL     OW37618   0.042   2.868   5.439  0.0125 -0.6215 -0.5088
 8719SOL    HW137619   0.016   2.802   5.375  1.3032 -0.3825 -1.2833
 8719SOL    HW237620   0.028   2.816   5.518 -0.2178 -0.4503 -0.4347
 8720SOL     OW37621   2.907   2.151  10.718 -0.0926  0.2804 -0.3393
 8720SOL    HW137622   2.949   2.209  10.655 -1.3120  1.8223  0.2664
 8720SOL    HW237623   2.843   2.213  10.753  1.6610  1.5083  0.6622
 8721SOL     OW37624   3.346   3.437   5.867  0.0019 -0.3389 -0.2540
 8721SOL    HW137625   3.283   3.368   5.843 -0.7303  0.6644 -1.2670
 8721SOL    HW237626   3.333   3.499   5.795 -1.2920 -0.1325  0.1557
 8722SOL     OW37627   2.549   0.064   8.613  0.1431 -0.0559  0.5726
 8722SOL    HW137628   2.548   0.159   8.628 -2.4447 -0.1168  0.7376
 8722SOL    HW237629   2.473   0.054   8.555  0.5227 -3.0266  0.5846
 8723SOL     OW37630   4.603   3.468   3.841 -0.0762  0.4452 -0.6512
 8723SOL    HW137631   4.674   3.475   3.778 -0.5219 -2.2111 -1.4489
 8723SOL    HW237632   4.591   3.373   3.841  1.0729  0.3063 -0.8353
 8724SOL     OW37633   1.579   4.705   6.742  0.1783 -0.0127 -0.6793
 8724SOL    HW137634   1.602   4.718   6.834  1.6421 -2.2753 -0.7089
 8724SOL    HW237635   1.531   4.624   6.756 -1.3400  1.0202  0.0353
 8725SOL     OW37636   1.086   0.886   6.699 -0.1307 -0.3709  0.0429
 8725SOL    HW137637   1.156   0.820   6.698 -0.3338 -0.5726 -0.5178
 8725SOL    HW237638   1.084   0.898   6.794 -1.4203  2.4606 -0.3413
 8726SOL     OW37639   1.185   1.797  12.124  0.2616 -0.2454 -0.3039
 8726SOL    HW137640   1.268   1.807  12.171  0.7048  2.8548 -1.7698
 8726SOL    HW237641   1.122   1.847  12.175  1.0006  0.8641 -0.4934
 8727SOL     OW37642   3.790   3.676   3.492 -0.4073 -0.0437 -0.5450
 8727SOL    HW137643   3.794   3.581   3.491 -2.7958 -0.1719  0.1683
 8727SOL    HW237644   3.878   3.699   3.521 -0.6525 -0.6221  0.6329
 8728SOL     OW37645   2.264   1.819   6.015 -0.5457  0.0007  0.0561
 8728SOL    HW137646   2.211   1.777   5.948 -0.3161 -0.1483 -0.0306
 8728SOL    HW237647   2.240   1.907   5.986 -2.2663 -0.4853  0.0184
 8729SOL     OW37648   3.873   1.266   4.116  0.1474 -0.0509 -0.0316
 8729SOL    HW137649   3.908   1.336   4.061  0.1105  0.1728  0.2291
 8729SOL    HW237650   3.810   1.238   4.050  0.1510 -0.2126  0.0340
 8730SOL     OW37651   1.799   2.674  12.591  0.3358  0.0387  0.4048
 8730SOL    HW137652   1.862   2.744  12.578  0.5394  0.0956  1.7147
 8730SOL    HW237653   1.726   2.724  12.556  1.6665  2.5072  1.1975
 8731SOL     OW37654   0.208   2.703  17.581  0.0499 -0.1556 -0.1036
 8731SOL    HW137655   0.178   2.648  17.654  0.0323 -1.7971 -1.3485
 8731SOL    HW237656   0.167   2.786  17.607  1.0621  0.7930 -1.5032
 8732SOL     OW37657   2.589   2.845   8.207 -0.0918 -0.0451 -0.4854
 8732SOL    HW137658   2.681   2.848   8.235 -0.3043 -0.1396  0.2442
 8732SOL    HW237659   2.556   2.929   8.238  1.2837  0.1401  0.4665
 8733SOL     OW37660   3.081   1.457   7.802 -0.2083 -0.1227 -0.0724
 8733SOL    HW137661   3.011   1.478   7.864 -0.0344 -1.9352  0.7171
 8733SOL    HW237662   3.157   1.503   7.839  0.1630 -0.1584 -0.7833
 8734SOL     OW37663   1.843   4.307   6.899 -1.1812 -0.4662  0.3075
 8734SOL    HW137664   1.933   4.306   6.866 -1.2157 -1.8057  0.2495
 8734SOL    HW237665   1.833   4.212   6.908 -0.0751 -0.5327  0.8385
 8735SOL     OW37666   3.137   1.853   7.337  0.4833  0.2338 -0.3834
 8735SOL    HW137667   3.069   1.921   7.338 -0.8983 -1.1984  2.8234
 8735SOL    HW237668   3.209   1.910   7.308  0.9897  0.2621  0.9282
 8736SOL     OW37669   2.218   4.354  15.207  0.4220  0.3914 -0.1819
 8736SOL    HW137670   2.162   4.420  15.249  2.0293  0.4158  1.9353
 8736SOL    HW237671   2.159   4.282  15.186 -0.8410  1.4348 -0.2130
 8737SOL     OW37672   3.283   3.401   5.356 -0.2190  0.3120  0.5873
 8737SOL    HW137673   3.340   3.428   5.284 -0.9062 -1.3089 -0.5461
 8737SOL    HW237674   3.202   3.451   5.343 -0.4061  0.0128  0.5990
 8738SOL     OW37675   3.436   0.282   3.241  0.8836 -0.2234 -0.1433
 8738SOL    HW137676   3.380   0.284   3.164  0.7415  0.0218 -0.0328
 8738SOL    HW237677   3.507   0.338   3.209  0.3008 -0.9005 -2.6108
 8739SOL     OW37678   2.799   1.958   2.995 -0.2233 -0.0066  0.0613
 8739SOL    HW137679   2.749   1.971   3.075  1.0153 -1.5060  1.0813
 8739SOL    HW237680   2.851   1.882   3.024 -1.2410 -0.0098  1.8744
 8740SOL     OW37681   0.314   0.924   2.417 -0.1456  0.0667 -0.2926
 8740SOL    HW137682   0.335   1.008   2.377  3.4273 -1.0879 -0.8748
 8740SOL    HW237683   0.406   0.904   2.439 -0.1681  1.4716  1.0878
 8741SOL     OW37684   1.023   1.621   4.005  0.1421  0.0057  0.4231
 8741SOL    HW137685   0.953   1.584   3.951  1.0103  1.2925 -1.5915
 8741SOL    HW237686   1.101   1.592   3.957  0.3337  0.6717  0.3362
 8742SOL     OW37687   4.129   2.421   8.112 -0.2587 -0.3145 -0.1606
 8742SOL    HW137688   4.158   2.331   8.129 -3.3736 -1.3400 -0.2501
 8742SOL    HW237689   4.051   2.420   8.057 -0.8887  0.7960  0.7162
 8743SOL     OW37690   0.940   3.046   2.242  0.1225  0.0450  0.3668
 8743SOL    HW137691   0.883   2.987   2.193 -0.0510  0.4533  0.0756
 8743SOL    HW237692   0.913   3.129   2.203 -0.5329 -1.2006 -1.7993
 8744SOL     OW37693   0.894   2.384   4.779  0.5179 -0.2235  0.4226
 8744SOL    HW137694   0.984   2.416   4.771  0.3398  0.1805  0.0864
 8744SOL    HW237695   0.849   2.443   4.839 -1.6426 -0.5577 -0.8786
 8745SOL     OW37696   0.371   4.298  12.564 -0.3346 -0.1399 -0.7289
 8745SOL    HW137697   0.345   4.231  12.627 -0.8698  1.6581  0.9439
 8745SOL    HW237698   0.462   4.270  12.556 -0.2881 -0.0742 -0.3937
 8746SOL     OW37699   0.861   4.615   3.451 -0.2119  0.1808  0.2624
 8746SOL    HW137700   0.769   4.632   3.468 -0.1600 -1.3790  2.1381
 8746SOL    HW237701   0.881   4.540   3.508  0.0283 -0.2743 -0.4224
 8747SOL     OW37702   1.640   2.188   4.980 -0.0490 -0.6277 -0.7321
 8747SOL    HW137703   1.613   2.111   4.930  2.1827 -1.6608 -0.3744
 8747SOL    HW237704   1.668   2.143   5.060  1.9099 -1.8822 -2.1071
 8748SOL     OW37705   2.674   4.005  16.320 -0.1386  0.2028 -0.2383
 8748SOL    HW137706   2.680   4.031  16.412  0.4772  4.4814 -1.4770
 8748SOL    HW237707   2.745   3.942  16.316 -0.4472 -0.0992 -0.9877
 8749SOL     OW37708   4.347   3.472   4.876 -0.4538 -0.1842  0.2413
 8749SOL    HW137709   4.391   3.422   4.807  2.2940  1.4593  0.7653
 8749SOL    HW237710   4.404   3.441   4.946 -0.5817 -1.0197 -0.0332
 8750SOL     OW37711   1.727   1.532   3.321  0.5956  0.0904  0.2551
 8750SOL    HW137712   1.740   1.613   3.371  1.2028 -0.5451  1.1324
 8750SOL    HW237713   1.635   1.510   3.333  0.4642 -0.0404 -1.0070
 8751SOL     OW37714   1.657   2.126   7.135 -0.3450  0.5243  0.2632
 8751SOL    HW137715   1.739   2.098   7.175 -0.1231 -0.4009 -0.8368
 8751SOL    HW237716   1.589   2.099   7.197  0.5652  0.9476  1.4581
 8752SOL     OW37717   4.027   3.476  10.752  0.0837 -0.5458 -0.2573
 8752SOL    HW137718   4.024   3.425  10.833  0.9029 -2.2420 -1.2987
 8752SOL    HW237719   3.958   3.543  10.761  1.3546  0.8501 -0.8724
 8753SOL     OW37720   3.175   1.455  12.741 -0.3910 -1.0561  0.2130
 8753SOL    HW137721   3.259   1.411  12.731  0.3636 -0.2768  3.2542
 8753SOL    HW237722   3.192   1.545  12.711 -0.1350 -1.4178 -0.7262
 8754SOL     OW37723   4.068   2.697   0.173  0.0473 -0.6678  0.1447
 8754SOL    HW137724   4.085   2.788   0.150  1.0430 -0.8845  0.0210
 8754SOL    HW237725   4.047   2.654   0.091  0.3565 -1.5585  0.5302
 8755SOL     OW37726   2.114   0.045   1.447 -0.1126  0.4052 -0.7648
 8755SOL    HW137727   2.039   0.104   1.442 -0.4284  0.0857  0.2239
 8755SOL    HW237728   2.148   0.071   1.532 -0.1407  3.1601 -1.5923
 8756SOL     OW37729   3.864   0.271  13.806 -0.6062  0.1027 -0.5343
 8756SOL    HW137730   3.881   0.296  13.715 -0.1715  2.8291  0.2959
 8756SOL    HW237731   3.819   0.188  13.791 -1.9791  0.6519  0.6069
 8757SOL     OW37732   1.527   0.498   2.616  0.4456  0.3900  0.3228
 8757SOL    HW137733   1.508   0.450   2.696 -2.3710 -2.1125 -1.8057
 8757SOL    HW237734   1.459   0.563   2.631 -0.4685 -0.0980 -1.7181
 8758SOL     OW37735   3.556   3.009   5.947  0.1021 -0.0625  0.0748
 8758SOL    HW137736   3.541   3.050   5.862  0.7792 -0.1328 -0.0807
 8758SOL    HW237737   3.630   3.063   5.976  0.6123  0.4320 -2.1851
 8759SOL     OW37738   3.522   4.469   8.387 -0.5499  0.0216 -0.1536
 8759SOL    HW137739   3.451   4.530   8.410 -1.5733 -0.9129 -0.8453
 8759SOL    HW237740   3.598   4.528   8.379  0.8797 -1.9446 -1.0050
 8760SOL     OW37741   0.765   1.648   3.147 -0.4043  0.5635 -0.1121
 8760SOL    HW137742   0.670   1.662   3.155 -0.4450 -0.1350  0.6418
 8760SOL    HW237743   0.793   1.732   3.109  1.6130 -0.5235 -1.0264
 8761SOL     OW37744   1.988   0.401   7.732  0.0104  0.0518  0.1768
 8761SOL    HW137745   2.082   0.383   7.736 -0.2808 -1.4080  0.6477
 8761SOL    HW237746   1.963   0.315   7.697  1.2322 -0.6516  1.0482
 8762SOL     OW37747   4.512   4.722  17.047 -0.5625  0.4142 -0.4023
 8762SOL    HW137748   4.607   4.717  17.058 -0.8956 -1.8365  1.4935
 8762SOL    HW237749   4.512   4.655  16.978  1.4280  1.1155 -1.0812
 8763SOL     OW37750   1.295   3.006   8.050  0.1030 -0.0741  0.0424
 8763SOL    HW137751   1.327   2.927   8.006  0.3927 -0.8153  1.6047
 8763SOL    HW237752   1.249   2.954   8.116  1.1828  2.2506  2.6027
 8764SOL     OW37753   2.736   4.333   7.390 -0.0552  0.7938  0.2906
 8764SOL    HW137754   2.799   4.305   7.323 -0.6371  1.5150 -0.5703
 8764SOL    HW237755   2.661   4.288   7.351 -0.2944 -0.3889  2.1366
 8765SOL     OW37756   3.956   0.994  12.714  0.6141  0.1994  0.6123
 8765SOL    HW137757   4.004   0.913  12.735  1.1520 -0.0401 -1.5850
 8765SOL    HW237758   3.949   0.987  12.619  1.8053  1.5943  0.4246
 8766SOL     OW37759   2.074   0.215  17.310  0.2313  0.1348 -0.1511
 8766SOL    HW137760   2.048   0.171  17.391 -0.1225  0.2993 -0.1732
 8766SOL    HW237761   2.095   0.136  17.261 -1.8089  0.5030 -1.5791
 8767SOL     OW37762   3.818   2.078   2.122  0.1071 -0.5228 -0.4198
 8767SOL    HW137763   3.852   2.021   2.053  1.2622 -1.1758  0.6951
 8767SOL    HW237764   3.755   2.130   2.073  1.0823 -0.1054 -1.2479
 8768SOL     OW37765   3.104   3.085   4.821  0.1419 -0.2443 -0.2536
 8768SOL    HW137766   3.068   3.169   4.850 -2.7611 -1.7304  0.4738
 8768SOL    HW237767   3.145   3.107   4.737  0.7316 -1.2270 -0.2166
 8769SOL     OW37768   3.916   2.658   3.539 -1.0562  0.1099  0.0746
 8769SOL    HW137769   3.981   2.614   3.593  0.8880  1.3156 -1.2604
 8769SOL    HW237770   3.969   2.694   3.468  2.3611 -3.1387  1.0192
 8770SOL     OW37771   1.551   4.220  15.521 -0.1403 -0.2175 -0.1541
 8770SOL    HW137772   1.581   4.272  15.595  0.2020 -0.8131  0.1213
 8770SOL    HW237773   1.481   4.173  15.567  1.5502 -2.1345  0.4297
 8771SOL     OW37774   3.358   2.496   0.109  0.2550  0.2391 -0.1268
 8771SOL    HW137775   3.436   2.448   0.140 -0.9847 -0.6989  1.5053
 8771SOL    HW237776   3.407   2.555   0.051 -0.1003  0.8349  0.1850
 8772SOL     OW37777   2.795   1.824  11.470 -0.7672  0.7077  0.4773
 8772SOL    HW137778   2.808   1.729  11.467  1.1654  1.0395 -1.7133
 8772SOL    HW237779   2.786   1.844  11.564 -0.8105  1.2114  0.3641
 8773SOL     OW37780   3.748   3.866  12.539  0.0554 -0.2014 -0.0432
 8773SOL    HW137781   3.795   3.853  12.622 -0.6513 -2.6420 -0.0326
 8773SOL    HW237782   3.666   3.818  12.550 -0.3678  0.4714 -0.2387
 8774SOL     OW37783   4.567   2.487  14.755 -0.1142  0.6949  0.5168
 8774SOL    HW137784   4.625   2.418  14.724 -0.7760  0.0786  0.6350
 8774SOL    HW237785   4.513   2.426  14.805 -0.3038  0.8019  0.4451
 8775SOL     OW37786   1.575   2.699   2.133  0.1764  0.0418  0.3504
 8775SOL    HW137787   1.627   2.620   2.126 -0.0052  0.0264 -0.8719
 8775SOL    HW237788   1.487   2.661   2.140 -0.1251  0.6212 -0.2605
 8776SOL     OW37789   3.185   3.806   1.070  0.1056  0.5795 -0.3841
 8776SOL    HW137790   3.153   3.720   1.096 -0.1968  1.1421  1.0904
 8776SOL    HW237791   3.098   3.845   1.072 -0.4167 -0.6452  1.0909
 8777SOL     OW37792   3.243   0.482  11.731  0.2058 -0.1692  0.5021
 8777SOL    HW137793   3.225   0.576  11.733  1.2000 -0.0092  1.8973
 8777SOL    HW237794   3.315   0.468  11.792 -1.1099 -1.2856  1.8123
 8778SOL     OW37795   2.741   0.277  10.895  0.4372 -0.2656 -0.2383
 8778SOL    HW137796   2.686   0.332  10.952  2.0030  1.0091  0.0420
 8778SOL    HW237797   2.679   0.254  10.826 -1.8723  1.3191  1.3077
 8779SOL     OW37798   0.767   2.212  10.188  0.4385  0.4515  0.2278
 8779SOL    HW137799   0.834   2.276  10.163 -1.6129  2.3666 -0.4730
 8779SOL    HW237800   0.759   2.219  10.283 -2.5508  1.5074 -0.0891
 8780SOL     OW37801   1.915   1.674  12.438  0.1637  0.8607  0.0389
 8780SOL    HW137802   1.924   1.662  12.344  0.2837  2.1833 -0.1203
 8780SOL    HW237803   1.929   1.590  12.481  1.5971  0.6792 -0.7837
 8781SOL     OW37804   4.322   0.822   5.205  0.2001 -0.1235  0.4308
 8781SOL    HW137805   4.270   0.748   5.173  1.8141 -0.7760 -0.6742
 8781SOL    HW237806   4.248   0.880   5.222 -0.3646 -0.4645 -0.8373
 8782SOL     OW37807   0.411   3.562   1.594 -0.5516  0.3190  0.2134
 8782SOL    HW137808   0.330   3.553   1.646 -0.0680  1.8456  1.2439
 8782SOL    HW237809   0.412   3.479   1.548 -0.0058 -0.0322  0.8677
 8783SOL     OW37810   2.286   2.152   5.690 -0.4806  0.1715 -0.0071
 8783SOL    HW137811   2.304   2.068   5.647  0.2288 -0.3897  1.3731
 8783SOL    HW237812   2.223   2.184   5.625 -1.0828  1.2051  1.0739
 8784SOL     OW37813   3.646   3.052   6.985 -0.3511 -0.3544 -0.1998
 8784SOL    HW137814   3.652   2.969   7.032  0.1852 -0.8834 -1.1925
 8784SOL    HW237815   3.614   3.020   6.900 -3.6437 -0.1509  0.9434
 8785SOL     OW37816   1.263   3.374  13.117 -0.2911 -0.2953  0.2966
 8785SOL    HW137817   1.281   3.285  13.086  0.0255 -0.5444  1.1904
 8785SOL    HW237818   1.168   3.368  13.125 -0.5219  0.1192 -2.3523
 8786SOL     OW37819   0.387   0.137   3.455  0.3650 -0.6114 -0.2332
 8786SOL    HW137820   0.333   0.142   3.534 -1.2974  0.6714 -1.4327
 8786SOL    HW237821   0.460   0.194   3.478  0.1456  0.5355 -2.4053
 8787SOL     OW37822   2.787   1.253   4.347 -0.3066 -0.2482  0.0375
 8787SOL    HW137823   2.726   1.217   4.411  0.1147  0.2391  0.7106
 8787SOL    HW237824   2.810   1.177   4.293 -0.4722 -0.0819 -0.2687
 8788SOL     OW37825   4.609   2.344   8.893 -0.2831 -0.4749 -0.2578
 8788SOL    HW137826   4.620   2.274   8.957 -1.2914  0.0743  0.5096
 8788SOL    HW237827   4.548   2.389   8.952 -0.3369 -0.5926 -0.2239
 8789SOL     OW37828   1.317   1.693  10.638  0.2817 -0.0063 -0.0434
 8789SOL    HW137829   1.240   1.723  10.686 -0.8525 -0.7244 -1.4356
 8789SOL    HW237830   1.380   1.723  10.704  4.2360 -1.5909 -3.0756
 8790SOL     OW37831   0.487   2.368  14.762  0.3123  0.0473  0.0330
 8790SOL    HW137832   0.403   2.360  14.716  0.2985 -2.8710  0.5461
 8790SOL    HW237833   0.494   2.290  14.817 -2.0581 -0.4962 -0.4466
 8791SOL     OW37834   1.293   1.754  13.545  0.6089 -0.2316 -0.0585
 8791SOL    HW137835   1.289   1.696  13.622  0.4391 -1.0976 -0.7199
 8791SOL    HW237836   1.231   1.818  13.579  0.1469 -0.4711 -0.4537
 8792SOL     OW37837   3.041   0.859   9.868 -0.4532 -0.0510 -0.6149
 8792SOL    HW137838   2.971   0.794   9.866 -0.1855 -0.3226 -1.0046
 8792SOL    HW237839   2.997   0.943   9.887 -0.7748  0.1824 -2.4580
 8793SOL     OW37840   1.477   4.392   1.359  0.0239 -0.2521 -0.3900
 8793SOL    HW137841   1.505   4.473   1.316  1.1831 -1.0236 -1.0943
 8793SOL    HW237842   1.397   4.373   1.311 -0.3788  2.8284 -0.8965
 8794SOL     OW37843   4.024   0.874   5.444  0.0306 -0.1269  0.1970
 8794SOL    HW137844   4.039   0.892   5.351 -1.3731 -1.3310 -0.2635
 8794SOL    HW237845   3.933   0.906   5.443  1.0302  2.7512  0.2682
 8795SOL     OW37846   2.772   1.712   4.921  0.0050  0.2257 -0.1070
 8795SOL    HW137847   2.797   1.702   4.829 -0.1088  1.4837 -0.2661
 8795SOL    HW237848   2.714   1.787   4.912  0.7437  0.4640 -3.0513
 8796SOL     OW37849   4.360   0.037   1.505  0.4972  0.3548 -0.1168
 8796SOL    HW137850   4.343   0.131   1.512 -0.9833  0.1880 -1.5031
 8796SOL    HW237851   4.357   0.030   1.409  0.9239  0.4853 -0.1429
 8797SOL     OW37852   4.534   0.403   3.762  0.0849 -0.1155 -0.2961
 8797SOL    HW137853   4.539   0.307   3.761 -1.2021 -0.2031  1.3867
 8797SOL    HW237854   4.461   0.422   3.703 -0.1348  0.0947  0.0405
 8798SOL     OW37855   2.579   0.991   0.377  0.1260 -0.5932 -0.4354
 8798SOL    HW137856   2.489   0.964   0.392  0.9974 -2.4787  1.5137
 8798SOL    HW237857   2.622   0.905   0.373  0.7381 -0.3479  0.8572
 8799SOL     OW37858   2.546   2.768   0.007  0.3252  0.6549  0.0138
 8799SOL    HW137859   2.479   2.743   0.070  2.0895 -2.5545  0.6162
 8799SOL    HW237860   2.603   2.691   0.014 -1.5441 -0.6569  0.6274
 8800SOL     OW37861   1.791   4.437   6.476  0.0859 -0.1364 -0.3287
 8800SOL    HW137862   1.735   4.504   6.437 -3.0279 -2.1472  0.6414
 8800SOL    HW237863   1.852   4.439   6.403  0.8035  1.1576  0.2957
 8801SOL     OW37864   0.054   0.132   5.917 -0.6184 -0.2943 -0.0957
 8801SOL    HW137865   0.129   0.088   5.877  1.9969  1.3614  3.0089
 8801SOL    HW237866   4.720   0.138   5.841  0.0650 -0.9465 -0.6691
 8802SOL     OW37867   2.832   2.056   5.000 -0.1253 -0.5404  0.0025
 8802SOL    HW137868   2.828   2.079   5.093  0.7340 -0.3223 -0.0165
 8802SOL    HW237869   2.910   2.104   4.974 -0.6460  0.2065 -0.1971
 8803SOL     OW37870   2.354   0.144  17.519 -0.7143  0.2848 -0.0088
 8803SOL    HW137871   2.342   0.054  17.487  2.1330 -0.4316  0.9371
 8803SOL    HW237872   2.436   0.164  17.473  0.2895  2.4949  2.7868
 8804SOL     OW37873   2.164   3.869  14.213 -0.4585 -0.4503 -0.6470
 8804SOL    HW137874   2.162   3.777  14.241  1.3539 -0.5750 -0.9161
 8804SOL    HW237875   2.080   3.900  14.248  0.0547  0.7199 -0.4522
 8805SOL     OW37876   0.827   3.407   6.100 -0.2916 -0.0048  0.7492
 8805SOL    HW137877   0.736   3.434   6.087 -0.0396 -0.4896 -1.9127
 8805SOL    HW237878   0.885   3.483   6.095 -0.7944  0.2827 -0.5820
 8806SOL     OW37879   0.048   0.458  14.877  0.2916  0.3026  0.0834
 8806SOL    HW137880   4.715   0.460  14.954  0.1356 -0.5735 -0.0172
 8806SOL    HW237881   0.073   0.550  14.875  0.6101  0.2140  0.1022
 8807SOL     OW37882   4.712   0.920   3.763 -0.3532 -0.5782  0.2179
 8807SOL    HW137883   4.637   0.895   3.708 -0.0269  0.4206 -0.6852
 8807SOL    HW237884   0.007   0.829   3.786 -2.1786 -0.9459  0.2964
 8808SOL     OW37885   1.977   0.686   2.646 -0.0743 -0.1406  0.3160
 8808SOL    HW137886   1.918   0.615   2.621 -1.3696  1.5055 -1.3727
 8808SOL    HW237887   1.942   0.772   2.622  3.0595  1.4343  1.3549
 8809SOL     OW37888   4.551   1.804   7.585  0.4842  0.2400 -0.4146
 8809SOL    HW137889   4.639   1.772   7.565 -0.7911 -1.7131 -2.9645
 8809SOL    HW237890   4.497   1.727   7.606 -3.6478  3.0940 -0.6998
 8810SOL     OW37891   0.644   4.195   6.183 -0.3516 -0.5281 -0.4655
 8810SOL    HW137892   0.557   4.182   6.220 -0.4840  0.5321 -0.3940
 8810SOL    HW237893   0.691   4.254   6.241 -0.1842 -0.0531 -1.0782
 8811SOL     OW37894   1.473   0.657   8.501 -0.4684  0.4976 -0.0694
 8811SOL    HW137895   1.488   0.610   8.583  0.4678 -0.8565 -1.0289
 8811SOL    HW237896   1.546   0.718   8.494  0.6248 -0.9614 -1.4596
 8812SOL     OW37897   2.201   4.540   7.028  0.3277  0.7540 -0.4988
 8812SOL    HW137898   2.162   4.595   7.096  1.4014  0.4006  0.4073
 8812SOL    HW237899   2.284   4.584   7.011  1.1819 -0.2871  0.8957
 8813SOL     OW37900   0.377   1.413  16.787 -0.1500 -0.2131  0.1596
 8813SOL    HW137901   0.364   1.505  16.809 -0.2867  0.2618 -1.8864
 8813SOL    HW237902   0.432   1.386  16.860 -1.1695 -0.0432  0.9988
 8814SOL     OW37903   3.264   3.691  11.336 -0.1451 -0.3467 -0.2516
 8814SOL    HW137904   3.191   3.738  11.378  0.3953  1.3906 -1.2669
 8814SOL    HW237905   3.245   3.685  11.243  0.0207  0.4983 -0.3411
 8815SOL     OW37906   1.645   2.131  17.566 -0.8804  0.2146 -0.4427
 8815SOL    HW137907   1.628   2.071  17.493 -1.5733  1.0389 -0.9627
 8815SOL    HW237908   1.730   2.168  17.541 -0.9697  1.4634  1.1433
 8816SOL     OW37909   4.064   2.611   5.234  0.0486  0.5843 -0.4212
 8816SOL    HW137910   4.013   2.685   5.203  1.9453  1.8166 -0.6116
 8816SOL    HW237911   4.133   2.617   5.167  0.1322  0.2104 -0.3685
 8817SOL     OW37912   1.982   1.443   8.169 -0.1655 -0.1839 -0.2354
 8817SOL    HW137913   1.899   1.431   8.216  1.2620 -2.0508  1.8475
 8817SOL    HW237914   2.044   1.472   8.237 -2.0042  1.8914  0.5402
 8818SOL     OW37915   3.563   0.734   6.131  0.0791  0.2837  0.4002
 8818SOL    HW137916   3.518   0.653   6.154 -0.3887  1.0853  2.2682
 8818SOL    HW237917   3.588   0.730   6.039  0.4552  1.5956  0.4489
 8819SOL     OW37918   1.124   4.477   8.049  0.1269 -0.1459  0.1675
 8819SOL    HW137919   1.042   4.436   8.022 -0.9055  1.5354  0.7734
 8819SOL    HW237920   1.097   4.568   8.038 -1.6905 -0.5932  0.9131
 8820SOL     OW37921   1.669   0.210   5.052 -0.2250  0.4275  0.2117
 8820SOL    HW137922   1.765   0.201   5.055 -0.2942 -0.6236 -0.6460
 8820SOL    HW237923   1.643   0.161   4.974  0.5102 -0.9873  0.8444
 8821SOL     OW37924   4.234   0.999  13.797 -0.6654 -0.2875  0.1138
 8821SOL    HW137925   4.294   1.068  13.770 -1.7222 -0.2534 -2.0920
 8821SOL    HW237926   4.284   0.961  13.870 -0.5044 -0.0265  0.1378
 8822SOL     OW37927   1.182   0.181  10.023 -0.8021 -0.3214 -0.2242
 8822SOL    HW137928   1.242   0.152   9.954  0.2389  1.6667 -0.1641
 8822SOL    HW237929   1.099   0.155   9.984 -0.1512 -2.1554 -0.4132
 8823SOL     OW37930   3.968   1.581   3.712 -0.4915  0.0024 -0.1199
 8823SOL    HW137931   3.888   1.632   3.708 -0.6899 -0.2110  1.0961
 8823SOL    HW237932   4.010   1.627   3.639  0.0071  0.7036  0.6196
 8824SOL     OW37933   2.926   3.446   8.051  0.3415  0.4236 -0.3249
 8824SOL    HW137934   2.852   3.505   8.032 -2.2374 -1.7557  3.0690
 8824SOL    HW237935   2.992   3.503   8.091  1.9274 -1.8181  0.2066
 8825SOL     OW37936   2.852   0.517  11.154 -0.2403 -0.5984  0.9336
 8825SOL    HW137937   2.944   0.525  11.126 -1.1615  0.3266 -1.7987
 8825SOL    HW237938   2.822   0.608  11.156 -2.6701 -1.3568 -1.7635
 8826SOL     OW37939   1.756   0.730   8.532 -0.6157  0.5909 -0.1352
 8826SOL    HW137940   1.833   0.781   8.506  1.3530 -1.9045  0.8407
 8826SOL    HW237941   1.762   0.740   8.627  1.5682  3.8585 -0.6078
 8827SOL     OW37942   4.509   2.174   4.199  0.1677  0.3956  0.0455
 8827SOL    HW137943   4.473   2.261   4.216  0.2123  0.5844 -0.8344
 8827SOL    HW237944   4.558   2.155   4.280 -0.8285 -0.5311  0.4372
 8828SOL     OW37945   1.055   1.677  10.680  0.7320  0.2830 -0.0019
 8828SOL    HW137946   1.059   1.665  10.585  2.2106  2.2863 -0.1869
 8828SOL    HW237947   0.990   1.612  10.707  1.2850  0.2736  1.3006
 8829SOL     OW37948   3.615   2.880  11.994 -0.0228 -0.0756  0.0902
 8829SOL    HW137949   3.550   2.942  11.961  0.5769  1.1259  1.1446
 8829SOL    HW237950   3.695   2.926  12.018  1.5142 -2.7236  0.0722
 8830SOL     OW37951   1.977   2.238  12.952 -0.2940 -0.3499 -0.5394
 8830SOL    HW137952   1.883   2.254  12.954 -0.0910  0.5713  1.4635
 8830SOL    HW237953   1.995   2.145  12.934 -1.2918 -0.6954  0.2671
 8831SOL     OW37954   1.609   3.517   7.521 -0.5873  0.2068  0.4817
 8831SOL    HW137955   1.527   3.523   7.570 -0.2741 -1.4982  1.2499
 8831SOL    HW237956   1.668   3.557   7.585 -1.2497  0.2725  1.0541
 8832SOL     OW37957   2.905   3.352   5.249 -0.3068  0.4706 -0.4720
 8832SOL    HW137958   2.859   3.375   5.168 -0.0363 -0.3670 -0.8614
 8832SOL    HW237959   2.930   3.263   5.226 -0.1031  0.0935  1.2037
 8833SOL     OW37960   3.424   3.253   6.900  0.0404 -0.0980 -0.0659
 8833SOL    HW137961   3.388   3.171   6.933 -1.7439  1.2882  1.3951
 8833SOL    HW237962   3.489   3.273   6.967 -0.4055  0.3044  0.2482
 8834SOL     OW37963   4.000   4.606   0.295 -0.0115 -0.3175  0.7367
 8834SOL    HW137964   4.023   4.547   0.367  0.6793 -0.6611  0.2271
 8834SOL    HW237965   4.083   4.652   0.281  1.1238 -1.6390  3.1232
 8835SOL     OW37966   2.314   4.532   3.480  0.7626 -0.3354 -0.4140
 8835SOL    HW137967   2.348   4.621   3.470 -1.2499  0.3530 -1.1398
 8835SOL    HW237968   2.223   4.558   3.471  1.1962  0.9078 -1.2056
 8836SOL     OW37969   1.183   2.555   4.692  0.5436  0.0781  0.3729
 8836SOL    HW137970   1.150   2.620   4.630 -0.0096  0.8529  1.4668
 8836SOL    HW237971   1.209   2.477   4.643 -1.7115 -0.8791  0.6552
 8837SOL     OW37972   2.208   0.201   3.976 -0.0577 -0.4091 -0.2217
 8837SOL    HW137973   2.299   0.201   4.004 -0.1521  2.9178  0.0127
 8837SOL    HW237974   2.162   0.252   4.042 -0.7713 -0.6346 -0.5426
 8838SOL     OW37975   4.475   2.800   5.968  0.0695 -0.2266 -0.0939
 8838SOL    HW137976   4.468   2.788   6.063  1.2421 -0.6738 -0.0716
 8838SOL    HW237977   4.473   2.895   5.956 -3.0386 -0.3352 -0.5822
 8839SOL     OW37978   3.104   4.436   7.750  0.1914  0.9547  0.2982
 8839SOL    HW137979   3.076   4.450   7.840  1.1428  2.6133  0.3390
 8839SOL    HW237980   3.045   4.372   7.710  0.3850  0.3956  0.9187
 8840SOL     OW37981   2.761   4.203   0.335  0.0333  0.0875 -0.3271
 8840SOL    HW137982   2.668   4.225   0.333  0.5805  2.5360  1.0055
 8840SOL    HW237983   2.768   4.111   0.362  0.7027 -0.6106 -2.8931
 8841SOL     OW37984   3.693   1.128   9.790  0.0005  0.0777  0.2244
 8841SOL    HW137985   3.742   1.075   9.853 -3.3628 -2.0900  1.0225
 8841SOL    HW237986   3.613   1.157   9.836 -0.3023 -0.2042 -0.1215
 8842SOL     OW37987   1.281   4.123   8.299  0.3368  0.6971  0.1378
 8842SOL    HW137988   1.197   4.078   8.308  1.3854 -1.4782 -1.1004
 8842SOL    HW237989   1.256   4.215   8.289 -1.3461  0.0006 -2.1314
 8843SOL     OW37990   3.902   4.510   6.520 -0.4950  0.4300 -0.0326
 8843SOL    HW137991   3.942   4.476   6.439  0.3079 -0.2081  0.6321
 8843SOL    HW237992   3.812   4.522   6.492 -0.7918 -2.3709 -0.3138
 8844SOL     OW37993   1.944   2.716   2.251  0.1326 -0.7029  0.0054
 8844SOL    HW137994   1.916   2.678   2.168  1.8433 -2.8277  0.3827
 8844SOL    HW237995   1.931   2.648   2.318 -1.0655  0.7353  1.2105
 8845SOL     OW37996   0.238   1.830   4.184 -0.6981 -0.1366 -0.1808
 8845SOL    HW137997   0.206   1.909   4.227 -0.1676  0.1110 -0.2334
 8845SOL    HW237998   0.176   1.819   4.112 -1.4267  2.1286  0.1282
 8846SOL     OW37999   1.295   0.513   3.223  0.2495  0.0687 -0.6191
 8846SOL    HW138000   1.371   0.479   3.270 -1.1264  0.5092  1.9035
 8846SOL    HW238001   1.317   0.486   3.133 -1.2335 -0.4478 -0.8337
 8847SOL     OW38002   4.114   0.201   2.124  0.6591  0.1703 -0.5136
 8847SOL    HW138003   4.046   0.226   2.187 -2.0529 -1.3052 -2.8248
 8847SOL    HW238004   4.161   0.133   2.172 -2.2524 -1.4175  0.1212
 8848SOL     OW38005   4.342   0.463   2.479 -0.3125 -0.2132  0.3610
 8848SOL    HW138006   4.313   0.375   2.502  1.6229 -0.9565  0.0307
 8848SOL    HW238007   4.326   0.471   2.385 -1.0637 -2.0803  0.3354
 8849SOL     OW38008   2.233   2.543   4.394 -0.1129 -0.0501 -0.1985
 8849SOL    HW138009   2.194   2.629   4.411  0.4555 -0.1757  1.8468
 8849SOL    HW238010   2.274   2.522   4.478  1.2120  1.9310 -0.3422
 8850SOL     OW38011   0.654   1.172   2.313 -0.1103  0.3387  0.1907
 8850SOL    HW138012   0.670   1.080   2.336  2.0822  1.0075  1.3407
 8850SOL    HW238013   0.659   1.152   2.220 -2.4867  1.0802 -0.1144
 8851SOL     OW38014   0.191   2.539   5.153 -0.4238 -0.6722  0.2453
 8851SOL    HW138015   0.256   2.497   5.097 -0.3748 -0.0926 -0.1331
 8851SOL    HW238016   0.246   2.571   5.224 -0.1303 -3.0691  1.1216
 8852SOL     OW38017   1.830   4.053   6.036 -0.0398 -0.1603  0.3157
 8852SOL    HW138018   1.910   4.100   6.057  0.3722 -0.0590 -1.5192
 8852SOL    HW238019   1.872   3.971   6.009  0.3930  1.2256 -3.1423
 8853SOL     OW38020   0.304   4.115  13.981  0.0375  0.3285 -0.4238
 8853SOL    HW138021   0.310   4.204  14.016 -0.3373  0.3501 -0.4171
 8853SOL    HW238022   0.393   4.086  14.002 -0.0739 -0.3431 -0.8795
 8854SOL     OW38023   0.265   3.548   6.778 -0.2762  0.6640  0.1130
 8854SOL    HW138024   0.278   3.462   6.737  3.2277  1.2893 -0.1366
 8854SOL    HW238025   0.269   3.521   6.869 -2.0966 -3.1707 -0.9595
 8855SOL     OW38026   1.009   4.266   2.259 -0.6872 -0.3312 -0.1303
 8855SOL    HW138027   0.960   4.340   2.223 -0.4949 -0.3239 -0.3775
 8855SOL    HW238028   1.098   4.289   2.232 -1.5434  0.9322 -1.9451
 8856SOL     OW38029   0.937   1.088   4.661 -0.3282  0.5356  0.0106
 8856SOL    HW138030   0.935   1.163   4.720 -1.3867 -0.9480  1.8318
 8856SOL    HW238031   1.023   1.060   4.692  0.6362  1.3534 -1.9063
 8857SOL     OW38032   2.284   1.812   0.486  0.1292 -0.6405 -0.1082
 8857SOL    HW138033   2.256   1.897   0.519 -0.7847 -0.4726 -1.3285
 8857SOL    HW238034   2.307   1.762   0.565 -0.4977 -1.2089 -0.2792
 8858SOL     OW38035   3.890   4.241   2.141  0.0256 -0.3816 -0.4552
 8858SOL    HW138036   3.981   4.221   2.163 -0.6897 -1.1078  1.9352
 8858SOL    HW238037   3.854   4.254   2.229 -2.6401 -1.9414 -1.3125
 8859SOL     OW38038   1.516   4.440   4.564 -0.1867  0.1251  0.2637
 8859SOL    HW138039   1.608   4.417   4.557 -0.6294 -1.4519 -0.4220
 8859SOL    HW238040   1.524   4.535   4.567 -1.4876  0.2032  1.3059
 8860SOL     OW38041   1.854   1.911   1.349  0.1676  0.3185  0.5499
 8860SOL    HW138042   1.786   1.869   1.296  0.4393  0.1058  0.3661
 8860SOL    HW238043   1.926   1.919   1.285 -1.5099 -1.0805 -1.5222
 8861SOL     OW38044   3.657   3.455  15.785  0.3534  0.0772 -0.0981
 8861SOL    HW138045   3.564   3.459  15.804  0.5844  0.5972  0.9352
 8861SOL    HW238046   3.672   3.546  15.759 -0.2734  0.1244 -0.2886
 8862SOL     OW38047   0.419   0.409   2.641  0.3893  0.2331  0.0110
 8862SOL    HW138048   0.514   0.413   2.637  0.5411 -0.7466  3.2910
 8862SOL    HW238049   0.403   0.468   2.714 -1.5533 -0.2632 -0.0035
 8863SOL     OW38050   2.356   2.032   6.913 -0.5968  0.2254 -0.3238
 8863SOL    HW138051   2.359   2.093   6.987 -0.7920 -2.1758  1.6513
 8863SOL    HW238052   2.275   2.058   6.868  0.4565  2.1770 -1.0962
 8864SOL     OW38053   4.290   2.635   4.517 -0.1873  0.5815 -0.6055
 8864SOL    HW138054   4.356   2.588   4.569 -0.1807  0.4217 -0.7607
 8864SOL    HW238055   4.238   2.568   4.475  0.5273  1.3710 -2.7639
 8865SOL     OW38056   2.359   2.898  11.319  0.1468 -0.0877 -0.0773
 8865SOL    HW138057   2.370   2.817  11.368  1.5164  0.4181  0.4385
 8865SOL    HW238058   2.447   2.907  11.282 -0.4530  0.1673 -1.4325
 8866SOL     OW38059   2.183   4.548  11.268  1.3392 -0.4969  0.5143
 8866SOL    HW138060   2.185   4.452  11.272 -1.1307 -0.5624  0.1817
 8866SOL    HW238061   2.218   4.574  11.183 -0.2649 -0.4226 -0.1206
 8867SOL     OW38062   3.906   4.443   8.683 -0.0149  0.1570 -0.1574
 8867SOL    HW138063   3.999   4.458   8.664  0.1853 -1.2107 -0.2347
 8867SOL    HW238064   3.900   4.487   8.768  2.2634 -0.9661  0.5712
 8868SOL     OW38065   1.217   4.519   6.298 -0.1055  0.3106  0.0026
 8868SOL    HW138066   1.196   4.449   6.237  0.7616  0.1868 -0.1522
 8868SOL    HW238067   1.131   4.556   6.317  0.8051  3.0862 -1.1870
 8869SOL     OW38068   4.271   3.629  10.602 -0.5217  0.4104 -0.1054
 8869SOL    HW138069   4.191   3.606  10.649 -1.1630  1.7842 -0.5311
 8869SOL    HW238070   4.275   3.572  10.526 -1.0795 -0.2257  0.3435
 8870SOL     OW38071   1.548   0.917   6.189 -0.0102 -0.2332 -0.7906
 8870SOL    HW138072   1.589   0.997   6.220 -0.8516  0.2828 -1.0219
 8870SOL    HW238073   1.607   0.848   6.219  0.7317  0.4874 -0.5992
 8871SOL     OW38074   0.801   4.645   4.193 -0.5403  0.0013 -0.5256
 8871SOL    HW138075   0.804   0.013   4.168  0.9346  0.7180  2.3951
 8871SOL    HW238076   0.892   4.619   4.178  0.4366  2.4700  1.1691
 8872SOL     OW38077   3.219   4.566   0.998  0.2652  0.0310 -0.4306
 8872SOL    HW138078   3.304   4.550   1.039  0.5386  0.0384 -0.9933
 8872SOL    HW238079   3.227   4.561   0.903  0.9550  1.7890 -0.4668
 8873SOL     OW38080   0.525   2.533   6.502 -0.1399  0.9641  0.6549
 8873SOL    HW138081   0.590   2.598   6.477  1.3615 -0.4398  0.9435
 8873SOL    HW238082   0.577   2.453   6.506  0.1247  1.1283  0.4840
 8874SOL     OW38083   0.860   2.257   8.693  0.2043  0.0554  0.3597
 8874SOL    HW138084   0.930   2.273   8.756  0.4109  0.7783 -0.0593
 8874SOL    HW238085   0.783   2.283   8.743 -0.2046 -1.7205  0.6848
 8875SOL     OW38086   4.423   0.112   2.318  0.1485 -0.3350 -0.1563
 8875SOL    HW138087   4.379   0.154   2.392 -1.6440 -2.4840 -0.0003
 8875SOL    HW238088   4.460   0.034   2.359 -1.5167  0.8176  3.5675
 8876SOL     OW38089   1.930   0.607   1.876  0.0354 -0.3106  0.2883
 8876SOL    HW138090   1.881   0.555   1.940  0.1890 -0.0559  0.6180
 8876SOL    HW238091   1.909   0.698   1.898  0.2541 -0.5406  1.4720
 8877SOL     OW38092   4.400   0.123  10.356  0.1037 -0.1323 -0.3416
 8877SOL    HW138093   4.409   0.029  10.339 -0.2068  0.2327 -2.5448
 8877SOL    HW238094   4.341   0.156  10.288  0.8106 -0.1533 -0.9541
 8878SOL     OW38095   2.681   3.848  16.916  0.3332  0.2667  0.6077
 8878SOL    HW138096   2.693   3.800  16.834  1.3301 -1.6061  1.8617
 8878SOL    HW238097   2.684   3.940  16.890  0.1488  0.1072  0.0147
 8879SOL     OW38098   0.351   4.499  15.952 -0.3314 -0.4190  0.1913
 8879SOL    HW138099   0.442   4.527  15.955  0.2184 -1.9295 -2.2336
 8879SOL    HW238100   0.332   4.462  16.038  1.7117 -1.5472  0.1536
 8880SOL     OW38101   0.135   2.383   5.562  0.0127  0.0746  0.4048
 8880SOL    HW138102   0.097   2.402   5.648  0.2120 -2.9774  1.1717
 8880SOL    HW238103   0.183   2.301   5.576 -0.4860 -0.3241 -0.2003
 8881SOL     OW38104   1.873   1.272   0.398  0.3597 -0.0146 -0.2195
 8881SOL    HW138105   1.847   1.359   0.426 -1.6835 -0.3028 -1.2014
 8881SOL    HW238106   1.867   1.231   0.484  1.5202 -0.0003 -0.1330
 8882SOL     OW38107   3.168   3.338  14.404  0.0572  0.0251  0.2487
 8882SOL    HW138108   3.218   3.299  14.476 -1.1249 -0.4885  0.7849
 8882SOL    HW238109   3.084   3.302  14.433  0.2329 -0.7201 -0.1721
 8883SOL     OW38110   3.339   2.620   1.680 -0.4085 -0.0173 -0.3089
 8883SOL    HW138111   3.363   2.566   1.756 -1.0564 -2.1965 -1.6382
 8883SOL    HW238112   3.390   2.591   1.605  0.4386  1.8286 -0.4302
 8884SOL     OW38113   2.058   3.191   3.585  0.2718 -0.1357 -0.0038
 8884SOL    HW138114   2.114   3.115   3.569 -0.4490 -0.8272  0.7835
 8884SOL    HW238115   1.999   3.188   3.510  0.6146 -0.9167 -0.2486
 8885SOL     OW38116   4.603   2.115   5.713  0.0436 -0.4911 -0.0896
 8885SOL    HW138117   4.671   2.088   5.774 -1.2813 -0.9181  1.2122
 8885SOL    HW238118   4.584   2.203   5.746 -1.1564 -0.1498 -1.6335
 8886SOL     OW38119   3.894   1.847   3.291 -0.4200 -0.4299 -0.4095
 8886SOL    HW138120   3.837   1.860   3.214  1.5598 -0.6460 -1.9243
 8886SOL    HW238121   3.960   1.914   3.273 -0.6051 -0.1862 -0.1750
 8887SOL     OW38122   2.161   2.875  15.160 -0.1607  0.1747  0.0577
 8887SOL    HW138123   2.146   2.954  15.108 -0.8501 -0.7860 -1.2034
 8887SOL    HW238124   2.081   2.860  15.211 -0.2612  0.7668  0.0784
 8888SOL     OW38125   2.818   4.214   4.403  0.0073 -0.1027  0.3352
 8888SOL    HW138126   2.735   4.171   4.382  0.2618 -0.5930  0.3255
 8888SOL    HW238127   2.802   4.209   4.497 -0.6250  0.3180  0.2504
 8889SOL     OW38128   4.331   1.253   5.292  0.5994  0.0741  0.3600
 8889SOL    HW138129   4.262   1.211   5.344 -0.2081  0.4863 -0.3894
 8889SOL    HW238130   4.344   1.327   5.352 -0.4264 -0.9797  1.8952
 8890SOL     OW38131   2.335   2.275  11.403 -0.4080 -0.3207  0.0219
 8890SOL    HW138132   2.379   2.288  11.487  0.9030  1.6354 -0.9723
 8890SOL    HW238133   2.260   2.335  11.403 -0.6099 -0.5570 -2.5695
 8891SOL     OW38134   4.343   0.658   7.897  0.1392 -0.5294  0.6933
 8891SOL    HW138135   4.422   0.612   7.926  0.5921 -1.7017 -2.3769
 8891SOL    HW238136   4.343   0.659   7.801 -2.0561 -1.1865  0.6905
 8892SOL     OW38137   1.101   4.328   1.805  0.4168 -0.1065 -0.2624
 8892SOL    HW138138   1.189   4.289   1.805  1.5541  2.4777 -2.0645
 8892SOL    HW238139   1.120   4.397   1.869  0.2734 -0.3912  0.0860
 8893SOL     OW38140   0.154   1.206   3.537 -0.1016  0.2779 -0.3634
 8893SOL    HW138141   0.107   1.230   3.617  1.5693 -1.1309  1.0608
 8893SOL    HW238142   0.137   1.280   3.479  0.7646 -0.4216 -1.5130
 8894SOL     OW38143   1.253   2.897   7.701 -0.1293 -0.0599 -0.0862
 8894SOL    HW138144   1.289   2.841   7.770  0.8484 -1.0053 -1.3624
 8894SOL    HW238145   1.249   2.981   7.746 -0.3510  1.2967 -2.6178
 8895SOL     OW38146   0.820   2.559  13.975  0.2059  0.5203  0.3258
 8895SOL    HW138147   0.779   2.600  13.899 -1.6299  1.6284  1.9131
 8895SOL    HW238148   0.872   2.630  14.012 -0.5840  0.2316  2.0181
 8896SOL     OW38149   3.311   4.403  16.101  0.7599  0.1709  0.3482
 8896SOL    HW138150   3.304   4.376  16.192 -0.5423 -0.7581 -0.0176
 8896SOL    HW238151   3.220   4.399  16.072  1.5727 -0.1734 -2.2149
 8897SOL     OW38152   1.559   2.219  10.018  0.0066 -0.3764  0.1179
 8897SOL    HW138153   1.607   2.143   9.986 -2.7322 -1.3092 -1.8517
 8897SOL    HW238154   1.548   2.272   9.939 -0.6216  0.0024  0.4564
 8898SOL     OW38155   3.374   2.544   7.039  0.3206 -0.1354 -0.5100
 8898SOL    HW138156   3.459   2.506   7.062  0.6424  0.2480 -1.0675
 8898SOL    HW238157   3.325   2.467   7.011  1.6075 -0.5206 -1.7028
 8899SOL     OW38158   4.177   0.400   3.287  0.3129  0.5375 -0.0366
 8899SOL    HW138159   4.145   0.310   3.296 -0.8047  1.0056  0.5942
 8899SOL    HW238160   4.267   0.384   3.259  0.3319  0.8117 -0.1352
 8900SOL     OW38161   1.172   4.326   8.700 -0.8707  0.2953  0.5168
 8900SOL    HW138162   1.208   4.369   8.622 -0.9068 -1.7037 -0.6111
 8900SOL    HW238163   1.170   4.233   8.678  2.2476  0.3086  0.1788
 8901SOL     OW38164   0.205   1.944  15.789 -0.0090 -0.2059  0.3662
 8901SOL    HW138165   0.220   1.867  15.735  4.6082  0.8717  0.0970
 8901SOL    HW238166   0.290   1.990  15.794 -0.2760  0.3908 -0.5497
 8902SOL     OW38167   1.742   1.909  10.301 -0.3551 -0.0809  0.0779
 8902SOL    HW138168   1.755   2.003  10.315  1.6107 -0.2154 -0.8786
 8902SOL    HW238169   1.817   1.873  10.348  0.1305  0.8774  0.0459
 8903SOL     OW38170   1.191   4.077   8.654  0.3663 -0.4112 -0.2546
 8903SOL    HW138171   1.259   4.046   8.595 -0.1194 -0.5654 -0.7377
 8903SOL    HW238172   1.116   4.024   8.626  1.3713 -1.0967 -1.6315
 8904SOL     OW38173   2.697   1.158  15.654 -0.5914 -0.3083  0.2451
 8904SOL    HW138174   2.662   1.155  15.743  0.7726 -1.4033  0.7548
 8904SOL    HW238175   2.791   1.175  15.664 -0.2183 -2.1615 -0.2241
 8905SOL     OW38176   3.520   3.057   5.679  0.7845  0.3478  0.5577
 8905SOL    HW138177   3.604   3.078   5.638  1.3369 -0.5220  1.2424
 8905SOL    HW238178   3.462   3.126   5.648 -0.0986 -0.5079  0.3135
 8906SOL     OW38179   2.952   0.719   7.587 -0.0943 -0.2019 -0.1821
 8906SOL    HW138180   2.922   0.771   7.661  1.9538  0.3635  0.2600
 8906SOL    HW238181   2.870   0.703   7.542 -0.5108 -1.4524  0.9953
 8907SOL     OW38182   2.919   4.587   5.142 -0.1629 -0.0075 -0.7788
 8907SOL    HW138183   2.841   4.629   5.105  0.6106  0.2928 -2.0649
 8907SOL    HW238184   2.882   4.526   5.207  1.3197 -1.3660 -1.2054
 8908SOL     OW38185   0.521   3.292   7.179  0.0712  0.6084 -0.5611
 8908SOL    HW138186   0.469   3.310   7.257  0.3230 -0.7782 -0.0868
 8908SOL    HW238187   0.521   3.197   7.178  0.6903  0.6105 -0.3682
 8909SOL     OW38188   2.083   4.252   6.786 -0.7638 -0.6794 -0.5927
 8909SOL    HW138189   2.142   4.320   6.753 -1.6080  0.4380  0.1834
 8909SOL    HW238190   2.136   4.173   6.774 -1.0501 -0.8538 -0.6971
 8910SOL     OW38191   2.817   2.914   6.476 -0.6866  0.3884 -0.1044
 8910SOL    HW138192   2.818   3.001   6.437  2.8273  0.7076  0.7085
 8910SOL    HW238193   2.904   2.913   6.517 -0.5954 -0.8860 -0.3189
 8911SOL     OW38194   2.389   1.506   3.886 -0.1333 -0.0977 -0.7418
 8911SOL    HW138195   2.294   1.504   3.897  0.2792 -0.6289  2.7895
 8911SOL    HW238196   2.407   1.576   3.949 -2.7039 -1.5202  1.5460
 8912SOL     OW38197   4.149   0.683   2.530  0.3261 -0.3729 -0.7454
 8912SOL    HW138198   4.122   0.712   2.616  1.1122  1.9794 -1.3050
 8912SOL    HW238199   4.188   0.601   2.559  2.0266  0.6679 -0.1137
 8913SOL     OW38200   4.536   3.715   9.458  0.4459 -0.3032  0.5205
 8913SOL    HW138201   4.544   3.628   9.420 -0.5625  0.4043 -1.3505
 8913SOL    HW238202   4.531   3.701   9.552 -1.8408  1.3128  0.6547
 8914SOL     OW38203   3.925   3.923   3.708  0.4319  0.2386  0.1319
 8914SOL    HW138204   3.973   3.874   3.775 -2.6804 -0.4980  1.8200
 8914SOL    HW238205   3.955   3.883   3.627  2.4040  0.8501  0.5400
 8915SOL     OW38206   1.023   3.868   2.995 -0.0582  0.4608 -0.3356
 8915SOL    HW138207   1.075   3.926   2.939  1.4143  1.9303  2.5855
 8915SOL    HW238208   1.082   3.800   3.028 -2.2901 -0.3985  1.8903
 8916SOL     OW38209   4.050   2.574   3.780 -0.3599  0.1393  0.2462
 8916SOL    HW138210   4.123   2.516   3.801 -0.4936 -0.5030 -1.1273
 8916SOL    HW238211   3.998   2.579   3.860 -1.7346  1.6636 -0.7362
 8917SOL     OW38212   1.407   0.522   4.657  0.1180  0.0122 -0.2252
 8917SOL    HW138213   1.415   0.428   4.672 -1.2417  0.0115  0.4104
 8917SOL    HW238214   1.454   0.557   4.733 -1.4600  0.0425  0.7309
 8918SOL     OW38215   3.023   3.732   8.177 -0.5354 -0.0361  0.0816
 8918SOL    HW138216   2.996   3.806   8.231  1.3156  0.6086  0.1283
 8918SOL    HW238217   2.959   3.740   8.107  2.2357 -0.6854 -2.5491
 8919SOL     OW38218   1.549   1.999   9.685  0.5425 -0.2398 -0.3334
 8919SOL    HW138219   1.484   2.057   9.725  1.6579 -1.4607  3.2783
 8919SOL    HW238220   1.626   2.056   9.683  0.0341  0.4105 -1.0940
 8920SOL     OW38221   0.557   2.442   2.399  0.2726  0.1952  0.0919
 8920SOL    HW138222   0.550   2.536   2.413 -0.1796  0.5498 -2.4615
 8920SOL    HW238223   0.604   2.450   2.316 -2.2843 -3.6792 -1.7535
 8921SOL     OW38224   0.893   3.679   7.613  0.0751  0.0619 -0.1787
 8921SOL    HW138225   0.937   3.661   7.696 -0.9538  1.1754  0.6080
 8921SOL    HW238226   0.910   3.610   7.549 -0.3840 -0.0594 -0.1674
 8922SOL     OW38227   0.847   3.504   2.176  0.0546  0.4298  0.0154
 8922SOL    HW138228   0.858   3.412   2.151 -0.2946  0.8530 -1.7139
 8922SOL    HW238229   0.919   3.546   2.129  0.3991  0.6096  0.7002
 8923SOL     OW38230   3.259   0.871   5.038 -0.1867 -0.1320  0.5326
 8923SOL    HW138231   3.302   0.952   5.010 -1.6556  0.2885 -0.5101
 8923SOL    HW238232   3.320   0.835   5.102 -1.6072  1.4011  2.7423
 8924SOL     OW38233   3.883   3.215   4.148 -0.1073  0.0298  0.4234
 8924SOL    HW138234   3.873   3.205   4.243  1.6586  2.3459  0.8505
 8924SOL    HW238235   3.972   3.179   4.149  0.0298  0.3718  0.7089
 8925SOL     OW38236   1.316   1.480  12.061  1.1099  0.6118  0.1201
 8925SOL    HW138237   1.388   1.435  12.107  1.7005 -0.5736 -1.9689
 8925SOL    HW238238   1.265   1.513  12.135  0.3322 -0.3589  0.0053
 8926SOL     OW38239   3.207   1.436  15.650 -0.0621  0.2835  0.2718
 8926SOL    HW138240   3.140   1.398  15.706 -1.9079 -0.3766 -2.3803
 8926SOL    HW238241   3.215   1.526  15.683 -0.6716  1.1009 -1.7896
 8927SOL     OW38242   3.224   4.532   8.542 -0.3348 -0.1845 -0.0847
 8927SOL    HW138243   3.287   4.540   8.614  0.1089 -0.6889 -0.4197
 8927SOL    HW238244   3.165   4.465   8.577 -0.5679 -0.5196 -1.1364
 8928SOL     OW38245   1.556   2.178  12.243  0.3669  0.7540  0.1537
 8928SOL    HW138246   1.489   2.123  12.204  1.8533  0.1151 -1.4891
 8928SOL    HW238247   1.561   2.242  12.172  0.1528  0.3694 -0.2042
 8929SOL     OW38248   3.832   3.540   3.185 -0.4098 -0.1972  0.0610
 8929SOL    HW138249   3.780   3.543   3.265 -1.8137  0.8435 -0.8762
 8929SOL    HW238250   3.922   3.541   3.217  0.8948 -0.2702 -3.6023
 8930SOL     OW38251   2.170   1.188  15.806  0.2794 -0.1300  0.1207
 8930SOL    HW138252   2.193   1.241  15.883  0.2012  1.6732 -1.1093
 8930SOL    HW238253   2.078   1.166  15.819 -0.1149  0.6627 -1.3376
 8931SOL     OW38254   2.783   1.470  14.387  0.0996  0.3825 -0.6617
 8931SOL    HW138255   2.758   1.562  14.378  0.1714  0.6225  1.7635
 8931SOL    HW238256   2.711   1.428  14.433  0.6131  0.6245  0.3445
 8932SOL     OW38257   0.002   4.048   6.183 -0.1867  0.2512 -0.0407
 8932SOL    HW138258   0.088   4.052   6.141  0.2217  0.4718  0.8184
 8932SOL    HW238259   0.029   4.079   6.270  0.1790 -1.0843  0.3238
 8933SOL     OW38260   2.808   3.340   5.494  0.2797 -1.2554 -0.1345
 8933SOL    HW138261   2.831   3.322   5.403 -2.4831  0.9587 -1.2616
 8933SOL    HW238262   2.888   3.381   5.529  1.1299 -2.0992 -1.0759
 8934SOL     OW38263   2.420   3.320   1.918 -0.7393 -0.3721 -0.1652
 8934SOL    HW138264   2.445   3.412   1.924 -1.0194 -0.3359  0.4372
 8934SOL    HW238265   2.325   3.321   1.931 -0.6129  1.7792  0.5505
 8935SOL     OW38266   0.168   3.751   4.693 -0.3111  0.1425 -0.0423
 8935SOL    HW138267   0.128   3.782   4.774  1.2148  1.0287  0.3800
 8935SOL    HW238268   0.133   3.662   4.698  1.7869 -0.5494  2.3576
 8936SOL     OW38269   1.660   1.644   2.893 -0.0319  0.4512 -0.4977
 8936SOL    HW138270   1.691   1.614   2.807  0.5342  0.7912 -0.4122
 8936SOL    HW238271   1.686   1.570   2.948  1.6635  0.7182 -0.9360
 8937SOL     OW38272   1.916   2.688   3.671  0.3824 -0.4118 -0.5705
 8937SOL    HW138273   1.906   2.750   3.600  0.1728  0.0720 -0.1180
 8937SOL    HW238274   2.008   2.659   3.666  0.7045  0.7680 -1.3381
 8938SOL     OW38275   0.416   2.686   4.827  0.4223  0.2981 -0.0729
 8938SOL    HW138276   0.494   2.681   4.771 -0.3253 -3.3439 -0.7903
 8938SOL    HW238277   0.421   2.780   4.845  0.3864  0.5876 -1.6032
 8939SOL     OW38278   2.621   0.018   6.036  0.3358 -0.1064  0.1056
 8939SOL    HW138279   2.677   0.085   5.997 -2.3860  0.4806 -2.8297
 8939SOL    HW238280   2.623   4.679   5.964  3.2981 -0.7783  0.8060
 8940SOL     OW38281   3.611   1.620  13.304  0.0297  0.2290 -0.1178
 8940SOL    HW138282   3.542   1.570  13.261 -2.0766  1.6658  1.5669
 8940SOL    HW238283   3.646   1.659  13.225  0.8208  2.1077  1.1611
 8941SOL     OW38284   0.045   1.813  15.970 -0.0110 -0.6923 -0.4049
 8941SOL    HW138285   4.698   1.796  15.909 -0.2065  1.4757 -0.7798
 8941SOL    HW238286   0.101   1.867  15.915  1.3655 -0.2385  1.4337
 8942SOL     OW38287   1.128   2.406  15.072  0.6082  0.2186  0.2629
 8942SOL    HW138288   1.176   2.484  15.099  3.6904 -0.4190 -3.3717
 8942SOL    HW238289   1.068   2.393  15.145  1.1323  1.4963  0.9251
 8943SOL     OW38290   2.415   1.452   7.764  0.7272 -0.6234 -0.0953
 8943SOL    HW138291   2.416   1.536   7.811  2.3443 -0.9006  0.3825
 8943SOL    HW238292   2.365   1.408   7.832 -1.9112  2.9778  0.3215
 8944SOL     OW38293   2.927   2.153  11.349 -0.7025 -0.0599  0.5020
 8944SOL    HW138294   2.911   2.193  11.263 -1.1886 -0.8526  0.2202
 8944SOL    HW238295   2.839   2.126  11.375 -1.1841 -1.1723 -2.2001
 8945SOL     OW38296   3.700   2.098   8.682  0.6445  0.2004 -0.4934
 8945SOL    HW138297   3.629   2.162   8.674  0.6890  0.4727  1.4609
 8945SOL    HW238298   3.762   2.148   8.735  1.8364  0.4197 -2.0639
 8946SOL     OW38299   0.650   0.288   2.932 -0.1266  0.5690  0.2452
 8946SOL    HW138300   0.699   0.261   2.854  0.4354  1.1265  0.4102
 8946SOL    HW238301   0.706   0.354   2.971  0.3986  1.7680 -2.5367
 8947SOL     OW38302   2.014   3.659   8.258  0.1917 -0.0883  0.3322
 8947SOL    HW138303   2.041   3.743   8.220 -0.1506 -0.5364 -0.8658
 8947SOL    HW238304   2.083   3.649   8.324 -0.7168 -0.8377  1.1789
 8948SOL     OW38305   4.114   1.686  17.028 -0.0798  0.3480  0.4706
 8948SOL    HW138306   4.183   1.751  17.037  1.0172 -0.8985  1.0332
 8948SOL    HW238307   4.064   1.721  17.103 -0.7794  1.5606 -0.5537
 8949SOL     OW38308   1.560   2.037   2.667 -0.3464 -0.2198  0.0413
 8949SOL    HW138309   1.608   1.985   2.732  0.1419  0.4070  0.1854
 8949SOL    HW238310   1.537   2.116   2.716  0.4806  0.2979 -0.4134
 8950SOL     OW38311   1.352   1.617   5.363  0.2491 -0.2032 -0.4222
 8950SOL    HW138312   1.276   1.626   5.306  1.0180 -0.3689 -1.4692
 8950SOL    HW238313   1.400   1.695   5.336  2.6622 -2.3352 -2.3839
 8951SOL     OW38314   3.785   2.054   7.453 -0.2593 -0.2013  0.1803
 8951SOL    HW138315   3.699   2.013   7.461 -0.7516  0.7861 -0.2114
 8951SOL    HW238316   3.832   1.988   7.505  0.0299 -0.1397 -0.0019
 8952SOL     OW38317   0.699   1.178   0.485 -0.0782  0.8706 -0.3656
 8952SOL    HW138318   0.685   1.194   0.391 -0.9031 -1.4651 -0.6505
 8952SOL    HW238319   0.705   1.266   0.521  0.9948  0.6228  0.0483
 8953SOL     OW38320   4.648   2.331   3.991  0.8758 -0.1159  0.2255
 8953SOL    HW138321   4.626   2.381   4.070 -0.8862  0.1791 -0.4510
 8953SOL    HW238322   4.639   2.393   3.920  0.4667  0.7658  1.0444
 8954SOL     OW38323   0.880   2.823   4.304 -0.0072  0.3605 -0.0899
 8954SOL    HW138324   0.786   2.813   4.318  0.1828 -0.9753  0.3237
 8954SOL    HW238325   0.886   2.845   4.212 -0.0840  1.1994  0.1114
 8955SOL     OW38326   3.312   3.437  17.469  0.4424 -0.0420  0.1288
 8955SOL    HW138327   3.328   3.531  17.463 -0.2279  0.1371  1.2644
 8955SOL    HW238328   3.405   3.418  17.477  0.3185 -0.2484  1.1109
 8956SOL     OW38329   1.613   3.419  14.535  0.1706  0.1936 -0.2106
 8956SOL    HW138330   1.680   3.352  14.521 -0.3811 -0.6782  1.3894
 8956SOL    HW238331   1.614   3.451  14.445  0.3455 -0.7584 -0.5524
 8957SOL     OW38332   4.591   1.840  15.776 -0.6530  0.6468 -0.3128
 8957SOL    HW138333   4.559   1.925  15.745  0.1496  1.5310  1.2281
 8957SOL    HW238334   4.638   1.807  15.700 -0.0923 -0.5455  0.5482
 8958SOL     OW38335   2.921   1.135   9.976 -0.1181  0.8549  0.9314
 8958SOL    HW138336   2.844   1.079   9.967  0.1007  0.6870  0.0272
 8958SOL    HW238337   2.897   1.216  10.021  0.0173  0.9482  0.8360
 8959SOL     OW38338   0.619   1.978   5.420 -0.1603 -0.5397 -0.0625
 8959SOL    HW138339   0.682   1.999   5.351 -1.3639  4.3767  0.3508
 8959SOL    HW238340   0.662   1.897   5.450  2.0855  1.3926  1.8757
 8960SOL     OW38341   2.121   0.008   4.617 -0.2137 -0.2200  0.3712
 8960SOL    HW138342   2.123   4.692   4.704  0.7309  0.3131  0.5999
 8960SOL    HW238343   2.189   0.074   4.631 -2.6439  2.3260  0.2368
 8961SOL     OW38344   0.494   3.725   7.950 -0.3069 -0.4520 -0.1449
 8961SOL    HW138345   0.480   3.724   7.855 -0.3749 -0.3553 -0.1361
 8961SOL    HW238346   0.445   3.644   7.963 -1.8853  0.3601 -0.9482
 8962SOL     OW38347   2.483   2.265  11.129 -0.0638  0.1766  0.4082
 8962SOL    HW138348   2.441   2.303  11.052  2.6380 -0.6682 -1.4716
 8962SOL    HW238349   2.482   2.340  11.190  1.5759 -1.3042  2.2649
 8963SOL     OW38350   4.463   2.462   4.629 -0.3254  0.3656  0.2906
 8963SOL    HW138351   4.397   2.400   4.598  0.3618  1.1590 -2.8184
 8963SOL    HW238352   4.479   2.428   4.717  0.8998  0.1598 -0.0229
 8964SOL     OW38353   3.905   3.387   6.938 -0.1105 -0.0417 -0.0203
 8964SOL    HW138354   3.944   3.461   6.892  0.5354  0.0921  0.7439
 8964SOL    HW238355   3.855   3.429   7.008  3.2199 -1.1404  3.0567
 8965SOL     OW38356   3.389   0.607  16.894 -0.1162  0.2286 -0.6866
 8965SOL    HW138357   3.380   0.659  16.815  1.0966  0.2113 -0.8277
 8965SOL    HW238358   3.323   0.539  16.878 -0.9795  1.5805 -2.6763
 8966SOL     OW38359   0.744   2.181   7.679  0.4295  0.3927 -0.0512
 8966SOL    HW138360   0.837   2.175   7.702 -0.1199 -0.5180  1.9382
 8966SOL    HW238361   0.693   2.149   7.755  1.7710  1.7009  1.3948
 8967SOL     OW38362   1.052   0.021   8.003 -0.1029  0.4428 -0.0001
 8967SOL    HW138363   1.044   0.001   7.910 -0.9094 -1.3852  0.4597
 8967SOL    HW238364   1.022   0.111   8.011  0.3702  0.4956  1.1925
 8968SOL     OW38365   0.811   4.569   7.102  0.3769 -0.1354 -0.0546
 8968SOL    HW138366   0.775   4.560   7.190  1.0395  1.4658  0.3883
 8968SOL    HW238367   0.901   4.582   7.133  0.1412 -1.9678  1.4118
 8969SOL     OW38368   1.835   2.305   9.913  0.2803  0.0331  0.3292
 8969SOL    HW138369   1.907   2.367   9.926  0.5833 -0.3327  0.4136
 8969SOL    HW238370   1.788   2.350   9.843  0.1912 -1.3855 -0.5209
 8970SOL     OW38371   1.828   0.209   8.224  0.1471  0.4381  0.2529
 8970SOL    HW138372   1.776   0.167   8.293  0.0967  1.7651  1.0226
 8970SOL    HW238373   1.779   0.291   8.222 -0.3365  0.1145 -1.0513
 8971SOL     OW38374   2.071   1.981   1.178  0.4669  0.3573  0.2096
 8971SOL    HW138375   2.149   2.020   1.219  0.4088  1.1148 -0.3915
 8971SOL    HW238376   2.103   1.933   1.102 -0.6723  0.3749 -0.2821
 8972SOL     OW38377   3.674   2.086   0.186 -0.2330  0.6580  0.5649
 8972SOL    HW138378   3.589   2.111   0.222 -0.4130  1.3015 -0.3122
 8972SOL    HW238379   3.658   2.004   0.139 -3.2236  2.5694 -1.7608
 8973SOL     OW38380   1.247   2.526  10.556 -0.7942  0.1466  0.0264
 8973SOL    HW138381   1.329   2.542  10.510  0.1052  1.2620  1.9717
 8973SOL    HW238382   1.284   2.482  10.633  0.6053 -0.9951 -1.3150
 8974SOL     OW38383   1.950   0.064   8.549 -0.4673  0.0258 -0.5748
 8974SOL    HW138384   1.973   0.140   8.603  1.9068 -1.7112  0.8467
 8974SOL    HW238385   1.858   0.078   8.527 -0.2603  0.6121 -1.0721
 8975SOL     OW38386   3.210   0.025   8.091 -0.8059  0.1596 -0.0329
 8975SOL    HW138387   3.148   0.033   8.019  0.9482 -1.0064 -1.6976
 8975SOL    HW238388   3.177   0.092   8.150 -0.6642  1.1844 -1.1336
 8976SOL     OW38389   4.615   0.931   0.258  0.4967  0.0993 -0.6058
 8976SOL    HW138390   4.526   0.900   0.239  0.3377 -0.5614  1.2551
 8976SOL    HW238391   4.654   0.918   0.172  1.3717  1.8455 -0.4645
 8977SOL     OW38392   4.118   2.509  16.547 -0.2312  0.3462  0.1829
 8977SOL    HW138393   4.201   2.538  16.509 -0.7038  1.4352 -0.0326
 8977SOL    HW238394   4.120   2.418  16.517  1.2377  0.6691 -0.7314
 8978SOL     OW38395   2.956   0.534   7.920 -0.1417 -0.6523  0.1202
 8978SOL    HW138396   2.945   0.629   7.914  0.9163 -0.6144 -1.0907
 8978SOL    HW238397   2.955   0.524   8.015 -2.5075  0.1456  0.1886
 8979SOL     OW38398   3.950   3.592   7.565  0.0005 -0.2930  0.1331
 8979SOL    HW138399   3.963   3.587   7.659 -2.5589 -0.0870  0.5045
 8979SOL    HW238400   4.039   3.593   7.529  0.3507  0.8575  1.0306
 8980SOL     OW38401   0.965   1.767   3.546 -0.0812  0.1707 -0.1652
 8980SOL    HW138402   0.950   1.675   3.566  0.4571  0.8588  3.4173
 8980SOL    HW238403   1.021   1.800   3.616 -0.2262 -0.1233  0.0902
 8981SOL     OW38404   1.128   0.554   5.625 -0.7557  0.5636  0.2184
 8981SOL    HW138405   1.104   0.479   5.572 -0.3398  1.3280 -1.0520
 8981SOL    HW238406   1.209   0.523   5.667 -0.5327 -1.2032 -1.5619
 8982SOL     OW38407   1.332   4.493   3.890  0.1554  0.1554 -0.1220
 8982SOL    HW138408   1.283   4.427   3.938  0.3320  0.3760  0.3675
 8982SOL    HW238409   1.421   4.473   3.921 -0.0977 -1.5408 -0.5309
 8983SOL     OW38410   2.445   1.233   6.043 -0.1663 -0.3035  0.2162
 8983SOL    HW138411   2.445   1.143   6.013 -0.2977  0.3256 -1.6836
 8983SOL    HW238412   2.386   1.223   6.118 -1.5983  0.4193 -0.8153
 8984SOL     OW38413   3.367   0.605  11.514 -0.4531 -0.3149 -0.6911
 8984SOL    HW138414   3.302   0.663  11.475  0.4584  0.8492 -0.4467
 8984SOL    HW238415   3.320   0.555  11.581  0.0516  0.8090  0.4997
 8985SOL     OW38416   3.848   1.645   7.929  0.1973 -0.5199  0.1866
 8985SOL    HW138417   3.913   1.602   7.874 -1.2098 -0.3949 -1.5639
 8985SOL    HW238418   3.909   1.700   7.978  0.5655 -2.0255  1.3999
 8986SOL     OW38419   0.721   1.242   7.301 -0.0546  0.1096 -0.3725
 8986SOL    HW138420   0.761   1.305   7.241  1.2888  0.1712  0.5807
 8986SOL    HW238421   0.638   1.286   7.319 -1.1538 -1.6139 -1.2196
 8987SOL     OW38422   4.588   0.513   7.961 -0.4055 -0.0314  0.4197
 8987SOL    HW138423   4.644   0.547   8.030  1.1322  0.8016 -1.2465
 8987SOL    HW238424   4.596   0.419   7.975  2.0085 -0.0044 -0.7491
 8988SOL     OW38425   1.196   4.301   4.035 -0.1795  0.0215  0.2835
 8988SOL    HW138426   1.202   4.245   3.957 -2.5687 -0.0410  0.1285
 8988SOL    HW238427   1.162   4.238   4.100 -1.7030 -1.6320 -2.1271
 8989SOL     OW38428   1.471   4.485   6.849  0.8122  0.0928  0.3477
 8989SOL    HW138429   1.460   4.431   6.927 -1.3038  1.7080  1.1331
 8989SOL    HW238430   1.534   4.435   6.796 -0.4835 -0.3008 -0.8042
 8990SOL     OW38431   3.121   1.239   7.585 -0.0745 -0.6690 -0.0602
 8990SOL    HW138432   3.051   1.249   7.521 -0.8027  2.2571  1.2000
 8990SOL    HW238433   3.105   1.304   7.653  1.7795 -1.5118  1.1764
 8991SOL     OW38434   3.702   3.796  14.465  0.4434  0.2408  0.2183
 8991SOL    HW138435   3.701   3.736  14.540  0.7100  0.0776  0.0935
 8991SOL    HW238436   3.632   3.853  14.496  1.4412  1.7875 -0.4037
 8992SOL     OW38437   1.629   2.199   1.362 -0.2973 -0.5494  0.2706
 8992SOL    HW138438   1.724   2.196   1.346 -0.5617 -0.5154 -1.3234
 8992SOL    HW238439   1.597   2.163   1.279 -2.5668  2.9277 -0.3926
 8993SOL     OW38440   0.789   1.372   5.274  0.3569 -0.3013 -0.1796
 8993SOL    HW138441   0.718   1.335   5.221  0.6368  2.6989 -2.6257
 8993SOL    HW238442   0.789   1.300   5.337 -0.0896  0.5270  0.7753
 8994SOL     OW38443   3.714   3.401   6.742 -0.5600  0.2504  0.5116
 8994SOL    HW138444   3.641   3.446   6.785 -1.4321 -1.4846  0.8151
 8994SOL    HW238445   3.762   3.377   6.821 -0.7817  0.4907  0.7200
 8995SOL     OW38446   3.193   4.484  11.652 -0.2528  0.0108  0.1972
 8995SOL    HW138447   3.267   4.445  11.699 -0.7662 -1.0128  0.1492
 8995SOL    HW238448   3.148   4.512  11.732  0.1959  0.6879  0.2146
 8996SOL     OW38449   3.339   1.976   2.638  0.5618 -0.8228  0.3801
 8996SOL    HW138450   3.287   1.921   2.696 -1.4374  2.3422  1.6266
 8996SOL    HW238451   3.281   2.018   2.575  0.6091 -0.1907  0.7509
 8997SOL     OW38452   3.254   1.166  11.104 -0.3011 -0.5678 -0.5585
 8997SOL    HW138453   3.344   1.186  11.079 -0.8264  0.8720 -1.3085
 8997SOL    HW238454   3.261   1.160  11.200 -0.9605  1.0955 -0.3994
 8998SOL     OW38455   3.647   1.637   5.519  0.0027  0.2789 -0.2320
 8998SOL    HW138456   3.571   1.614   5.573  1.2119  0.4826  1.5866
 8998SOL    HW238457   3.620   1.623   5.429 -1.3091 -1.9869  0.5130
 8999SOL     OW38458   2.430   4.208   4.694  0.2792  0.1685 -0.0009
 8999SOL    HW138459   2.341   4.179   4.676  0.9919 -1.9446 -0.2421
 8999SOL    HW238460   2.431   4.190   4.788  0.7381  0.7298  0.1001
 9000SOL     OW38461   3.395   1.341  12.850 -0.0056  0.1487 -0.0989
 9000SOL    HW138462   3.482   1.377  12.831  0.1135  1.1978  2.4307
 9000SOL    HW238463   3.418   1.262  12.898  0.9717  1.5834  1.8060
 9001SOL     OW38464   2.550   1.883   2.100  0.0057  0.6801 -0.5104
 9001SOL    HW138465   2.616   1.944   2.069 -0.6829  1.9694  0.5772
 9001SOL    HW238466   2.605   1.806   2.116  0.1320  0.8353 -0.1868
 9002SOL     OW38467   4.212   1.806   4.716  0.1672  0.5928 -0.3120
 9002SOL    HW138468   4.297   1.824   4.675  0.3888  0.1645 -0.0426
 9002SOL    HW238469   4.209   1.710   4.724 -1.0375  0.4796 -2.0175
 9003SOL     OW38470   4.716   2.143   3.373  0.8287  0.3947 -0.6398
 9003SOL    HW138471   0.065   2.085   3.397  1.8566  0.2198 -4.1997
 9003SOL    HW238472   4.672   2.077   3.320  0.8304 -0.0520 -0.0859
 9004SOL     OW38473   4.148   2.461   6.545 -0.1835  0.1956 -0.0479
 9004SOL    HW138474   4.199   2.422   6.616  0.9795  0.5978 -0.6674
 9004SOL    HW238475   4.194   2.411   6.478  1.7010  0.2917  1.1751
 9005SOL     OW38476   0.686   0.407   5.527 -0.1004  0.1221 -0.3959
 9005SOL    HW138477   0.650   0.329   5.485  1.0417 -0.0350 -1.0817
 9005SOL    HW238478   0.685   0.470   5.455  0.1936  3.0270  2.1454
 9006SOL     OW38479   4.255   4.316  16.840  0.1069  0.0952  0.0692
 9006SOL    HW138480   4.326   4.254  16.859  0.2378  0.0043 -0.6986
 9006SOL    HW238481   4.305   4.387  16.800  0.6061  0.0810  0.6671
 9007SOL     OW38482   0.701   1.592  10.986  0.1910  0.0046 -0.0717
 9007SOL    HW138483   0.709   1.543  11.068 -0.3324 -0.4619 -0.2964
 9007SOL    HW238484   0.633   1.656  11.004 -1.1964 -2.1870  2.5633
 9008SOL     OW38485   4.170   2.793   5.987 -0.2049  0.2850 -0.1465
 9008SOL    HW138486   4.220   2.756   6.060 -0.1025 -1.9116 -1.3592
 9008SOL    HW238487   4.137   2.710   5.955  1.8482 -0.4482 -0.3513
 9009SOL     OW38488   3.173   2.031   6.959  0.2140 -0.3207  0.3646
 9009SOL    HW138489   3.093   2.083   6.954  1.1429  0.8768 -2.0897
 9009SOL    HW238490   3.213   2.059   6.876 -0.3015  1.2003  0.6277
 9010SOL     OW38491   2.618   2.493   6.516 -0.2718 -0.0187 -0.1817
 9010SOL    HW138492   2.664   2.450   6.444  0.4882  0.8178 -0.1976
 9010SOL    HW238493   2.614   2.581   6.478  2.0165  0.4770  0.7074
 9011SOL     OW38494   3.730   0.012  11.246 -0.3792  0.6827  0.3366
 9011SOL    HW138495   3.824   0.000  11.231 -0.6830 -3.9211  2.0834
 9011SOL    HW238496   3.719   0.100  11.282 -1.0643  1.3825 -1.5968
 9012SOL     OW38497   1.592   2.872  13.297  0.4750 -0.2396  0.2856
 9012SOL    HW138498   1.641   2.906  13.371  1.1569  1.7451 -1.0512
 9012SOL    HW238499   1.637   2.792  13.272 -2.0518 -2.1555  1.9235
 9013SOL     OW38500   0.104   3.389   2.063  0.7721  0.0710 -0.0248
 9013SOL    HW138501   0.053   3.411   1.985 -0.4176 -1.1261  0.4204
 9013SOL    HW238502   0.178   3.346   2.021  1.9996  2.1397 -0.0158
 9014SOL     OW38503   2.505   2.218   2.602 -0.3282  0.1891 -0.5270
 9014SOL    HW138504   2.450   2.155   2.555  0.3584 -0.5834 -0.3040
 9014SOL    HW238505   2.567   2.168   2.655  0.8252  1.3015 -0.8157
 9015SOL     OW38506   3.724   0.934   4.285 -0.4254  0.0009 -0.0786
 9015SOL    HW138507   3.817   0.945   4.306 -0.2368 -0.6192 -0.5833
 9015SOL    HW238508   3.675   0.949   4.366  0.0899  0.0300  0.2287
 9016SOL     OW38509   1.980   0.918  15.526  0.0129  0.1375 -0.1700
 9016SOL    HW138510   2.035   0.869  15.465  0.1613 -0.2136  0.2443
 9016SOL    HW238511   2.037   0.985  15.565 -0.5786  0.2761  0.4640
 9017SOL     OW38512   0.296   1.852   3.593 -0.1997  0.9127 -0.0911
 9017SOL    HW138513   0.271   1.944   3.589  1.6189  1.4737  1.1418
 9017SOL    HW238514   0.271   1.826   3.682  2.0600  0.1943  0.3343
 9018SOL     OW38515   1.709   2.338  10.207 -0.0397  0.0551 -0.3216
 9018SOL    HW138516   1.622   2.343  10.247 -0.9676  2.1388 -2.5290
 9018SOL    HW238517   1.694   2.278  10.134  0.1957  2.2371 -2.1496
 9019SOL     OW38518   0.291   3.922  12.146  0.1034 -0.3863  0.3372
 9019SOL    HW138519   0.259   3.983  12.079 -1.6879 -2.4046 -0.6226
 9019SOL    HW238520   0.227   3.918  12.217 -0.0528 -1.4035  0.1361
 9020SOL     OW38521   4.511   2.585  17.630 -0.1894 -0.2322 -0.3006
 9020SOL    HW138522   4.478   2.671  17.656 -0.0300 -0.0079 -0.8353
 9020SOL    HW238523   4.495   2.589  17.535  0.8173 -0.7654 -0.4981
 9021SOL     OW38524   1.962   3.454   6.188  0.7660  0.0728  0.5473
 9021SOL    HW138525   1.931   3.424   6.103  0.4390 -2.8538  1.7187
 9021SOL    HW238526   1.909   3.533   6.201 -1.3112 -0.9938 -1.4649
 9022SOL     OW38527   3.388   2.247  12.347  0.3388  1.2278 -0.5331
 9022SOL    HW138528   3.430   2.179  12.295 -1.5339  1.2597 -2.0878
 9022SOL    HW238529   3.451   2.319  12.348 -0.8728  2.2861 -0.4993
 9023SOL     OW38530   0.738   1.326   4.286 -0.3469  0.7220  0.4149
 9023SOL    HW138531   0.676   1.325   4.360 -0.5808 -1.8611  0.1875
 9023SOL    HW238532   0.671   1.302   4.222  1.5424  0.9770 -1.6156
 9024SOL     OW38533   0.943   3.064   8.171  0.1821  0.0169  0.1564
 9024SOL    HW138534   0.991   2.985   8.145  0.6185  1.4805 -3.4955
 9024SOL    HW238535   0.894   3.014   8.236 -3.8626  1.2808 -1.9382
 9025SOL     OW38536   3.622   4.426  10.160  0.2945  0.3441 -0.0269
 9025SOL    HW138537   3.605   4.335  10.136 -1.0609  0.1168  1.7740
 9025SOL    HW238538   3.633   4.464  10.073 -1.5790 -2.1567 -1.3489
 9026SOL     OW38539   1.919   2.371  13.645  0.1026  0.0413 -0.3363
 9026SOL    HW138540   1.964   2.352  13.563  1.9859  2.6631  0.0711
 9026SOL    HW238541   1.891   2.280  13.653 -0.8400  0.3218 -0.4058
 9027SOL     OW38542   1.633   0.634   6.814  0.1646  0.2165 -0.3351
 9027SOL    HW138543   1.658   0.557   6.865 -0.4774  0.1720 -0.0820
 9027SOL    HW238544   1.541   0.615   6.794  0.0766 -0.0823  0.3327
 9028SOL     OW38545   2.331   2.475  11.198 -0.5912  0.0023  0.3073
 9028SOL    HW138546   2.278   2.523  11.262  0.9843  0.6332  1.1156
 9028SOL    HW238547   2.382   2.545  11.157 -1.3883  0.9450  0.9244
 9029SOL     OW38548   3.298   1.774  11.615  0.4357 -0.2370 -0.2691
 9029SOL    HW138549   3.384   1.746  11.647  0.6068 -1.6479 -1.9284
 9029SOL    HW238550   3.255   1.772  11.700  1.0788  3.1611  0.1436
 9030SOL     OW38551   1.597   1.432   1.724  0.2992 -0.0960 -0.2290
 9030SOL    HW138552   1.615   1.526   1.732 -0.4360  0.3253 -3.4329
 9030SOL    HW238553   1.578   1.432   1.630  0.8313  1.5182 -0.3429
 9031SOL     OW38554   1.598   3.378   4.103 -0.0602 -0.0499  0.1174
 9031SOL    HW138555   1.505   3.389   4.079  0.3134  1.7860 -0.4998
 9031SOL    HW238556   1.600   3.299   4.157 -0.2169 -0.1778 -0.0604
 9032SOL     OW38557   2.241   1.662  12.526 -0.5463  0.2023 -0.4031
 9032SOL    HW138558   2.255   1.629  12.438 -1.0938 -1.9489  0.3174
 9032SOL    HW238559   2.148   1.683  12.532 -0.3606  1.2994 -1.5772
 9033SOL     OW38560   3.422   1.658   4.824 -0.0727  0.2041  0.4921
 9033SOL    HW138561   3.443   1.623   4.737 -1.2090 -1.6378  0.9682
 9033SOL    HW238562   3.337   1.695   4.799  1.1704  1.1283 -2.4889
 9034SOL     OW38563   1.247   4.162   4.870  0.3963  0.0596  0.0868
 9034SOL    HW138564   1.254   4.249   4.830  0.5852 -0.3417 -0.7569
 9034SOL    HW238565   1.153   4.146   4.857  0.3971  0.9684 -0.9852
 9035SOL     OW38566   2.293   1.900   5.572  0.2035  0.2043 -0.4563
 9035SOL    HW138567   2.353   1.827   5.585 -0.2778  0.3637  2.6352
 9035SOL    HW238568   2.210   1.853   5.579 -0.6598  1.5539 -1.7018
 9036SOL     OW38569   0.580   0.921  15.243 -0.4463  0.3643  0.2879
 9036SOL    HW138570   0.669   0.955  15.250  0.0829 -0.8558 -0.4853
 9036SOL    HW238571   0.547   0.952  15.158  3.3236  0.8665 -0.9719
 9037SOL     OW38572   2.151   3.860   2.399  0.1534  0.0496  0.2623
 9037SOL    HW138573   2.196   3.921   2.458 -0.1006  1.6710 -1.2288
 9037SOL    HW238574   2.161   3.905   2.315  2.0732 -0.8795 -0.0252
 9038SOL     OW38575   0.889   3.425   3.766  0.4127  0.1788  0.3705
 9038SOL    HW138576   0.854   3.362   3.828 -0.2702 -0.6715 -0.8708
 9038SOL    HW238577   0.839   3.406   3.687 -0.4923  2.2175  0.4647
 9039SOL     OW38578   3.409   1.493  13.151  0.8709  0.1519 -0.0891
 9039SOL    HW138579   3.357   1.538  13.085  1.4702  1.6776  0.4684
 9039SOL    HW238580   3.419   1.407  13.110 -2.8772 -1.0434  1.4317
 9040SOL     OW38581   1.557   2.380   4.641 -0.5162 -0.1599  0.1521
 9040SOL    HW138582   1.504   2.359   4.718 -1.9268  2.6130 -0.0487
 9040SOL    HW238583   1.577   2.292   4.608  1.7013  0.5082 -0.2403
 9041SOL     OW38584   3.066   1.372   7.223  0.5054 -0.6391  0.1712
 9041SOL    HW138585   2.983   1.353   7.267  0.9813  0.0621  1.3468
 9041SOL    HW238586   3.082   1.461   7.255 -0.4195 -0.2526 -0.4185
 9042SOL     OW38587   1.741   0.113   2.665 -0.0169  0.4614  0.4049
 9042SOL    HW138588   1.666   0.054   2.678  1.3628 -0.4805  4.0670
 9042SOL    HW238589   1.729   0.131   2.571 -2.8140  1.0936  0.8661
 9043SOL     OW38590   2.458   0.323   9.688  0.9254  0.2242 -0.0506
 9043SOL    HW138591   2.414   0.357   9.611  0.7525  0.6385  0.2285
 9043SOL    HW238592   2.382   0.300   9.741  1.4438 -0.1745  0.5280
 9044SOL     OW38593   1.032   4.705   9.485  0.7545 -0.0950 -0.0141
 9044SOL    HW138594   0.978   0.056   9.457  0.9060 -0.3128 -0.8921
 9044SOL    HW238595   0.963   4.640   9.494  1.2351 -0.7244 -0.8926
 9045SOL     OW38596   1.505   3.509   0.115 -0.2180  0.1929  0.2229
 9045SOL    HW138597   1.480   3.537   0.027  0.5290 -1.9068 -0.6489
 9045SOL    HW238598   1.511   3.416   0.095 -1.7613  0.0879  0.2112
 9046SOL     OW38599   3.060   2.381   1.996 -0.0780 -0.5332  0.0102
 9046SOL    HW138600   3.081   2.474   1.986 -0.3052 -0.6889 -1.9545
 9046SOL    HW238601   3.056   2.376   2.091 -0.8537 -0.1913 -0.0051
 9047SOL     OW38602   1.941   0.077  17.573  0.1052  0.4687  0.1911
 9047SOL    HW138603   1.956   0.030  17.655  1.5037 -0.8942 -0.8246
 9047SOL    HW238604   1.978   0.007  17.518 -0.4890  0.1463  0.2002
 9048SOL     OW38605   1.093   0.359   7.839  0.5634  0.1186  0.2407
 9048SOL    HW138606   1.018   0.331   7.892  0.2734  0.2544 -0.0956
 9048SOL    HW238607   1.112   0.447   7.872 -1.6898  0.6895  0.0219
 9049SOL     OW38608   1.210   3.850   7.127  0.1260 -0.1141 -0.1611
 9049SOL    HW138609   1.217   3.945   7.133  0.5932  0.0088 -2.7682
 9049SOL    HW238610   1.276   3.828   7.061 -0.5276 -1.8386 -0.2562
 9050SOL     OW38611   1.930   0.452   8.839  0.2911  0.1766  0.3103
 9050SOL    HW138612   1.855   0.510   8.829 -1.0498 -1.4405  0.9885
 9050SOL    HW238613   1.975   0.467   8.756  0.7017 -2.1778  0.0992
 9051SOL     OW38614   2.663   1.148   3.011 -0.6362  0.5489  0.0153
 9051SOL    HW138615   2.656   1.190   2.925  0.3330 -0.3944 -0.5314
 9051SOL    HW238616   2.748   1.177   3.043 -0.1892 -1.5044  0.6973
 9052SOL     OW38617   3.477   0.062   4.329  0.6278 -0.6046 -0.6407
 9052SOL    HW138618   3.483   4.710   4.387  1.4241  1.0792  1.4602
 9052SOL    HW238619   3.475   0.025   4.240 -0.8739  0.2270 -0.9532
 9053SOL     OW38620   4.571   0.025   7.685 -0.3300  0.0357  0.0460
 9053SOL    HW138621   4.544   0.112   7.655  0.7245 -0.1823 -1.5369
 9053SOL    HW238622   4.631   0.041   7.758 -1.0208  0.3916  0.5413
 9054SOL     OW38623   0.235   3.247   1.840  0.3526 -0.1086 -0.5216
 9054SOL    HW138624   0.159   3.264   1.784  0.8983 -2.3252 -1.9576
 9054SOL    HW238625   0.271   3.171   1.794 -0.6871 -1.6126  1.1852
 9055SOL     OW38626   0.042   2.341   3.190  0.0024 -0.6050  1.0247
 9055SOL    HW138627   0.019   2.270   3.249 -0.6669 -0.3178  1.1026
 9055SOL    HW238628   4.710   2.335   3.113 -0.0824  0.2485  1.0169
 9056SOL     OW38629   1.725   0.210   1.694  0.5073 -0.7724  0.2244
 9056SOL    HW138630   1.644   0.243   1.654 -0.0957 -0.0047  2.0582
 9056SOL    HW238631   1.705   0.125   1.731 -2.9567 -0.8849 -1.8897
 9057SOL     OW38632   3.186   3.265  11.881  0.8620 -0.5594  0.7210
 9057SOL    HW138633   3.132   3.201  11.834  0.4226  0.8406 -0.7004
 9057SOL    HW238634   3.119   3.294  11.943 -1.8993 -0.7493 -2.1219
 9058SOL     OW38635   2.932   3.554   6.633 -0.0979  0.4764  0.0401
 9058SOL    HW138636   2.910   3.647   6.630  1.0895  0.8360  1.9959
 9058SOL    HW238637   3.008   3.564   6.691 -0.4179  0.2008  0.5036
 9059SOL     OW38638   2.552   3.712   4.990  0.2661  0.2332 -0.0639
 9059SOL    HW138639   2.527   3.650   5.058 -3.0950  0.0130 -1.5071
 9059SOL    HW238640   2.642   3.732   5.017 -0.2334  1.3998  0.7923
 9060SOL     OW38641   2.968   3.297  13.870 -0.6187 -0.4330 -0.3909
 9060SOL    HW138642   2.920   3.378  13.857  1.1346  0.4852 -1.2345
 9060SOL    HW238643   2.913   3.239  13.923  1.2215 -0.5409  1.4098
 9061SOL     OW38644   1.591   1.411   2.390  0.5470 -0.1690 -0.2985
 9061SOL    HW138645   1.562   1.433   2.302 -0.0667  1.8127  0.4011
 9061SOL    HW238646   1.527   1.343   2.411 -0.8162  1.3643  0.4929
 9062SOL     OW38647   0.862   2.724   6.673 -0.2794 -0.3213 -0.2316
 9062SOL    HW138648   0.953   2.753   6.687 -0.5085 -0.3414  1.2629
 9062SOL    HW238649   0.866   2.696   6.581 -0.3486 -2.2137  0.3553
 9063SOL     OW38650   2.762   1.356   8.389 -0.0004  0.1309  0.2940
 9063SOL    HW138651   2.687   1.415   8.389 -0.7071 -0.7602  0.4630
 9063SOL    HW238652   2.758   1.327   8.480  3.6631 -2.0090 -0.2226
 9064SOL     OW38653   0.248   1.494   4.488 -0.1785 -0.0851  0.1628
 9064SOL    HW138654   0.262   1.575   4.538  0.2758 -0.3034  0.3840
 9064SOL    HW238655   0.184   1.528   4.425  0.5306  1.1791  0.1238
 9065SOL     OW38656   3.041   1.325  11.077  0.3283 -0.9877  0.1424
 9065SOL    HW138657   3.059   1.385  11.004  1.2217  0.8548  1.8623
 9065SOL    HW238658   3.114   1.264  11.087  1.1150  0.3036  2.3434
 9066SOL     OW38659   4.164   1.944   6.234  0.0147  0.0509  0.1908
 9066SOL    HW138660   4.150   1.962   6.141 -2.5156  2.0544  0.9463
 9066SOL    HW238661   4.176   2.031   6.271  0.9367  0.4276 -1.0150
 9067SOL     OW38662   4.685   1.112   3.302  0.5086 -0.2658 -0.5482
 9067SOL    HW138663   4.716   1.044   3.362 -0.0322  0.0496  0.0884
 9067SOL    HW238664   4.686   1.066   3.218 -4.7075 -2.5838  0.6767
 9068SOL     OW38665   2.725   2.576   0.059 -0.3154  0.4304  0.0207
 9068SOL    HW138666   2.769   2.581   0.144  1.9028 -1.3583 -1.0330
 9068SOL    HW238667   2.798   2.562  17.699  0.9157 -1.2390  1.9298
 9069SOL     OW38668   0.179   0.372  13.063 -0.1536 -0.3064  1.0641
 9069SOL    HW138669   0.175   0.389  12.969 -0.5762  0.6795  1.2588
 9069SOL    HW238670   0.091   0.340  13.082 -0.6479  0.7519  0.5714
 9070SOL     OW38671   4.201   1.367   7.872  0.6266 -0.0349  0.2938
 9070SOL    HW138672   4.148   1.394   7.947  1.5909 -1.2552  1.4236
 9070SOL    HW238673   4.206   1.275   7.898 -0.1158 -0.4611 -1.0775
 9071SOL     OW38674   4.038   2.760  12.108 -0.2633 -0.1922 -0.1163
 9071SOL    HW138675   4.091   2.732  12.033  1.0852 -0.8155  1.0621
 9071SOL    HW238676   4.075   2.846  12.127 -0.9991  0.1760 -0.3910
 9072SOL     OW38677   2.984   4.232  10.466 -0.1077 -0.1038 -0.5324
 9072SOL    HW138678   2.965   4.205  10.376 -1.2845  0.9211 -0.5887
 9072SOL    HW238679   3.068   4.191  10.489 -0.5921  0.4014  2.1564
 9073SOL     OW38680   1.180   3.232   5.342  0.3237 -0.1446 -0.1300
 9073SOL    HW138681   1.173   3.277   5.258 -0.5094  1.8784  1.0224
 9073SOL    HW238682   1.200   3.307   5.398  1.0908  0.3713 -1.0931
 9074SOL     OW38683   3.106   4.011   2.168 -0.4841 -0.0079  0.2697
 9074SOL    HW138684   3.073   4.002   2.079 -1.4120  2.3778  0.3781
 9074SOL    HW238685   3.058   3.941   2.214 -1.8777  0.3035 -0.6981
 9075SOL     OW38686   2.625   3.097   5.089  0.4005 -0.2880  0.1502
 9075SOL    HW138687   2.719   3.110   5.098  0.7880 -3.4954  0.8054
 9075SOL    HW238688   2.618   3.002   5.091 -0.8528 -0.2304 -3.0567
 9076SOL     OW38689   3.599   1.452   5.998 -0.2340 -0.2535 -0.4321
 9076SOL    HW138690   3.601   1.360   5.970 -0.6742 -1.3256  3.0646
 9076SOL    HW238691   3.511   1.475   5.969  1.1337  4.5258 -0.7032
 9077SOL     OW38692   1.414   1.194   1.203  0.0675 -0.0154 -0.3531
 9077SOL    HW138693   1.463   1.114   1.222 -2.2752 -1.6102 -1.1236
 9077SOL    HW238694   1.427   1.238   1.287 -1.7009  1.5951 -0.9249
 9078SOL     OW38695   0.543   4.254  16.037  0.1048  0.6250 -0.0060
 9078SOL    HW138696   0.518   4.301  15.957 -4.7869 -1.3021  0.4358
 9078SOL    HW238697   0.492   4.302  16.103 -1.1029 -0.4593 -0.1518
 9079SOL     OW38698   1.241   4.042   9.664 -0.5191  0.2443  0.3227
 9079SOL    HW138699   1.165   4.100   9.654 -1.7423 -1.6161 -1.3252
 9079SOL    HW238700   1.301   4.106   9.627 -2.3640  2.7628  1.6700
 9080SOL     OW38701   4.654   1.942   5.182  0.1170  0.0733  0.0967
 9080SOL    HW138702   4.582   1.880   5.176 -0.6327  0.9503  0.1122
 9080SOL    HW238703   4.683   1.945   5.273 -0.4371  1.7067  0.2007
 9081SOL     OW38704   2.882   3.501   4.818 -0.2964 -0.3068 -0.0854
 9081SOL    HW138705   2.861   3.571   4.880  1.4016  1.0527 -1.0217
 9081SOL    HW238706   2.854   3.546   4.738 -0.1081 -0.1727 -0.0778
 9082SOL     OW38707   4.466   4.460  13.103 -0.0245  0.3733  0.2061
 9082SOL    HW138708   4.454   4.526  13.035 -0.0538  0.2537  0.0964
 9082SOL    HW238709   4.397   4.485  13.164 -2.7702 -0.8861 -2.4074
 9083SOL     OW38710   0.591   2.765   5.096  0.0675  0.0238  0.2379
 9083SOL    HW138711   0.645   2.721   5.163  1.8904 -0.5252 -1.6004
 9083SOL    HW238712   0.639   2.750   5.015  0.2171  2.3443 -0.0969
 9084SOL     OW38713   1.044   3.361  11.141  0.8753 -0.3206 -0.0716
 9084SOL    HW138714   1.129   3.371  11.097 -0.1749  0.3677 -1.9447
 9084SOL    HW238715   0.994   3.428  11.093 -0.8553 -1.1220  0.6295
 9085SOL     OW38716   3.861   1.882   6.548 -0.5018  0.0934  0.2686
 9085SOL    HW138717   3.820   1.967   6.561 -0.8279  0.0962 -0.7316
 9085SOL    HW238718   3.785   1.830   6.520 -1.1868  1.9961 -1.4023
 9086SOL     OW38719   0.998   2.535   7.810  0.1904 -0.3329  0.0988
 9086SOL    HW138720   1.076   2.483   7.830 -0.0223 -0.3613  0.8728
 9086SOL    HW238721   0.928   2.482   7.848 -0.6005  0.6585  0.0296
 9087SOL     OW38722   4.595   2.810   4.335 -0.0321  0.2726 -0.0954
 9087SOL    HW138723   4.561   2.898   4.321 -0.5673  0.2866  1.3111
 9087SOL    HW238724   4.679   2.824   4.291 -0.7616  4.3141 -0.1818
 9088SOL     OW38725   1.628   1.597  10.435  0.5989 -0.1164  0.1101
 9088SOL    HW138726   1.655   1.615  10.525  0.4844  1.2087 -0.1189
 9088SOL    HW238727   1.717   1.613  10.404  0.5329  0.9954  0.5064
 9089SOL     OW38728   3.562   0.012   2.659 -0.5177  0.0082  0.2671
 9089SOL    HW138729   3.515   4.653   2.663 -0.4251  0.0403  1.9138
 9089SOL    HW238730   3.545   0.035   2.750 -0.2172  3.0924 -0.4609
 9090SOL     OW38731   2.052   2.155  15.340 -0.2601 -0.0984  0.0335
 9090SOL    HW138732   2.144   2.141  15.364 -0.3765 -0.5032  0.2383
 9090SOL    HW238733   2.059   2.249  15.320 -1.1978  0.3883  2.0021
 9091SOL     OW38734   4.466   2.392   6.027 -0.1736 -0.5128 -0.6723
 9091SOL    HW138735   4.491   2.300   6.035 -0.0581 -0.4171  0.0316
 9091SOL    HW238736   4.520   2.422   6.100 -0.6272  0.4802 -0.7397
 9092SOL     OW38737   1.856   0.864   5.343  0.4081  0.1476 -0.2370
 9092SOL    HW138738   1.924   0.797   5.338 -0.4022 -0.8435  2.0948
 9092SOL    HW238739   1.785   0.817   5.388 -0.0608 -3.5359 -4.8747
 9093SOL     OW38740   0.002   4.178  12.565  0.5366  0.1804 -0.3988
 9093SOL    HW138741   4.713   4.164  12.658  1.3401  0.2947 -0.2682
 9093SOL    HW238742   4.639   4.170  12.526  1.7917 -1.1248 -2.9747
 9094SOL     OW38743   3.397   1.340   4.791  0.0432  0.8151  0.2827
 9094SOL    HW138744   3.399   1.344   4.695 -0.5314 -0.1409  0.2286
 9094SOL    HW238745   3.488   1.365   4.807  0.1554 -0.8447  2.3332
 9095SOL     OW38746   3.889   3.576   2.061 -0.3047 -0.0857 -0.4335
 9095SOL    HW138747   3.839   3.651   2.030  0.5068 -0.2141 -2.0463
 9095SOL    HW238748   3.874   3.581   2.156 -0.1109  0.8211 -0.4543
 9096SOL     OW38749   0.944   0.175   3.136 -0.0840  0.0705 -0.5140
 9096SOL    HW138750   0.959   0.106   3.072  0.1290  2.4671 -3.0257
 9096SOL    HW238751   1.033   0.194   3.165 -0.4919 -2.1535  2.2607
 9097SOL     OW38752   2.559   1.784   2.943  0.1363 -0.2102  0.2767
 9097SOL    HW138753   2.576   1.819   3.031  0.7582  1.3694 -0.4563
 9097SOL    HW238754   2.611   1.705   2.927  2.2064  1.5185 -1.5829
 9098SOL     OW38755   4.498   1.075  13.948 -0.1884  0.0108  0.3391
 9098SOL    HW138756   4.504   1.098  13.856 -2.3801 -1.7168 -0.2344
 9098SOL    HW238757   4.591   1.067  13.968 -0.5209 -2.2619  0.9307
 9099SOL     OW38758   0.447   3.575   5.435 -0.3719  1.3189  0.1124
 9099SOL    HW138759   0.455   3.485   5.468  0.9339  1.7082  0.8920
 9099SOL    HW238760   0.395   3.619   5.502 -1.9217  0.8754 -0.8101
 9100SOL     OW38761   3.530   4.552   3.330  0.0345 -0.2155 -0.1744
 9100SOL    HW138762   3.491   4.531   3.245  2.1004 -1.1277 -0.9063
 9100SOL    HW238763   3.549   4.646   3.322 -2.1949  0.1745 -0.8673
 9101SOL     OW38764   4.036   2.579  17.641 -0.1549  0.7344 -0.4735
 9101SOL    HW138765   4.128   2.571  17.617  0.4009  1.9390  1.2685
 9101SOL    HW238766   3.993   2.493  17.640 -0.3079  0.8204 -1.5891
 9102SOL     OW38767   2.300   3.941  14.509 -0.1495  0.0607  0.0461
 9102SOL    HW138768   2.291   3.956  14.415 -0.4067 -1.0662 -0.1130
 9102SOL    HW238769   2.261   3.854  14.510 -0.8645  0.3556 -2.0544
 9103SOL     OW38770   4.625   3.206   4.262  0.1909 -0.1933 -0.4632
 9103SOL    HW138771   4.647   3.182   4.172  1.1255 -0.7946 -0.0792
 9103SOL    HW238772   4.716   3.198   4.290 -0.6021 -0.8296  1.9264
 9104SOL     OW38773   4.341   1.639  17.493 -0.6233 -0.3171  0.2826
 9104SOL    HW138774   4.359   1.575  17.425  0.5539 -1.6317  1.8575
 9104SOL    HW238775   4.258   1.602  17.522 -1.4938  0.1983 -1.5467
 9105SOL     OW38776   3.306   2.210   7.872  0.2261  0.3108 -0.1353
 9105SOL    HW138777   3.385   2.190   7.921  1.5758  3.5153 -1.0506
 9105SOL    HW238778   3.275   2.282   7.926  1.7538  1.1806 -0.4470
 9106SOL     OW38779   3.084   0.229   8.266 -0.2643 -0.0098 -0.4324
 9106SOL    HW138780   3.148   0.272   8.322  1.0633 -0.8674 -1.2899
 9106SOL    HW238781   3.068   0.154   8.322  0.9316 -1.5859 -2.1885
 9107SOL     OW38782   4.527   4.545   1.448 -0.3499  0.2138 -0.3947
 9107SOL    HW138783   4.476   4.626   1.453 -1.9663 -0.6901 -2.4138
 9107SOL    HW238784   4.562   4.543   1.537 -2.2517  4.4766  0.4584
 9108SOL     OW38785   0.215   0.165  16.595  0.3268  0.4879  0.1103
 9108SOL    HW138786   0.274   0.239  16.580  1.7214 -0.6216  0.1580
 9108SOL    HW238787   0.211   0.160  16.691  0.9641  1.1748  0.1767
 9109SOL     OW38788   0.196   4.704  13.791  0.4668  0.1790  0.1496
 9109SOL    HW138789   0.109   0.004  13.823  1.0400 -1.0775  2.6493
 9109SOL    HW238790   0.190   4.609  13.783 -1.1067  0.4761 -2.1969
 9110SOL     OW38791   2.781   3.954   7.604  0.2257  0.0932 -0.0824
 9110SOL    HW138792   2.769   4.017   7.675 -0.8620 -0.4180  0.1875
 9110SOL    HW238793   2.805   3.874   7.650 -2.1607  0.0574  1.1345
 9111SOL     OW38794   2.253   4.644  11.529  0.6184 -0.0521 -0.0283
 9111SOL    HW138795   2.165   4.681  11.520 -0.1028 -2.2892 -2.0573
 9111SOL    HW238796   2.234   4.557  11.494 -1.3530  0.3928 -0.0653
 9112SOL     OW38797   1.289   2.571   3.046 -0.4614 -0.2112 -0.0423
 9112SOL    HW138798   1.385   2.569   3.050 -0.3880  0.1146 -1.9175
 9112SOL    HW238799   1.267   2.612   2.963 -0.6558 -2.4433 -1.0682
 9113SOL     OW38800   3.940   0.847   9.222 -0.3464  0.4170 -0.4736
 9113SOL    HW138801   3.932   0.760   9.260 -0.6841  0.7464  0.2097
 9113SOL    HW238802   3.978   0.905   9.288 -1.1380  1.3013 -0.7986
 9114SOL     OW38803   1.746   0.988  15.461  0.0156 -0.3195 -0.0849
 9114SOL    HW138804   1.785   1.074  15.450  1.9685 -0.8938  2.5646
 9114SOL    HW238805   1.832   0.948  15.474 -0.2242 -0.3888  1.2526
 9115SOL     OW38806   4.137   1.130  13.399  0.0405  0.1447 -0.3058
 9115SOL    HW138807   4.073   1.101  13.464 -0.5357 -1.1817 -1.4759
 9115SOL    HW238808   4.219   1.104  13.443  0.7155 -0.9351 -2.2038
 9116SOL     OW38809   4.119   1.309   7.249  0.4793 -0.0796  0.5442
 9116SOL    HW138810   4.087   1.378   7.307 -1.4499 -0.2014 -0.3873
 9116SOL    HW238811   4.036   1.278   7.213  0.7970  1.4835 -1.4691
 9117SOL     OW38812   0.518   4.424   2.778  0.5293 -0.1306  0.0776
 9117SOL    HW138813   0.606   4.385   2.773  0.9606  0.5793  2.0235
 9117SOL    HW238814   0.533   4.505   2.826 -0.0055  0.8630 -1.4548
 9118SOL     OW38815   1.625   0.063   7.028 -0.1196  0.1611 -0.0456
 9118SOL    HW138816   1.567   0.127   7.069 -0.0890 -0.0650  0.3445
 9118SOL    HW238817   1.712   0.101   7.041 -1.4411  3.1678  0.0416
 9119SOL     OW38818   0.834   1.006  15.158 -0.3997 -0.1429 -0.2352
 9119SOL    HW138819   0.919   0.990  15.199  0.4000 -1.3319 -2.3675
 9119SOL    HW238820   0.861   1.073  15.095 -0.6428  1.5633  1.4752
 9120SOL     OW38821   2.497   0.866  13.675  0.0148  0.5194  0.5622
 9120SOL    HW138822   2.538   0.923  13.610  0.1200  0.4451  0.5641
 9120SOL    HW238823   2.466   0.803  13.609  0.3536 -2.1667  2.9700
 9121SOL     OW38824   3.481   3.881  17.210 -0.1255  0.0111  0.6706
 9121SOL    HW138825   3.497   3.789  17.189  1.5947  0.4729 -0.0377
 9121SOL    HW238826   3.532   3.880  17.291  0.8581 -1.2008  0.0309
 9122SOL     OW38827   2.097   1.408   0.156 -0.2619 -0.1088  0.5806
 9122SOL    HW138828   2.151   1.342   0.198 -0.6338 -1.9239 -1.8206
 9122SOL    HW238829   2.076   1.464   0.231 -1.4122 -0.4629  0.5154
 9123SOL     OW38830   2.094   1.078  16.242 -0.2660  0.7047 -0.5674
 9123SOL    HW138831   2.033   1.047  16.174 -1.5367 -1.2888  1.4885
 9123SOL    HW238832   2.079   1.026  16.321 -3.5550  1.5818 -0.5911
 9124SOL     OW38833   3.763   4.223   6.412 -0.1068 -0.0426  0.2171
 9124SOL    HW138834   3.693   4.170   6.375  0.6597  1.0478 -2.8144
 9124SOL    HW238835   3.824   4.155   6.440 -0.3953 -0.4324 -0.1229
 9125SOL     OW38836   3.362   4.116  17.570  0.0909  0.0697  0.5683
 9125SOL    HW138837   3.336   4.055  17.639  0.5579 -0.0837  0.6073
 9125SOL    HW238838   3.313   4.080  17.496  0.5325 -2.1679  1.3568
 9126SOL     OW38839   4.350   2.455   0.277 -0.1038 -0.2593  0.6700
 9126SOL    HW138840   4.305   2.470   0.360 -1.7830  0.8560 -0.4369
 9126SOL    HW238841   4.432   2.425   0.314  1.0897  1.5456 -0.5026
 9127SOL     OW38842   2.159   3.835   4.588 -0.5900  0.1098  0.0136
 9127SOL    HW138843   2.160   3.782   4.508 -0.7049  0.9319 -0.5258
 9127SOL    HW238844   2.192   3.778   4.658  1.0805 -1.5505 -2.1221
 9128SOL     OW38845   3.686   1.276  16.519  0.2131  0.1783 -0.0513
 9128SOL    HW138846   3.641   1.359  16.538  0.4688  0.6999 -1.7102
 9128SOL    HW238847   3.768   1.277  16.568 -1.5781 -0.4966  3.0216
 9129SOL     OW38848   3.574   2.779   5.733  0.4331 -0.1712  0.3453
 9129SOL    HW138849   3.517   2.785   5.810 -0.6584  2.7195 -0.7029
 9129SOL    HW238850   3.588   2.873   5.718  2.5651 -0.5589 -0.0819
 9130SOL     OW38851   4.586   2.125   0.101  0.0736  0.2996 -0.1830
 9130SOL    HW138852   4.570   2.077   0.182  0.5502  0.9890  0.3176
 9130SOL    HW238853   4.647   2.193   0.130  0.2165  0.4182 -0.7495
 9131SOL     OW38854   0.410   3.296   3.861  0.2729 -0.0905 -0.6670
 9131SOL    HW138855   0.337   3.234   3.858  2.8771 -3.1650 -0.7399
 9131SOL    HW238856   0.461   3.272   3.939  0.1431  1.7103 -0.0277
 9132SOL     OW38857   0.369   3.570   3.666  0.2740  0.3812 -0.3644
 9132SOL    HW138858   0.449   3.619   3.651  0.3993  0.3649  0.2611
 9132SOL    HW238859   0.397   3.487   3.627  2.1130  1.3625 -1.1246
 9133SOL     OW38860   3.116   2.977   3.201  0.1284  0.6001  0.6351
 9133SOL    HW138861   3.072   3.062   3.212  0.3482  0.5984  1.5309
 9133SOL    HW238862   3.207   3.006   3.209  0.5954 -0.1934 -1.6818
 9134SOL     OW38863   4.196   1.015   7.742  0.2871  0.2915 -0.0792
 9134SOL    HW138864   4.197   1.081   7.672  0.2928  0.1794 -0.1844
 9134SOL    HW238865   4.227   0.937   7.697  0.8173  0.5473 -0.1611
 9135SOL     OW38866   2.957   3.145   6.311 -0.3616 -0.0404 -0.4523
 9135SOL    HW138867   2.954   3.241   6.310  1.5152  0.0306  0.4690
 9135SOL    HW238868   3.002   3.125   6.393  0.1362 -0.3029 -0.7893
 9136SOL     OW38869   3.158   1.582   7.320  0.2608  0.4163  0.7176
 9136SOL    HW138870   3.225   1.578   7.389  1.0782 -0.2717 -0.1011
 9136SOL    HW238871   3.147   1.677   7.317  2.4620  0.7475  2.4688
 9137SOL     OW38872   1.696   2.344   2.565 -0.1795  0.0824  0.2514
 9137SOL    HW138873   1.679   2.251   2.583 -0.3200 -0.2212 -1.4619
 9137SOL    HW238874   1.639   2.378   2.634 -1.5822 -3.2323  0.7446
 9138SOL     OW38875   3.561   4.084   7.253 -0.2802 -0.1659  0.5045
 9138SOL    HW138876   3.494   4.145   7.222 -0.0032 -0.5598 -0.8876
 9138SOL    HW238877   3.523   4.051   7.334 -1.5776  1.5445  0.5979
 9139SOL     OW38878   0.124   3.449   3.713  0.1870  0.1335  0.2400
 9139SOL    HW138879   0.165   3.502   3.645  0.2763 -0.4921 -0.1909
 9139SOL    HW238880   0.194   3.439   3.778 -0.4434 -2.4881  0.5169
 9140SOL     OW38881   3.868   1.679   2.004 -0.3336  0.4770  0.7791
 9140SOL    HW138882   3.898   1.754   1.952 -0.3085 -0.9686 -1.2854
 9140SOL    HW238883   3.943   1.675   2.064  1.0190  0.7785 -0.8854
 9141SOL     OW38884   0.365   4.267  12.981 -0.5540 -0.3372 -0.3019
 9141SOL    HW138885   0.437   4.269  13.044  0.5189  0.7168 -1.5762
 9141SOL    HW238886   0.305   4.324  13.028  1.6468  1.6302  0.1123
 9142SOL     OW38887   4.117   3.422   3.642 -0.2619 -0.5470  0.3185
 9142SOL    HW138888   4.058   3.441   3.715  1.5641  0.9267  1.4072
 9142SOL    HW238889   4.196   3.472   3.661  0.6088 -1.7901 -0.0901
 9143SOL     OW38890   0.386   4.069   3.663 -0.4873 -0.6235  0.2946
 9143SOL    HW138891   0.481   4.059   3.664 -0.5857 -1.7626 -1.9806
 9143SOL    HW238892   0.373   4.045   3.755 -0.7491  0.8432  0.6482
 9144SOL     OW38893   1.271   4.637   6.690 -0.5114  0.0428 -0.2864
 9144SOL    HW138894   1.316   4.712   6.727  0.0104 -0.7650  0.7233
 9144SOL    HW238895   1.326   4.568   6.727 -1.1269 -0.5774 -0.5300
 9145SOL     OW38896   4.600   2.131   4.710  0.0697  0.0204 -0.0818
 9145SOL    HW138897   4.665   2.114   4.777 -1.4612 -0.4974  1.2859
 9145SOL    HW238898   4.526   2.152   4.767  0.0569  1.2782 -0.5560
 9146SOL     OW38899   0.845   4.107   4.501  0.0071  0.3176  0.0547
 9146SOL    HW138900   0.910   4.074   4.563 -0.4100 -0.5598  0.0303
 9146SOL    HW238901   0.908   4.148   4.441  1.0679  0.0413  0.9855
 9147SOL     OW38902   3.161   3.479   0.840 -0.0311  0.2064 -0.0556
 9147SOL    HW138903   3.126   3.439   0.760  1.0249  0.5752 -0.7039
 9147SOL    HW238904   3.252   3.453   0.849 -0.4904 -0.8282  1.4251
 9148SOL     OW38905   2.922   1.742  14.127 -0.1119 -0.2357  0.1703
 9148SOL    HW138906   2.843   1.770  14.175 -0.6632  0.0827 -0.9265
 9148SOL    HW238907   2.893   1.653  14.108 -0.4599  0.5047 -2.6902
 9149SOL     OW38908   0.814   1.721   2.546  0.0354 -0.0158 -0.0947
 9149SOL    HW138909   0.820   1.646   2.487  0.4794 -1.2089  1.4587
 9149SOL    HW238910   0.734   1.685   2.584  0.7432  0.6483  2.0249
 9150SOL     OW38911   4.709   0.980  12.651 -0.7310 -0.7158 -0.2502
 9150SOL    HW138912   0.069   0.948  12.682 -0.0826  0.9250 -0.3333
 9150SOL    HW238913   4.718   1.073  12.673  2.9482 -0.5729 -2.3247
 9151SOL     OW38914   0.775   2.344   8.455 -0.8140 -0.5852 -0.4130
 9151SOL    HW138915   0.772   2.253   8.425  0.1065 -0.3752 -1.1583
 9151SOL    HW238916   0.818   2.326   8.539 -0.5713  2.0806  0.0465
 9152SOL     OW38917   4.285   1.329   2.363  0.0983 -0.8488 -0.4713
 9152SOL    HW138918   4.221   1.400   2.376  1.5286  0.2931  0.3637
 9152SOL    HW238919   4.272   1.307   2.271  0.6416 -1.8351 -0.3109
 9153SOL     OW38920   0.233   4.105   6.591 -0.2712  0.0866  0.5454
 9153SOL    HW138921   0.245   4.180   6.650  2.3612 -0.1733  0.3637
 9153SOL    HW238922   0.196   4.040   6.651  0.8450 -0.6829  0.4164
 9154SOL     OW38923   2.815   0.079   2.481  0.1072 -0.3066  0.2293
 9154SOL    HW138924   2.911   0.075   2.488  0.0346 -0.5375  1.0594
 9154SOL    HW238925   2.817   0.017   2.408  1.2269  0.8151 -0.7053
 9155SOL     OW38926   4.165   3.268   7.672  0.2489 -0.5769 -0.0072
 9155SOL    HW138927   4.132   3.231   7.590 -1.7965 -0.4649  0.7704
 9155SOL    HW238928   4.245   3.312   7.642 -0.0583  1.8689  2.7314
 9156SOL     OW38929   2.545   2.408   3.441  0.1870  0.4463 -0.3399
 9156SOL    HW138930   2.605   2.387   3.512 -1.5732  0.0353  1.0216
 9156SOL    HW238931   2.457   2.404   3.479  0.2106 -0.5051 -0.3903
 9157SOL     OW38932   1.213   2.050   4.977 -0.2032  0.4982 -0.0011
 9157SOL    HW138933   1.260   2.124   4.939 -0.4987 -0.4767 -2.2881
 9157SOL    HW238934   1.162   2.084   5.050 -1.8405  1.1539 -1.4620
 9158SOL     OW38935   2.800   3.021   8.114  0.7385 -0.0111 -0.2428
 9158SOL    HW138936   2.840   2.936   8.129 -0.3564 -0.4767  0.0773
 9158SOL    HW238937   2.736   3.003   8.045 -0.1974  1.1574  0.3154
 9159SOL     OW38938   0.305   4.472   7.538  0.1247  0.1625 -0.3272
 9159SOL    HW138939   0.290   4.421   7.617  0.6254  0.8640  0.2197
 9159SOL    HW238940   0.217   4.482   7.502 -0.5551 -1.7290  0.7963
 9160SOL     OW38941   1.179   3.604   2.893  0.1146  0.5072  0.3616
 9160SOL    HW138942   1.188   3.582   2.800 -1.5274  1.0835  0.0727
 9160SOL    HW238943   1.149   3.523   2.934  2.4747 -0.1494  0.8001
 9161SOL     OW38944   1.917   0.039   1.052 -0.2634  0.1240  0.6138
 9161SOL    HW138945   1.846   0.019   0.991  1.8713  0.3791 -1.9575
 9161SOL    HW238946   1.896   4.707   1.126  0.1186 -1.5194 -0.5500
 9162SOL     OW38947   3.647   2.788  15.716  0.3165  0.6406 -0.4740
 9162SOL    HW138948   3.553   2.787  15.731  0.5099 -1.2888  0.6201
 9162SOL    HW238949   3.673   2.765  15.805  1.8630  2.2128 -0.4969
 9163SOL     OW38950   1.681   4.409  10.310  0.2156  0.2285 -0.0299
 9163SOL    HW138951   1.685   4.494  10.354  0.7851 -0.2365  0.8312
 9163SOL    HW238952   1.750   4.422  10.245 -1.1152 -1.2142 -1.7417
 9164SOL     OW38953   3.051   1.410  13.812  0.4497  0.0829 -0.0528
 9164SOL    HW138954   2.957   1.417  13.826  1.1770  2.2039  3.8396
 9164SOL    HW238955   3.075   1.501  13.834 -0.0902 -0.5540  3.2229
 9165SOL     OW38956   2.006   1.613  13.938  0.7315 -0.0852 -0.2677
 9165SOL    HW138957   1.983   1.677  13.871 -0.7988 -0.1722  0.1789
 9165SOL    HW238958   2.005   1.532  13.886  0.4065  0.8197 -1.6703
 9166SOL     OW38959   3.197   0.377  13.556 -0.3026 -0.6210 -0.8162
 9166SOL    HW138960   3.176   0.352  13.466  0.8173 -0.4921 -1.1249
 9166SOL    HW238961   3.165   0.297  13.599 -0.9528 -0.1540 -0.4413
 9167SOL     OW38962   2.649   3.211   6.442 -0.5365 -0.0423  0.3368
 9167SOL    HW138963   2.655   3.278   6.510 -1.0816 -2.5494  2.8220
 9167SOL    HW238964   2.648   3.131   6.494  1.2677  0.1758  0.7200
 9168SOL     OW38965   2.093   4.166  16.851  0.0880 -0.3000 -0.1485
 9168SOL    HW138966   2.072   4.122  16.934 -0.7443  0.5857  0.1144
 9168SOL    HW238967   2.087   4.088  16.796  0.8568 -0.1752 -0.4104
 9169SOL     OW38968   1.976   2.221   0.392 -0.2903 -0.2282  0.5155
 9169SOL    HW138969   1.956   2.312   0.416 -2.2210 -0.3836 -0.4404
 9169SOL    HW238970   1.981   2.216   0.296  1.2895 -0.5694  0.6255
 9170SOL     OW38971   3.276   1.001   3.212 -1.1561  0.0943 -0.3236
 9170SOL    HW138972   3.287   0.991   3.307 -1.7879 -1.3848 -0.4085
 9170SOL    HW238973   3.291   0.911   3.183  0.7876  0.0616  0.7748
 9171SOL     OW38974   4.067   1.518   7.386 -0.3029  0.4036  0.4199
 9171SOL    HW138975   4.022   1.572   7.451  2.2949  0.0207  2.4903
 9171SOL    HW238976   4.126   1.584   7.349  0.5759 -1.2878 -1.1664
 9172SOL     OW38977   4.683   3.193   6.428 -0.3480  0.5903 -0.3466
 9172SOL    HW138978   4.717   3.280   6.450  0.7949 -0.0235  0.2837
 9172SOL    HW238979   4.602   3.218   6.382 -0.1721  1.0555 -0.4037
 9173SOL     OW38980   0.359   1.439  11.638  0.1227 -0.0373 -0.0617
 9173SOL    HW138981   0.405   1.504  11.585  0.6108  0.3364  0.8092
 9173SOL    HW238982   0.407   1.358  11.622 -0.3246 -0.2279 -0.4639
 9174SOL     OW38983   2.525   2.552   1.471 -0.0103  0.1095  0.0205
 9174SOL    HW138984   2.507   2.630   1.418  2.8373  0.0083 -1.0509
 9174SOL    HW238985   2.435   2.530   1.495  0.1465  1.6918  2.1672
 9175SOL     OW38986   1.289   1.334  16.114 -0.4413  0.0146 -0.2732
 9175SOL    HW138987   1.207   1.306  16.153 -1.3751 -0.3299 -2.4666
 9175SOL    HW238988   1.265   1.410  16.061 -3.7167  0.1371  1.4335
 9176SOL     OW38989   0.664   2.084   5.148  0.2476 -0.2453 -0.3586
 9176SOL    HW138990   0.579   2.061   5.185  0.0583  0.5703 -0.2891
 9176SOL    HW238991   0.648   2.058   5.057  2.5949 -0.4200 -0.7238
 9177SOL     OW38992   0.472   0.825   1.164  0.3827  0.6126 -0.2357
 9177SOL    HW138993   0.461   0.857   1.075 -4.1354 -0.5821 -0.1007
 9177SOL    HW238994   0.556   0.862   1.191  1.3748 -0.7860 -1.4007
 9178SOL     OW38995   0.799   4.687   0.764 -0.2462 -0.4625 -0.4888
 9178SOL    HW138996   0.839   0.026   0.705  0.2430  1.6347  2.0965
 9178SOL    HW238997   0.855   4.612   0.746 -0.3907 -1.0405  1.4503
 9179SOL     OW38998   3.624   3.556   9.712 -0.2292 -0.5525  0.5620
 9179SOL    HW138999   3.693   3.495   9.737  2.0299  1.8259  0.1568
 9179SOL    HW239000   3.668   3.640   9.726  0.3990 -1.1057  1.8259
 9180SOL     OW39001   2.702   0.358  11.319  0.6105  0.1236  0.7206
 9180SOL    HW139002   2.752   0.360  11.400  2.2023 -1.3568 -0.2203
 9180SOL    HW239003   2.747   0.426  11.269 -0.7858 -0.4429 -1.3350
 9181SOL     OW39004   1.349   0.491  11.231  0.1029  0.0989  0.0739
 9181SOL    HW139005   1.385   0.565  11.278  0.3790 -0.6013  0.9619
 9181SOL    HW239006   1.389   0.420  11.282 -0.0812 -0.8866 -1.1306
 9182SOL     OW39007   1.416   0.697   3.615 -0.5146  0.0654  0.2560
 9182SOL    HW139008   1.485   0.762   3.624 -2.0232  1.8094 -1.0586
 9182SOL    HW239009   1.449   0.629   3.674  0.0744  0.7641  0.7248
 9183SOL     OW39010   0.574   3.197   2.315 -0.6320  0.4182 -0.2936
 9183SOL    HW139011   0.556   3.218   2.407 -0.6729  0.2254 -0.2574
 9183SOL    HW239012   0.535   3.280   2.285 -1.2158 -0.1022 -0.9648
 9184SOL     OW39013   3.315   3.988   5.324 -0.1563  0.3278  0.1364
 9184SOL    HW139014   3.247   3.997   5.258  0.9489 -1.1167 -1.2145
 9184SOL    HW239015   3.274   3.921   5.378  1.5891  0.3334  1.4758
 9185SOL     OW39016   2.429   1.294  11.237  0.2555  0.3385  0.1040
 9185SOL    HW139017   2.476   1.220  11.199 -1.0256  0.8466 -2.4374
 9185SOL    HW239018   2.483   1.373  11.228 -2.2975  1.7506 -3.0114
 9186SOL     OW39019   2.389   3.892   8.743  0.0162  0.2064 -0.1050
 9186SOL    HW139020   2.409   3.812   8.694  1.8987  0.7861 -0.2639
 9186SOL    HW239021   2.306   3.869   8.784  0.8087 -4.3083 -1.0436
 9187SOL     OW39022   4.348   3.709   8.678  0.5203  0.2780 -0.0886
 9187SOL    HW139023   4.428   3.661   8.659 -0.2256 -0.2881 -1.8279
 9187SOL    HW239024   4.354   3.782   8.616  2.0990 -1.5797 -2.1199
 9188SOL     OW39025   3.902   2.465   6.627  0.1512 -0.3151  0.4479
 9188SOL    HW139026   3.870   2.521   6.556  0.1996 -2.2372 -1.0737
 9188SOL    HW239027   3.992   2.451   6.598 -0.2297 -4.0752  1.0871
 9189SOL     OW39028   3.392   4.432   8.008  0.1554  0.6967  0.2114
 9189SOL    HW139029   3.304   4.444   8.044  0.1250 -0.7931  0.5984
 9189SOL    HW239030   3.435   4.487   8.073  1.0642 -0.9276  0.9638
 9190SOL     OW39031   1.011   0.104   6.235 -0.0488 -0.2758 -0.3712
 9190SOL    HW139032   0.927   0.072   6.203  0.2515  0.6652 -2.1030
 9190SOL    HW239033   1.018   0.056   6.317 -3.9319  0.7460  0.5750
 9191SOL     OW39034   2.136   1.369  11.448  0.2502 -0.1554  0.7446
 9191SOL    HW139035   2.170   1.458  11.436 -0.9067  0.1134 -0.4719
 9191SOL    HW239036   2.197   1.344  11.517  2.5724  1.3404 -0.7599
 9192SOL     OW39037   2.036   4.597   3.471  0.2244 -0.5978 -0.1756
 9192SOL    HW139038   2.059   4.572   3.561  0.0632 -1.3058 -0.3243
 9192SOL    HW239039   2.019   4.510   3.435 -1.5192 -0.4172  0.2433
 9193SOL     OW39040   1.462   2.703   0.488  0.3906 -0.4738  0.1525
 9193SOL    HW139041   1.494   2.717   0.398 -0.8609 -0.2903 -0.2663
 9193SOL    HW239042   1.447   2.793   0.517  0.0180 -0.7790  0.8915
 9194SOL     OW39043   3.231   2.382   6.272 -0.1753 -1.2334 -0.0831
 9194SOL    HW139044   3.326   2.395   6.267 -0.5422  1.2359 -0.4253
 9194SOL    HW239045   3.199   2.425   6.193  0.9557  1.5671  0.9890
 9195SOL     OW39046   1.447   2.770   6.964  0.1841  0.2762  0.6144
 9195SOL    HW139047   1.387   2.792   7.035  0.6714 -1.1485  1.4764
 9195SOL    HW239048   1.528   2.764   7.014  1.1759  0.5257 -0.9570
 9196SOL     OW39049   2.947   2.423   8.525 -0.0349 -0.0386 -0.4911
 9196SOL    HW139050   2.992   2.349   8.483 -1.0074 -0.2713 -1.1265
 9196SOL    HW239051   3.014   2.490   8.521  1.7236 -1.7441  0.4598
 9197SOL     OW39052   1.360   1.969  11.225 -0.2873  0.1707 -0.2015
 9197SOL    HW139053   1.381   1.911  11.297 -3.2169 -0.2038  0.3450
 9197SOL    HW239054   1.342   1.902  11.159 -0.0993  1.1478 -1.2464
 9198SOL     OW39055   3.749   0.489   6.337  0.3166 -0.4459 -0.0802
 9198SOL    HW139056   3.831   0.538   6.337 -0.3887  0.7480 -0.2671
 9198SOL    HW239057   3.777   0.411   6.290  2.2268  1.2264 -1.6702
 9199SOL     OW39058   0.674   0.732   6.699  0.0088 -0.4519  0.2664
 9199SOL    HW139059   0.724   0.813   6.685 -1.1399  0.3639  0.8971
 9199SOL    HW239060   0.645   0.718   6.609  0.8375  0.5677 -0.1538
 9200SOL     OW39061   3.274   4.392  16.412 -0.0455  0.2734  0.2057
 9200SOL    HW139062   3.252   4.484  16.417 -0.6461  0.1620 -0.3898
 9200SOL    HW239063   3.359   4.380  16.455 -0.5222 -0.4749  0.9410
 9201SOL     OW39064   4.023   1.826   7.981  0.0859  0.3876 -0.4178
 9201SOL    HW139065   4.074   1.843   7.902  0.9939  1.1921  0.3527
 9201SOL    HW239066   4.060   1.887   8.044  0.2290 -1.4738  1.2980
 9202SOL     OW39067   4.181   3.517   5.665  0.4662  0.4813  0.0778
 9202SOL    HW139068   4.185   3.512   5.569  0.8377  1.1614  0.0585
 9202SOL    HW239069   4.189   3.425   5.692  1.4115  0.4538 -0.3193
 9203SOL     OW39070   1.270   1.888   9.014 -0.1380 -0.9585  0.1318
 9203SOL    HW139071   1.190   1.920   9.057  0.4868  0.8003 -0.0012
 9203SOL    HW239072   1.258   1.793   9.018  0.4451 -1.1666 -3.2981
 9204SOL     OW39073   0.092   3.119   4.695 -0.2254  0.3550  0.2687
 9204SOL    HW139074   0.111   3.102   4.787  2.2697 -1.8189 -0.6606
 9204SOL    HW239075   0.000   3.095   4.679 -0.0725  1.0909 -1.7596
 9205SOL     OW39076   0.802   0.141   9.252  0.1654  0.0694  0.1246
 9205SOL    HW139077   0.758   0.134   9.337  2.0086  0.9158  1.1627
 9205SOL    HW239078   0.868   0.207   9.273 -1.6193  1.3984  1.4893
 9206SOL     OW39079   0.594   2.877   3.336 -0.0344 -0.2236 -0.0159
 9206SOL    HW139080   0.545   2.946   3.291  2.7058  1.5618 -0.2138
 9206SOL    HW239081   0.519   2.831   3.374  1.4379 -1.6570  1.1904
 9207SOL     OW39082   0.667   0.283   6.003  0.0774 -0.2297  0.0435
 9207SOL    HW139083   0.695   0.374   5.993  0.2239 -0.1650  1.1359
 9207SOL    HW239084   0.742   0.236   5.967  1.8378  1.3197  1.6720
 9208SOL     OW39085   3.712   3.121   3.932  0.0902  0.0578  0.1031
 9208SOL    HW139086   3.749   3.205   3.959  1.2215 -0.8662  1.4221
 9208SOL    HW239087   3.744   3.051   3.989  0.3179  0.4309  0.4359
 9209SOL     OW39088   3.023   2.130   4.034  0.3209  0.0023  0.2650
 9209SOL    HW139089   3.112   2.117   4.002  0.1990  0.9250 -0.4525
 9209SOL    HW239090   3.019   2.075   4.112 -1.2957 -2.2981 -1.4482
 9210SOL     OW39091   2.917   1.320  11.883  0.0922 -0.1770  0.6158
 9210SOL    HW139092   2.956   1.393  11.836 -1.4148  0.4769  0.3757
 9210SOL    HW239093   2.881   1.357  11.964  1.4108  0.7525  0.7814
 9211SOL     OW39094   1.482   3.153  14.967  0.5756 -0.5937 -0.0460
 9211SOL    HW139095   1.500   3.233  15.015 -1.3241 -0.2695  0.1246
 9211SOL    HW239096   1.485   3.092  15.040  2.5886  0.8205  1.0299
 9212SOL     OW39097   2.227   2.459   7.070 -0.4692 -0.3523 -0.2489
 9212SOL    HW139098   2.258   2.537   7.023 -1.8452  0.0767 -0.4430
 9212SOL    HW239099   2.296   2.398   7.045 -0.5570 -0.5737  0.0502
 9213SOL     OW39100   2.952   1.215   1.634  0.2370 -0.6067  0.1389
 9213SOL    HW139101   2.954   1.300   1.589 -0.0743 -1.2703 -1.1173
 9213SOL    HW239102   2.931   1.149   1.569  0.9890 -0.0267 -0.6824
 9214SOL     OW39103   2.557   1.891   9.708 -0.3429  0.2682  0.7271
 9214SOL    HW139104   2.518   1.974   9.679 -0.5372 -0.6001 -1.4876
 9214SOL    HW239105   2.613   1.867   9.635 -0.8207  0.5486  0.2609
 9215SOL     OW39106   0.467   3.433   6.949  0.4225 -0.5688 -0.3882
 9215SOL    HW139107   0.514   3.385   7.017 -0.9843 -1.2095  0.1127
 9215SOL    HW239108   0.379   3.419   6.981  0.7898  0.7041  1.1526
 9216SOL     OW39109   0.771   1.069  13.976  0.3167 -0.7760  0.2565
 9216SOL    HW139110   0.741   1.008  14.043  2.3166 -2.6729 -0.5653
 9216SOL    HW239111   0.844   1.113  14.020 -0.9705  1.9348 -0.3246
 9217SOL     OW39112   3.799   2.449   4.967 -0.6074  0.1252  0.0470
 9217SOL    HW139113   3.788   2.403   4.884  3.3391 -0.4153 -0.1746
 9217SOL    HW239114   3.826   2.372   5.018 -0.3847  0.6756  0.7611
 9218SOL     OW39115   0.938   1.539   4.996 -0.2017 -0.3099  0.1672
 9218SOL    HW139116   0.969   1.541   5.086 -1.2473  2.9817  0.4701
 9218SOL    HW239117   0.894   1.624   4.993  0.3199 -0.1106 -2.1384
 9219SOL     OW39118   4.406   3.510   3.612  0.1461 -0.2851  0.1245
 9219SOL    HW139119   4.462   3.464   3.675  1.5292  2.0666  0.6022
 9219SOL    HW239120   4.456   3.591   3.601 -0.3331  0.1112  0.8893
 9220SOL     OW39121   1.816   1.941   6.142  0.0392  0.0281  0.3671
 9220SOL    HW139122   1.819   1.958   6.048 -0.8743 -0.7239  0.2015
 9220SOL    HW239123   1.906   1.965   6.164  1.0137 -1.2094 -2.2991
 9221SOL     OW39124   1.524   4.426  16.501  0.2146 -0.4971 -0.2373
 9221SOL    HW139125   1.577   4.475  16.563 -0.1287 -0.3948 -0.0239
 9221SOL    HW239126   1.520   4.485  16.426 -1.1107 -1.3400 -0.8293
 9222SOL     OW39127   2.918   0.692   5.928  0.7858  0.2281 -0.0594
 9222SOL    HW139128   2.933   0.687   5.833  3.9536 -3.7472  0.6317
 9222SOL    HW239129   2.917   0.599   5.949  0.8809  0.8055  2.4412
 9223SOL     OW39130   2.722   2.599  12.613  0.0057 -0.0716 -0.0968
 9223SOL    HW139131   2.685   2.674  12.660  0.0440 -0.6167  0.8022
 9223SOL    HW239132   2.773   2.554  12.680 -1.8241  1.7003  2.4853
 9224SOL     OW39133   2.141   0.049   6.805 -0.0928 -0.1029 -0.4577
 9224SOL    HW139134   2.170   0.095   6.884  1.6418 -1.3062 -0.3855
 9224SOL    HW239135   2.106   4.690   6.836  0.7603  0.3713  1.7904
 9225SOL     OW39136   4.425   4.697  12.977 -0.2546 -0.4331 -0.5373
 9225SOL    HW139137   4.501   0.027  12.956 -0.0587 -0.0901  1.0815
 9225SOL    HW239138   4.361   0.042  12.987 -0.1755 -0.5360  0.6266
 9226SOL     OW39139   1.422   1.040   2.142 -0.4897  0.0481  0.7011
 9226SOL    HW139140   1.338   1.084   2.135  1.2454  3.0573 -1.1849
 9226SOL    HW239141   1.485   1.103   2.105 -1.6858  0.3427 -0.8246
 9227SOL     OW39142   2.444   3.485   8.811 -0.2562 -0.7090 -0.1984
 9227SOL    HW139143   2.528   3.509   8.772 -0.1125  2.0323  1.7616
 9227SOL    HW239144   2.419   3.423   8.744  1.7969  0.0910 -1.7138
 9228SOL     OW39145   1.705   1.563   2.614 -0.1859  0.1765 -0.2314
 9228SOL    HW139146   1.634   1.543   2.554 -1.5223 -1.4733  1.8921
 9228SOL    HW239147   1.767   1.493   2.591 -0.6254  0.0337 -0.9839
 9229SOL     OW39148   0.210   3.629   8.306 -0.6661  0.0263 -0.8632
 9229SOL    HW139149   0.279   3.563   8.307  0.3492  1.1033  0.2012
 9229SOL    HW239150   0.131   3.576   8.319 -0.3386 -0.5220 -1.1345
 9230SOL     OW39151   0.805   4.279   5.886 -0.5073  0.0626  0.5336
 9230SOL    HW139152   0.894   4.310   5.874 -0.3392  0.0384  1.7205
 9230SOL    HW239153   0.819   4.197   5.934  0.4206 -1.0037 -1.5500
 9231SOL     OW39154   1.238   2.021  17.073 -0.3456 -0.4035 -1.2005
 9231SOL    HW139155   1.248   1.954  17.140 -1.4173  0.3408 -0.3054
 9231SOL    HW239156   1.285   1.989  16.996  0.1778 -0.7111 -0.7483
 9232SOL     OW39157   2.883   1.327   7.411  0.5014 -0.3435  0.0090
 9232SOL    HW139158   2.825   1.395   7.377  0.3348  0.1050  1.1882
 9232SOL    HW239159   2.821   1.286   7.472 -0.4843  0.7762 -0.2456
 9233SOL     OW39160   4.423   0.856  15.820  0.1818 -0.1968  0.3501
 9233SOL    HW139161   4.509   0.893  15.802 -0.1102 -0.6550 -2.0378
 9233SOL    HW239162   4.375   0.935  15.846 -1.1152 -1.0801  0.6223
 9234SOL     OW39163   1.119   4.075  12.882  0.0165  0.1436 -0.0261
 9234SOL    HW139164   1.145   4.117  12.964  0.0935 -0.9762  0.5159
 9234SOL    HW239165   1.101   3.984  12.904 -0.0213 -0.2431 -1.6736
 9235SOL     OW39166   4.058   4.202   5.920  0.0530  0.5653 -0.3250
 9235SOL    HW139167   3.991   4.135   5.905 -1.5836  2.4236 -1.2915
 9235SOL    HW239168   4.134   4.160   5.961 -0.8233 -0.1247  0.5753
 9236SOL     OW39169   0.592   4.073  17.126  0.5470  0.1331 -0.3818
 9236SOL    HW139170   0.499   4.079  17.106  0.4983 -0.0002 -0.1891
 9236SOL    HW239171   0.601   3.979  17.109 -1.6497  0.4511 -3.2571
 9237SOL     OW39172   4.125   3.211   2.671 -0.3417  0.3180  0.5857
 9237SOL    HW139173   4.032   3.219   2.648  0.4416 -1.2413 -3.1743
 9237SOL    HW239174   4.154   3.159   2.597 -3.0211 -0.0409 -0.2064
 9238SOL     OW39175   1.273   1.811   6.678 -0.8496 -0.1241  0.2569
 9238SOL    HW139176   1.205   1.874   6.657 -1.6616 -1.0806  0.0393
 9238SOL    HW239177   1.320   1.862   6.744  2.2164  0.1351 -2.0923
 9239SOL     OW39178   2.940   2.198   6.897  0.1987  0.3981 -0.3577
 9239SOL    HW139179   2.864   2.253   6.879 -0.7193 -0.0547  2.1198
 9239SOL    HW239180   2.926   2.190   6.991 -0.5655 -0.9302 -0.5942
 9240SOL     OW39181   0.771   4.311  13.968  0.1301 -0.1438  0.2899
 9240SOL    HW139182   0.855   4.321  13.923  0.3450 -0.1363  0.6941
 9240SOL    HW239183   0.713   4.358  13.909 -0.0724 -0.4303  0.2576
 9241SOL     OW39184   2.616   2.689   1.127 -0.3958 -0.0606 -0.7402
 9241SOL    HW139185   2.608   2.636   1.049  2.5954  0.9477 -1.7222
 9241SOL    HW239186   2.685   2.637   1.167 -1.8876 -3.4342 -2.6076
 9242SOL     OW39187   1.134   3.105   9.949 -0.1238 -0.2549 -0.0007
 9242SOL    HW139188   1.108   3.110   9.857 -0.2879 -1.0187  0.0038
 9242SOL    HW239189   1.056   3.055   9.972 -0.5278  1.4336  2.2519
 9243SOL     OW39190   3.577   2.413  16.140  0.1541  0.3064  0.9911
 9243SOL    HW139191   3.483   2.411  16.158 -0.4537  1.2813 -2.1435
 9243SOL    HW239192   3.589   2.342  16.077  3.0739 -0.8226  2.8017
 9244SOL     OW39193   4.480   4.089  17.209 -0.0566 -0.2251 -0.2447
 9244SOL    HW139194   4.471   4.182  17.187 -1.1155 -0.3778 -0.4500
 9244SOL    HW239195   4.387   4.069  17.214 -0.4672  1.7034 -0.1254
 9245SOL     OW39196   2.357   3.926  15.497 -0.4865  0.2820 -0.3097
 9245SOL    HW139197   2.407   3.985  15.554 -0.8664 -1.0187  1.3364
 9245SOL    HW239198   2.422   3.908  15.428 -1.1132  1.3605 -1.1787
 9246SOL     OW39199   0.257   1.046   8.871 -0.1433  0.1774 -0.4311
 9246SOL    HW139200   0.273   1.110   8.941 -0.9210  0.8134 -0.8277
 9246SOL    HW239201   0.207   1.099   8.808  2.2798  1.1179 -1.5649
 9247SOL     OW39202   0.913   2.483  10.869  0.2211 -0.0781 -0.3002
 9247SOL    HW139203   0.853   2.492  10.942  1.3396  0.6604  0.5282
 9247SOL    HW239204   0.937   2.393  10.890  0.0614 -0.4426 -1.6469
 9248SOL     OW39205   2.905   4.501   8.276 -0.4182  0.6740  0.4276
 9248SOL    HW139206   2.840   4.534   8.215  2.9012  1.4168 -2.6997
 9248SOL    HW239207   2.851   4.479   8.352 -0.1798  1.5789  0.8699
 9249SOL     OW39208   3.267   0.142   6.567  0.7698  0.3131 -0.0229
 9249SOL    HW139209   3.220   0.200   6.507 -1.8360 -3.0804 -1.2697
 9249SOL    HW239210   3.221   0.059   6.579  1.7662 -0.4157 -1.2786
 9250SOL     OW39211   2.868   3.232   4.612  0.3134 -0.3805 -0.3974
 9250SOL    HW139212   2.882   3.138   4.605 -0.5919 -0.2213 -4.1982
 9250SOL    HW239213   2.775   3.240   4.594  0.0648  0.8586  1.4440
 9251SOL     OW39214   1.932   2.601  13.803 -0.1087 -0.2991 -0.3915
 9251SOL    HW139215   1.933   2.518  13.756 -2.8125 -0.7002  0.2811
 9251SOL    HW239216   1.931   2.571  13.894  2.2657  1.6706  0.3093
 9252SOL     OW39217   0.910   2.773   5.521  0.2302 -0.2467  0.7750
 9252SOL    HW139218   0.922   2.759   5.615 -0.0599 -1.6871  0.5977
 9252SOL    HW239219   0.971   2.843   5.497  0.7513 -0.5764  1.1487
 9253SOL     OW39220   1.701   1.341   5.981 -0.7510 -0.1461 -0.2286
 9253SOL    HW139221   1.693   1.410   5.915  2.7310  0.7262  0.2440
 9253SOL    HW239222   1.749   1.401   6.038  0.7770  1.3862 -3.1471
 9254SOL     OW39223   2.162   3.429   7.270  0.2068  0.1967 -0.1595
 9254SOL    HW139224   2.133   3.349   7.226 -0.8070  0.0008  0.8826
 9254SOL    HW239225   2.175   3.395   7.358  1.4629  0.2744 -0.3005
 9255SOL     OW39226   2.155   0.463   0.923  0.0053  0.1725 -0.4360
 9255SOL    HW139227   2.149   0.411   1.003 -1.7293  1.0568  0.0112
 9255SOL    HW239228   2.060   0.464   0.908 -0.3635 -0.7111  1.7930
 9256SOL     OW39229   1.389   0.915   3.850  0.3697 -0.4803 -0.0966
 9256SOL    HW139230   1.310   0.937   3.801  0.8791 -0.3419 -0.8413
 9256SOL    HW239231   1.456   0.916   3.783 -0.0533  1.8276 -0.5162
 9257SOL     OW39232   1.540   0.234   5.758  0.4842  0.0630 -0.4652
 9257SOL    HW139233   1.623   0.276   5.779  0.0395  2.3268 -3.1890
 9257SOL    HW239234   1.490   0.256   5.837 -0.2604 -0.7786 -0.6920
 9258SOL     OW39235   0.580   0.040  15.747 -0.1860 -0.4296  0.3032
 9258SOL    HW139236   0.498   0.021  15.701 -0.9297  1.6633  0.7744
 9258SOL    HW239237   0.620   0.112  15.697  2.3362 -2.1040 -0.0615
 9259SOL     OW39238   4.333   4.308   7.120  0.2424  0.0500 -0.2242
 9259SOL    HW139239   4.413   4.295   7.068 -0.3466 -1.9799 -0.6130
 9259SOL    HW239240   4.311   4.398   7.095  1.1539  0.9479  2.2523
 9260SOL     OW39241   4.405   1.013  15.081  0.2324  0.4062 -0.6427
 9260SOL    HW139242   4.408   1.108  15.096  0.9986  0.5310 -1.5814
 9260SOL    HW239243   4.463   1.003  15.005 -0.8313 -0.9765 -1.2691
 9261SOL     OW39244   4.477   0.280   8.066 -0.7664  0.2499  0.0254
 9261SOL    HW139245   4.569   0.299   8.085 -0.4653 -0.3414 -0.8294
 9261SOL    HW239246   4.478   0.200   8.117  0.7060  0.5814  0.5240
 9262SOL     OW39247   3.890   1.240   3.678 -0.6385 -0.0162 -0.1952
 9262SOL    HW139248   3.917   1.330   3.664  0.5404 -0.5212 -1.1842
 9262SOL    HW239249   3.968   1.184   3.682 -0.7865 -0.1708  0.5028
 9263SOL     OW39250   4.315   0.683  14.792 -0.0394 -0.1762  0.5628
 9263SOL    HW139251   4.224   0.654  14.785  0.2402 -0.5409 -1.7140
 9263SOL    HW239252   4.337   0.696  14.700 -0.6551  0.2982  0.4871
 9264SOL     OW39253   0.701   1.122  11.361  0.4364 -0.4463 -0.6441
 9264SOL    HW139254   0.757   1.134  11.439 -0.1861 -0.5424 -0.1847
 9264SOL    HW239255   0.757   1.166  11.297 -1.0419  1.2138 -0.7782
 9265SOL     OW39256   1.553   1.665   4.178 -0.3084 -1.1150 -1.2279
 9265SOL    HW139257   1.560   1.621   4.093 -2.5206  0.1355 -2.0521
 9265SOL    HW239258   1.459   1.654   4.195 -0.0107 -1.5203  0.1674
 9266SOL     OW39259   4.325   4.258   8.306 -0.5620 -0.7794 -0.2701
 9266SOL    HW139260   4.233   4.284   8.308 -0.5280 -0.6879  0.1424
 9266SOL    HW239261   4.367   4.317   8.368 -0.7538 -0.8449 -0.0756
 9267SOL     OW39262   4.045   2.720  16.044  0.4676  0.0472 -0.4837
 9267SOL    HW139263   4.113   2.757  15.988 -0.0273  1.1147 -0.3821
 9267SOL    HW239264   4.011   2.796  16.092  1.1012 -0.5817  0.9664
 9268SOL     OW39265   4.635   3.681   3.117 -0.1109 -0.3755  0.4824
 9268SOL    HW139266   4.631   3.594   3.158  1.1512 -0.9506 -0.6213
 9268SOL    HW239267   4.679   3.726   3.189 -1.2062 -1.2728  1.7045
 9269SOL     OW39268   3.695   2.291   7.540 -0.3076  0.4816  0.2661
 9269SOL    HW139269   3.623   2.244   7.584  1.2916 -0.6466  1.7085
 9269SOL    HW239270   3.733   2.219   7.490  0.1210  0.1833  1.0093
 9270SOL     OW39271   4.418   1.282  15.148  0.5388 -0.1457  0.6090
 9270SOL    HW139272   4.446   1.324  15.229  1.0930 -0.4880  0.5955
 9270SOL    HW239273   4.432   1.353  15.085  0.2742 -0.0905  0.6098
 9271SOL     OW39274   3.145   3.268   5.789  0.6547  0.3997  0.0545
 9271SOL    HW139275   3.073   3.262   5.852 -0.3110  3.6015 -0.7547
 9271SOL    HW239276   3.174   3.177   5.800  2.8119  0.9979 -0.7002
 9272SOL     OW39277   3.212   0.819   9.486  0.0274 -0.6134 -0.1856
 9272SOL    HW139278   3.304   0.845   9.476  0.9088 -3.5273  0.3661
 9272SOL    HW239279   3.193   0.865   9.568 -0.6387 -1.2203  0.0046
 9273SOL     OW39280   0.098   1.964   6.987 -0.4017  0.7764  0.6403
 9273SOL    HW139281   0.115   1.893   6.926  1.8054 -0.8255  3.1620
 9273SOL    HW239282   0.002   1.968   6.989 -0.5368 -1.8830 -0.3322
 9274SOL     OW39283   1.613   3.527   7.952  0.8680  0.0925  0.3523
 9274SOL    HW139284   1.651   3.537   7.865 -0.6309  1.7226 -0.1216
 9274SOL    HW239285   1.608   3.432   7.958  2.3769  0.0702  1.2349
 9275SOL     OW39286   1.953   4.469   4.356 -0.2937  0.9470  0.3467
 9275SOL    HW139287   2.041   4.489   4.389  0.9241  1.0996 -2.9815
 9275SOL    HW239288   1.925   4.549   4.313 -0.0426  0.0707 -1.4460
 9276SOL     OW39289   2.046   4.283   3.883  0.4528 -0.0260  0.4029
 9276SOL    HW139290   1.979   4.244   3.939  1.4950 -0.8285  1.0825
 9276SOL    HW239291   2.119   4.292   3.943  1.1742  1.1499 -0.6559
 9277SOL     OW39292   1.152   3.970   0.941 -0.4193 -0.5916 -0.3755
 9277SOL    HW139293   1.141   4.053   0.989 -1.8008 -0.9739 -0.0411
 9277SOL    HW239294   1.145   3.910   1.015  1.3263 -0.6461 -0.2543
 9278SOL     OW39295   4.712   0.689  12.878 -0.2469 -0.4130 -0.0848
 9278SOL    HW139296   0.010   0.737  12.798 -0.6334 -2.1042 -1.2086
 9278SOL    HW239297   0.030   0.745  12.944 -3.8578  2.1418  0.0979
 9279SOL     OW39298   0.303   2.674   8.898  0.1145 -0.7986  0.0723
 9279SOL    HW139299   0.292   2.767   8.921  2.0076 -0.7320  0.7416
 9279SOL    HW239300   0.356   2.687   8.819 -0.3326  1.8945  0.2082
 9280SOL     OW39301   2.662   2.807   8.470 -0.2009  0.0660 -0.1226
 9280SOL    HW139302   2.691   2.731   8.521 -1.1153  0.2270  0.6449
 9280SOL    HW239303   2.594   2.777   8.409  0.4073  1.5666 -1.5302
 9281SOL     OW39304   1.153   2.962   2.802 -0.5229 -0.1563 -0.4600
 9281SOL    HW139305   1.215   2.889   2.803 -1.3573 -0.8544  2.7593
 9281SOL    HW239306   1.132   2.971   2.709  0.7537 -2.1918 -0.9498
 9282SOL     OW39307   0.011   2.734  15.685  0.2525  0.0166 -0.7980
 9282SOL    HW139308   4.688   2.716  15.766  2.8015 -1.0127  0.4675
 9282SOL    HW239309   0.074   2.662  15.678 -0.3603 -0.7498  1.4991
 9283SOL     OW39310   4.389   4.404   5.481  0.3181  0.4148 -0.3414
 9283SOL    HW139311   4.299   4.388   5.508  0.0123 -0.6143 -1.9673
 9283SOL    HW239312   4.373   4.457   5.403 -1.2506  0.2022 -0.1633
 9284SOL     OW39313   2.079   1.577   1.088 -0.4948  0.2930  0.5460
 9284SOL    HW139314   2.032   1.596   1.007  0.2323 -0.0775  0.0352
 9284SOL    HW239315   2.066   1.483   1.101 -2.2019  0.2124 -1.6904
 9285SOL     OW39316   4.628   3.800   5.875  0.6249 -0.1341  0.5515
 9285SOL    HW139317   4.570   3.851   5.931  1.6883  0.6838  0.9169
 9285SOL    HW239318   4.688   3.866   5.839 -0.8535  1.2887  0.6669
 9286SOL     OW39319   3.803   3.852  11.931  0.4209 -0.5101  0.5038
 9286SOL    HW139320   3.805   3.820  12.021 -0.9873  0.9639  1.0509
 9286SOL    HW239321   3.800   3.945  11.952 -0.7486 -0.6756  1.0481
 9287SOL     OW39322   1.704   3.907   4.125 -0.0682  0.3634  1.0782
 9287SOL    HW139323   1.716   3.848   4.200 -1.0729 -1.2544 -0.0327
 9287SOL    HW239324   1.653   3.860   4.059 -0.8071  0.7752  1.3539
 9288SOL     OW39325   0.030   1.634   4.732 -0.2469  0.3698 -0.2480
 9288SOL    HW139326   4.723   1.642   4.822 -1.3075  2.9477 -0.8468
 9288SOL    HW239327   0.081   1.714   4.717  1.1215 -0.4258  0.1961
 9289SOL     OW39328   3.101   2.589   7.602  0.3646  0.1303 -0.2760
 9289SOL    HW139329   3.083   2.503   7.640  0.3717  1.1680  2.0302
 9289SOL    HW239330   3.101   2.637   7.685  0.3147  0.7494 -0.6319
 9290SOL     OW39331   4.157   0.738   6.805 -0.0981  0.0659  0.5076
 9290SOL    HW139332   4.187   0.760   6.716  0.7659  1.1642  1.0692
 9290SOL    HW239333   4.124   0.650   6.788 -0.4103  0.4113 -0.6631
 9291SOL     OW39334   2.788   0.913  15.866  0.6342  0.0822 -0.1836
 9291SOL    HW139335   2.695   0.895  15.855  0.4798  1.0298 -0.4383
 9291SOL    HW239336   2.813   0.822  15.856  0.5132 -0.1265  1.3257
 9292SOL     OW39337   4.608   2.380   7.206  0.4604 -0.4020 -0.2512
 9292SOL    HW139338   4.642   2.369   7.294 -0.6415 -0.5592  0.1491
 9292SOL    HW239339   4.679   2.343   7.153  0.5675  1.7442 -1.6185
 9293SOL     OW39340   1.382   2.859  14.800  0.4139  0.0012  0.6596
 9293SOL    HW139341   1.435   2.931  14.833  0.9644 -0.4377  0.7293
 9293SOL    HW239342   1.299   2.867  14.848  0.0926 -0.6543  0.2091
 9294SOL     OW39343   0.850   1.657   1.347  0.4134 -0.2203  0.0069
 9294SOL    HW139344   0.872   1.635   1.437 -1.2132 -0.6658  0.2896
 9294SOL    HW239345   0.782   1.724   1.347  2.7248  2.1452  2.0804
 9295SOL     OW39346   2.602   3.038   5.736 -0.7989 -0.2608 -0.1435
 9295SOL    HW139347   2.689   3.016   5.770 -0.6622 -2.8061 -2.0939
 9295SOL    HW239348   2.547   2.978   5.786 -0.5454 -0.3577  0.0168
 9296SOL     OW39349   4.146   1.079   9.242 -0.6091  0.1855 -0.1742
 9296SOL    HW139350   4.063   1.127   9.232 -0.7713  0.2180  1.4444
 9296SOL    HW239351   4.197   1.127   9.176 -0.8966 -1.1478 -1.3608
 9297SOL     OW39352   1.829   1.724  13.692 -0.1981  0.5785 -0.1547
 9297SOL    HW139353   1.862   1.642  13.654 -0.2413  0.1892  0.6472
 9297SOL    HW239354   1.770   1.755  13.624 -0.2371 -2.6061 -1.5838
 9298SOL     OW39355   2.375   1.911  12.344  0.0593 -0.3585 -0.1292
 9298SOL    HW139356   2.400   1.881  12.257 -0.4525  0.7272 -0.6611
 9298SOL    HW239357   2.285   1.920  12.314 -0.1144  1.0463  0.7955
 9299SOL     OW39358   3.797   2.294   4.751  0.3764  0.4898  0.3055
 9299SOL    HW139359   3.795   2.273   4.658  0.7660  0.8930  0.2071
 9299SOL    HW239360   3.795   2.204   4.783  0.7857  0.1210 -0.7091
 9300SOL     OW39361   1.263   0.987   0.824  0.7246 -0.0075  0.2138
 9300SOL    HW139362   1.250   0.910   0.879  1.1041  0.3531  0.8093
 9300SOL    HW239363   1.222   1.058   0.873  0.4741  0.8877 -1.2967
 9301SOL     OW39364   0.341   2.903   4.032 -0.0269 -0.1219  0.0449
 9301SOL    HW139365   0.321   2.986   3.989  0.6816  0.4224  0.7910
 9301SOL    HW239366   0.408   2.930   4.094 -0.9650  2.4722 -0.0855
 9302SOL     OW39367   1.265   2.772   3.255 -0.4184 -0.0836  0.0690
 9302SOL    HW139368   1.240   2.731   3.173  0.5535 -0.6505  0.0590
 9302SOL    HW239369   1.351   2.808   3.235  0.0229 -0.7351  0.7826
 9303SOL     OW39370   2.741   3.864   1.051  0.1874  0.4454 -0.3529
 9303SOL    HW139371   2.742   3.954   1.082 -1.5865  0.8347 -1.4560
 9303SOL    HW239372   2.667   3.864   0.991 -0.0280  1.6601 -0.0917
 9304SOL     OW39373   1.274   2.472   4.329 -0.0759  0.1133  0.6179
 9304SOL    HW139374   1.202   2.497   4.270  2.4001  0.8654 -2.1325
 9304SOL    HW239375   1.239   2.388   4.358 -0.0485  0.1270  0.6898
 9305SOL     OW39376   0.660   4.366   6.717 -0.6301  0.0362 -0.4873
 9305SOL    HW139377   0.657   4.280   6.675 -3.6188 -0.7664  1.4407
 9305SOL    HW239378   0.621   4.422   6.649  2.2771  0.7983 -1.5319
 9306SOL     OW39379   3.623   3.436   2.088  0.5921  0.1219 -0.1527
 9306SOL    HW139380   3.619   3.342   2.070 -1.8977 -0.1453  1.9196
 9306SOL    HW239381   3.686   3.455   2.019  1.1935 -1.3710 -0.0165
 9307SOL     OW39382   3.901   3.602   2.608 -0.2140  0.0770  0.0800
 9307SOL    HW139383   3.876   3.691   2.583  0.1570 -0.3958 -2.0117
 9307SOL    HW239384   3.940   3.601   2.695 -0.8409 -1.3432  0.3417
 9308SOL     OW39385   4.402   1.768  13.355 -0.9264 -0.0342 -0.6093
 9308SOL    HW139386   4.321   1.795  13.312 -2.1871 -0.2520  1.6404
 9308SOL    HW239387   4.469   1.806  13.298 -1.2011 -0.3788 -1.1651
 9309SOL     OW39388   3.694   0.440   2.469  0.3935  0.9429 -0.4347
 9309SOL    HW139389   3.604   0.454   2.495 -0.0000 -1.6274 -0.3600
 9309SOL    HW239390   3.701   0.495   2.391  0.7957  0.3531 -0.8224
 9310SOL     OW39391   1.932   4.409   6.207  0.0455  0.0725  0.3352
 9310SOL    HW139392   1.984   4.409   6.127 -2.4895  1.8286 -1.3484
 9310SOL    HW239393   1.993   4.459   6.260  1.5484 -0.6684 -0.7219
 9311SOL     OW39394   1.158   2.559   5.101  0.1734  0.3709  0.3816
 9311SOL    HW139395   1.212   2.503   5.157  1.0973 -0.0803 -0.9886
 9311SOL    HW239396   1.072   2.541   5.141 -0.6683 -0.0852 -1.6633
 9312SOL     OW39397   3.983   3.617  11.106 -0.1522  0.4239 -0.0489
 9312SOL    HW139398   4.009   3.533  11.144  3.0249  0.2136 -2.6543
 9312SOL    HW239399   3.894   3.630  11.139 -0.7246  2.3246 -2.3529
 9313SOL     OW39400   0.325   0.827   8.736  0.2507  0.5112 -0.3086
 9313SOL    HW139401   0.311   0.902   8.794 -2.5949  0.5683 -1.0719
 9313SOL    HW239402   0.260   0.766   8.771 -0.6781  2.2068  0.9501
 9314SOL     OW39403   1.795   4.173  17.194 -0.4201  0.0992 -0.2922
 9314SOL    HW139404   1.821   4.264  17.206 -1.1732  0.1639  0.8552
 9314SOL    HW239405   1.875   4.127  17.170 -1.1883 -0.7281 -1.2756
 9315SOL     OW39406   1.651   4.239  15.972 -0.2823 -0.3647 -0.1567
 9315SOL    HW139407   1.566   4.243  16.016 -0.9806 -1.7233 -1.3632
 9315SOL    HW239408   1.696   4.314  16.010  3.7476 -1.9701 -1.6412
 9316SOL     OW39409   0.382   1.612   4.770 -0.1325  0.2390 -0.0255
 9316SOL    HW139410   0.347   1.648   4.852  1.0595 -0.3280  0.7357
 9316SOL    HW239411   0.327   1.668   4.715 -1.2199 -1.2940 -0.4746
 9317SOL     OW39412   0.422   0.243  14.906  0.3753  0.0171  0.5158
 9317SOL    HW139413   0.386   0.154  14.895 -1.3295  0.4678  2.3595
 9317SOL    HW239414   0.499   0.237  14.963  0.3617 -0.6944  0.4576
 9318SOL     OW39415   1.861   4.623   5.728  0.2631  0.0789 -0.2148
 9318SOL    HW139416   1.830   4.687   5.792 -1.5390 -0.6978 -0.3333
 9318SOL    HW239417   1.781   4.615   5.677  0.1785  1.1322 -0.2507
 9319SOL     OW39418   3.057   3.088   6.566  0.1414 -0.8161 -0.0801
 9319SOL    HW139419   3.066   3.098   6.661 -0.6021  0.9827 -0.2053
 9319SOL    HW239420   3.145   3.051   6.557  0.5661  0.6108 -1.8380
 9320SOL     OW39421   2.947   4.638   8.652 -0.1347 -0.2953 -0.1262
 9320SOL    HW139422   2.959   4.545   8.634  1.4158  0.5626 -3.6340
 9320SOL    HW239423   3.014   4.644   8.719  0.1312 -1.3468 -0.3104
 9321SOL     OW39424   2.360   0.776  16.451 -0.5267  0.3102  0.5370
 9321SOL    HW139425   2.322   0.827  16.522 -3.2057  1.5078 -1.7608
 9321SOL    HW239426   2.396   0.852  16.405 -0.6055  0.6457  1.0236
 9322SOL     OW39427   1.804   3.844   4.992 -0.7173  0.1156  0.0711
 9322SOL    HW139428   1.816   3.902   5.067  1.4775  0.3739 -0.4832
 9322SOL    HW239429   1.839   3.900   4.923 -1.6500  0.5888 -0.0131
 9323SOL     OW39430   4.167   2.024  16.345 -0.1533 -0.2847 -0.6696
 9323SOL    HW139431   4.181   2.074  16.264  1.3244  0.3083 -0.0404
 9323SOL    HW239432   4.213   1.942  16.326  1.1391  0.0425  1.0642
 9324SOL     OW39433   3.094   1.120   2.353 -0.8380  0.1882 -0.5618
 9324SOL    HW139434   3.189   1.116   2.361 -0.9049 -2.1091 -0.8033
 9324SOL    HW239435   3.078   1.135   2.260 -0.0507  0.3888 -0.6647
 9325SOL     OW39436   2.561   2.358  13.544  0.3022 -0.2537  0.1860
 9325SOL    HW139437   2.514   2.435  13.576  0.0507 -0.9174  1.4220
 9325SOL    HW239438   2.639   2.362  13.600  0.5507 -0.7191 -0.1298
 9326SOL     OW39439   0.768   2.395   3.140 -0.6704  0.4302 -0.1002
 9326SOL    HW139440   0.731   2.482   3.131 -1.1982  0.2177  0.0353
 9326SOL    HW239441   0.772   2.401   3.235 -0.2210  0.0832 -0.0945
 9327SOL     OW39442   1.001   1.188   7.717 -0.7281 -0.1558 -0.4267
 9327SOL    HW139443   1.017   1.269   7.765  0.7481 -1.2146  0.8723
 9327SOL    HW239444   0.926   1.215   7.664 -1.3196 -0.7085  0.1280
 9328SOL     OW39445   0.316   2.136  10.360  0.3568 -0.1866  0.0815
 9328SOL    HW139446   0.405   2.159  10.335  0.5376 -3.2414 -2.1262
 9328SOL    HW239447   0.262   2.181  10.295  0.2187  0.6215  0.7522
 9329SOL     OW39448   0.195   4.253   4.723 -0.1545  0.5444  0.3020
 9329SOL    HW139449   0.139   4.176   4.713 -0.5588  0.8832 -0.0792
 9329SOL    HW239450   0.176   4.269   4.815  0.0786 -1.7606  0.7482
 9330SOL     OW39451   3.887   4.201  10.118  0.4394 -0.2141 -0.3399
 9330SOL    HW139452   3.905   4.131  10.056  1.7274  1.0077 -1.3731
 9330SOL    HW239453   3.976   4.236  10.128  0.7856 -0.6051 -1.9286
 9331SOL     OW39454   4.605   2.804  15.457  0.2424 -0.0386 -1.0177
 9331SOL    HW139455   4.634   2.761  15.537 -1.5118  4.1036  1.9102
 9331SOL    HW239456   4.515   2.780  15.479 -0.4454  1.6005 -2.0234
 9332SOL     OW39457   1.996   0.910   6.850 -0.2311 -0.0334  0.1682
 9332SOL    HW139458   2.058   0.884   6.918  0.4241  0.1259 -0.3637
 9332SOL    HW239459   1.922   0.933   6.906 -0.4827  0.4154 -0.3393
 9333SOL     OW39460   4.681   4.395  17.099  0.8291  0.1130 -0.2162
 9333SOL    HW139461   0.034   4.339  17.088  0.8631 -0.5087  3.1001
 9333SOL    HW239462   4.639   4.413  17.015  1.7009  0.7864 -0.5078
 9334SOL     OW39463   3.702   1.193  11.449  0.0597 -0.1687 -0.7416
 9334SOL    HW139464   3.764   1.213  11.380 -0.5253  1.9806 -0.6352
 9334SOL    HW239465   3.733   1.109  11.484  2.1203  0.7253 -0.3904
 9335SOL     OW39466   2.939   3.376   2.229  0.2594 -0.4359  0.2754
 9335SOL    HW139467   2.937   3.310   2.160  0.8104 -0.4079  0.2300
 9335SOL    HW239468   3.032   3.398   2.219 -0.0185  0.3192 -0.6983
 9336SOL     OW39469   1.912   3.980   0.256 -0.3183 -0.3871 -0.1008
 9336SOL    HW139470   1.817   3.988   0.263 -0.3753 -0.2414 -1.1011
 9336SOL    HW239471   1.943   4.067   0.281  0.7470 -1.5459  2.6517
 9337SOL     OW39472   4.124   2.549   0.830  0.3167 -0.2683  0.2568
 9337SOL    HW139473   4.178   2.470   0.838 -0.5321 -0.7216  1.5282
 9337SOL    HW239474   4.169   2.586   0.907  0.6079  2.4706 -1.2621
 9338SOL     OW39475   2.966   0.005   7.332 -0.5945 -0.0520  1.3863
 9338SOL    HW139476   3.024   4.677   7.388 -0.2750  2.5817  3.5670
 9338SOL    HW239477   2.889   4.673   7.332 -0.3493 -0.3665 -0.1481
 9339SOL     OW39478   4.393   1.654   6.872 -0.2420  0.3655 -0.4863
 9339SOL    HW139479   4.368   1.569   6.838  2.8156 -1.3876  1.6553
 9339SOL    HW239480   4.307   1.694   6.886  0.0361  1.5685 -2.1832
 9340SOL     OW39481   4.143   2.078   7.661 -0.5151  0.1030  1.0418
 9340SOL    HW139482   4.158   2.172   7.666  1.2662 -0.0297 -2.0653
 9340SOL    HW239483   4.200   2.050   7.590 -1.1643  1.0198  0.1672
 9341SOL     OW39484   2.209   2.474  13.799  0.7231 -0.6489  0.2850
 9341SOL    HW139485   2.233   2.384  13.778 -0.1943 -1.4007  2.5222
 9341SOL    HW239486   2.160   2.492  13.719  1.5330  1.8970  0.3286
 9342SOL     OW39487   0.757   2.126   1.257 -0.0237  0.3295  1.0454
 9342SOL    HW139488   0.747   2.180   1.178 -0.0917 -0.0291  0.8072
 9342SOL    HW239489   0.841   2.079   1.247 -0.7470 -0.7518 -0.0498
 9343SOL     OW39490   2.585   4.376  14.879 -0.1646 -0.5834  0.2407
 9343SOL    HW139491   2.529   4.450  14.855 -0.6680 -0.3826  2.0735
 9343SOL    HW239492   2.528   4.301  14.865 -4.1413  2.2070  1.5070
 9344SOL     OW39493   1.242   1.324   7.537 -0.3080  1.3670  0.4110
 9344SOL    HW139494   1.260   1.418   7.547  0.9520  1.2469 -0.7324
 9344SOL    HW239495   1.154   1.308   7.570  0.5186 -2.1922  0.8100
 9345SOL     OW39496   2.046   2.366   9.271  0.2101  0.5242  0.3757
 9345SOL    HW139497   1.961   2.387   9.309 -2.3285 -1.3890 -4.2940
 9345SOL    HW239498   2.047   2.275   9.301 -1.2500 -0.0344 -1.3006
 9346SOL     OW39499   0.161   1.741   2.398 -0.2940 -0.0063 -1.0764
 9346SOL    HW139500   0.202   1.763   2.482 -1.2317  2.5001 -1.2853
 9346SOL    HW239501   0.071   1.724   2.424 -0.2275  0.1182 -0.7666
 9347SOL     OW39502   3.427   3.128   2.470 -0.2639  0.3961 -0.7403
 9347SOL    HW139503   3.421   3.155   2.561  0.5740  1.0612 -0.8870
 9347SOL    HW239504   3.492   3.188   2.434  1.4085 -0.5790  0.6544
 9348SOL     OW39505   2.394   0.462  13.422 -1.0169  0.2086 -0.0288
 9348SOL    HW139506   2.403   0.489  13.514  0.4924 -0.5137  0.0460
 9348SOL    HW239507   2.369   0.546  13.383  1.0835  1.2270  0.7585
 9349SOL     OW39508   2.989   3.508   7.104  0.3457  0.0366 -0.4629
 9349SOL    HW139509   3.045   3.580   7.076 -1.8626  1.8199 -0.2444
 9349SOL    HW239510   2.973   3.528   7.196 -0.7264 -1.1094 -0.3996
 9350SOL     OW39511   2.997   4.648   5.525 -0.3463  0.7255 -0.2213
 9350SOL    HW139512   3.018   0.001   5.472  0.7913  0.0801 -0.7025
 9350SOL    HW239513   3.031   4.578   5.469  2.3125  0.6616  1.4827
 9351SOL     OW39514   0.806   1.947  12.204 -0.2713  0.0447  0.3617
 9351SOL    HW139515   0.888   1.954  12.253 -0.5608 -0.2316  0.8846
 9351SOL    HW239516   0.803   2.036  12.169 -0.1621  0.2663  0.9221
 9352SOL     OW39517   1.418   3.025   6.635  0.2765 -0.7082  0.3261
 9352SOL    HW139518   1.347   3.075   6.675 -0.2989 -2.3610  1.3501
 9352SOL    HW239519   1.383   2.983   6.557 -0.8863  1.9327 -0.5839
 9353SOL     OW39520   4.524   4.212   3.069 -0.0820  0.4044  0.6367
 9353SOL    HW139521   4.487   4.300   3.063 -2.0410 -0.4537  0.0298
 9353SOL    HW239522   4.585   4.211   2.996 -1.1622  0.0935 -0.2484
 9354SOL     OW39523   0.744   2.016   3.275 -0.0184  0.1726  0.1267
 9354SOL    HW139524   0.834   2.030   3.305 -0.7068  3.0701  0.8924
 9354SOL    HW239525   0.690   1.999   3.352  1.7336 -0.4162  1.2168
 9355SOL     OW39526   1.042   2.428   2.967 -0.2424  0.7511  0.5393
 9355SOL    HW139527   1.025   2.368   3.039 -1.7885 -1.4683 -1.6899
 9355SOL    HW239528   1.124   2.465   3.000  0.5213 -0.3150 -0.1606
 9356SOL     OW39529   0.183   3.534   1.706  0.0276  0.2434 -0.3330
 9356SOL    HW139530   0.120   3.464   1.687 -1.1606  1.7863 -2.1034
 9356SOL    HW239531   0.128   3.612   1.697 -0.4444  0.2157  2.5144
 9357SOL     OW39532   1.050   2.193   3.158 -0.0214 -0.1958 -0.1895
 9357SOL    HW139533   1.040   2.133   3.231 -1.0814 -0.8571 -0.8816
 9357SOL    HW239534   1.139   2.177   3.126 -0.1544  2.8137 -2.0973
 9358SOL     OW39535   4.293   2.805  11.862  0.1830  0.8903  0.7997
 9358SOL    HW139536   4.326   2.726  11.905  1.3864  0.7470 -0.3883
 9358SOL    HW239537   4.305   2.790  11.769  2.8927  1.8168  1.0194
 9359SOL     OW39538   2.152   2.367   7.363  0.9116  0.1639  0.6660
 9359SOL    HW139539   2.126   2.450   7.322 -0.7022 -1.2194 -1.1618
 9359SOL    HW239540   2.246   2.381   7.375  1.0816 -0.7931  0.3998
 9360SOL     OW39541   3.921   4.084   0.217  0.1053 -0.3282 -0.7464
 9360SOL    HW139542   3.898   4.165   0.263  0.0142  0.0766 -1.5026
 9360SOL    HW239543   4.009   4.067   0.252  0.6212 -0.1576 -1.9885
 9361SOL     OW39544   2.169   0.635   7.283 -0.0584 -0.4407 -0.3855
 9361SOL    HW139545   2.084   0.665   7.315  0.4157  0.7271 -0.2185
 9361SOL    HW239546   2.227   0.703   7.315  2.5181 -2.2235 -1.2825
 9362SOL     OW39547   2.048   2.772   8.701  0.6190 -0.3134 -0.2503
 9362SOL    HW139548   2.091   2.737   8.624  0.5728 -1.8505  0.4290
 9362SOL    HW239549   1.999   2.845   8.663  0.5371 -0.1232  0.2186
 9363SOL     OW39550   3.007   0.879  12.815 -0.3590 -0.6720 -0.0415
 9363SOL    HW139551   3.031   0.819  12.744  0.4911 -1.8005  1.1976
 9363SOL    HW239552   3.069   0.853  12.883  3.0824  1.0661 -2.5168
 9364SOL     OW39553   1.390   2.996  15.537 -0.3272 -0.1370 -0.2168
 9364SOL    HW139554   1.319   3.012  15.599 -1.1359  0.7846 -1.3863
 9364SOL    HW239555   1.428   3.082  15.521 -0.6074 -0.3597 -2.0699
 9365SOL     OW39556   1.149   1.697   7.874 -0.4708 -0.2980  0.0989
 9365SOL    HW139557   1.080   1.701   7.941 -0.6111  1.6191 -0.1550
 9365SOL    HW239558   1.224   1.713   7.931 -2.6850  0.1601  2.8857
 9366SOL     OW39559   1.605   2.888  15.655 -0.0438 -0.0433  0.1904
 9366SOL    HW139560   1.682   2.938  15.630  2.8651 -3.2408  2.6885
 9366SOL    HW239561   1.537   2.921  15.597  0.4590  0.1910 -0.2556
 9367SOL     OW39562   4.348   1.682   2.091  0.0936  0.1637 -0.1070
 9367SOL    HW139563   4.320   1.611   2.033 -1.7123  0.2746  0.6457
 9367SOL    HW239564   4.368   1.751   2.027  3.3949 -2.1069 -1.5123
 9368SOL     OW39565   0.035   2.066   5.446 -0.1075 -0.3519  0.3431
 9368SOL    HW139566   0.078   1.982   5.430  3.3610  1.5818 -0.5036
 9368SOL    HW239567   0.080   2.100   5.523  1.2770 -0.2841 -0.4911
 9369SOL     OW39568   0.603   0.649   8.844  0.0560  0.2427  0.0918
 9369SOL    HW139569   0.631   0.697   8.923  1.2428 -1.6598  0.8240
 9369SOL    HW239570   0.536   0.712   8.819 -0.6752 -0.1621  1.0109
 9370SOL     OW39571   3.429   3.414   8.857 -0.0845  0.1026  0.4956
 9370SOL    HW139572   3.347   3.375   8.887  0.0671  0.3467  1.2256
 9370SOL    HW239573   3.469   3.439   8.941 -1.4149  2.6074  0.3845
 9371SOL     OW39574   3.197   1.591  11.426  0.6298 -0.1847  0.2226
 9371SOL    HW139575   3.240   1.622  11.347  2.8501 -0.1787  1.4263
 9371SOL    HW239576   3.231   1.652  11.491  1.5938  1.1462 -1.5404
 9372SOL     OW39577   0.804   4.052   4.133  0.1649  0.4044 -0.0312
 9372SOL    HW139578   0.873   3.987   4.147  0.6928  1.1576  0.7762
 9372SOL    HW239579   0.801   4.052   4.037  1.2693  2.1245 -0.0559
 9373SOL     OW39580   1.667   0.377   7.236 -0.0554 -0.0120 -0.0753
 9373SOL    HW139581   1.692   0.425   7.157 -1.8162  0.7791 -0.1493
 9373SOL    HW239582   1.583   0.337   7.213  0.3261  0.0552 -1.5704
 9374SOL     OW39583   2.363   1.267   7.585 -0.5321 -0.2797  0.0511
 9374SOL    HW139584   2.307   1.206   7.633 -0.4297  0.8078  1.5564
 9374SOL    HW239585   2.394   1.331   7.649  0.6766 -0.8312  0.0068
 9375SOL     OW39586   2.454   3.551   5.199  0.6304 -0.1323 -0.2572
 9375SOL    HW139587   2.402   3.596   5.265 -2.1582 -1.8088 -1.3036
 9375SOL    HW239588   2.383   3.507   5.153 -0.9880  0.4760  1.6940
 9376SOL     OW39589   4.269   2.471   2.878 -0.1980  0.3265 -0.3586
 9376SOL    HW139590   4.210   2.503   2.946 -0.4326 -2.3410  0.6696
 9376SOL    HW239591   4.210   2.433   2.813 -0.6399 -0.6412  0.6046
 9377SOL     OW39592   3.776   3.406   3.997  0.3332  0.3839 -0.2640
 9377SOL    HW139593   3.817   3.341   4.055 -1.2242  0.5023  0.9719
 9377SOL    HW239594   3.757   3.471   4.065 -0.2707  0.0444 -0.1071
 9378SOL     OW39595   4.562   4.100   5.970 -0.2911  0.4266  0.1016
 9378SOL    HW139596   4.634   4.081   6.031 -1.8159  0.7363  2.0148
 9378SOL    HW239597   4.604   4.158   5.907  2.2839  0.7823  2.1511
 9379SOL     OW39598   2.608   1.498   5.903  0.4059 -0.6261  0.2128
 9379SOL    HW139599   2.521   1.463   5.885 -0.7345  1.8892  0.8287
 9379SOL    HW239600   2.587   1.588   5.929  0.6089 -1.2081  2.3866
 9380SOL     OW39601   4.287   2.682   5.070  0.0434  0.0241  0.5440
 9380SOL    HW139602   4.337   2.719   4.998  0.1223 -0.7534  0.2033
 9380SOL    HW239603   4.356   2.663   5.134  2.0080  0.2140 -1.5620
 9381SOL     OW39604   2.441   3.697   8.581  0.4532  0.2415 -0.2073
 9381SOL    HW139605   2.518   3.642   8.597 -0.1490 -0.4962  0.1868
 9381SOL    HW239606   2.455   3.710   8.488 -0.3521 -0.4225 -0.4225
 9382SOL     OW39607   2.894   1.470   6.357  0.0978 -0.0390 -0.4460
 9382SOL    HW139608   2.821   1.438   6.410  1.5807 -0.9318  1.0712
 9382SOL    HW239609   2.936   1.523   6.424  0.4781  1.1337 -1.6180
 9383SOL     OW39610   1.320   1.888   5.611  0.1541  0.2303 -0.1738
 9383SOL    HW139611   1.365   1.971   5.596  0.7375 -0.0513  0.0124
 9383SOL    HW239612   1.336   1.883   5.705  0.6049  1.1112 -0.2072
 9384SOL     OW39613   0.981   3.371  13.115 -0.1706  0.6454 -0.0596
 9384SOL    HW139614   0.892   3.347  13.139 -0.3865 -0.5603 -2.1413
 9384SOL    HW239615   0.973   3.438  13.046 -1.7573 -0.4076 -0.8832
 9385SOL     OW39616   1.780   3.000   2.733  0.2196 -0.3483 -0.0380
 9385SOL    HW139617   1.821   2.915   2.715 -0.1864 -0.3341 -1.0363
 9385SOL    HW239618   1.840   3.066   2.698 -1.8764  0.6127 -1.7911
 9386SOL     OW39619   2.528   2.023   5.257 -0.4297 -0.2884 -0.3565
 9386SOL    HW139620   2.621   2.045   5.252  0.0412 -1.7874  1.7972
 9386SOL    HW239621   2.531   1.928   5.246  1.4945 -0.1876 -0.6432
 9387SOL     OW39622   3.857   0.535   6.034  0.7631  0.2685 -0.4230
 9387SOL    HW139623   3.931   0.494   6.079  0.1509  0.2458  0.5768
 9387SOL    HW239624   3.784   0.474   6.044 -1.6228  3.0106 -1.0821
 9388SOL     OW39625   3.120   1.322  15.055  0.1066  0.1145 -0.5265
 9388SOL    HW139626   3.197   1.352  15.007  1.9234  0.6046  2.7248
 9388SOL    HW239627   3.158   1.300  15.140 -0.5560  0.9210 -0.0250
 9389SOL     OW39628   0.442   4.689  13.907  0.1431  0.7538 -0.2689
 9389SOL    HW139629   0.377   0.031  13.929  0.6433  1.6663 -1.5893
 9389SOL    HW239630   0.384   4.614  13.899  1.8291 -0.7195  1.1583
 9390SOL     OW39631   2.388   1.097   1.413 -0.1156  0.2771  0.2971
 9390SOL    HW139632   2.465   1.094   1.471 -0.6771  0.6656  1.0685
 9390SOL    HW239633   2.407   1.021   1.358  1.6961  1.5429 -0.8201
 9391SOL     OW39634   0.451   0.848   7.187 -0.2448  0.2299  0.1805
 9391SOL    HW139635   0.513   0.898   7.134  0.2333 -2.2221 -1.5692
 9391SOL    HW239636   0.368   0.866   7.142  0.0350 -1.5078 -1.0143
 9392SOL     OW39637   4.598   1.905   1.122  0.9313  0.0291  0.1761
 9392SOL    HW139638   4.514   1.892   1.078  0.1836  0.0528  1.6006
 9392SOL    HW239639   4.615   1.999   1.119  1.5434 -0.1061 -0.4652
 9393SOL     OW39640   2.372   4.119   6.977  0.0588  0.1354  0.4635
 9393SOL    HW139641   2.308   4.175   7.022 -0.0996  0.7901 -0.5835
 9393SOL    HW239642   2.318   4.047   6.943  1.6256 -1.4035  1.2652
 9394SOL     OW39643   3.561   3.441   9.429  0.4651  0.1166  0.2429
 9394SOL    HW139644   3.607   3.524   9.418 -2.8349  1.8532 -0.5893
 9394SOL    HW239645   3.625   3.384   9.387 -0.3021 -0.4387 -0.1779
 9395SOL     OW39646   0.127   2.536   4.268  0.4420 -0.2054  0.1793
 9395SOL    HW139647   0.097   2.536   4.359  1.7148  1.7445  0.5813
 9395SOL    HW239648   0.041   2.525   4.225  0.1249  1.3866  0.3993
 9396SOL     OW39649   2.101   1.335   2.739  0.2285  0.5109  0.6665
 9396SOL    HW139650   2.089   1.427   2.761 -0.0094  0.2652  1.5981
 9396SOL    HW239651   2.193   1.323   2.764  0.9521  0.4066 -2.0856
 9397SOL     OW39652   0.339   2.855   0.537 -0.2968  0.0062 -0.7118
 9397SOL    HW139653   0.299   2.829   0.620 -0.5396  1.7144 -0.3130
 9397SOL    HW239654   0.427   2.824   0.559 -0.7158  0.4667  1.6506
 9398SOL     OW39655   0.889   1.569   6.297 -0.0205 -0.0997 -0.0557
 9398SOL    HW139656   0.969   1.566   6.245 -0.4656  1.3385 -0.8072
 9398SOL    HW239657   0.909   1.629   6.369 -0.4904  1.3216 -1.1017
 9399SOL     OW39658   1.140   0.540   2.844  0.2284  0.1466 -0.1153
 9399SOL    HW139659   1.071   0.606   2.849 -1.4870 -1.5071 -1.8899
 9399SOL    HW239660   1.206   0.566   2.908  1.2855  0.1690 -1.1998
 9400SOL     OW39661   3.160   0.594  14.423  0.0463 -0.9880 -0.0214
 9400SOL    HW139662   3.255   0.583  14.411  0.2041 -0.2613  0.5681
 9400SOL    HW239663   3.143   0.657  14.353  1.5258  1.0019  1.3796
 9401SOL     OW39664   4.469   4.395   7.851  0.2950 -0.3046  0.3016
 9401SOL    HW139665   4.391   4.423   7.803 -0.3409 -2.4630  0.0676
 9401SOL    HW239666   4.427   4.343   7.919 -2.5440  1.7142  0.1070
 9402SOL     OW39667   1.541   2.172  11.088 -0.6201  0.0377  0.0368
 9402SOL    HW139668   1.479   2.244  11.073 -0.4496  0.1084 -0.3271
 9402SOL    HW239669   1.500   2.116  11.154  0.2666  0.6084  1.0909
 9403SOL     OW39670   4.218   2.470   0.525  0.3316  0.1150 -0.2697
 9403SOL    HW139671   4.260   2.456   0.609  1.7145  0.8097 -0.8460
 9403SOL    HW239672   4.127   2.444   0.538 -0.1010  1.6977 -0.1431
 9404SOL     OW39673   2.444   0.217   1.332 -0.3424 -0.2026 -0.2901
 9404SOL    HW139674   2.392   0.297   1.323  0.8038  0.2462 -3.1299
 9404SOL    HW239675   2.401   0.181   1.409 -1.9800  3.3887  0.4656
 9405SOL     OW39676   2.504   0.448   6.228 -0.4657 -0.0502  0.0120
 9405SOL    HW139677   2.437   0.512   6.251 -1.4865 -0.8492 -0.7863
 9405SOL    HW239678   2.462   0.364   6.243 -0.7774 -0.1611 -1.5158
 9406SOL     OW39679   4.334   0.404   8.275  0.0818 -0.3075  0.0657
 9406SOL    HW139680   4.283   0.325   8.258 -0.6099  0.2392 -0.4145
 9406SOL    HW239681   4.396   0.396   8.203  2.1720 -1.5051  1.9621
 9407SOL     OW39682   4.007   2.647  10.474  0.1254  0.1837  0.4986
 9407SOL    HW139683   3.975   2.565  10.512 -1.3200  0.1730 -0.7523
 9407SOL    HW239684   3.928   2.667  10.424 -0.2115  4.1142  2.6597
 9408SOL     OW39685   3.150   4.576   8.842 -0.3392 -0.2005  0.1915
 9408SOL    HW139686   3.237   4.581   8.802 -0.5770  0.7853 -0.2191
 9408SOL    HW239687   3.151   4.504   8.905  2.3946 -0.1798  0.1670
 9409SOL     OW39688   3.549   0.249   8.258 -0.5496  0.1556 -0.3819
 9409SOL    HW139689   3.499   0.190   8.200  0.0178  0.6641 -1.3890
 9409SOL    HW239690   3.533   0.199   8.338 -0.6282  0.1241 -0.4169
 9410SOL     OW39691   1.325   4.328  13.579  0.2071  0.4682  0.0481
 9410SOL    HW139692   1.332   4.382  13.657 -4.1995  1.8414 -0.4869
 9410SOL    HW239693   1.277   4.255  13.618  2.5568 -2.1240 -1.9219
 9411SOL     OW39694   1.228   1.095   5.843 -0.1872  0.0745 -0.0718
 9411SOL    HW139695   1.316   1.077   5.878 -0.8450 -1.6873  0.6287
 9411SOL    HW239696   1.206   1.013   5.801  0.6365 -0.4939  0.5983
 9412SOL     OW39697   2.168   2.983  17.074  0.2188 -0.2152 -0.2174
 9412SOL    HW139698   2.144   3.075  17.061  0.1965 -0.0298  1.0951
 9412SOL    HW239699   2.247   2.992  17.127  0.5580 -1.2452 -0.5548
 9413SOL     OW39700   2.590   1.031  13.457  0.1859 -0.1361 -0.1235
 9413SOL    HW139701   2.625   1.090  13.390  2.6961 -1.6985 -0.1751
 9413SOL    HW239702   2.556   0.956  13.409  1.0907 -2.1168  2.3645
 9414SOL     OW39703   3.253   2.056   7.217  0.3960 -0.2897 -0.5001
 9414SOL    HW139704   3.242   2.046   7.123 -1.5748  0.7395 -0.3630
 9414SOL    HW239705   3.194   2.127   7.242  0.7098  1.1884 -3.9540
 9415SOL     OW39706   4.055   2.127   4.442 -0.2887  0.2316 -0.2483
 9415SOL    HW139707   4.133   2.110   4.389 -0.0744  0.4949 -0.0152
 9415SOL    HW239708   3.983   2.075   4.405 -0.2831 -0.0669  0.1597
 9416SOL     OW39709   3.858   3.628  17.084 -0.4538  0.2916 -0.0957
 9416SOL    HW139710   3.787   3.595  17.029 -0.1962 -1.2413  0.4967
 9416SOL    HW239711   3.902   3.693  17.028  2.3709 -0.1887  1.5615
 9417SOL     OW39712   0.355   4.701   2.265 -0.5509 -0.5283 -0.5186
 9417SOL    HW139713   0.377   4.642   2.193  0.0692  0.1415 -0.8792
 9417SOL    HW239714   0.261   4.698   2.249 -0.9975 -0.2120  2.0568
 9418SOL     OW39715   3.426   1.373   0.785  0.9266  0.0906 -0.2773
 9418SOL    HW139716   3.518   1.349   0.771  0.8512  0.0687 -0.7298
 9418SOL    HW239717   3.387   1.294   0.825 -1.5840  1.2355 -0.4666
 9419SOL     OW39718   3.908   1.322  17.579 -0.2677  0.1250 -0.2971
 9419SOL    HW139719   3.886   1.414  17.584 -0.6108  0.0623 -0.6443
 9419SOL    HW239720   3.957   1.304  17.659 -0.3613 -0.0030 -0.2685
 9420SOL     OW39721   0.622   0.814   2.888  0.0899  0.3191  0.2614
 9420SOL    HW139722   0.627   0.891   2.945  1.3258  1.1469 -0.9726
 9420SOL    HW239723   0.666   0.748   2.941  1.0054 -1.0513 -2.2412
 9421SOL     OW39724   4.284   0.593   5.884  0.0574 -0.0624 -0.5969
 9421SOL    HW139725   4.206   0.632   5.845  0.3480  1.8928  0.8122
 9421SOL    HW239726   4.319   0.663   5.939  2.1276 -1.2680 -0.4023
 9422SOL     OW39727   2.856   1.931   0.895 -0.7957 -0.4129  0.6970
 9422SOL    HW139728   2.841   1.837   0.895  1.1201 -0.7373 -1.0924
 9422SOL    HW239729   2.784   1.964   0.842  0.5137 -1.0051 -1.4884
 9423SOL     OW39730   2.138   1.866   4.212  0.2838 -0.2729  0.4601
 9423SOL    HW139731   2.057   1.851   4.261  1.2951  0.5092  2.3482
 9423SOL    HW239732   2.155   1.954   4.246  0.7511 -0.6903  1.3025
 9424SOL     OW39733   3.513   4.348   9.790  0.3141 -0.6011  0.0264
 9424SOL    HW139734   3.526   4.426   9.844 -1.0595  1.4819 -2.6640
 9424SOL    HW239735   3.549   4.281   9.847  0.6296  0.8039  1.4708
 9425SOL     OW39736   3.300   0.286   4.796 -0.0600  0.5091 -0.4689
 9425SOL    HW139737   3.330   0.269   4.707  1.3640 -1.3834  0.3792
 9425SOL    HW239738   3.379   0.328   4.828 -0.9607 -0.1983  2.7263
 9426SOL     OW39739   1.564   0.254   9.112  0.3194  0.1610 -0.0838
 9426SOL    HW139740   1.647   0.209   9.098  0.7516  1.2001 -0.8149
 9426SOL    HW239741   1.506   0.181   9.135  2.9389 -1.4161  1.5110
 9427SOL     OW39742   0.500   1.957  16.806  0.2541  0.0466 -0.3198
 9427SOL    HW139743   0.434   2.009  16.760  0.2994  1.2187  0.9708
 9427SOL    HW239744   0.441   1.933  16.878 -0.2106  1.3094 -0.2720
 9428SOL     OW39745   2.940   3.670   1.123  0.2374  0.2861 -0.1316
 9428SOL    HW139746   2.866   3.726   1.101 -0.0875 -0.1582 -0.1569
 9428SOL    HW239747   2.898   3.606   1.181 -1.7062  0.7059 -1.0823
 9429SOL     OW39748   0.717   4.044   9.285 -0.3611 -0.0174 -0.2375
 9429SOL    HW139749   0.741   3.959   9.251  0.9738  0.6860 -1.0258
 9429SOL    HW239750   0.770   4.057   9.364 -0.2632 -0.2844 -0.2607
 9430SOL     OW39751   1.751   1.998  10.723 -0.1473  0.0184 -0.5423
 9430SOL    HW139752   1.711   2.057  10.659 -0.9744 -0.3590 -0.3801
 9430SOL    HW239753   1.744   2.059  10.797  2.0024 -1.2700  0.7350
 9431SOL     OW39754   1.733   4.248  10.670 -0.3474 -0.0322  0.3625
 9431SOL    HW139755   1.700   4.316  10.728 -0.2882  0.1511  0.1832
 9431SOL    HW239756   1.806   4.292  10.626  0.9009 -1.4626  1.0250
 9432SOL     OW39757   2.945   4.263   6.371  0.4254  0.7900 -0.1811
 9432SOL    HW139758   2.956   4.351   6.334  1.2153  1.5231  1.7851
 9432SOL    HW239759   2.980   4.266   6.460  3.6570  0.0808 -1.4351
 9433SOL     OW39760   2.947   3.267   7.584 -0.2500 -0.1363  0.6724
 9433SOL    HW139761   2.954   3.225   7.670 -0.3309 -0.3044  0.5962
 9433SOL    HW239762   2.877   3.214   7.545 -1.4650  1.2368  0.9520
 9434SOL     OW39763   1.205   1.938   9.719 -0.0647 -0.4482 -0.4332
 9434SOL    HW139764   1.273   2.005   9.722 -0.0833 -0.3984 -0.9781
 9434SOL    HW239765   1.240   1.878   9.652 -1.4101 -0.9708 -0.6723
 9435SOL     OW39766   4.238   1.206   6.373 -0.0074  0.4356  0.3855
 9435SOL    HW139767   4.180   1.130   6.360 -1.0887  1.3897 -0.3184
 9435SOL    HW239768   4.177   1.274   6.344 -1.1546 -0.6121  0.3343
 9436SOL     OW39769   0.961   3.947   8.929 -0.5511 -0.6660 -0.1813
 9436SOL    HW139770   0.940   3.984   8.843 -1.1347 -2.0402 -0.6256
 9436SOL    HW239771   0.983   3.857   8.907  2.1267  0.3445 -1.6718
 9437SOL     OW39772   0.030   1.847   3.994  0.5915 -0.4323  0.0865
 9437SOL    HW139773   0.064   1.937   3.989  1.9825 -1.0513 -1.4178
 9437SOL    HW239774   4.691   1.858   4.065 -0.8303  2.6006 -1.6419
 9438SOL     OW39775   3.124   0.963   3.491 -0.7294 -0.0634 -0.1028
 9438SOL    HW139776   3.037   0.933   3.517 -0.2691 -1.2776  0.0106
 9438SOL    HW239777   3.099   0.964   3.398  2.1122  2.6097 -0.8277
 9439SOL     OW39778   2.993   4.687  15.475 -0.2927  0.2702 -0.0526
 9439SOL    HW139779   3.067   0.020  15.455  0.8119 -1.3215 -0.5431
 9439SOL    HW239780   3.008   4.614  15.415  0.7764  1.0485 -0.7319
 9440SOL     OW39781   3.585   4.139   3.482 -0.0554 -0.2151 -0.4142
 9440SOL    HW139782   3.632   4.062   3.451 -2.5260 -1.0224 -2.2001
 9440SOL    HW239783   3.548   4.181   3.404 -3.1725 -1.8824  0.1652
 9441SOL     OW39784   1.265   2.437   7.086 -0.2395  0.0862 -0.0359
 9441SOL    HW139785   1.353   2.400   7.085 -1.1939 -2.1914  0.4703
 9441SOL    HW239786   1.274   2.493   7.163  1.5398 -1.4495  0.8643
 9442SOL     OW39787   2.398   1.628   4.432  0.2665 -0.7014 -0.0817
 9442SOL    HW139788   2.412   1.587   4.518 -0.5997  0.2623  0.5231
 9442SOL    HW239789   2.341   1.563   4.393 -1.7259  0.6556  0.5550
 9443SOL     OW39790   3.785   3.043  12.118  0.3261  0.0040 -0.1976
 9443SOL    HW139791   3.876   3.070  12.128  0.6683 -1.5369  0.7516
 9443SOL    HW239792   3.770   2.996  12.200 -5.2316  0.3259 -1.0100
 9444SOL     OW39793   0.620   3.712   5.622 -0.4045 -0.4504  0.2808
 9444SOL    HW139794   0.526   3.701   5.634 -0.7079  2.3581  0.3363
 9444SOL    HW239795   0.622   3.797   5.578  2.5061 -0.3609  0.5644
 9445SOL     OW39796   4.039   0.175   2.667 -0.1763 -0.4194 -0.7566
 9445SOL    HW139797   3.950   0.145   2.645 -0.4135  1.5533 -2.5667
 9445SOL    HW239798   4.058   0.159   2.759  1.9674 -1.4797 -1.3852
 9446SOL     OW39799   3.784   1.055   6.839 -0.9532 -0.2973 -0.0129
 9446SOL    HW139800   3.784   1.037   6.933 -2.3780  0.6084  0.1518
 9446SOL    HW239801   3.731   0.984   6.801  0.9706 -1.6817 -0.0894
 9447SOL     OW39802   1.270   2.545  14.443 -0.4250 -0.1686  0.2237
 9447SOL    HW139803   1.196   2.605  14.437 -0.0530  0.3358  0.8019
 9447SOL    HW239804   1.303   2.574  14.528  1.7710 -1.8791 -0.0420
 9448SOL     OW39805   1.634   0.815   5.465 -0.1046  0.9690 -0.6254
 9448SOL    HW139806   1.647   0.846   5.554  2.3015 -0.1553 -0.5769
 9448SOL    HW239807   1.566   0.876   5.436 -2.4928 -1.3375  0.1710
 9449SOL     OW39808   4.259   3.050   4.976  0.3062  0.6140  0.2318
 9449SOL    HW139809   4.174   3.006   4.966  0.4341  0.2570  0.7166
 9449SOL    HW239810   4.270   3.114   4.906  0.0253 -0.1164 -0.4860
 9450SOL     OW39811   3.848   0.263  17.559  0.3015  0.3695 -0.2625
 9450SOL    HW139812   3.826   0.249  17.467 -0.9814  0.2155  0.0727
 9450SOL    HW239813   3.880   0.176  17.582  0.7038  0.4863 -0.3751
 9451SOL     OW39814   3.070   2.952   5.629 -0.2432  0.3906 -0.0468
 9451SOL    HW139815   3.006   2.947   5.558  1.0513 -1.7547 -1.0547
 9451SOL    HW239816   3.117   2.870   5.616 -1.3993 -0.4121  0.8092
 9452SOL     OW39817   0.216   2.186  16.266  0.3028  0.2401  0.2739
 9452SOL    HW139818   0.221   2.092  16.252  1.2406  0.4264 -0.6526
 9452SOL    HW239819   0.247   2.229  16.186 -0.3552  1.4390  0.6583
 9453SOL     OW39820   1.618   0.930  13.290 -0.7344 -0.2785  0.3810
 9453SOL    HW139821   1.536   0.911  13.245  0.0113  3.6548 -2.5751
 9453SOL    HW239822   1.669   0.862  13.246 -2.2480  0.2813 -2.2272
 9454SOL     OW39823   1.414   0.976   5.406  0.6408 -0.2823  0.0810
 9454SOL    HW139824   1.329   0.999   5.368 -0.0091 -1.7198  0.6790
 9454SOL    HW239825   1.459   0.950   5.326 -0.1087 -0.1757 -0.3778
 9455SOL     OW39826   4.437   2.650  10.304  0.1958 -0.0238 -0.2343
 9455SOL    HW139827   4.494   2.711  10.257  0.7678  0.0462  0.5580
 9455SOL    HW239828   4.365   2.711  10.319 -1.0098 -1.4765 -0.0905
 9456SOL     OW39829   2.386   0.897   2.018  0.1788  0.2356  0.3845
 9456SOL    HW139830   2.408   0.804   2.023 -0.8023 -0.1257 -2.2247
 9456SOL    HW239831   2.297   0.882   2.049 -1.0524  2.9864 -1.8265
 9457SOL     OW39832   4.511   3.117   5.803  0.1693 -0.1143  0.0901
 9457SOL    HW139833   4.533   3.209   5.788 -1.7347  0.3625  0.1621
 9457SOL    HW239834   4.572   3.103   5.875  0.9337 -1.8431 -0.9123
 9458SOL     OW39835   3.661   2.495   0.681  0.0332 -0.1836 -0.0797
 9458SOL    HW139836   3.629   2.447   0.758  0.2893  0.9756  0.7524
 9458SOL    HW239837   3.754   2.505   0.703  0.6677 -0.6912 -2.5326
 9459SOL     OW39838   2.067   2.834  10.127  0.0799 -0.6202 -0.0016
 9459SOL    HW139839   2.128   2.777  10.079  0.3022 -2.1118  2.0256
 9459SOL    HW239840   2.059   2.782  10.207  2.2775  0.6170  1.0288
 9460SOL     OW39841   0.066   2.620   2.691  0.1176  0.3667  0.6760
 9460SOL    HW139842   4.698   2.641   2.675 -0.2926 -2.4242 -0.8037
 9460SOL    HW239843   0.054   2.540   2.743 -0.6649 -0.3025 -0.5174
 9461SOL     OW39844   0.752   0.196   9.897  0.5392 -0.5745  0.0455
 9461SOL    HW139845   0.771   0.168   9.986 -0.7445  0.6964  0.7185
 9461SOL    HW239846   0.661   0.226   9.893  0.5891 -0.1022  2.4413
 9462SOL     OW39847   2.519   4.585   8.807 -0.3929  0.3273  0.4055
 9462SOL    HW139848   2.471   4.630   8.876 -0.8075 -0.9676  0.9721
 9462SOL    HW239849   2.523   4.658   8.745 -1.3244  2.6720  3.1164
 9463SOL     OW39850   2.792   1.183  13.351  0.7811  0.1568  0.1777
 9463SOL    HW139851   2.818   1.202  13.441 -1.6706 -1.0891  1.1602
 9463SOL    HW239852   2.871   1.220  13.311  0.9629  0.6777  1.0282
 9464SOL     OW39853   3.254   2.664   4.447  0.0850  0.0922  0.4934
 9464SOL    HW139854   3.315   2.603   4.488  0.1016 -0.4689 -0.3739
 9464SOL    HW239855   3.197   2.598   4.408 -0.1341  0.6769 -0.1751
 9465SOL     OW39856   1.067   2.854   6.460  0.1384 -0.0826  0.2075
 9465SOL    HW139857   1.130   2.897   6.402 -1.5153 -0.6289 -1.9900
 9465SOL    HW239858   1.130   2.823   6.525 -2.5410  0.5993  3.1614
 9466SOL     OW39859   1.420   2.002   8.524 -0.3977  0.2027 -0.4600
 9466SOL    HW139860   1.432   2.068   8.592 -2.3490 -0.7853  0.8395
 9466SOL    HW239861   1.497   1.950   8.547 -2.4859 -2.3123  0.9204
 9467SOL     OW39862   3.143   0.275   9.012 -0.5577 -0.2857 -0.1993
 9467SOL    HW139863   3.050   0.254   9.009 -0.2364 -1.7804  0.4116
 9467SOL    HW239864   3.171   0.221   9.086  0.1379  0.5908  0.1780
 9468SOL     OW39865   1.863   3.777   4.578  0.0724 -0.0345 -0.1521
 9468SOL    HW139866   1.859   3.734   4.664 -0.6100 -0.3858 -0.3599
 9468SOL    HW239867   1.938   3.834   4.593  1.4198 -2.5272  2.6581
 9469SOL     OW39868   1.304   3.197   4.418 -0.3371 -0.1173  0.2140
 9469SOL    HW139869   1.285   3.125   4.477 -2.1930 -0.7864 -1.2057
 9469SOL    HW239870   1.391   3.209   4.456 -0.5830 -1.1356  1.0862
 9470SOL     OW39871   4.148   1.105   8.531  0.9168 -0.2215 -0.0900
 9470SOL    HW139872   4.193   1.029   8.494  1.5448  2.0403 -4.0054
 9470SOL    HW239873   4.215   1.158   8.574 -0.3067 -1.3883  3.2814
 9471SOL     OW39874   2.617   1.662  14.114 -0.0301  0.3510 -0.1665
 9471SOL    HW139875   2.562   1.589  14.142 -0.0860  0.2971 -0.4202
 9471SOL    HW239876   2.565   1.732  14.153  0.4018  0.7127 -0.2319
 9472SOL     OW39877   2.934   4.485   6.167 -0.0636 -0.9910  0.3297
 9472SOL    HW139878   2.971   4.508   6.081 -1.3254  0.9412  0.2964
 9472SOL    HW239879   2.851   4.444   6.146 -1.2915  1.4502  0.4291
 9473SOL     OW39880   3.093   1.169  12.312  0.7486  0.1051  0.1618
 9473SOL    HW139881   3.037   1.243  12.287  2.1849  0.7602 -1.0774
 9473SOL    HW239882   3.168   1.218  12.346  1.4083 -0.3943 -0.5683
 9474SOL     OW39883   2.974   0.809   1.953  0.3255 -0.2866 -0.1604
 9474SOL    HW139884   2.954   0.778   1.865  0.2749  2.3870 -1.0806
 9474SOL    HW239885   2.927   0.749   2.010  0.6746 -1.2556 -0.8865
 9475SOL     OW39886   2.605   1.565   3.712  0.9703 -0.0857 -0.1970
 9475SOL    HW139887   2.528   1.566   3.770  0.8386  0.5796 -0.3803
 9475SOL    HW239888   2.677   1.576   3.774  0.7722  1.7526 -0.2811
 9476SOL     OW39889   3.740   2.424   5.551 -0.6593 -0.0473 -0.3199
 9476SOL    HW139890   3.809   2.491   5.545  0.8811 -1.2592  3.5714
 9476SOL    HW239891   3.685   2.467   5.616  0.5738  0.7980  0.1908
 9477SOL     OW39892   4.513   0.751   1.244  0.2363 -0.6227  0.5930
 9477SOL    HW139893   4.523   0.739   1.149  0.0784  0.7814  0.4082
 9477SOL    HW239894   4.568   0.681   1.280  1.5732  0.6376  0.9901
 9478SOL     OW39895   1.754   2.597  10.129 -0.0868 -0.0135  0.5025
 9478SOL    HW139896   1.740   2.574  10.037 -0.6865 -1.2672  0.9047
 9478SOL    HW239897   1.747   2.513  10.176 -1.2559 -1.6707 -2.6070
 9479SOL     OW39898   4.481   3.420   7.067  0.0793 -0.3936 -0.1886
 9479SOL    HW139899   4.438   3.338   7.091 -1.2754  0.3926  0.0805
 9479SOL    HW239900   4.408   3.482   7.066  1.5607  1.3725  1.3708
 9480SOL     OW39901   0.165   1.539   7.174 -0.1138 -0.4919 -0.0558
 9480SOL    HW139902   0.205   1.521   7.089  1.3980  2.4433  0.0621
 9480SOL    HW239903   0.072   1.524   7.153 -0.5110  2.7403 -0.5683
 9481SOL     OW39904   4.088   0.364   6.130  0.3404  0.2302 -0.3801
 9481SOL    HW139905   4.054   0.275   6.134  1.1739 -0.0656 -0.0483
 9481SOL    HW239906   4.108   0.367   6.224 -0.7881  0.7207 -0.1489
 9482SOL     OW39907   2.699   0.774  10.417 -0.2945  0.1697 -0.3326
 9482SOL    HW139908   2.788   0.757  10.448  0.5011  3.1633 -0.9907
 9482SOL    HW239909   2.716   0.809  10.330  2.8725 -2.0516 -0.5962
 9483SOL     OW39910   2.859   2.094   7.741 -0.8326 -0.1717 -0.5876
 9483SOL    HW139911   2.806   2.064   7.815 -0.5434  0.7808 -0.0006
 9483SOL    HW239912   2.936   2.044   7.769 -0.0723  1.6446  0.5393
 9484SOL     OW39913   2.601   2.405   6.058  0.2624 -0.8819  0.2814
 9484SOL    HW139914   2.562   2.365   5.980  1.2363  1.4818 -1.4065
 9484SOL    HW239915   2.694   2.389   6.044 -0.3465 -1.6509 -3.0942
 9485SOL     OW39916   0.267   2.093   4.299  0.0497  0.6140 -0.1255
 9485SOL    HW139917   0.358   2.106   4.325  0.2964 -2.5150  0.5869
 9485SOL    HW239918   0.226   2.140   4.371  1.7512 -0.1070  1.3154
 9486SOL     OW39919   2.393   2.243   9.192 -0.2048 -0.3945  0.1988
 9486SOL    HW139920   2.348   2.261   9.275 -1.9751  1.5617 -1.1798
 9486SOL    HW239921   2.318   2.230   9.134 -0.2344  1.6960 -0.2395
 9487SOL     OW39922   2.509   3.988   7.380  0.2236  0.1298  0.1757
 9487SOL    HW139923   2.462   3.955   7.304 -2.7070  2.9769  0.7542
 9487SOL    HW239924   2.528   4.080   7.358  0.2324  0.1473  0.2573
 9488SOL     OW39925   2.675   4.694   3.868 -0.6118 -0.0358  0.5832
 9488SOL    HW139926   2.669   0.024   3.789 -0.7015  0.3319  0.8415
 9488SOL    HW239927   2.622   4.621   3.837  0.6174 -1.1335  1.0744
 9489SOL     OW39928   0.942   2.570   2.089 -0.2725  0.7690 -0.2329
 9489SOL    HW139929   0.990   2.505   2.141  0.0381 -0.3660 -1.9385
 9489SOL    HW239930   0.990   2.652   2.101  0.4684  0.7265 -2.8891
 9490SOL     OW39931   1.559   4.278   2.294  0.5718  0.1930  0.6346
 9490SOL    HW139932   1.482   4.223   2.308 -0.0840  0.3446 -2.4148
 9490SOL    HW239933   1.614   4.232   2.231 -1.1206 -0.9140 -0.0186
 9491SOL     OW39934   4.547   1.068  10.015  0.0848  0.5327  0.0245
 9491SOL    HW139935   4.484   0.996  10.010 -0.1805  0.7063  1.0373
 9491SOL    HW239936   4.583   1.046  10.100  1.0040  1.8330 -0.0298
 9492SOL     OW39937   1.194   3.726   6.342 -0.6990 -0.1959  0.5734
 9492SOL    HW139938   1.190   3.686   6.429 -0.0565  0.7246  1.0325
 9492SOL    HW239939   1.252   3.666   6.295 -2.3465 -1.7036  0.4906
 9493SOL     OW39940   3.635   3.810   2.793  0.3602 -0.3859  0.3337
 9493SOL    HW139941   3.710   3.870   2.792  0.5120 -0.5804  0.0229
 9493SOL    HW239942   3.654   3.767   2.876  0.1345 -1.4130 -0.1522
 9494SOL     OW39943   0.026   1.846   7.350  0.3941 -0.1218 -0.0272
 9494SOL    HW139944   0.001   1.778   7.287  1.5792 -1.3836  0.8522
 9494SOL    HW239945   0.119   1.823   7.351  0.4073 -0.0662  0.2121
 9495SOL     OW39946   1.149   0.272   7.057  0.4749 -0.1942 -0.1431
 9495SOL    HW139947   1.122   0.332   6.987 -0.5019 -1.9301 -1.2508
 9495SOL    HW239948   1.127   0.188   7.018 -0.6711  0.0654 -0.0690
 9496SOL     OW39949   2.237   2.244  12.517 -0.3180  0.2477  0.2568
 9496SOL    HW139950   2.237   2.156  12.553  3.6028  0.1106 -0.0856
 9496SOL    HW239951   2.210   2.296  12.594  1.6490  0.4401  0.8156
 9497SOL     OW39952   2.198   3.854  15.163  0.9822  0.2708  0.1171
 9497SOL    HW139953   2.170   3.919  15.228  1.3340 -0.3811  0.9247
 9497SOL    HW239954   2.111   3.814  15.160  0.7460  0.7241  0.8092
 9498SOL     OW39955   1.911   4.140   2.346  0.5171  0.2449 -0.3533
 9498SOL    HW139956   1.898   4.051   2.313 -0.9519  1.0971 -2.0963
 9498SOL    HW239957   1.974   4.164   2.278  1.0306  1.3773  0.5312
 9499SOL     OW39958   3.575   3.951   2.062 -0.4991 -0.2510 -0.1625
 9499SOL    HW139959   3.605   4.026   2.010  1.1332  0.1511  1.3524
 9499SOL    HW239960   3.591   3.885   1.995  1.5519 -1.0314  1.0933
 9500SOL     OW39961   4.329   3.404  14.527  0.1334  0.3403  0.4055
 9500SOL    HW139962   4.303   3.490  14.493  2.1221  0.2621 -1.2867
 9500SOL    HW239963   4.329   3.354  14.446  2.0795 -1.8767  1.7574
 9501SOL     OW39964   3.601   2.891   6.759  0.2224 -0.4427 -0.2462
 9501SOL    HW139965   3.674   2.838   6.791 -1.7070 -2.3230  1.0491
 9501SOL    HW239966   3.530   2.838   6.797 -0.5770  0.2265 -0.8089
 9502SOL     OW39967   1.997   0.201   7.409  0.0914  0.0117  0.3902
 9502SOL    HW139968   2.079   0.210   7.456  1.8442 -0.3400 -2.5759
 9502SOL    HW239969   1.932   0.204   7.479  0.4855 -0.2725  0.7637
 9503SOL     OW39970   4.189   2.448   2.167 -0.0787 -0.4608  0.6488
 9503SOL    HW139971   4.103   2.405   2.169  0.3857 -1.5030 -2.0706
 9503SOL    HW239972   4.191   2.458   2.072 -3.6065  1.7310  0.8022
 9504SOL     OW39973   2.366   0.334   6.894  0.2267 -0.1423 -0.1324
 9504SOL    HW139974   2.412   0.327   6.978  1.9683 -1.6787 -1.2022
 9504SOL    HW239975   2.275   0.349   6.917 -0.1447 -1.3445 -0.8460
 9505SOL     OW39976   4.583   4.645  17.435  0.6809 -0.3228  0.2675
 9505SOL    HW139977   4.673   4.661  17.464 -0.1450 -0.3539  2.8724
 9505SOL    HW239978   4.533   4.671  17.513  0.2256 -0.0884 -0.1038
 9506SOL     OW39979   3.407   0.672   3.600 -0.0043 -0.0812  0.4505
 9506SOL    HW139980   3.350   0.687   3.676  1.1170  1.2581  1.0366
 9506SOL    HW239981   3.438   0.585   3.623 -1.0077 -0.3390  0.8258
 9507SOL     OW39982   1.088   0.628   1.629  0.8225 -0.2744 -0.0507
 9507SOL    HW139983   1.138   0.702   1.662  0.9696  0.6314 -2.3169
 9507SOL    HW239984   1.081   0.653   1.537  2.2072  1.0913  0.2126
 9508SOL     OW39985   1.186   3.317  12.342 -0.0373  0.0357  0.0728
 9508SOL    HW139986   1.250   3.363  12.288  1.3839 -2.4458 -0.3417
 9508SOL    HW239987   1.131   3.384  12.384  1.3403  0.8104  0.6394
 9509SOL     OW39988   0.294   3.886   8.283  0.1929  0.1551 -0.1613
 9509SOL    HW139989   0.264   3.794   8.284 -1.6604  0.7615  1.4006
 9509SOL    HW239990   0.331   3.894   8.371  1.3374 -1.3323 -0.5107
 9510SOL     OW39991   1.159   0.298   8.874  0.0346 -0.4584  0.1323
 9510SOL    HW139992   1.182   0.216   8.831 -1.8238 -0.7565 -0.3234
 9510SOL    HW239993   1.154   0.355   8.797 -2.7091  1.6086  1.8067
 9511SOL     OW39994   2.014   3.805   1.035  0.5654 -0.7036  0.1873
 9511SOL    HW139995   2.028   3.727   0.981  2.2753 -0.1379 -0.1968
 9511SOL    HW239996   2.087   3.864   1.016  1.1829 -1.7823 -0.8341
 9512SOL     OW39997   4.361   2.870  10.683  0.2744  0.0357  0.5788
 9512SOL    HW139998   4.317   2.850  10.765  1.3665 -2.0745  0.6531
 9512SOL    HW239999   4.438   2.911  10.722 -0.8235  1.5454  1.1330
 9513SOL     OW40000   2.556   3.041   3.786 -0.0655  0.0519  0.0403
 9513SOL    HW140001   2.510   3.125   3.781  0.5633  0.3801 -0.3194
 9513SOL    HW240002   2.638   3.057   3.833  0.3396 -0.0969 -0.6116
 9514SOL     OW40003   0.855   0.082   1.488 -0.4683  0.0428 -0.6493
 9514SOL    HW140004   0.829   0.060   1.577  0.5800 -0.5689 -0.4919
 9514SOL    HW240005   0.830   0.174   1.482 -1.3753 -0.2101 -0.7851
 9515SOL     OW40006   4.525   3.305  16.776 -0.3899 -0.2636  0.1735
 9515SOL    HW140007   4.451   3.344  16.823  1.5834  0.8003  2.3588
 9515SOL    HW240008   4.600   3.336  16.826 -0.8379  1.3404 -0.1652
 9516SOL     OW40009   1.965   3.297  12.494  0.6238  0.1228  0.0563
 9516SOL    HW140010   1.979   3.215  12.446 -0.3334  0.6763 -1.1720
 9516SOL    HW240011   1.967   3.269  12.585 -0.6772  3.2688  1.0190
 9517SOL     OW40012   1.501   1.268   3.243  0.3181 -0.2665 -0.0789
 9517SOL    HW140013   1.446   1.337   3.281  1.4481 -0.0926  1.2660
 9517SOL    HW240014   1.496   1.200   3.311  0.9968 -1.0653 -0.8320
 9518SOL     OW40015   1.850   2.899  12.425  0.2718  0.2266  0.5430
 9518SOL    HW140016   1.919   2.956  12.391  1.2660 -1.2804  0.0248
 9518SOL    HW240017   1.799   2.892  12.344 -0.8777  1.7978  1.1358
 9519SOL     OW40018   2.788   4.368  15.054  0.1393 -0.5666  0.0860
 9519SOL    HW140019   2.707   4.360  15.003 -0.0830  0.2178  0.3156
 9519SOL    HW240020   2.756   4.443  15.104  0.9659  0.7032 -1.2714
 9520SOL     OW40021   0.993   0.274   9.383 -0.3625 -0.6713 -0.4343
 9520SOL    HW140022   1.076   0.274   9.431 -1.7855  2.7731  2.0482
 9520SOL    HW240023   0.949   0.344   9.430 -1.6773 -1.6064 -0.2899
 9521SOL     OW40024   4.137   3.926   4.937  0.1633  0.1875 -0.1922
 9521SOL    HW140025   4.047   3.896   4.931 -0.4293  1.5155  2.0949
 9521SOL    HW240026   4.190   3.880   4.872  1.2628  1.1241  0.0303
 9522SOL     OW40027   3.095   0.434  15.937  0.1582  0.2109  0.3000
 9522SOL    HW140028   3.174   0.467  15.981 -0.9320  0.9087  1.7324
 9522SOL    HW240029   3.065   0.385  16.014 -1.6557  0.3208 -0.3645
 9523SOL     OW40030   1.253   0.866   6.232  0.0667 -0.2555  0.0005
 9523SOL    HW140031   1.346   0.863   6.256 -0.5950  2.1511  2.9866
 9523SOL    HW240032   1.246   0.954   6.194  0.4988  0.2221  1.0240
 9524SOL     OW40033   0.959   3.474   8.299 -0.5819 -0.6179  0.0225
 9524SOL    HW140034   0.958   3.545   8.364 -0.6210  0.1523 -0.8192
 9524SOL    HW240035   0.959   3.391   8.346 -1.0443  0.3864  1.8067
 9525SOL     OW40036   1.848   2.543   9.161  0.0941  0.1504 -0.3222
 9525SOL    HW140037   1.942   2.561   9.160 -0.0861  1.1291  2.1204
 9525SOL    HW240038   1.830   2.500   9.244  2.9476 -1.1083 -0.3508
 9526SOL     OW40039   0.511   1.549   7.962  0.0400  0.0858 -0.0929
 9526SOL    HW140040   0.541   1.587   8.044  1.4970  0.8238 -0.9655
 9526SOL    HW240041   0.534   1.457   7.975 -1.2128 -0.0755  0.9787
 9527SOL     OW40042   0.928   2.002  10.007 -0.2131  0.3314  0.5989
 9527SOL    HW140043   0.949   2.089   9.973  1.0793  0.4316  1.6615
 9527SOL    HW240044   0.833   2.002   9.995 -0.1690 -1.5523  0.2575
 9528SOL     OW40045   4.381   0.013   2.697 -0.3414 -0.7079  0.1850
 9528SOL    HW140046   4.426   0.009   2.781  1.6198  1.9199 -0.7322
 9528SOL    HW240047   4.339   4.652   2.693  0.6303 -1.2783  2.3663
 9529SOL     OW40048   0.467   1.745   4.297  0.1501  0.6056  0.4240
 9529SOL    HW140049   0.520   1.779   4.225 -1.7327  0.3466 -1.0895
 9529SOL    HW240050   0.382   1.771   4.261  0.2822  3.1395  1.9772
 9530SOL     OW40051   1.891   2.813   3.412 -0.5955 -0.0597 -0.0404
 9530SOL    HW140052   1.947   2.849   3.343 -0.7318  1.5360  0.6780
 9530SOL    HW240053   1.825   2.881   3.420 -0.1803  0.4336 -0.8698
 9531SOL     OW40054   0.959   4.236   7.781  0.8993 -0.6672 -0.3341
 9531SOL    HW140055   1.050   4.218   7.755  1.1053 -1.8816  1.2108
 9531SOL    HW240056   0.927   4.146   7.790 -0.9496 -0.0151 -0.3987
 9532SOL     OW40057   2.862   3.684   5.017  0.0987 -0.1369  0.1435
 9532SOL    HW140058   2.938   3.729   4.980  0.2508 -1.0099 -0.6051
 9532SOL    HW240059   2.865   3.710   5.109  1.1168  0.6448 -0.1198
 9533SOL     OW40060   3.097   1.729   4.058 -0.8845 -0.3619 -0.6196
 9533SOL    HW140061   3.083   1.776   3.975 -2.2520 -0.1338 -0.2667
 9533SOL    HW240062   3.066   1.793   4.122 -0.8088  1.3750 -2.3226
 9534SOL     OW40063   4.265   2.442   1.476  0.8404  0.1013 -0.2609
 9534SOL    HW140064   4.312   2.477   1.400  1.0016 -1.0228 -0.6804
 9534SOL    HW240065   4.171   2.437   1.458  0.8916 -4.3577  0.5582
 9535SOL     OW40066   1.251   4.613  10.243  0.1874  1.1087  0.9465
 9535SOL    HW140067   1.272   4.603  10.336  2.5761  1.7903  0.4910
 9535SOL    HW240068   1.300   4.690  10.215  2.6963 -1.4240 -1.6297
 9536SOL     OW40069   1.448   2.697   4.420  0.1291  0.3250  0.3088
 9536SOL    HW140070   1.515   2.692   4.489  2.6329 -0.0866 -2.1556
 9536SOL    HW240071   1.398   2.616   4.435  0.0857 -0.0634 -1.9185
 9537SOL     OW40072   4.470   0.853  10.288  0.5077  0.0061  0.0206
 9537SOL    HW140073   4.545   0.911  10.280  0.2837  0.5040  1.5515
 9537SOL    HW240074   4.455   0.827  10.197  0.7968 -1.0070  0.2632
 9538SOL     OW40075   4.507   4.420   6.574 -0.0793 -0.0303  0.4481
 9538SOL    HW140076   4.504   4.331   6.540  0.5797 -0.8622  2.5563
 9538SOL    HW240077   4.477   4.462   6.493  0.0723 -1.1189 -0.1691
 9539SOL     OW40078   2.166   1.805   3.060  0.0406  0.3170 -0.2761
 9539SOL    HW140079   2.126   1.867   2.998 -0.0738  0.3036 -0.2149
 9539SOL    HW240080   2.163   1.726   3.007  1.5644  0.1903 -0.1794
 9540SOL     OW40081   1.090   4.652   0.971 -0.4616 -0.4474 -0.7006
 9540SOL    HW140082   1.035   4.579   0.998 -0.4291  0.7783  2.7313
 9540SOL    HW240083   1.077   4.658   0.877 -2.4595  3.8998 -0.1633
 9541SOL     OW40084   1.686   0.952   3.019 -0.4420  0.1802 -0.2041
 9541SOL    HW140085   1.645   0.897   3.085  0.2087  0.0998  0.1306
 9541SOL    HW240086   1.614   0.949   2.955  0.3263  1.8031 -1.1443
 9542SOL     OW40087   0.432   1.087  16.648 -0.1689 -0.2417 -0.6466
 9542SOL    HW140088   0.402   1.034  16.573 -0.1099 -0.2376 -0.6729
 9542SOL    HW240089   0.376   1.053  16.718 -2.1008  2.3175 -0.9449
 9543SOL     OW40090   2.317   2.660   0.667  0.2789  0.0728 -0.4486
 9543SOL    HW140091   2.354   2.681   0.581  2.1099 -3.9774 -0.6867
 9543SOL    HW240092   2.257   2.587   0.651  0.1898  0.1158 -0.3038
 9544SOL     OW40093   3.610   0.596   0.989  0.0782 -0.4377  0.3370
 9544SOL    HW140094   3.531   0.588   1.043 -0.6929  0.1849 -0.7078
 9544SOL    HW240095   3.674   0.564   1.052  0.0837 -2.7644 -0.8415
 9545SOL     OW40096   0.885   2.683  17.451  0.0390  0.1999 -0.2408
 9545SOL    HW140097   0.891   2.771  17.487 -2.7822 -0.8155  2.7625
 9545SOL    HW240098   0.921   2.621  17.516  0.1068  0.8905  0.3783
 9546SOL     OW40099   0.660   3.093   5.037  0.2162 -0.8263  0.1442
 9546SOL    HW140100   0.628   3.019   4.987 -1.4666  0.7671 -1.1551
 9546SOL    HW240101   0.597   3.102   5.109  0.4083  1.6360  0.0230
 9547SOL     OW40102   2.955   3.221  14.505  0.7775  0.2931 -0.4986
 9547SOL    HW140103   2.918   3.210  14.592  1.8270  0.0964 -0.0786
 9547SOL    HW240104   2.986   3.131  14.492  0.2797  0.0126  0.2661
 9548SOL     OW40105   4.170   4.490   7.828  0.5144 -0.1306  0.3284
 9548SOL    HW140106   4.239   4.535   7.781  1.2002  0.3882  1.8449
 9548SOL    HW240107   4.114   4.459   7.757 -0.5895  1.6201  0.4501
 9549SOL     OW40108   1.340   4.074   2.285  0.2438 -0.0611 -0.0165
 9549SOL    HW140109   1.277   4.044   2.351 -0.3648  1.5269  0.1223
 9549SOL    HW240110   1.301   4.154   2.249  1.2778 -0.0067 -0.9796
 9550SOL     OW40111   1.928   3.395   8.764 -0.7867  0.0754 -0.5780
 9550SOL    HW140112   1.950   3.437   8.682  1.1889  0.1188 -0.0132
 9550SOL    HW240113   1.906   3.305   8.739 -0.8336  0.0274 -0.3686
 9551SOL     OW40114   1.965   4.100   8.739  0.2980 -0.0638 -0.4997
 9551SOL    HW140115   1.990   4.179   8.786  2.2173  1.1654 -3.5600
 9551SOL    HW240116   2.013   4.113   8.658 -2.5998  1.0029 -2.0514
 9552SOL     OW40117   1.242   1.968   7.660  0.3567 -0.1527  0.4791
 9552SOL    HW140118   1.184   1.923   7.599 -1.5444  2.0175  0.6729
 9552SOL    HW240119   1.309   1.901   7.671 -0.2983 -0.5287  2.0693
 9553SOL     OW40120   2.284   1.080   0.723 -0.0766  0.6334 -0.7125
 9553SOL    HW140121   2.220   1.068   0.793  1.0770 -0.1098  0.2170
 9553SOL    HW240122   2.357   1.113   0.776  1.3388 -0.6981 -1.8544
 9554SOL     OW40123   4.677   1.719   4.971 -0.4145 -0.1257 -0.1784
 9554SOL    HW140124   4.632   1.651   5.022 -1.3208  0.8011  0.2511
 9554SOL    HW240125   4.618   1.793   4.983  0.0040  0.1301  0.3103
 9555SOL     OW40126   1.548   2.601   5.691 -0.1186 -0.0495  0.4363
 9555SOL    HW140127   1.592   2.654   5.758 -0.3419  0.7109 -0.0137
 9555SOL    HW240128   1.487   2.558   5.751 -1.1065 -0.5836 -0.9441
 9556SOL     OW40129   1.604   0.612   4.247  0.0855 -0.1576  0.4932
 9556SOL    HW140130   1.558   0.650   4.172 -0.1185  2.4696  1.9182
 9556SOL    HW240131   1.545   0.638   4.318 -0.7564  0.3855 -0.3948
 9557SOL     OW40132   0.330   1.505   6.978 -0.3385 -0.2705  0.1567
 9557SOL    HW140133   0.348   1.517   6.884 -1.6887  0.0725 -0.0539
 9557SOL    HW240134   0.422   1.493   7.004  0.0937 -1.3595 -1.7972
 9558SOL     OW40135   3.558   2.083  14.215 -0.5984  0.7683 -0.7247
 9558SOL    HW140136   3.554   2.105  14.308 -0.5985  0.3755 -0.6300
 9558SOL    HW240137   3.604   2.156  14.174  0.6023 -0.6677 -1.9064
 9559SOL     OW40138   3.816   2.536   8.531  0.4445  0.5344  0.3574
 9559SOL    HW140139   3.754   2.479   8.576  1.0886  0.6102  1.3525
 9559SOL    HW240140   3.882   2.540   8.601  0.9864  0.3562 -0.1419
 9560SOL     OW40141   3.128   2.271   7.441  0.2378 -0.3393 -0.4492
 9560SOL    HW140142   3.111   2.364   7.423 -1.2168 -0.1983  1.6746
 9560SOL    HW240143   3.198   2.285   7.505 -0.4421  0.4042  0.1337
 9561SOL     OW40144   1.186   2.545   6.435 -0.1717 -0.0065 -0.0648
 9561SOL    HW140145   1.162   2.507   6.519 -2.1357 -0.7691 -0.9499
 9561SOL    HW240146   1.206   2.638   6.446 -2.9478  0.5113  0.5304
 9562SOL     OW40147   2.704   0.444  12.744  0.4283 -0.3204 -0.2616
 9562SOL    HW140148   2.609   0.454  12.751  0.5962  0.1100  1.3957
 9562SOL    HW240149   2.711   0.349  12.746 -2.1535 -0.5192 -1.3523
 9563SOL     OW40150   1.680   0.102   5.339 -0.3220 -0.0683 -0.0941
 9563SOL    HW140151   1.587   0.104   5.317 -0.1971 -0.6783 -0.6759
 9563SOL    HW240152   1.720   0.114   5.253 -0.0968 -1.6275 -0.1944
 9564SOL     OW40153   0.476   1.171  11.233  0.2856  0.4295  0.3087
 9564SOL    HW140154   0.488   1.109  11.161 -1.9353 -2.1319  2.1761
 9564SOL    HW240155   0.557   1.158  11.282  1.7054  0.9812 -1.8530
 9565SOL     OW40156   2.976   3.814  12.796  0.6506  0.7575  0.1019
 9565SOL    HW140157   3.014   3.814  12.884  1.8694  1.3264 -0.4224
 9565SOL    HW240158   3.000   3.726  12.766 -0.5975  1.0023 -1.5725
 9566SOL     OW40159   3.192   2.727   9.244 -0.0983  0.0628  0.1979
 9566SOL    HW140160   3.113   2.768   9.209 -1.2327 -0.4450  2.1258
 9566SOL    HW240161   3.252   2.739   9.171  1.3870 -0.3792  1.3412
 9567SOL     OW40162   3.187   2.493  13.561  0.3459 -0.0299 -0.0421
 9567SOL    HW140163   3.127   2.544  13.616  0.9405  1.1491 -0.4697
 9567SOL    HW240164   3.143   2.509  13.477 -1.1733  0.6342  0.8831
 9568SOL     OW40165   3.449   4.426   7.274 -0.3991  0.2334  0.3385
 9568SOL    HW140166   3.391   4.501   7.266  0.9356  1.4080  1.4476
 9568SOL    HW240167   3.528   4.451   7.322  1.5315 -1.4098 -1.9840
   4.72430   4.72430  17.69878
